Membrane in water
40347
    1TMC1    C1    1   3.048   1.102  11.708  0.0897 -0.6459 -0.1388
    1TMC1    C2    2   3.128   1.085  11.821  0.0808  0.4403 -0.2574
    1TMC1    C3    3   3.202   1.187  11.855 -0.2356  0.0380 -0.3308
    1TMC1    C4    4   3.039   1.214  11.636 -0.2374 -0.1668 -0.1413
    1TMC1    C5    5   3.104   1.322  11.685 -0.2993 -0.2570 -0.0961
    1TMC1    C6    6   3.195   1.307  11.785 -0.3636  0.1792 -0.6354
    1TMC1     C    7   2.966   0.986  11.663  0.7099  0.0808  0.4713
    1TMC1     O    8   2.886   0.998  11.571 -0.4854  0.3847  0.4684
    1TMC1     H    9   3.136   0.990  11.874 -0.8711  2.8482  4.1872
    1TMC1    H1   10   2.980   1.218  11.545 -0.4112 -0.8568 -0.0593
    1TMC1    H2   11   3.282   1.372  11.789 -2.2174  2.6289 -0.3648
    1TMC1    C7   12   3.094   1.447  11.621 -0.2708 -0.0360  0.0922
    1TMC1    C8   13   3.322   1.162  11.937  0.6354 -0.8503  0.0169
    1TMC1    O1   14   3.160   1.548  11.646 -0.9429  0.1068  0.2150
    1TMC1    O2   15   3.367   1.252  12.009  0.2577  0.5127 -0.8146
    1TMC1    O3   16   2.973   1.453  11.565  0.3770  0.3723 -0.2133
    1TMC1    H3   17   2.908   1.379  11.562  0.4424  0.4275 -3.5055
    1TMC1    O5   18   3.363   1.031  11.922 -0.2305 -0.3498 -0.1887
    1TMC1    H5   19   3.314   0.968  11.866 -0.5064 -1.4609  1.2798
    2MPD2     C   20   2.846   0.501  11.664 -0.3701  0.2425  0.9863
    2MPD2    C1   21   2.770   0.613  11.642 -0.2600  0.5678  0.0108
    2MPD2    C2   22   2.829   0.737  11.640 -0.0795  0.3885 -0.6673
    2MPD2    C3   23   2.960   0.742  11.681 -0.1152  0.6311 -0.2053
    2MPD2    C4   24   3.035   0.624  11.714 -0.4143  0.1110  0.3662
    2MPD2    C5   25   2.972   0.504  11.705  0.7439  0.5700 -0.4072
    2MPD2     H   26   2.758   0.817  11.622 -0.7569  0.0487  0.4633
    2MPD2    H1   27   3.135   0.637  11.754 -2.0728  1.9493  4.0543
    2MPD2    H2   28   2.802   0.402  11.665  1.7941 -0.7434 -0.3654
    2MPD2    H3   29   3.030   0.416  11.730  0.1495 -0.3340 -2.2447
    2MPD2     N   30   3.024   0.869  11.705 -0.5278 -0.3945  0.0882
    2MPD2    H5   31   3.121   0.863  11.731 -1.4409 -0.0381  3.5208
    2MPD2    N1   32   2.637   0.616  11.605  0.0577 -0.5699  0.8560
    2MPD2    H7   33   2.598   0.704  11.575  0.4718 -0.8528 -0.4850
    3TMC1    C1   34   2.076   1.587  10.787 -0.2823  0.1895  0.0250
    3TMC1    C2   35   2.150   1.694  10.830 -0.8198 -0.6223 -0.0396
    3TMC1    C3   36   2.280   1.697  10.784  0.3307 -0.0024 -0.4413
    3TMC1    C4   37   2.120   1.494  10.695 -0.5867  0.4797 -0.5059
    3TMC1    C5   38   2.252   1.513  10.663  0.5884 -0.8074  0.3455
    3TMC1    C6   39   2.337   1.608  10.708 -1.2694 -0.1947  0.0455
    3TMC1     C   40   1.944   1.569  10.845 -1.2368  0.4371  0.4634
    3TMC1     O   41   1.904   1.450  10.840 -0.1520  0.1639 -0.1688
    3TMC1     H   42   2.113   1.765  10.903  1.2995 -2.2511  2.6375
    3TMC1    H1   43   2.063   1.409  10.659  0.4317  0.4766 -2.1677
    3TMC1    H2   44   2.437   1.610  10.666 -1.0890  0.9708  0.5316
    3TMC1    C7   45   2.292   1.463  10.536 -0.7928 -0.4461  0.2259
    3TMC1    C8   46   2.362   1.803  10.839  0.3492  0.6707 -0.6419
    3TMC1    O1   47   2.407   1.444  10.499  0.4852  0.4703 -0.2445
    3TMC1    O2   48   2.338   1.855  10.943 -0.3204  0.0266  0.1829
    3TMC1    O3   49   2.182   1.491  10.457 -0.1520  0.0649  0.6177
    3TMC1    H3   50   2.114   1.544  10.504  1.1544  1.1995  1.2253
    3TMC1    O5   51   2.469   1.823  10.763  0.0276  0.0581  0.4991
    3TMC1    H5   52   2.465   1.787  10.671  1.6460  1.1653 -0.0058
    4MPD2     C   53   1.580   1.698  11.187  0.1308 -0.0705  0.8351
    4MPD2    C1   54   1.645   1.813  11.146  0.3098 -0.0207  0.0472
    4MPD2    C2   55   1.754   1.800  11.062  0.8353 -0.0952 -0.3540
    4MPD2    C3   56   1.785   1.683  10.997 -0.0832  0.1309  0.2038
    4MPD2    C4   57   1.721   1.564  11.041 -1.0342  0.1833 -0.0402
    4MPD2    C5   58   1.623   1.575  11.139  0.3205  0.0843 -0.0813
    4MPD2     H   59   1.804   1.889  11.028 -1.9667  2.1437  1.3711
    4MPD2    H1   60   1.750   1.464  11.010  1.0683  0.2174  1.8399
    4MPD2    H2   61   1.501   1.701  11.262 -0.7054 -1.9021  0.0394
    4MPD2    H3   62   1.581   1.488  11.188  0.1183 -0.3052 -0.9559
    4MPD2     N   63   1.880   1.686  10.893  0.6053 -0.3894 -0.0780
    4MPD2    H5   64   1.928   1.774  10.877 -1.9375  1.2628  1.4007
    4MPD2    N1   65   1.618   1.937  11.212 -0.2059 -0.4365  0.3975
    4MPD2    H7   66   1.654   2.022  11.169 -0.5234  0.0077  1.0146
    5TCq1    O1   67   1.190   3.934  11.939  0.3516 -0.7645 -0.2598
    5TCq1    C1   68   1.268   3.864  11.850  0.1156 -0.6250  0.0350
    5TCq1    O2   69   1.234   3.798  11.752  0.0725  0.5137  0.1109
    5TCq1    C2   70   1.401   3.859  11.913 -0.0361 -0.0454 -0.5382
    5TCq1    C3   71   1.414   3.833  12.047  0.3810  0.2541 -0.4777
    5TCq1    C4   72   1.541   3.853  12.103  0.2155 -0.1037 -0.2494
    5TCq1    C5   73   1.647   3.876  12.018 -0.5040 -0.3522  0.8781
    5TCq1    C6   74   1.630   3.889  11.883 -0.6876 -0.9473 -0.7960
    5TCq1    C7   75   1.503   3.880  11.830 -0.2047  0.8873 -0.2831
    5TCq1    C8   76   1.744   3.902  11.787  0.6695 -0.6994  0.0586
    5TCq1    O4   77   1.725   3.888  11.667  0.1974  0.1926 -0.1119
    5TCq1    C9   78   1.566   3.852  12.246 -0.3908  0.4204 -0.1397
    5TCq1    O5   79   1.687   3.873  12.281 -1.1610 -0.0119  0.2380
    5TCq1    O6   80   1.471   3.840  12.331 -0.9781  0.3903  0.4204
    5TCq1    H1   81   1.252   3.990  11.991 -0.9132 -0.7443  1.2260
    5TCq1    H2   82   1.329   3.809  12.109  0.7261  0.3375  0.0303
    5TCq1    H3   83   1.749   3.880  12.055 -1.0050 -0.7585  2.2934
    5TCq1    H4   84   1.485   3.886  11.723  1.8221 -3.1998 -0.8574
    6MPD2     C   85   2.098   3.981  11.875  0.0789  1.1506  0.0648
    6MPD2    C1   86   1.998   3.919  11.799  0.3873  0.7052  0.2720
    6MPD2    C2   87   2.028   3.862  11.676 -0.0792  0.3254 -0.6159
    6MPD2    C3   88   2.159   3.861  11.627  0.0973 -0.1698  0.5161
    6MPD2    C4   89   2.254   3.932  11.697  0.4074 -0.0572  0.3251
    6MPD2    C5   90   2.220   3.994  11.814  0.3326 -0.3464  1.2939
    6MPD2     H   91   1.948   3.821  11.615  0.0074 -0.2309 -0.3496
    6MPD2    H1   92   2.355   3.945  11.661  0.3491 -0.9944 -0.1783
    6MPD2    H2   93   2.069   4.030  11.967  1.8825  0.9290  0.7570
    6MPD2    H3   94   2.297   4.057  11.858  0.8526 -0.9694  1.2836
    6MPD2     N   95   2.185   3.807  11.497 -0.5913 -0.3673  0.4051
    6MPD2    H5   96   2.114   3.744  11.459 -2.1552  0.9756  1.0893
    6MPD2    N1   97   1.864   3.922  11.854  0.1965  0.4895  0.1710
    6MPD2    H7   98   1.851   3.941  11.953  0.7522 -0.6719  0.4730
    7TCq1    O1   99   4.421   3.167  13.106  0.7007 -0.2818  0.1862
    7TCq1    C1  100   4.427   3.103  13.226  0.3664 -0.3649  0.4072
    7TCq1    O2  101   4.497   3.140  13.318 -0.2334 -0.6081  0.1253
    7TCq1    C2  102   4.397   2.957  13.211 -0.0994  0.1135 -0.0487
    7TCq1    C3  103   4.305   2.907  13.119  1.1477 -0.2916  0.5738
    7TCq1    C4  104   4.307   2.775  13.110 -0.3772 -0.4009  0.0113
    7TCq1    C5  105   4.395   2.692  13.171  0.2727 -0.1059 -0.0181
    7TCq1    C6  106   4.480   2.746  13.265 -0.0902  0.3441  0.2621
    7TCq1    C7  107   4.490   2.882  13.277 -0.0143 -0.1282  0.0385
    7TCq1    C8  108   4.570   2.653  13.331  0.6523  0.1380 -0.4179
    7TCq1    O4  109   4.591   2.546  13.278  0.2033  0.0503 -0.1316
    7TCq1    C9  110   4.202   2.710  13.033  0.5008 -0.2765 -0.4552
    7TCq1    O5  111   4.226   2.598  12.984  0.1449  0.1758 -0.5389
    7TCq1    O6  112   4.105   2.784  12.997 -0.6838  0.1827  0.0559
    7TCq1    H1  113   4.367   3.125  13.035  0.0350  1.9666 -0.6454
    7TCq1    H2  114   4.231   2.967  13.068 -0.0065  0.3693  3.0101
    7TCq1    H3  115   4.387   2.587  13.147  0.5153 -0.4023  1.2482
    7TCq1    H4  116   4.559   2.926  13.348 -0.2270  0.5350 -0.1664
    8MPD2     C  117   0.158   2.536  13.698  0.1585 -0.2638  0.4512
    8MPD2    C1  118   0.121   2.458  13.586 -0.2381 -0.4452 -0.4784
    8MPD2    C2  119   0.038   2.523  13.498 -0.0967  0.0767 -0.8334
    8MPD2    C3  120   4.732   2.655  13.520 -0.6280  0.1460 -0.7755
    8MPD2    C4  121   0.048   2.731  13.621 -0.1876 -0.4256 -0.6219
    8MPD2    C5  122   0.124   2.664  13.717 -0.0356  0.1018  0.0036
    8MPD2     H  123   4.730   2.466  13.418 -0.6759  0.6830 -0.9324
    8MPD2    H1  124   0.016   2.832  13.643  2.8001  0.5595 -0.9152
    8MPD2    H2  125   0.199   2.481  13.782 -1.8014 -0.9093  0.9988
    8MPD2    H3  126   0.147   2.716  13.809  0.1396 -0.3624  0.2201
    8MPD2     N  127   4.634   2.714  13.440 -0.2473  0.0411  0.9201
    8MPD2    H5  128   4.612   2.812  13.454 -0.6739  0.1377 -0.3949
    8MPD2    N1  129   0.159   2.325  13.572 -0.1602 -0.0449 -0.0242
    8MPD2    H7  130   0.218   2.293  13.648 -0.2113  0.4086  0.2076
    9TMC1    C1  131   2.538   2.143  10.790 -0.2736  0.2242 -0.4429
    9TMC1    C2  132   2.402   2.144  10.789  1.1931 -0.5687  0.3007
    9TMC1    C3  133   2.339   2.119  10.670 -0.0128  0.4678  0.0098
    9TMC1    C4  134   2.615   2.146  10.679  0.0625 -0.8104 -0.6207
    9TMC1    C5  135   2.549   2.116  10.565 -0.2355 -0.5245  0.1256
    9TMC1    C6  136   2.415   2.107  10.552  0.0613  0.1479 -0.3120
    9TMC1     C  137   2.606   2.154  10.920  0.3381 -0.5023 -0.1136
    9TMC1     O  138   2.706   2.221  10.935 -0.6051 -0.0048  0.6489
    9TMC1     H  139   2.339   2.149  10.877 -2.9219  0.7530 -2.7485
    9TMC1    H1  140   2.721   2.168  10.685 -0.0542  0.3362 -2.7224
    9TMC1    H2  141   2.372   2.101  10.453 -0.7846 -0.9641  0.1159
    9TMC1    C7  142   2.628   2.104  10.442 -0.2247  0.3759 -0.0788
    9TMC1    C8  143   2.204   2.165  10.646  0.8013  0.2656 -0.0438
    9TMC1    O1  144   2.575   2.125  10.333 -0.1648 -0.2997 -0.0490
    9TMC1    O2  145   2.126   2.087  10.602 -0.1413  0.7215 -1.1099
    9TMC1    O3  146   2.759   2.123  10.468 -0.2669 -0.1877 -0.2371
    9TMC1    H3  147   2.796   2.070  10.541  0.5161 -1.1545 -1.3377
    9TMC1    O5  148   2.190   2.301  10.664 -0.2504  0.0383  0.0290
    9TMC1    H5  149   2.272   2.353  10.680 -0.1183  0.1907 -1.1134
   10MPD2     C  150   2.616   2.195  11.219  0.1859 -0.3475  0.0807
   10MPD2    C1  151   2.529   2.108  11.156  0.1562  0.1722 -0.0482
   10MPD2    C2  152   2.450   2.022  11.238 -0.5620  0.2293  1.4198
   10MPD2    C3  153   2.461   2.027  11.377  0.6145 -0.6963  0.5238
   10MPD2    C4  154   2.542   2.124  11.433  0.2383 -0.3722  0.6499
   10MPD2    C5  155   2.610   2.208  11.350  0.3833  1.1736  0.2791
   10MPD2     H  156   2.394   1.944  11.186  1.9388 -1.4166  1.1952
   10MPD2    H1  157   2.555   2.129  11.541  0.3728  0.9828  0.5625
   10MPD2    H2  158   2.692   2.249  11.163  1.4048 -1.9862  0.1801
   10MPD2    H3  159   2.678   2.277  11.399 -0.7591  1.1197  1.9605
   10MPD2     N  160   2.403   1.932  11.470  0.2396 -0.1917 -0.8554
   10MPD2    H5  161   2.420   1.941  11.569  1.4568 -0.9813 -0.9919
   10MPD2    N1  162   2.532   2.086  11.014 -0.3054 -0.2449 -0.3199
   10MPD2    H7  163   2.465   2.018  10.980  1.5695 -2.0508 -0.4591
   11TCq1    O1  164   2.837   1.351  14.244  0.0280  0.2534  0.2329
   11TCq1    C1  165   2.962   1.398  14.271 -0.7469  0.6543  0.0552
   11TCq1    O2  166   2.997   1.442  14.382  0.2966  0.3193 -0.2743
   11TCq1    C2  167   3.050   1.326  14.182 -0.0385 -0.6374 -0.4794
   11TCq1    C3  168   3.143   1.247  14.240 -0.1292  0.4501  0.0277
   11TCq1    C4  169   3.212   1.158  14.164 -0.8826  0.1947  0.1693
   11TCq1    C5  170   3.194   1.151  14.030  0.7189  0.1361  0.0592
   11TCq1    C6  171   3.104   1.238  13.971 -0.4886 -0.7241  0.1779
   11TCq1    C7  172   3.025   1.320  14.042  0.5643  0.4611  0.8403
   11TCq1    C8  173   3.100   1.252  13.830  0.1486  0.4976 -0.7760
   11TCq1    O4  174   3.052   1.362  13.796 -0.3494  0.2381 -0.3811
   11TCq1    C9  175   3.321   1.083  14.216 -0.2181 -0.6398  0.5164
   11TCq1    O5  176   3.306   1.038  14.332  0.5129 -0.4004  0.4849
   11TCq1    O6  177   3.418   1.069  14.143  0.2015  0.0115  0.2876
   11TCq1    H1  178   2.829   1.313  14.153  0.5867  0.0767  0.2553
   11TCq1    H2  179   3.164   1.256  14.346 -1.0949 -0.3636  0.2945
   11TCq1    H3  180   3.258   1.082  13.976  1.1510  0.3891  0.2503
   11TCq1    H4  181   2.958   1.390  13.993 -0.4588 -1.3230 -0.2948
   12MPD2     C  182   3.002   1.196  13.555 -0.2178  0.7248  0.4755
   12MPD2    C1  183   3.058   1.101  13.639  0.2760 -0.0440  0.2118
   12MPD2    C2  184   3.070   0.974  13.594 -0.2685 -0.1283  0.1862
   12MPD2    C3  185   3.035   0.936  13.469  0.4963  0.1945 -0.3025
   12MPD2    C4  186   2.990   1.030  13.378 -0.3254  0.2259  0.6184
   12MPD2    C5  187   2.965   1.159  13.428 -0.0335  0.1420 -0.2228
   12MPD2     H  188   3.105   0.899  13.663  3.7298  0.7485 -0.8980
   12MPD2    H1  189   2.976   1.013  13.272 -1.8171 -0.7036  0.9584
   12MPD2    H2  190   2.999   1.301  13.582 -0.1503  0.6312  0.8473
   12MPD2    H3  191   2.937   1.243  13.366 -0.1064 -0.2431 -0.7191
   12MPD2     N  192   3.055   0.805  13.428  0.0458 -0.2297  0.2408
   12MPD2    H5  193   3.023   0.787  13.334  2.8246  0.5870 -0.8784
   12MPD2    N1  194   3.109   1.131  13.769  0.1047  0.2596 -0.4349
   12MPD2    H7  195   3.135   1.052  13.827 -1.6172 -0.5890 -0.8026
   13TCq1    O1  196   2.944   2.190  11.112  0.0118 -0.0500  0.2464
   13TCq1    C1  197   2.962   2.063  11.148  0.6014  0.2638  0.7370
   13TCq1    O2  198   2.999   2.025  11.259 -0.7646 -0.1034  0.1120
   13TCq1    C2  199   2.898   1.973  11.052  0.0359  0.1401  0.1207
   13TCq1    C3  200   2.910   1.980  10.914 -0.2063 -0.1141 -0.4804
   13TCq1    C4  201   2.842   1.883  10.835 -0.5780  0.3835 -0.6069
   13TCq1    C5  202   2.779   1.777  10.895 -0.5795 -0.2162  0.3587
   13TCq1    C6  203   2.763   1.771  11.030 -0.2028 -0.6289 -0.0272
   13TCq1    C7  204   2.814   1.877  11.104  0.1843 -0.1399 -0.8438
   13TCq1    C8  205   2.648   1.708  11.084  0.2211  0.0649 -0.7707
   13TCq1    O4  206   2.601   1.735  11.196 -0.0840  0.4117 -0.4691
   13TCq1    C9  207   2.851   1.887  10.693  0.3204 -0.2123  0.4494
   13TCq1    O5  208   2.906   1.987  10.643 -0.3803  0.3300  0.7375
   13TCq1    O6  209   2.803   1.790  10.631  0.5759 -0.6873  0.4855
   13TCq1    H1  210   2.890   2.195  11.031  0.3654 -2.6814 -0.1641
   13TCq1    H2  211   2.964   2.064  10.872  0.5654 -1.1808 -1.6266
   13TCq1    H3  212   2.745   1.699  10.828  1.8655  0.4377 -1.6726
   13TCq1    H4  213   2.804   1.872  11.212  0.5526 -0.1812 -0.8121
   14MPD2     C  214   2.469   1.408  10.942 -0.7370  0.4487  0.1314
   14MPD2    C1  215   2.489   1.528  11.018  0.0601 -0.1007 -0.1600
   14MPD2    C2  216   2.380   1.580  11.094  0.0092  1.0934  0.1299
   14MPD2    C3  217   2.258   1.509  11.108 -1.0395 -0.0903  0.3927
   14MPD2    C4  218   2.242   1.391  11.045 -0.6626 -0.1533 -0.4421
   14MPD2    C5  219   2.347   1.351  10.962 -0.1220  0.5945 -0.2958
   14MPD2     H  220   2.387   1.677  11.143  0.3221  1.2783 -0.2838
   14MPD2    H1  221   2.148   1.337  11.038 -1.1158  0.6410 -0.5624
   14MPD2    H2  222   2.544   1.364  10.877 -2.2811 -1.7637 -0.1583
   14MPD2    H3  223   2.325   1.265  10.900  1.2266  0.5990 -0.7839
   14MPD2     N  224   2.159   1.566  11.187  1.0753 -0.1001 -0.1942
   14MPD2    H5  225   2.179   1.655  11.231  2.6037 -0.7836  0.4776
   14MPD2    N1  226   2.615   1.602  11.006 -0.2862 -0.0994 -0.2116
   14MPD2    H7  227   2.686   1.566  10.942 -1.1401 -1.0398 -0.6363
   15TCq1    O1  228   4.405   0.565   1.981 -0.0695  0.0148 -0.2187
   15TCq1    C1  229   4.474   0.675   1.976  0.0843 -0.8845 -0.6721
   15TCq1    O2  230   4.474   0.762   2.062 -0.2841 -0.1339  0.0177
   15TCq1    C2  231   4.602   0.641   1.918  0.5088  0.1544  0.1156
   15TCq1    C3  232   4.715   0.630   1.993 -0.0791  1.7103 -0.3802
   15TCq1    C4  233   0.081   0.559   1.947 -0.1396 -0.5100 -0.9086
   15TCq1    C5  234   0.079   0.519   1.815 -0.4425 -0.3569  0.0864
   15TCq1    C6  235   4.701   0.544   1.735 -0.1349  0.4640 -0.4333
   15TCq1    C7  236   4.588   0.600   1.786 -0.1421  0.2554 -0.2026
   15TCq1    C8  237   4.696   0.465   1.616  0.7263  0.7313 -0.4260
   15TCq1    O4  238   0.063   0.434   1.559 -0.4024  0.3343 -0.5144
   15TCq1    C9  239   0.205   0.545   2.021 -0.2539  0.9872  0.2821
   15TCq1    O5  240   0.233   0.617   2.127 -0.4277  0.1953  0.5892
   15TCq1    O6  241   0.283   0.463   1.968  0.5189  0.2580  0.3861
   15TCq1    H1  242   4.453   0.491   1.937  0.7015  0.5038 -0.2128
   15TCq1    H2  243   4.713   0.645   2.100  3.5752  0.0551 -0.1111
   15TCq1    H3  244   0.166   0.469   1.774 -0.5535 -1.1414  0.8166
   15TCq1    H4  245   4.503   0.628   1.726 -0.2182 -2.7090 -1.5003
   16MPD2     C  246   4.416   0.414   1.389  0.4863  0.2113  0.0135
   16MPD2    C1  247   4.526   0.377   1.459  0.2659 -1.4783  0.1899
   16MPD2    C2  248   4.614   0.281   1.410 -0.4411  0.2516 -0.7449
   16MPD2    C3  249   4.577   0.215   1.292  0.4210  0.0284 -0.1484
   16MPD2    C4  250   4.462   0.252   1.225  0.3146 -0.0641 -0.0965
   16MPD2    C5  251   4.380   0.350   1.270  0.0488 -0.1138  0.5487
   16MPD2     H  252   4.698   0.254   1.472 -0.5280  1.1197 -0.2514
   16MPD2    H1  253   4.418   0.194   1.145  1.0651 -2.4248  1.1977
   16MPD2    H2  254   4.354   0.495   1.425  0.6457  0.2748  0.1406
   16MPD2    H3  255   4.290   0.383   1.219  0.1789 -2.6465 -1.2761
   16MPD2     N  256   4.662   0.118   1.236 -0.0935 -0.0260  0.1532
   16MPD2    H5  257   0.015   0.106   1.281  0.2063 -1.1672 -0.7413
   16MPD2    N1  258   4.566   0.447   1.573  0.6725  0.0791 -0.1665
   16MPD2    H7  259   4.493   0.485   1.632 -1.9717  1.3322 -4.2290
   17TMC1    C1  260   1.495   0.092  10.561 -0.2400 -0.5084 -0.2698
   17TMC1    C2  261   1.440   0.176  10.656 -0.4705 -0.0471  0.3795
   17TMC1    C3  262   1.344   0.130  10.738  0.2860 -0.1158  0.2782
   17TMC1    C4  263   1.437   4.707  10.535  0.4553  0.1325  0.1514
   17TMC1    C5  264   1.331   4.667  10.611  0.4103 -0.5196  0.4929
   17TMC1    C6  265   1.277   0.009  10.713 -0.2927 -0.3549 -0.1619
   17TMC1     C  266   1.596   0.151  10.468 -0.6325 -0.1064  0.0617
   17TMC1     O  267   1.608   0.100  10.357  0.3289  0.1910 -0.2704
   17TMC1     H  268   1.478   0.277  10.663  2.1726 -1.1195  1.5946
   17TMC1    H1  269   1.490   4.633  10.477 -2.6153 -2.4964  0.6824
   17TMC1    H2  270   1.196   4.714  10.778  0.3515  0.7035  1.1728
   17TMC1    C7  271   1.264   4.540  10.586  0.1450  0.0291 -0.0184
   17TMC1    C8  272   1.310   0.201  10.857  0.0823  0.3248  0.3643
   17TMC1    O1  273   1.174   4.503  10.660  0.0402  0.0195  0.8744
   17TMC1    O2  274   1.213   0.184  10.924  0.4680 -0.4553 -0.5609
   17TMC1    O3  275   1.321   4.463  10.489  0.4642 -0.1698 -0.4991
   17TMC1    H3  276   1.378   4.501  10.419 -2.0045  0.3441 -2.2398
   17TMC1    O5  277   1.423   0.255  10.902  0.7593  0.5903 -0.1317
   17TMC1    H5  278   1.508   0.242  10.855  0.9449  0.3009  0.2806
   18MPD2     C  279   1.842   0.311  10.352 -0.3779  0.3825 -0.0176
   18MPD2    C1  280   1.804   0.307  10.488 -0.4690  0.7621 -0.0349
   18MPD2    C2  281   1.882   0.380  10.577 -0.6597  0.4610 -1.0406
   18MPD2    C3  282   1.989   0.449  10.529 -0.1804 -0.6320 -0.2570
   18MPD2    C4  283   2.032   0.441  10.402  0.7343 -0.0268  0.0736
   18MPD2    C5  284   1.947   0.380  10.312 -0.4228  0.2511 -0.5170
   18MPD2     H  285   1.854   0.386  10.682 -0.5775  0.7865 -1.0389
   18MPD2    H1  286   2.119   0.487  10.358  0.2301  1.7543  0.9749
   18MPD2    H2  287   1.774   0.264  10.282 -0.9615  1.5645 -0.2425
   18MPD2    H3  288   1.970   0.376  10.206  0.8379 -1.4563 -0.1750
   18MPD2     N  289   2.079   0.524  10.601 -0.0996  0.8562 -0.2555
   18MPD2    H5  290   2.145   0.574  10.542 -0.0515 -0.5282 -1.3715
   18MPD2    N1  291   1.678   0.249  10.531 -0.0924  0.0953 -0.4641
   18MPD2    H7  292   1.657   0.269  10.628  0.6237  0.3237 -0.3586
   19TMC2    C1  293   3.941   1.203  14.278 -0.2377  0.1669 -0.3216
   19TMC2    C2  294   3.849   1.297  14.233  0.4615 -0.6369  0.7547
   19TMC2    C3  295   3.741   1.251  14.164 -0.1340  0.1385 -0.5863
   19TMC2    C4  296   3.914   1.065  14.275  0.2194 -0.6289  0.6781
   19TMC2    C5  297   3.796   1.028  14.210 -0.4456 -0.1849  0.4702
   19TMC2    C6  298   3.705   1.119  14.151  0.0651  0.2038  0.4746
   19TMC2     C  299   4.054   1.263  14.356  0.5511 -0.1881  0.2681
   19TMC2     O  300   4.041   1.380  14.387 -0.2765  0.5510 -0.3533
   19TMC2     H  301   3.858   1.405  14.228 -2.5124 -0.4512 -1.1333
   19TMC2    H1  302   3.985   0.991  14.311  0.1763 -1.4329 -0.8667
   19TMC2    H2  303   3.628   1.087  14.081  0.4315  0.4845 -0.0582
   19TMC2    C7  304   3.777   0.885  14.197  0.5284 -0.5619  1.0583
   19TMC2    C8  305   3.649   1.354  14.117  0.6994 -0.5102 -0.2445
   19TMC2    O1  306   3.870   0.806  14.205  0.1223 -0.4412 -0.5685
   19TMC2    O2  307   3.687   1.464  14.089  0.4404  0.1020 -0.2346
   19TMC2    O5  308   3.520   1.310  14.090 -0.0614 -0.5292  0.2839
   19TMC2    H5  309   3.498   1.217  14.115 -0.6869 -0.4882 -0.1056
   20MPD2     C  310   4.305   1.331  14.496 -0.8287 -0.1056  0.0513
   20MPD2    C1  311   4.279   1.214  14.431  0.2272  0.1282  0.2153
   20MPD2    C2  312   4.369   1.107  14.453 -0.2443  0.7997  0.2844
   20MPD2    C3  313   4.469   1.116  14.545  0.6900 -0.0204 -0.2879
   20MPD2    C4  314   4.494   1.239  14.606 -0.1276 -0.1475  0.2743
   20MPD2    C5  315   4.411   1.341  14.587 -0.6702  0.7355 -0.2698
   20MPD2     H  316   4.358   1.015  14.396 -1.0894 -0.4047  2.4075
   20MPD2    H1  317   4.581   1.246  14.670 -0.0507 -0.0717  0.1621
   20MPD2    H2  318   4.235   1.413  14.496  0.9189  1.3593 -1.7471
   20MPD2    H3  319   4.421   1.434  14.640 -0.6190  0.8321 -0.4489
   20MPD2     N  320   4.552   1.008  14.582 -0.0911  0.0854  0.1215
   20MPD2    H5  321   4.645   1.014  14.620  0.2707 -2.5972 -0.3489
   20MPD2    N1  322   4.165   1.184  14.357 -0.0078  0.2777 -0.4156
   20MPD2    H7  323   4.147   1.094  14.314  1.3253 -0.5349  0.7378
   21TMC2    C1  324   1.861   1.244  13.991 -0.0467  0.5127  0.4328
   21TMC2    C2  325   1.758   1.237  13.896 -0.2783  0.7824  0.7717
   21TMC2    C3  326   1.627   1.261  13.938 -0.3983 -1.0884 -0.0163
   21TMC2    C4  327   1.841   1.283  14.116  0.2912 -0.6938 -0.5662
   21TMC2    C5  328   1.709   1.315  14.153  0.6346  0.1771 -0.1135
   21TMC2    C6  329   1.601   1.286  14.070  0.7938  0.0093  0.3910
   21TMC2     C  330   1.991   1.222  13.935 -0.1104  0.0334  0.7767
   21TMC2     O  331   2.070   1.152  13.994  0.3592  0.0213 -0.5457
   21TMC2     H  332   1.775   1.199  13.795  1.1420 -2.0208  2.0601
   21TMC2    H1  333   1.927   1.321  14.171  0.0272  1.0126 -1.3257
   21TMC2    H2  334   1.500   1.292  14.109  1.1233  0.0032  1.2420
   21TMC2    C7  335   1.686   1.388  14.278 -0.3709 -0.3652  0.7552
   21TMC2    C8  336   1.521   1.229  13.846 -0.0789 -0.3280  1.1331
   21TMC2    O1  337   1.783   1.408  14.354 -0.6322  0.2401 -0.1068
   21TMC2    O2  338   1.533   1.241  13.725  0.8933 -0.1073  0.3959
   21TMC2    O5  339   1.471   1.112  13.898 -0.1789  0.3237  0.4953
   21TMC2    H5  340   1.457   1.103  13.995 -2.6126  0.3634  0.1444
   22MPD2     C  341   2.306   1.262  13.536  0.5816  0.3763  0.0337
   22MPD2    C1  342   2.322   1.201  13.658  0.4193 -0.1581  0.1549
   22MPD2    C2  343   2.219   1.204  13.751 -0.5006 -0.1001  0.5895
   22MPD2    C3  344   2.114   1.283  13.732 -0.3362  0.1296  0.8331
   22MPD2    C4  345   2.106   1.360  13.618 -0.3810  0.1176  0.2858
   22MPD2    C5  346   2.198   1.345  13.520  0.1193  0.3401 -0.3141
   22MPD2     H  347   2.236   1.133  13.831 -0.1875 -0.4182  0.2412
   22MPD2    H1  348   2.033   1.438  13.601  0.0741  0.6683  0.8968
   22MPD2    H2  349   2.386   1.264  13.462 -0.5841 -2.2578 -1.2815
   22MPD2    H3  350   2.191   1.401  13.428 -1.4932 -1.6439 -1.4155
   22MPD2     N  351   2.004   1.298  13.821 -0.6778 -0.1878 -0.2763
   22MPD2    H5  352   1.936   1.367  13.789  0.3586 -0.0328 -2.1600
   22MPD2    N1  353   2.439   1.127  13.691 -0.6893 -0.2718 -0.4464
   22MPD2    H7  354   2.445   1.095  13.787 -1.5304 -0.5667 -0.4868
   23TMC2    C1  355   2.836   2.433  14.509  0.6252  0.6670  0.0144
   23TMC2    C2  356   2.843   2.532  14.419 -0.1229 -0.0047 -0.4876
   23TMC2    C3  357   2.720   2.578  14.370  0.0890 -0.2849  0.1550
   23TMC2    C4  358   2.710   2.381  14.558  0.1518  0.2047  0.0202
   23TMC2    C5  359   2.592   2.435  14.504  0.0379  0.1374  0.0314
   23TMC2    C6  360   2.599   2.534  14.410  0.4139 -0.1943 -0.4447
   23TMC2     C  361   2.953   2.379  14.577 -0.2458  0.0295  0.0456
   23TMC2     O  362   2.936   2.318  14.683 -0.4298  0.6901 -0.6229
   23TMC2     H  363   2.936   2.581  14.392  0.6184  0.2445  2.4954
   23TMC2    H1  364   2.719   2.305  14.634  0.7973  1.1255  0.8714
   23TMC2    H2  365   2.512   2.596  14.390  1.4499  1.7539  1.0886
   23TMC2    C7  366   2.467   2.401  14.561 -0.4215 -0.3093 -0.4028
   23TMC2    C8  367   2.713   2.699  14.283 -0.3698 -0.2982  0.2853
   23TMC2    O1  368   2.458   2.321  14.655  0.1025  0.1327  0.1082
   23TMC2    O2  369   2.617   2.776  14.279  0.8719  0.1131 -0.2343
   23TMC2    O5  370   2.839   2.732  14.236 -0.2555 -0.1985  0.3084
   23TMC2    H5  371   2.898   2.655  14.248  0.1636 -0.3831 -2.9663
   24MPD2     C  372   3.449   2.385  14.661  0.0531 -0.4282  0.1536
   24MPD2    C1  373   3.347   2.359  14.745 -0.2545 -0.4572  0.7200
   24MPD2    C2  374   3.218   2.374  14.697 -0.2096  0.1060 -0.1906
   24MPD2    C3  375   3.199   2.416  14.565  0.5333  1.4358 -0.0993
   24MPD2    C4  376   3.302   2.432  14.480 -0.4446  0.4842  0.3164
   24MPD2    C5  377   3.431   2.426  14.530  0.4319  0.2488  0.5645
   24MPD2     H  378   3.133   2.370  14.764  1.0891  2.9699  1.6656
   24MPD2    H1  379   3.294   2.467  14.377 -1.0131 -1.4839 -0.2968
   24MPD2    H2  380   3.555   2.380  14.684  0.2192 -1.9200 -0.8687
   24MPD2    H3  381   3.519   2.441  14.470 -0.3189  1.4476 -0.2381
   24MPD2     N  382   3.069   2.423  14.514  0.4574 -0.2807 -0.6511
   24MPD2    H5  383   3.065   2.445  14.415  0.7175 -2.0859 -1.0647
   24MPD2    N1  384   3.370   2.311  14.875 -0.1199 -0.2613  0.0354
   24MPD2    H7  385   3.286   2.277  14.921 -0.0626 -0.3143  0.1018
   25TMC2    C1  386   1.703   0.192  11.416  0.2516 -0.5117  0.6954
   25TMC2    C2  387   1.728   0.324  11.365 -0.2430 -0.3369  0.4245
   25TMC2    C3  388   1.690   0.433  11.436 -0.7355 -0.1349 -0.0250
   25TMC2    C4  389   1.666   0.178  11.543  0.4882 -0.3804  0.3018
   25TMC2    C5  390   1.652   0.292  11.619  0.1477  0.2354 -0.1513
   25TMC2    C6  391   1.663   0.419  11.568 -0.0393  0.4375  0.3659
   25TMC2     C  392   1.773   0.078  11.356 -0.0816 -0.4604  0.6625
   25TMC2     O  393   1.866   0.115  11.286  0.2601  0.2939 -0.0549
   25TMC2     H  394   1.775   0.342  11.269 -0.9195 -1.1485 -0.0606
   25TMC2    H1  395   1.646   0.084  11.593  1.4833 -0.1518  1.1152
   25TMC2    H2  396   1.640   0.510  11.622  1.0187 -0.2818  2.0243
   25TMC2    C7  397   1.628   0.268  11.760 -0.1025  0.2879 -0.1128
   25TMC2    C8  398   1.741   0.561  11.393 -0.5680 -0.5030  0.1162
   25TMC2    O1  399   1.608   0.152  11.797  0.2447  0.1898  0.1346
   25TMC2    O2  400   1.753   0.589  11.273  0.1688 -0.3128  0.2595
   25TMC2    O5  401   1.813   0.628  11.485 -0.0011  0.3249  0.4128
   25TMC2    H5  402   1.789   0.603  11.577  1.0013 -1.2463  0.2470
   26MPD2     C  403   1.836   4.356  11.189 -0.5443 -0.7681  0.6532
   26MPD2    C1  404   1.698   4.370  11.197 -0.1728  0.3989  0.3538
   26MPD2    C2  405   1.655   4.480  11.274  0.9090 -0.0957  0.0995
   26MPD2    C3  406   1.747   4.581  11.312  0.0734  0.3407  0.0022
   26MPD2    C4  407   1.883   4.559  11.295  1.1852  0.1764  0.1327
   26MPD2    C5  408   1.926   4.441  11.245  0.0917 -0.4336 -0.2022
   26MPD2     H  409   1.551   4.503  11.292  0.4394 -0.9608 -1.5779
   26MPD2    H1  410   1.955   4.628  11.336  2.9672 -1.3371 -0.4692
   26MPD2    H2  411   1.872   4.265  11.142  0.3322 -0.0310 -0.0978
   26MPD2    H3  412   2.031   4.413  11.245  0.3798  0.6302  2.4055
   26MPD2     N  413   1.702   4.700  11.363 -0.1780 -0.0641 -0.2772
   26MPD2    H5  414   1.606   4.705  11.397 -0.0781 -2.9985  0.3464
   26MPD2    N1  415   1.614   4.278  11.130 -0.0006 -0.3816 -0.0528
   26MPD2    H7  416   1.660   4.218  11.062  0.0544  1.1397 -1.3630
   27TMC2    C1  417   0.914   1.984  11.884  0.3796 -0.4766 -0.6984
   27TMC2    C2  418   0.897   1.982  11.749  0.2243 -0.4646 -0.2604
   27TMC2    C3  419   0.884   2.106  11.689 -0.4751 -0.2711  0.0724
   27TMC2    C4  420   0.896   2.090  11.958  0.1224  0.4495  0.0782
   27TMC2    C5  421   0.870   2.214  11.901 -0.0732 -0.4725 -0.7478
   27TMC2    C6  422   0.856   2.215  11.771  0.1321 -0.1815 -0.3292
   27TMC2     C  423   0.894   1.864  11.961 -0.1989 -0.6640  0.0096
   27TMC2     O  424   0.936   1.755  11.920 -0.0934  0.1722  0.3434
   27TMC2     H  425   0.895   1.897  11.682 -0.0056 -1.0083  0.4448
   27TMC2    H1  426   0.921   2.084  12.064 -0.6141 -1.7870  0.1151
   27TMC2    H2  427   0.830   2.307  11.719  0.5547 -1.3995 -2.7345
   27TMC2    C7  428   0.809   2.307  11.998 -0.2185  0.2492  0.0070
   27TMC2    C8  429   0.826   2.116  11.560  0.9592  0.1539  0.1768
   27TMC2    O1  430   0.765   2.252  12.101 -0.2239  0.0158  0.4236
   27TMC2    O2  431   0.751   2.207  11.519 -0.1845 -0.2732  0.3872
   27TMC2    O5  432   0.876   2.024  11.476 -0.1153 -0.6950 -0.1376
   27TMC2    H5  433   0.950   1.983  11.527 -0.7325 -0.8779  0.6115
   28MPD2     C  434   0.631   1.655  12.345 -0.5670 -0.6426  1.0563
   28MPD2    C1  435   0.570   1.777  12.314  0.2627  0.2089  0.0318
   28MPD2    C2  436   0.627   1.852  12.219  0.3100  0.1305  0.6516
   28MPD2    C3  437   0.738   1.804  12.148 -0.0334 -0.0141 -0.2238
   28MPD2    C4  438   0.786   1.682  12.175 -0.0541  0.1506  0.1796
   28MPD2    C5  439   0.736   1.612  12.275  0.3186  0.4365 -0.0939
   28MPD2     H  440   0.574   1.941  12.187 -1.3270 -1.5849 -1.3303
   28MPD2    H1  441   0.869   1.643  12.118 -0.4436  0.9166 -0.9085
   28MPD2    H2  442   0.608   1.605  12.439 -0.4128 -1.0410  0.8792
   28MPD2    H3  443   0.789   1.522  12.305  1.8495  1.5435  0.5243
   28MPD2     N  444   0.800   1.892  12.059 -0.0702 -0.1329 -0.2024
   28MPD2    H5  445   0.761   1.986  12.051  0.1339 -0.0035  0.3211
   28MPD2    N1  446   0.457   1.818  12.389 -0.0628 -0.0670  0.2423
   28MPD2    H7  447   0.409   1.748  12.445  0.6839 -1.2556 -0.6026
   29TMC2    C1  448   0.494   4.432  14.267 -0.1359  0.8249  0.0796
   29TMC2    C2  449   0.632   4.441  14.269 -0.0669 -0.9794 -0.0475
   29TMC2    C3  450   0.692   4.565  14.288 -1.0231 -0.1310  0.4780
   29TMC2    C4  451   0.412   4.539  14.285 -0.0763 -0.0825  0.2166
   29TMC2    C5  452   0.475   4.659  14.308 -0.2344 -0.4448 -0.0731
   29TMC2    C6  453   0.616   4.675  14.302  1.1471 -0.5484  0.6412
   29TMC2     C  454   0.441   4.303  14.214 -0.0810  0.2457 -0.1564
   29TMC2     O  455   0.516   4.207  14.204 -0.5520 -0.1969 -0.4704
   29TMC2     H  456   0.698   4.355  14.274  0.0160 -0.7675  2.5774
   29TMC2    H1  457   0.303   4.539  14.290 -0.1802  0.1028 -2.4078
   29TMC2    H2  458   0.665   0.031  14.329 -0.7329 -0.2884  3.1717
   29TMC2    C7  459   0.391   0.029  14.354  0.4012 -0.5048  0.1544
   29TMC2    C8  460   0.833   4.573  14.317  0.0847 -0.0907 -0.2763
   29TMC2    O1  461   0.275   0.027  14.315  0.6143 -0.6684  0.0244
   29TMC2    O2  462   0.861   4.668  14.388 -0.0456 -0.3529 -0.2225
   29TMC2    O5  463   0.923   4.517  14.229  0.2227 -0.5720  0.4145
   29TMC2    H5  464   0.886   4.451  14.166  1.0591 -0.6577  0.0084
   30MPD2     C  465   0.046   4.037  14.020 -0.3642  0.1878  0.1899
   30MPD2    C1  466   0.176   4.005  14.020 -0.3231  0.5734  0.0833
   30MPD2    C2  467   0.274   4.098  14.067 -0.4553 -0.4394 -0.0359
   30MPD2    C3  468   0.233   4.230  14.106  0.0040 -0.6257  0.6509
   30MPD2    C4  469   0.105   4.266  14.093 -0.2465  0.0449 -0.3592
   30MPD2    C5  470   0.009   4.168  14.048 -0.2275  0.6313 -0.2731
   30MPD2     H  471   0.377   4.069  14.080  0.3302  1.7096 -1.5754
   30MPD2    H1  472   0.073   4.364  14.126 -1.1135  0.5283 -2.6869
   30MPD2    H2  473   4.706   3.967  13.993  1.0997 -0.8947 -1.1982
   30MPD2    H3  474   4.644   4.195  14.025 -0.4373  0.6077  0.6215
   30MPD2     N  475   0.317   4.329  14.163 -0.4336 -0.6242  0.1888
   30MPD2    H5  476   0.269   4.411  14.198  0.1872  0.2795 -1.0713
   30MPD2    N1  477   0.223   3.873  14.013  0.2045 -0.0613  0.3544
   30MPD2    H7  478   0.320   3.867  14.045  1.1382 -2.6251 -2.9665
   31TMC2    C1  479   2.514   3.040  14.941  0.6398 -0.5689  0.1356
   31TMC2    C2  480   2.412   3.126  14.923  0.3686  0.4568 -0.3190
   31TMC2    C3  481   2.341   3.155  15.035  0.0691  0.3914 -0.2746
   31TMC2    C4  482   2.554   2.984  15.061  0.6072  0.8566 -0.3480
   31TMC2    C5  483   2.475   3.021  15.166  0.2762  0.3942  0.1735
   31TMC2    C6  484   2.373   3.109  15.158 -0.1245  0.0637 -0.1127
   31TMC2     C  485   2.613   3.055  14.836  0.5315 -0.5665 -0.8930
   31TMC2     O  486   2.573   3.086  14.726 -0.3050  0.6410  0.1735
   31TMC2     H  487   2.385   3.150  14.820 -1.4951  2.3604  0.6281
   31TMC2    H1  488   2.639   2.916  15.058  0.9239  1.3619 -3.4215
   31TMC2    H2  489   2.334   3.160  15.245 -0.0855 -0.1901  0.0549
   31TMC2    C7  490   2.516   2.966  15.299  0.5342  0.0996  0.5725
   31TMC2    C8  491   2.273   3.276  15.041  0.3001  0.1018 -0.5581
   31TMC2    O1  492   2.627   2.912  15.299  0.4923  0.1354  0.2509
   31TMC2    O2  493   2.185   3.301  15.124 -0.2388  0.0677  0.4934
   31TMC2    O5  494   2.378   3.359  15.019 -0.3094 -0.2621 -0.6345
   31TMC2    H5  495   2.422   3.325  14.938 -0.1049 -1.7087  0.0741
   32MPD2     C  496   3.105   3.056  14.687  0.5293 -0.0713 -0.1035
   32MPD2    C1  497   2.993   3.073  14.611  0.8293 -0.6893  0.2925
   32MPD2    C2  498   2.870   3.070  14.678 -0.6084 -0.4744  1.1454
   32MPD2    C3  499   2.863   3.061  14.815 -0.2679 -0.5885  0.2212
   32MPD2    C4  500   2.977   3.048  14.888 -0.6832 -0.3377 -0.8731
   32MPD2    C5  501   3.097   3.054  14.824 -0.1997  0.1533  0.2809
   32MPD2     H  502   2.775   3.073  14.626  1.4668  0.8850 -2.6324
   32MPD2    H1  503   2.978   3.031  14.995  0.3132 -0.6729 -0.9351
   32MPD2    H2  504   3.197   3.048  14.631  0.3282  1.4154 -0.6501
   32MPD2    H3  505   3.189   3.043  14.880  0.2839 -0.8444 -0.7164
   32MPD2     N  506   2.741   3.059  14.894  0.6903 -0.1445 -0.4078
   32MPD2    H5  507   2.747   3.051  14.995  1.5539  2.2202 -0.2696
   32MPD2    N1  508   3.008   3.117  14.477  1.0130  0.2684  0.3652
   32MPD2    H7  509   3.099   3.116  14.432  1.2312 -2.5805  0.8595
   33TMC2    C1  510   2.446   1.162  10.060  0.3090  0.9326  0.0679
   33TMC2    C2  511   2.319   1.124  10.008  0.9132  0.1660  0.5317
   33TMC2    C3  512   2.237   1.222   9.956 -1.3421  0.5038 -0.1818
   33TMC2    C4  513   2.491   1.290  10.048 -0.3346 -0.3150  0.0306
   33TMC2    C5  514   2.412   1.373   9.966 -0.9795  1.1181 -0.1451
   33TMC2    C6  515   2.295   1.343   9.918  0.0376  0.0392  0.3974
   33TMC2     C  516   2.468   1.104  10.186 -0.3795 -0.1647 -0.0399
   33TMC2     O  517   2.375   1.036  10.223  0.0423  0.0804  0.4049
   33TMC2     H  518   2.271   1.028  10.024  1.0924 -0.0629 -0.2881
   33TMC2    H1  519   2.590   1.321  10.080 -0.5205  0.3886 -0.0598
   33TMC2    H2  520   2.234   1.414   9.864 -1.1483 -3.9070 -3.4388
   33TMC2    C7  521   2.476   1.507   9.948  0.7097  0.6373  0.0553
   33TMC2    C8  522   2.128   1.173   9.874 -0.5703 -0.5323  0.0880
   33TMC2    O1  523   2.559   1.538  10.031 -0.5495 -0.2279 -0.3651
   33TMC2    O2  524   2.108   1.215   9.761  0.3669 -0.2048 -0.4816
   33TMC2    O5  525   2.043   1.118   9.959 -0.0949  0.0681  0.0147
   33TMC2    H5  526   2.082   1.092  10.046 -0.9585  2.2723  1.0609
   34MPD2     C  527   2.692   1.090  10.657  0.4330 -0.1291 -0.4662
   34MPD2    C1  528   2.571   1.045  10.609  0.0952 -0.2595  0.2398
   34MPD2    C2  529   2.533   1.070  10.475 -0.2339  0.5408  0.3825
   34MPD2    C3  530   2.623   1.121  10.389  0.2085  0.7671 -0.2189
   34MPD2    C4  531   2.746   1.170  10.435 -1.1942 -0.1358 -0.4862
   34MPD2    C5  532   2.778   1.158  10.571 -0.5640 -0.1624 -0.3983
   34MPD2     H  533   2.428   1.055  10.453  0.1316 -3.1033  1.0443
   34MPD2    H1  534   2.816   1.217  10.366  1.2945  0.4592  2.4719
   34MPD2    H2  535   2.724   1.069  10.759  2.2191 -1.6881 -1.3555
   34MPD2    H3  536   2.870   1.200  10.612 -0.0379 -0.8092 -0.9186
   34MPD2     N  537   2.592   1.136  10.250 -0.0482 -0.4020 -0.3512
   34MPD2    H5  538   2.658   1.185  10.190 -0.0849  0.3604  0.2479
   34MPD2    N1  539   2.492   0.962  10.694  1.1026 -0.3168  0.3485
   34MPD2    H7  540   2.537   0.933  10.780  1.4275 -1.0654 -0.0689
   35TMC2    C1  541   4.150   2.459  11.466  0.2992  0.4108  0.6728
   35TMC2    C2  542   4.079   2.575  11.477 -0.3514 -0.3781  0.1048
   35TMC2    C3  543   3.979   2.580  11.572 -0.6529  0.5965 -0.4995
   35TMC2    C4  544   4.117   2.351  11.546 -0.1475 -0.0913 -0.3707
   35TMC2    C5  545   4.009   2.351  11.625 -0.2627 -0.0981  0.2849
   35TMC2    C6  546   3.938   2.468  11.641  0.1486  0.1350 -0.3948
   35TMC2     C  547   4.263   2.454  11.382  0.2625  0.3577  0.3009
   35TMC2     O  548   4.275   2.544  11.303  0.7653  0.7264 -0.1593
   35TMC2     H  549   4.106   2.664  11.421  0.3516 -0.4968  0.2561
   35TMC2    H1  550   4.174   2.259  11.539 -1.8437 -1.1724 -0.1739
   35TMC2    H2  551   3.855   2.462  11.711  0.5473  0.5665  0.1176
   35TMC2    C7  552   3.981   2.238  11.711 -0.6208  0.3809 -0.1628
   35TMC2    C8  553   3.906   2.704  11.583  0.5607 -0.9104 -1.1024
   35TMC2    O1  554   4.083   2.179  11.740 -0.8135  0.3115  0.6685
   35TMC2    O2  555   3.879   2.773  11.487  0.7146 -0.8518 -0.0098
   35TMC2    O5  556   3.913   2.747  11.713  0.0937  0.0892  0.0656
   35TMC2    H5  557   3.964   2.690  11.774 -0.5649  0.2173  0.7363
   36MPD2     C  558   4.689   2.260  11.191 -0.2556  0.2461 -0.4575
   36MPD2    C1  559   4.650   2.184  11.296  0.8076 -0.1461 -0.2160
   36MPD2    C2  560   4.529   2.212  11.364  0.8951  0.0300 -0.5579
   36MPD2    C3  561   4.455   2.320  11.327 -0.1529  0.5552  0.3137
   36MPD2    C4  562   4.501   2.397  11.220  0.0071  0.4005  0.1487
   36MPD2    C5  563   4.614   2.372  11.154  0.0415 -0.0102 -0.0382
   36MPD2     H  564   4.495   2.148  11.445  1.7638  0.8005  0.4136
   36MPD2    H1  565   4.444   2.480  11.178  1.2305  0.7619 -0.7890
   36MPD2    H2  566   0.042   2.243  11.134 -0.5783 -0.1357 -0.8531
   36MPD2    H3  567   4.641   2.438  11.072 -0.2287 -1.2193 -1.0925
   36MPD2     N  568   4.340   2.345  11.400  0.5564 -0.3234  0.3304
   36MPD2    H5  569   4.311   2.286  11.477 -1.9383 -0.1373 -0.4729
   36MPD2    N1  570   4.719   2.066  11.320  0.0250  0.1249 -0.3731
   36MPD2    H7  571   0.042   2.047  11.240  1.4946  0.7226  0.6072
   37TMC2    C1  572   1.789   3.180  11.486  0.2816 -0.2828 -0.0012
   37TMC2    C2  573   1.787   3.317  11.454 -0.2024 -0.2568 -0.7697
   37TMC2    C3  574   1.900   3.371  11.402 -0.7812 -0.2837  0.0262
   37TMC2    C4  575   1.898   3.105  11.469  0.1858  0.2128 -1.2387
   37TMC2    C5  576   2.017   3.168  11.430 -0.1753  0.2603 -0.7255
   37TMC2    C6  577   2.016   3.304  11.397  0.2866  0.1969 -0.3483
   37TMC2     C  578   1.666   3.120  11.542  0.1400 -0.2240  0.3125
   37TMC2     O  579   1.566   3.172  11.502  0.0948 -0.1622  0.6627
   37TMC2     H  580   1.692   3.368  11.462 -0.8192 -1.1012 -2.6867
   37TMC2    H1  581   1.883   2.999  11.488  0.8771  0.8037  2.5454
   37TMC2    H2  582   2.106   3.363  11.383  0.3313  0.1294 -0.3484
   37TMC2    C7  583   2.132   3.082  11.434 -0.1609  0.1148  0.0489
   37TMC2    C8  584   1.913   3.513  11.395 -0.7446  0.0082 -0.0918
   37TMC2    O1  585   2.112   2.974  11.487  0.5251  0.5211 -0.0833
   37TMC2    O2  586   2.020   3.562  11.429 -0.1785  0.5296  0.1412
   37TMC2    O5  587   1.796   3.578  11.382 -0.3882 -0.5231  0.1342
   37TMC2    H5  588   1.731   3.519  11.339 -1.2217 -0.0167  0.6951
   38MPD2     C  589   1.378   2.797  11.834 -0.2082  0.1719 -0.0879
   38MPD2    C1  590   1.510   2.762  11.843  0.3981  0.2088  0.6645
   38MPD2    C2  591   1.600   2.831  11.763 -0.1373  0.5293  0.7288
   38MPD2    C3  592   1.563   2.941  11.689 -0.3300  0.4409  0.1276
   38MPD2    C4  593   1.428   2.971  11.675 -0.6450 -0.6333 -0.4492
   38MPD2    C5  594   1.340   2.894  11.738  1.4327 -0.0518 -0.0285
   38MPD2     H  595   1.706   2.806  11.772 -0.2503 -0.1389  0.1839
   38MPD2    H1  596   1.397   3.045  11.602  1.5792 -2.0187 -2.8551
   38MPD2    H2  597   1.299   2.743  11.885  1.1559 -2.3695 -0.6636
   38MPD2    H3  598   1.235   2.911  11.714  1.3223  2.0790  2.0115
   38MPD2     N  599   1.672   3.018  11.638 -0.0674 -0.3813 -0.0134
   38MPD2    H5  600   1.768   2.992  11.662  0.5048  2.9090  1.2453
   38MPD2    N1  601   1.545   2.656  11.924 -0.3305 -0.3333  0.0070
   38MPD2    H7  602   1.639   2.621  11.906 -0.2779  0.4917 -1.3134
   39TMC2    C1  603   0.446   3.507   1.531 -0.5023  0.0643 -0.0630
   39TMC2    C2  604   0.443   3.376   1.570 -0.3266 -0.0197  0.2921
   39TMC2    C3  605   0.517   3.347   1.677 -0.6802 -0.5734  0.1629
   39TMC2    C4  606   0.515   3.605   1.592 -0.3437  0.3815 -0.2544
   39TMC2    C5  607   0.578   3.571   1.706 -1.4612 -0.0708 -0.3551
   39TMC2    C6  608   0.580   3.442   1.749 -0.3574 -0.2670 -0.3701
   39TMC2     C  609   0.354   3.553   1.419  0.4170  0.0043  0.3112
   39TMC2     O  610   0.352   3.671   1.389 -0.5324 -0.4045  0.0871
   39TMC2     H  611   0.399   3.295   1.513 -1.2965  1.9394 -1.7691
   39TMC2    H1  612   0.514   3.710   1.564  0.1116  0.8298  1.4069
   39TMC2    H2  613   0.629   3.406   1.838  1.1411 -0.2044 -1.1714
   39TMC2    C7  614   0.638   3.667   1.798 -0.1294 -0.0835  0.2288
   39TMC2    C8  615   0.490   3.224   1.739  0.1337  0.4638 -0.5161
   39TMC2    O1  616   0.670   3.627   1.905 -0.2796  0.2682  0.5888
   39TMC2    O2  617   0.485   3.116   1.683 -0.3244  0.5475 -0.2356
   39TMC2    O5  618   0.445   3.257   1.869 -0.9038  0.5380 -0.1438
   39TMC2    H5  619   0.460   3.348   1.902  0.5107  0.0635  0.5108
   40MPD2     C  620   0.170   3.345   1.177 -0.1459  0.3167 -0.0060
   40MPD2    C1  621   0.204   3.460   1.245  0.2282  0.0295  0.2872
   40MPD2    C2  622   0.134   3.571   1.212  0.2041 -0.1945  0.1650
   40MPD2    C3  623   0.043   3.578   1.111 -0.5334 -0.2597 -0.2021
   40MPD2    C4  624   0.011   3.455   1.051  0.2446 -0.3106 -0.8917
   40MPD2    C5  625   0.082   3.338   1.074 -0.7289  0.3485  0.1401
   40MPD2     H  626   0.147   3.661   1.272 -1.1761 -0.1284  0.3545
   40MPD2    H1  627   4.681   3.463   0.967  1.1280 -0.1698 -1.5831
   40MPD2    H2  628   0.218   3.251   1.203 -1.3482 -0.8365 -1.9920
   40MPD2    H3  629   0.059   3.244   1.025 -0.3551  0.6225 -0.5574
   40MPD2     N  630   4.727   3.695   1.058  0.4389 -0.2323  0.6587
   40MPD2    H5  631   4.658   3.681   0.985  0.5104 -0.3707  0.6178
   40MPD2    N1  632   0.300   3.448   1.347 -0.4284 -0.6072 -0.4062
   40MPD2    H7  633   0.326   3.350   1.360 -0.2536 -0.4047  0.6997
   41TMC2    C1  634   3.606   2.277  13.893  0.5601 -0.1820 -0.1119
   41TMC2    C2  635   3.510   2.336  13.968 -0.0798 -0.5649  0.3316
   41TMC2    C3  636   3.419   2.409  13.893 -0.5145 -0.2425  0.4056
   41TMC2    C4  637   3.631   2.294  13.760 -0.1334 -0.5725  0.4296
   41TMC2    C5  638   3.539   2.372  13.700 -0.0293 -0.0855 -0.3284
   41TMC2    C6  639   3.431   2.434  13.761 -0.8870 -0.5216  0.0468
   41TMC2     C  640   3.671   2.169  13.955 -0.1194  1.0789 -0.1597
   41TMC2     O  641   3.695   2.070  13.888 -0.2673  0.2093 -0.2083
   41TMC2     H  642   3.481   2.298  14.066 -1.3404  0.5283  0.3866
   41TMC2    H1  643   3.708   2.241  13.707 -1.3100  0.1937 -2.0292
   41TMC2    H2  644   3.350   2.480  13.706  1.0710 -0.1749 -2.5072
   41TMC2    C7  645   3.552   2.417  13.565 -0.3112  0.1202  0.4429
   41TMC2    C8  646   3.314   2.481  13.961  0.2863 -0.7059  0.0027
   41TMC2    O1  647   3.450   2.456  13.515  0.2025  0.2390 -0.4235
   41TMC2    O2  648   3.277   2.444  14.074  0.2349 -0.2430  0.1189
   41TMC2    O5  649   3.301   2.605  13.913 -0.7496 -0.2704  0.4347
   41TMC2    H5  650   3.349   2.624  13.829  1.9562  0.4543  2.1273
   42MPD2     C  651   3.775   1.978  14.150 -0.8166 -0.0346 -0.2393
   42MPD2    C1  652   3.743   2.110  14.185 -0.4642  0.1883 -0.0693
   42MPD2    C2  653   3.773   2.158  14.309  0.6991 -0.2292 -0.3908
   42MPD2    C3  654   3.816   2.070  14.407  0.1586  0.5874 -0.9296
   42MPD2    C4  655   3.845   1.939  14.376  0.7125 -0.3330 -0.4065
   42MPD2    C5  656   3.815   1.894  14.251  0.2943 -0.2495 -0.8700
   42MPD2     H  657   3.764   2.266  14.318 -1.1976 -0.3888 -0.2855
   42MPD2    H1  658   3.881   1.866  14.448 -0.5486  0.2489  0.8058
   42MPD2    H2  659   3.760   1.933  14.052  0.8171  1.2663 -1.0934
   42MPD2    H3  660   3.827   1.788  14.230 -1.1381 -0.8570  1.3277
   42MPD2     N  661   3.856   2.130  14.533 -0.1581  0.0097  0.8109
   42MPD2    H5  662   3.891   2.076  14.612 -0.3751 -2.8600 -1.0728
   42MPD2    N1  663   3.693   2.199  14.088 -0.0712 -0.0776  0.1360
   42MPD2    H7  664   3.673   2.291  14.125  0.3136 -0.6828  1.8735
   43TMC2    C1  665   0.501   0.526   0.640 -0.0809  0.6105  0.2103
   43TMC2    C2  666   0.420   0.639   0.627  0.7167  0.4927 -0.2055
   43TMC2    C3  667   0.407   0.714   0.744  0.1563  0.8415 -0.7434
   43TMC2    C4  668   0.550   0.486   0.757 -0.2470 -0.2734 -0.0316
   43TMC2    C5  669   0.533   0.559   0.866 -0.5122 -0.8186 -0.1968
   43TMC2    C6  670   0.473   0.682   0.857  0.2423 -0.0269 -0.1290
   43TMC2     C  671   0.517   0.434   0.533  0.2517  0.5453  0.1094
   43TMC2     O  672   0.609   0.360   0.548  0.3417 -0.6704 -0.5209
   43TMC2     H  673   0.385   0.672   0.530 -1.4765 -2.2485 -0.3514
   43TMC2    H1  674   0.585   0.384   0.775  0.4941 -0.2525 -1.3498
   43TMC2    H2  675   0.473   0.763   0.929  1.0896 -0.3616  0.2539
   43TMC2    C7  676   0.608   0.526   0.987 -0.3207  0.5441  0.2619
   43TMC2    C8  677   0.391   0.861   0.727  0.0315  0.1783  0.7752
   43TMC2    O1  678   0.695   0.448   0.955  0.5333  0.1839 -0.3238
   43TMC2    O2  679   0.478   0.941   0.764 -0.2086  0.5801  0.1780
   43TMC2    O5  680   0.308   0.873   0.621  0.0293  0.3620  0.2267
   43TMC2    H5  681   0.253   0.794   0.607  0.5348 -0.2606  1.6709
   44MPD2     C  682   0.443   0.263   0.064  0.0112 -1.0060 -0.2735
   44MPD2    C1  683   0.549   0.253   0.150  0.0903 -0.0202 -0.7043
   44MPD2    C2  684   0.540   0.296   0.282 -0.0131  0.5300  0.2118
   44MPD2    C3  685   0.430   0.371   0.320 -0.4705  0.0247  0.4551
   44MPD2    C4  686   0.324   0.381   0.230 -0.4443  0.0523 -0.4629
   44MPD2    C5  687   0.326   0.319   0.106  1.0066 -0.3726 -0.6248
   44MPD2     H  688   0.634   0.297   0.336 -0.6280 -1.7289  1.3496
   44MPD2    H1  689   0.227   0.428   0.245 -0.1115  0.3405  0.8402
   44MPD2    H2  690   0.461   0.232  17.711  0.4918 -0.1594 -0.4491
   44MPD2    H3  691   0.250   0.331   0.029 -0.2763  2.2333  1.0451
   44MPD2     N  692   0.422   0.443   0.437 -0.2175  0.1221  0.0882
   44MPD2    H5  693   0.338   0.497   0.456 -0.5616  0.0123 -1.0889
   44MPD2    N1  694   0.678   0.207   0.114 -0.9953 -0.2895 -0.1750
   44MPD2    H7  695   0.738   0.187   0.193 -2.8820  0.9161  1.5621
   45TMC2    C1  696   0.926   2.483   9.508 -0.0399  0.3750  0.5499
   45TMC2    C2  697   1.030   2.391   9.500  0.1080 -0.1333 -0.0676
   45TMC2    C3  698   1.153   2.427   9.531  0.0144 -0.1104  0.7057
   45TMC2    C4  699   0.942   2.613   9.545  0.0549 -0.3267  0.1593
   45TMC2    C5  700   1.070   2.648   9.576  0.4918  0.0570  0.3369
   45TMC2    C6  701   1.171   2.556   9.571 -0.9128 -0.0431 -0.5765
   45TMC2     C  702   0.798   2.456   9.455  0.7690 -0.2194 -0.2160
   45TMC2     O  703   0.704   2.528   9.482 -0.2048 -0.4241 -0.5026
   45TMC2     H  704   1.015   2.287   9.473 -1.9181 -0.1275  1.0503
   45TMC2    H1  705   0.857   2.678   9.562 -0.6271 -1.2077  0.0838
   45TMC2    H2  706   1.270   2.594   9.590 -0.9450  0.1170 -0.7348
   45TMC2    C7  707   1.114   2.784   9.592 -0.0317  0.5544  0.0384
   45TMC2    C8  708   1.236   2.333   9.595 -0.5541 -0.1477  0.4624
   45TMC2    O1  709   1.209   2.814   9.669  0.5118 -0.0316  0.1590
   45TMC2    O2  710   1.363   2.324   9.592  0.2961  0.1857 -0.0958
   45TMC2    O5  711   1.158   2.258   9.667 -0.3330  0.3389 -0.5021
   45TMC2    H5  712   1.063   2.281   9.661 -0.0564  1.1182 -1.8435
   46MPD2     C  713   0.730   2.210   9.184 -0.9297  0.6567 -0.1175
   46MPD2    C1  714   0.696   2.301   9.287 -0.2022  0.2922 -0.1914
   46MPD2    C2  715   0.564   2.321   9.317  0.6741  0.6195 -0.4067
   46MPD2    C3  716   0.465   2.266   9.243  0.4362 -0.2857  0.4634
   46MPD2    C4  717   0.492   2.180   9.141  0.2536  0.7283 -0.0853
   46MPD2    C5  718   0.625   2.156   9.113 -0.0947 -0.1734  0.5860
   46MPD2     H  719   0.531   2.382   9.401  0.9472 -0.3473  0.4070
   46MPD2    H1  720   0.413   2.129   9.088 -0.5265  2.0266 -0.1715
   46MPD2    H2  721   0.831   2.184   9.156 -1.4337 -0.7969 -0.5753
   46MPD2    H3  722   0.652   2.084   9.037  2.5054  0.3170  1.0421
   46MPD2     N  723   0.335   2.281   9.294 -0.4518 -0.6258 -0.2389
   46MPD2    H5  724   0.324   2.327   9.384 -1.9592 -0.5039 -0.4784
   46MPD2    N1  725   0.801   2.364   9.353 -0.1594  0.6172 -0.3783
   46MPD2    H7  726   0.888   2.332   9.311  0.1490  0.7909  0.1320
   47TMC2    C1  727   3.023   3.754   9.491  0.1417 -0.0213  0.4286
   47TMC2    C2  728   3.017   3.661   9.391 -0.0326  0.8712  0.2943
   47TMC2    C3  729   2.895   3.663   9.318 -0.5835  1.0157  0.3400
   47TMC2    C4  730   2.914   3.832   9.525  0.7751 -0.2345  0.3786
   47TMC2    C5  731   2.803   3.834   9.450 -0.1903  0.3144 -0.4489
   47TMC2    C6  732   2.788   3.743   9.347  0.1849  0.1072  0.1937
   47TMC2     C  733   3.139   3.772   9.562 -0.2657  0.2004 -0.4219
   47TMC2     O  734   3.146   3.866   9.642  0.2045 -0.2368  0.2626
   47TMC2     H  735   3.096   3.596   9.354  0.3488  2.0197 -0.9303
   47TMC2    H1  736   2.928   3.915   9.594 -0.0812 -0.1248  0.4159
   47TMC2    H2  737   2.698   3.746   9.286  0.9897  1.9114 -0.9314
   47TMC2    C7  738   2.683   3.820   9.533  0.1584  0.9103  0.1663
   47TMC2    C8  739   2.883   3.541   9.238 -0.0477 -0.7168 -0.1450
   47TMC2    O1  740   2.625   3.715   9.516  0.1149  0.4404 -0.0037
   47TMC2    O2  741   2.928   3.439   9.287  0.0605 -0.1588  0.2658
   47TMC2    O5  742   2.813   3.551   9.123 -0.3795  0.2723 -0.0690
   47TMC2    H5  743   2.793   3.642   9.092 -4.0005 -0.5778 -0.1989
   48MPD2     C  744   3.418   3.737   9.675  0.3012 -0.3711 -0.5661
   48MPD2    C1  745   3.356   3.649   9.591  0.2194 -0.9192 -0.1942
   48MPD2    C2  746   3.418   3.535   9.556 -0.0270  0.1605  0.0695
   48MPD2    C3  747   3.534   3.497   9.618  0.2684  0.0607 -0.6339
   48MPD2    C4  748   3.592   3.582   9.709 -0.0402  0.1177  0.6201
   48MPD2    C5  749   3.541   3.703   9.732 -0.4231  0.1635 -0.2307
   48MPD2     H  750   3.380   3.462   9.486 -1.1022  1.8627 -1.1298
   48MPD2    H1  751   3.686   3.568   9.761  0.4560 -1.1561 -0.6077
   48MPD2    H2  752   3.394   3.842   9.692 -2.0397 -0.9344 -0.3122
   48MPD2    H3  753   3.591   3.780   9.789  1.4812 -0.3072 -1.2730
   48MPD2     N  754   3.582   3.374   9.582 -0.8716  0.1660  0.0353
   48MPD2    H5  755   3.543   3.332   9.498 -0.3685 -1.3671  0.5585
   48MPD2    N1  756   3.231   3.672   9.530 -0.4449  0.3043 -0.4339
   48MPD2    H7  757   3.191   3.600   9.471  0.1561 -1.0919  0.8720
   49TMC2    C1  758   1.537   0.320  10.020  0.1248  0.3534 -0.0331
   49TMC2    C2  759   1.571   0.252   9.908 -0.1443  0.0675 -0.4051
   49TMC2    C3  760   1.531   0.124   9.882 -0.2302  0.2458 -0.0804
   49TMC2    C4  761   1.439   0.260  10.099  0.5415 -0.1135  0.3579
   49TMC2    C5  762   1.394   0.136  10.066  0.2937 -0.2574 -0.3326
   49TMC2    C6  763   1.451   0.064   9.966  0.2271 -0.2387 -0.5326
   49TMC2     C  764   1.592   0.452  10.047 -0.3189  0.9583  0.1618
   49TMC2     O  765   1.678   0.492   9.966 -0.5051 -0.5358 -0.1308
   49TMC2     H  766   1.629   0.304   9.832 -0.2027  0.1772 -0.3743
   49TMC2    H1  767   1.394   0.319  10.177  0.8171  0.2505  0.2426
   49TMC2    H2  768   1.443   4.693   9.961 -0.6903 -0.1620 -0.6041
   49TMC2    C7  769   1.284   0.086  10.145 -0.2508  0.0167  0.4289
   49TMC2    C8  770   1.607   0.052   9.779 -0.9663 -0.1434  0.6076
   49TMC2    O1  771   1.258   0.154  10.244 -0.6448 -0.1626  0.3903
   49TMC2    O2  772   1.720   0.007   9.808  0.1779  0.4844  0.4532
   49TMC2    O5  773   1.573   0.098   9.655  0.2314 -0.1297 -0.4422
   49TMC2    H5  774   1.502   0.165   9.658  0.6011  0.2036  0.8132
   50MPD2     C  775   1.733   0.668  10.180  0.0596  0.2530  0.1547
   50MPD2    C1  776   1.646   0.580  10.245 -0.7635 -0.6200  0.4138
   50MPD2    C2  777   1.644   0.580  10.380  0.2639  0.7351 -0.6746
   50MPD2    C3  778   1.703   0.682  10.449 -0.0249  0.2604  0.2382
   50MPD2    C4  779   1.771   0.782  10.383  0.1533 -0.5064 -0.1722
   50MPD2    C5  780   1.792   0.771  10.247 -0.4141 -0.7505  0.1772
   50MPD2     H  781   1.591   0.502  10.434  2.3985  0.4350  0.9642
   50MPD2    H1  782   1.815   0.864  10.440  1.0470 -0.3890 -1.0303
   50MPD2    H2  783   1.750   0.676  10.073 -1.4873  0.0951 -0.0985
   50MPD2    H3  784   1.850   0.848  10.198 -0.1372 -0.5384  0.8296
   50MPD2     N  785   1.689   0.701  10.591  0.6497 -0.0641  0.1242
   50MPD2    H5  786   1.723   0.784  10.639 -1.5598  0.2472  1.1602
   50MPD2    N1  787   1.579   0.483  10.175 -0.3476  0.2232  0.0752
   50MPD2    H7  788   1.526   0.416  10.230 -1.9541  1.7899  0.4298
   51TMC2    C1  789   2.805   3.771   1.475  0.2359  0.3889  0.1910
   51TMC2    C2  790   2.702   3.828   1.410  0.4892 -0.0318 -0.1508
   51TMC2    C3  791   2.665   3.949   1.458  0.0313  0.4671 -0.1586
   51TMC2    C4  792   2.874   3.832   1.571 -1.1431 -0.1201  0.9858
   51TMC2    C5  793   2.831   3.956   1.615  0.4818 -0.2942 -0.0802
   51TMC2    C6  794   2.718   4.012   1.564  1.2837 -0.5289  0.3519
   51TMC2     C  795   2.865   3.652   1.403 -0.0367  0.1741 -0.1048
   51TMC2     O  796   2.831   3.637   1.288  0.0382 -0.5797 -0.6197
   51TMC2     H  797   2.668   3.777   1.320  1.2461 -1.3654  0.3260
   51TMC2    H1  798   2.971   3.802   1.609 -0.2135  0.5092 -0.8991
   51TMC2    H2  799   2.681   4.113   1.576  2.5486 -0.1185  0.8199
   51TMC2    C7  800   2.905   4.034   1.710  0.1442  0.5729 -0.2781
   51TMC2    C8  801   2.584   4.031   1.366 -0.0917 -0.3623  0.1101
   51TMC2    O1  802   3.011   3.995   1.752 -0.0790 -0.3117 -0.2098
   51TMC2    O2  803   2.571   4.149   1.373  0.4069 -0.1076 -0.0817
   51TMC2    O5  804   2.519   3.949   1.281 -0.1281 -0.4278  0.1371
   51TMC2    H5  805   2.528   3.854   1.306  2.4479  0.1614  1.4017
   52MPD2     C  806   3.212   3.271   1.346  0.4598  0.2985  0.1494
   52MPD2    C1  807   3.117   3.319   1.254  0.4487  0.1787 -0.8009
   52MPD2    C2  808   3.048   3.428   1.285  0.5110 -0.2317 -0.8131
   52MPD2    C3  809   3.064   3.496   1.409  0.5452 -0.6936  0.5234
   52MPD2    C4  810   3.160   3.458   1.504 -0.4089 -0.7610  0.0869
   52MPD2    C5  811   3.222   3.345   1.468 -0.8889 -0.6093 -0.5408
   52MPD2     H  812   2.985   3.475   1.210  0.9596  0.3544 -0.8236
   52MPD2    H1  813   3.170   3.505   1.602  1.7550  0.0982 -0.5413
   52MPD2    H2  814   3.269   3.179   1.342 -0.8783 -0.5854  1.3099
   52MPD2    H3  815   3.274   3.294   1.548  2.9286  1.2862 -1.8041
   52MPD2     N  816   2.973   3.597   1.461  0.0514  0.3349  0.3738
   52MPD2    H5  817   2.997   3.622   1.556 -0.0352  0.4610  0.3618
   52MPD2    N1  818   3.095   3.261   1.128 -0.9031 -0.1007 -0.0892
   52MPD2    H7  819   3.031   3.300   1.060 -1.7817  0.8600  1.2730
   53TMC2    C1  820   2.599   2.692  11.794 -0.1110  1.0527 -0.6613
   53TMC2    C2  821   2.636   2.561  11.773 -0.5488  0.6025 -0.0056
   53TMC2    C3  822   2.547   2.465  11.820 -0.9508 -1.3312 -0.6102
   53TMC2    C4  823   2.495   2.718  11.875  0.3975  0.8301  0.1805
   53TMC2    C5  824   2.422   2.620  11.934 -0.5303 -0.4784  0.0205
   53TMC2    C6  825   2.437   2.492  11.903 -0.2027  0.1242 -0.0838
   53TMC2     C  826   2.639   2.791  11.700 -0.2832  0.0884 -0.8117
   53TMC2     O  827   2.756   2.808  11.672  0.2135  0.0537  0.0968
   53TMC2     H  828   2.718   2.534  11.707  1.0322 -0.7074  2.5023
   53TMC2    H1  829   2.484   2.824  11.895 -1.4776  0.7890 -0.6735
   53TMC2    H2  830   2.379   2.411  11.945  0.7744  0.1247  1.2633
   53TMC2    C7  831   2.288   2.665  11.983 -0.4179  0.4755  0.2582
   53TMC2    C8  832   2.547   2.332  11.775  0.5343 -1.1816  0.6692
   53TMC2    O1  833   2.241   2.758  11.918  0.5132  0.1532 -0.5309
   53TMC2    O2  834   2.440   2.275  11.747  0.9922 -0.6043  0.3622
   53TMC2    O5  835   2.667   2.297  11.726 -0.3442  0.8489  0.3679
   53TMC2    H5  836   2.747   2.344  11.758  0.6972 -1.9046  1.7904
   54MPD2     C  837   2.631   3.044  11.537 -0.2239 -0.5456  0.2717
   54MPD2    C1  838   2.517   2.966  11.572  0.1553  0.3153  0.6211
   54MPD2    C2  839   2.393   2.995  11.526 -0.2677 -0.0013  0.7720
   54MPD2    C3  840   2.368   3.115  11.448  0.1821 -0.4655 -0.2351
   54MPD2    C4  841   2.480   3.200  11.424 -0.2656 -0.0587 -0.1627
   54MPD2    C5  842   2.609   3.160  11.468  0.0354 -0.4946  0.7719
   54MPD2     H  843   2.319   2.930  11.571 -0.1629 -1.8296 -1.6964
   54MPD2    H1  844   2.472   3.288  11.362 -0.5428  1.0245  1.3951
   54MPD2    H2  845   2.730   3.009  11.562 -0.0823  1.2975  2.1954
   54MPD2    H3  846   2.701   3.200  11.426 -1.6953 -0.1597 -2.6369
   54MPD2     N  847   2.241   3.156  11.412 -0.0947  0.5387  0.1022
   54MPD2    H5  848   2.233   3.252  11.380  2.3133 -0.1117 -2.4647
   54MPD2    N1  849   2.529   2.839  11.638 -0.2777  0.1367 -0.3089
   54MPD2    H7  850   2.449   2.778  11.653 -0.9929  1.4968  1.3878
   55TMC2    C1  851   3.256   1.387  17.613 -0.9448 -1.1588 -0.7886
   55TMC2    C2  852   3.226   1.445  17.493 -0.0409 -0.4133 -0.9365
   55TMC2    C3  853   3.257   1.365  17.388  0.4270 -0.4750  0.8529
   55TMC2    C4  854   3.302   1.262  17.619 -0.0644 -0.5206  0.4409
   55TMC2    C5  855   3.317   1.183  17.509  0.3229 -0.5438 -0.3971
   55TMC2    C6  856   3.289   1.235  17.387  0.8278 -0.1129 -0.6472
   55TMC2     C  857   3.180   1.429  17.730 -0.1640  0.1098  0.7342
   55TMC2     O  858   3.133   1.335   0.045 -0.5578  0.4072 -0.1733
   55TMC2     H  859   3.181   1.543  17.494  3.2011  1.0358  2.5566
   55TMC2    H1  860   3.330   1.226  17.717 -1.4542 -2.5715  0.0875
   55TMC2    H2  861   3.284   1.183  17.291 -1.2507 -0.4354 -0.3666
   55TMC2    C7  862   3.354   1.040  17.515  0.4195 -0.8225 -0.1799
   55TMC2    C8  863   3.219   1.416  17.260  0.4201  0.2378  0.5664
   55TMC2    O1  864   3.360   0.974  17.409 -0.6016  0.3609  0.3994
   55TMC2    O2  865   3.142   1.343  17.194 -0.0240  0.3893  0.1230
   55TMC2    O5  866   3.223   1.551  17.257 -0.4933 -0.0658 -0.5413
   55TMC2    H5  867   3.299   1.579  17.312 -2.0619  3.1905 -0.0422
   56MPD2     C  868   3.111   1.769   0.117 -0.6444 -0.4110  0.4395
   56MPD2    C1  869   3.136   1.636   0.110 -0.3641 -0.3839  0.0171
   56MPD2    C2  870   3.103   1.558   0.220 -0.8410 -0.0537 -0.4004
   56MPD2    C3  871   3.036   1.601   0.329  0.6194 -0.1229 -0.4377
   56MPD2    C4  872   3.011   1.733   0.341  0.7727 -0.4309  0.8519
   56MPD2    C5  873   3.041   1.807   0.229  0.5135  0.4152  0.3860
   56MPD2     H  874   3.125   1.453   0.233  0.8224  0.2925 -0.4141
   56MPD2    H1  875   2.964   1.779   0.427 -0.7914  1.3945 -0.9702
   56MPD2    H2  876   3.135   1.844   0.042  0.0073  0.6547  1.7125
   56MPD2    H3  877   3.027   1.914   0.237 -1.8107  0.1069  0.2188
   56MPD2     N  878   3.020   1.507   0.435 -0.1861  0.2056 -0.4416
   56MPD2    H5  879   3.039   1.414   0.399 -1.1773 -0.1949  0.0591
   56MPD2    N1  880   3.184   1.568  17.745  0.1326 -0.1214 -0.0055
   56MPD2    H7  881   3.227   1.622  17.671 -2.6742  0.4832 -1.1945
   57TMC2    C1  882   2.594   1.797  13.761  0.1847  0.4136 -0.0886
   57TMC2    C2  883   2.621   1.694  13.850 -0.3957  0.6046 -0.1269
   57TMC2    C3  884   2.709   1.598  13.802  0.2411  0.4840  0.6937
   57TMC2    C4  885   2.646   1.802  13.631 -0.3308 -0.8035 -0.2905
   57TMC2    C5  886   2.743   1.714  13.605  0.3642 -1.3002  0.2427
   57TMC2    C6  887   2.769   1.606  13.682  0.1222 -0.6964  0.2118
   57TMC2     C  888   2.472   1.875  13.776  0.3911  0.3769 -1.2248
   57TMC2     O  889   2.418   1.905  13.672 -0.0246 -0.3503 -0.2251
   57TMC2     H  890   2.582   1.689  13.951 -2.2977  0.9858 -0.8425
   57TMC2    H1  891   2.626   1.890  13.571 -2.0498 -0.5193  0.7188
   57TMC2    H2  892   2.855   1.547  13.652 -0.7704 -0.1419 -3.4533
   57TMC2    C7  893   2.808   1.728  13.478 -0.1376  0.6179 -0.2886
   57TMC2    C8  894   2.709   1.469  13.869 -0.3797 -0.0255 -0.1781
   57TMC2    O1  895   2.815   1.843  13.437  0.5382 -0.1002 -0.4086
   57TMC2    O2  896   2.668   1.435  13.978 -0.2445  1.0084 -0.0915
   57TMC2    O5  897   2.670   1.391  13.763 -0.5350 -0.2749 -0.2804
   57TMC2    H5  898   2.673   1.430  13.672  0.9125 -0.2703 -0.2306
   58MPD2     C  899   2.053   1.996  14.045 -0.5477 -0.3595 -0.6357
   58MPD2    C1  900   2.078   2.003  13.909  0.0083 -0.7952  0.4331
   58MPD2    C2  901   2.207   1.976  13.859 -0.6789 -0.2974  0.6276
   58MPD2    C3  902   2.303   1.936  13.949 -0.3573  0.4146 -0.2279
   58MPD2    C4  903   2.277   1.949  14.088 -0.3999  0.1310 -0.3206
   58MPD2    C5  904   2.149   1.983  14.135 -0.1245  0.2193 -0.4451
   58MPD2     H  905   2.219   1.961  13.752  0.0346  1.7625  0.4091
   58MPD2    H1  906   2.346   1.915  14.164  0.3109 -0.3524 -1.1778
   58MPD2    H2  907   1.956   2.020  14.087  0.7667 -1.7447  3.1639
   58MPD2    H3  908   2.126   1.966  14.239  1.3398  0.1172 -0.1463
   58MPD2     N  909   2.425   1.888  13.905 -0.0054 -0.0121 -0.4074
   58MPD2    H5  910   2.491   1.865  13.979 -0.6875 -2.1730 -0.4770
   58MPD2    N1  911   1.975   2.012  13.811 -0.2416 -0.3714  0.1503
   58MPD2    H7  912   2.002   2.018  13.714 -0.1158  0.8286  0.2506
   59TMC2    C1  913   4.716   1.539  12.619  0.2435  0.1854 -0.0031
   59TMC2    C2  914   0.061   1.442  12.668 -0.1312 -0.0404 -0.0022
   59TMC2    C3  915   0.057   1.317  12.601 -0.0648 -1.2692  0.3009
   59TMC2    C4  916   4.656   1.526  12.493  0.0265  0.6008  0.1536
   59TMC2    C5  917   4.658   1.400  12.435 -0.7458 -0.3692  0.6122
   59TMC2    C6  918   4.714   1.297  12.492  0.4313  0.0774  0.0149
   59TMC2     C  919   4.711   1.658  12.694 -0.6171  0.1883 -0.3723
   59TMC2     O  920   4.605   1.721  12.681 -0.5425 -0.5334  0.4329
   59TMC2     H  921   0.113   1.445  12.763 -0.1913  0.6725  0.0068
   59TMC2    H1  922   4.585   1.599  12.456 -0.1028  0.6337  0.4657
   59TMC2    H2  923   4.716   1.198  12.447 -2.4646 -0.0851  0.2848
   59TMC2    C7  924   4.594   1.385  12.308  0.8741 -1.0635 -0.2824
   59TMC2    C8  925   0.109   1.204  12.672  0.1046  0.1869  0.2989
   59TMC2    O1  926   4.545   1.272  12.287  0.2814  0.6122 -0.5959
   59TMC2    O2  927   0.212   1.192  12.732  0.2204  0.1309 -0.0881
   59TMC2    O5  928   4.724   1.166  12.724  0.6952 -0.1302 -0.4011
   59TMC2    H5  929   4.643   1.168  12.670  0.1420  0.8559  0.4641
   60MPD2     C  930   0.034   1.926  12.835 -0.0642 -0.4988  0.5509
   60MPD2    C1  931   0.110   1.813  12.841 -0.2766 -0.2730 -0.0925
   60MPD2    C2  932   0.232   1.831  12.909  0.0928  0.0311  0.1451
   60MPD2    C3  933   0.256   1.953  12.974  0.0090 -0.1166  0.0713
   60MPD2    C4  934   0.178   2.064  12.971  0.1075  0.0415 -0.2556
   60MPD2    C5  935   0.066   2.043  12.901  0.3139  0.1615  0.9390
   60MPD2     H  936   0.299   1.746  12.912  0.1677  0.0594 -0.8771
   60MPD2    H1  937   0.188   2.158  13.025 -1.4866  1.0914 -1.8121
   60MPD2    H2  938   4.684   1.927  12.772  0.5122 -2.7168 -0.2547
   60MPD2    H3  939   4.731   2.124  12.899 -0.4715 -0.5446  1.0323
   60MPD2     N  940   0.376   1.957  13.055  0.4263 -0.2110  0.0119
   60MPD2    H5  941   0.447   1.885  13.044 -0.0108 -0.5207 -0.8107
   60MPD2    N1  942   0.090   1.694  12.765 -0.6281 -0.0390 -0.3916
   60MPD2    H7  943   0.171   1.634  12.754 -0.8126 -0.4217  0.3310
   61TMC2    C1  944   4.311   2.492  15.276  0.2701  0.9859  0.0794
   61TMC2    C2  945   4.288   2.412  15.383  0.2406  0.2896  0.1394
   61TMC2    C3  946   4.257   2.475  15.501 -0.5034 -0.4024 -0.3144
   61TMC2    C4  947   4.283   2.627  15.279 -0.5868 -0.3688 -0.5059
   61TMC2    C5  948   4.239   2.686  15.399 -0.4031 -0.4048  0.3898
   61TMC2    C6  949   4.233   2.606  15.513 -0.2131  0.2454  0.0723
   61TMC2     C  950   4.363   2.421  15.164 -0.6555  0.6854 -0.5844
   61TMC2     O  951   4.390   2.304  15.172  0.4056 -0.4370  0.1172
   61TMC2     H  952   4.311   2.306  15.385 -1.3511 -0.0488  1.1115
   61TMC2    H1  953   4.276   2.685  15.187 -1.2966  0.2558 -0.0567
   61TMC2    H2  954   4.175   2.639  15.598 -1.2098 -0.6697 -0.2623
   61TMC2    C7  955   4.214   2.824  15.406 -0.0239  0.0261  0.0823
   61TMC2    C8  956   4.225   2.392  15.613 -0.7931 -1.0028  0.4017
   61TMC2    O1  957   4.220   2.889  15.305  0.5414  0.2709  0.0019
   61TMC2    O2  958   4.207   2.271  15.606  0.3402 -0.6030  0.5742
   61TMC2    O5  959   4.212   2.468  15.723 -0.5099 -0.1772 -0.2646
   61TMC2    H5  960   4.265   2.550  15.712  0.1140 -0.3535  1.3463
   62MPD2     C  961   4.461   2.351  14.882 -0.1718 -0.1969  0.0249
   62MPD2    C1  962   4.449   2.479  14.933 -0.5439 -0.1319 -0.1273
   62MPD2    C2  963   4.495   2.583  14.853 -0.2765 -0.0166  0.0838
   62MPD2    C3  964   4.556   2.553  14.730  0.2455 -0.6557 -0.1037
   62MPD2    C4  965   4.572   2.422  14.688  0.0114 -0.3600 -0.3141
   62MPD2    C5  966   4.523   2.320  14.766  0.1582  0.2740  1.1119
   62MPD2     H  967   4.486   2.686  14.885 -3.6044 -0.5737  0.9445
   62MPD2    H1  968   4.602   2.390  14.589 -1.3771  1.0288 -1.1755
   62MPD2    H2  969   4.430   2.266  14.942 -0.8894 -0.4968 -0.7587
   62MPD2    H3  970   4.546   2.221  14.731  0.0994  0.8876 -0.6542
   62MPD2     N  971   4.612   2.659  14.651 -0.2272  0.6658 -0.3889
   62MPD2    H5  972   4.608   2.752  14.692 -3.6106  0.3696 -0.0415
   62MPD2    N1  973   4.398   2.512  15.066 -0.5079 -0.3525  0.4241
   62MPD2    H7  974   4.389   2.609  15.094  4.1120  0.4604 -0.8767
   63TMC2    C1  975   3.874   3.417  10.319 -0.1443 -0.4941 -0.4409
   63TMC2    C2  976   3.993   3.446  10.253 -0.3138  0.1845  0.8799
   63TMC2    C3  977   3.988   3.516  10.139  0.0048 -0.4518 -0.3440
   63TMC2    C4  978   3.752   3.451  10.271 -0.0458  0.1002 -0.1273
   63TMC2    C5  979   3.755   3.509  10.145  0.4160 -0.0916 -0.2422
   63TMC2    C6  980   3.871   3.547  10.078  0.0011  0.0903  0.5231
   63TMC2     C  981   3.901   3.331  10.440 -0.5402  0.1583 -0.4686
   63TMC2     O  982   4.004   3.349  10.502  0.2719 -0.0596 -0.0238
   63TMC2     H  983   4.085   3.408  10.296 -0.0874  0.8356  0.9644
   63TMC2    H1  984   3.660   3.446  10.328 -0.6202  1.9367 -0.9137
   63TMC2    H2  985   3.879   3.582   9.975 -0.9977 -2.3064 -0.3738
   63TMC2    C7  986   3.647   3.596  10.118 -0.2524  0.7716 -0.1883
   63TMC2    C8  987   4.104   3.504  10.055 -0.0308 -0.0862  0.0476
   63TMC2    O1  988   3.535   3.548  10.132 -1.1465  0.1524 -0.2533
   63TMC2    O2  989   4.128   3.567   9.953  0.3906 -0.4985 -0.7684
   63TMC2    O5  990   4.161   3.379  10.076  0.7491  0.0391 -0.2490
   63TMC2    H5  991   4.135   3.311  10.141  1.5733  0.7740  0.8612
   64MPD2     C  992   3.766   2.993  10.803  0.2161 -0.4391  0.4625
   64MPD2    C1  993   3.683   2.980  10.694 -0.0095  0.3910  0.2807
   64MPD2    C2  994   3.699   3.062  10.587 -0.4735 -0.4749 -0.3730
   64MPD2    C3  995   3.803   3.156  10.580  0.2121  0.0380  0.6564
   64MPD2    C4  996   3.891   3.156  10.683 -0.1981  0.4679  0.7175
   64MPD2    C5  997   3.872   3.078  10.793 -0.6375  0.0052  0.4597
   64MPD2     H  998   3.633   3.048  10.502 -0.7416 -1.4222 -0.0096
   64MPD2    H1  999   3.974   3.225  10.691 -1.0956  1.8104 -1.7514
   64MPD2    H2 1000   3.754   2.930  10.890  1.5915  1.0448  1.7273
   64MPD2    H3 1001   3.936   3.094  10.878  0.4835 -2.8835  0.1755
   64MPD2     N 1002   3.796   3.242  10.467  0.1222 -0.0390 -0.2879
   64MPD2    H5 1003   3.720   3.237  10.400 -0.3571  0.7847  0.2095
   64MPD2    N1 1004   3.582   2.882  10.706 -0.5994  0.0190 -0.2601
   64MPD2    H7 1005   3.582   2.830  10.793  1.4012 -2.7471 -1.9345
   65TMC2    C1 1006   4.602   2.828  15.494  0.0441  0.5550 -0.5169
   65TMC2    C2 1007   4.563   2.803  15.366  0.1618 -0.3385 -0.1090
   65TMC2    C3 1008   4.533   2.912  15.281  0.5667  0.3433  0.7858
   65TMC2    C4 1009   4.614   2.955  15.539 -0.0697 -0.5064  0.7987
   65TMC2    C5 1010   4.576   3.059  15.452  0.4533 -0.2590  0.0360
   65TMC2    C6 1011   4.541   3.040  15.322  0.4338 -0.0596  0.9523
   65TMC2     C 1012   4.581   2.725  15.598 -0.0489  0.1960 -0.8532
   65TMC2     O 1013   4.570   2.764  15.715 -0.0140 -0.3069 -0.4824
   65TMC2     H 1014   4.538   2.701  15.338  1.8128 -1.1338  1.3117
   65TMC2    H1 1015   4.627   2.966  15.646 -3.2812 -0.6499  1.2145
   65TMC2    H2 1016   4.507   3.125  15.263  1.3645 -1.0599 -0.9989
   65TMC2    C7 1017   4.558   3.189  15.503  0.1446  0.0017  0.1109
   65TMC2    C8 1018   4.490   2.884  15.149  0.2783 -0.5688 -0.0198
   65TMC2    O1 1019   4.555   3.275  15.420 -0.2783  0.2369 -0.4763
   65TMC2    O2 1020   4.515   2.767  15.122 -0.1201  0.6581 -0.6824
   65TMC2    O5 1021   4.521   2.989  15.065  0.5476  0.2375 -0.4017
   65TMC2    H5 1022   4.464   3.062  15.098  0.8844 -1.0314  2.9628
   66MPD2     C 1023   4.582   2.484  15.770 -0.2313  0.3336 -0.5607
   66MPD2    C1 1024   4.578   2.477  15.633 -0.1778  0.9006  0.2199
   66MPD2    C2 1025   4.569   2.355  15.570  0.1761  0.1317 -0.2838
   66MPD2    C3 1026   4.578   2.237  15.644  0.6318 -0.2358  0.1150
   66MPD2    C4 1027   4.583   2.243  15.779  0.0666 -0.4341  0.2750
   66MPD2    C5 1028   4.593   2.366  15.840  0.3340 -0.6302  0.2227
   66MPD2     H 1029   4.563   2.351  15.462 -0.7613  0.1126 -0.2317
   66MPD2    H1 1030   4.577   2.154  15.840 -0.4247 -2.3583 -2.5392
   66MPD2    H2 1031   4.581   2.571  15.835  2.1698  0.8454 -1.2149
   66MPD2    H3 1032   4.585   2.369  15.948  0.8154  1.1381  0.2048
   66MPD2     N 1033   4.586   2.109  15.581 -0.6309  0.1540 -0.1278
   66MPD2    H5 1034   4.571   2.032  15.646  1.0023 -2.4719 -2.8688
   66MPD2    N1 1035   4.583   2.593  15.552  0.7119  0.0943  0.2664
   66MPD2    H7 1036   4.594   2.574  15.453  1.6072  2.5134 -0.1017
   67TMC2    C1 1037   0.161   1.663  14.232 -0.5221 -0.0703 -0.3070
   67TMC2    C2 1038   0.073   1.773  14.251  0.5462  0.7106 -0.4322
   67TMC2    C3 1039   0.112   1.864  14.346 -0.9356  0.0123 -0.0158
   67TMC2    C4 1040   0.265   1.642  14.313 -0.2304  0.4138 -0.3455
   67TMC2    C5 1041   0.290   1.728  14.419 -0.1297  0.0554 -0.3967
   67TMC2    C6 1042   0.217   1.839  14.432  0.3370 -0.7205 -0.6123
   67TMC2     C 1043   0.169   1.597  14.103 -0.1561 -0.5338 -0.2542
   67TMC2     O 1044   0.232   1.493  14.098  0.7533  0.0243 -0.1402
   67TMC2     H 1045   4.717   1.796  14.202 -0.2624 -1.0769  0.2848
   67TMC2    H1 1046   0.345   1.572  14.289 -0.5220  0.6182 -1.9055
   67TMC2    H2 1047   0.246   1.921  14.497 -1.0383 -1.4614  0.9338
   67TMC2    C7 1048   0.421   1.735  14.476 -0.3753  0.3864  0.2479
   67TMC2    C8 1049   0.021   1.969  14.379  0.4422  0.3333  0.1720
   67TMC2    O1 1050   0.518   1.689  14.416 -0.0958 -0.3300 -0.5712
   67TMC2    O2 1051   0.033   2.024  14.490 -0.0435  0.3344  0.4622
   67TMC2    O5 1052   0.007   2.040  14.270 -0.3733 -0.5793  0.6660
   67TMC2    H5 1053   0.020   1.994  14.185  1.7075 -0.2034  0.7905
   68MPD2     C 1054   0.132   1.518  13.813  0.4151  0.2497 -0.3697
   68MPD2    C1 1055   0.067   1.622  13.879  0.1921 -0.1046 -0.5825
   68MPD2    C2 1056   4.725   1.700  13.799  0.1486 -0.1987  0.2068
   68MPD2    C3 1057   4.697   1.681  13.662  0.2876 -0.0259 -0.0191
   68MPD2    C4 1058   0.030   1.587  13.598 -0.0903 -1.1884  0.6448
   68MPD2    C5 1059   0.103   1.508  13.681 -0.2578  0.0076  0.4519
   68MPD2     H 1060   4.671   1.785  13.839 -1.1744 -0.9592  0.0396
   68MPD2    H1 1061   0.034   1.577  13.490  2.3011 -2.6541  0.8595
   68MPD2    H2 1062   0.216   1.461  13.851  0.1728 -0.3055 -0.6618
   68MPD2    H3 1063   0.161   1.436  13.624 -1.0763  0.2982 -0.7457
   68MPD2     N 1064   4.617   1.767  13.584  0.0843 -0.1631 -0.1613
   68MPD2    H5 1065   4.621   1.759  13.483 -1.2132 -2.8458 -0.0072
   68MPD2    N1 1066   0.092   1.658  14.014 -0.0960 -0.0572 -0.3128
   68MPD2    H7 1067   0.045   1.743  14.044 -0.1669 -0.4498  0.6727
   69TMC2    C1 1068   2.220   2.605  12.514 -0.6802  0.4313  0.3273
   69TMC2    C2 1069   2.106   2.686  12.510  0.3818  0.0487 -0.4852
   69TMC2    C3 1070   2.117   2.805  12.444  1.3337 -0.4795  0.5895
   69TMC2    C4 1071   2.341   2.638  12.447  0.5941  0.3313  0.2241
   69TMC2    C5 1072   2.335   2.754  12.372 -0.0917 -0.1042  0.3369
   69TMC2    C6 1073   2.229   2.837  12.374  0.3766  0.4556 -0.2883
   69TMC2     C 1074   2.182   2.468  12.484  0.2977  0.4790 -0.4111
   69TMC2     O 1075   2.245   2.415  12.396  0.6126 -0.3218  0.5649
   69TMC2     H 1076   2.021   2.660  12.572 -0.1841  2.0915 -0.3929
   69TMC2    H1 1077   2.426   2.570  12.448  1.3896  1.2896 -1.9342
   69TMC2    H2 1078   2.233   2.933  12.325 -2.1286  0.2138 -0.9914
   69TMC2    C7 1079   2.449   2.785  12.288  0.2869  0.2938 -0.0115
   69TMC2    C8 1080   2.024   2.914  12.465  0.2711 -0.6962  0.4214
   69TMC2    O1 1081   2.445   2.897  12.242  0.8340  0.3356 -0.7193
   69TMC2    O2 1082   2.073   3.023  12.478 -0.0796  0.1513  0.0890
   69TMC2    O5 1083   1.942   2.866  12.553 -0.1470  0.0681  0.2923
   69TMC2    H5 1084   1.909   2.776  12.531 -0.1202  0.2116 -0.3132
   70MPD2     C 1085   2.115   2.183  12.512  0.2309  0.0305  0.4877
   70MPD2    C1 1086   2.057   2.287  12.585 -0.3954 -0.3257 -0.2369
   70MPD2    C2 1087   1.978   2.260  12.698  0.5227 -0.2880  0.4442
   70MPD2    C3 1088   1.961   2.131  12.741  0.9461  0.4961  0.0915
   70MPD2    C4 1089   2.019   2.021  12.674 -0.1611  0.7288 -0.1507
   70MPD2    C5 1090   2.097   2.053  12.566  0.9052 -0.3090  0.8653
   70MPD2     H 1091   1.919   2.335  12.750 -1.2360 -0.8540 -0.7367
   70MPD2    H1 1092   2.013   1.917  12.705  1.0368  1.0311  1.0541
   70MPD2    H2 1093   2.200   2.189  12.444  1.5313 -3.6322  1.7523
   70MPD2    H3 1094   2.149   1.966  12.528 -0.1850 -2.1938  3.7259
   70MPD2     N 1095   1.901   2.094  12.862 -0.3480 -0.5305  0.6840
   70MPD2    H5 1096   1.903   1.996  12.887 -1.5324 -0.2736  1.7259
   70MPD2    N1 1097   2.086   2.423  12.563  0.2032  0.6121  0.1691
   70MPD2    H7 1098   2.046   2.489  12.628  0.0437 -0.0489  0.7434
   71TMC2    C1 1099   4.442   3.515   1.269 -0.0063  0.0655  0.4908
   71TMC2    C2 1100   4.512   3.411   1.308  0.3567 -0.8664  0.5624
   71TMC2    C3 1101   4.549   3.411   1.438  0.0492 -0.5657  0.6207
   71TMC2    C4 1102   4.385   3.611   1.353 -0.2237  0.8096  0.8396
   71TMC2    C5 1103   4.422   3.607   1.480  0.4834 -0.1393 -0.0201
   71TMC2    C6 1104   4.500   3.503   1.525 -0.8424  0.1411  0.8398
   71TMC2     C 1105   4.417   3.523   1.132  0.6464  0.6628  0.8135
   71TMC2     O 1106   4.443   3.632   1.076 -0.1848 -0.0793 -0.6888
   71TMC2     H 1107   4.564   3.348   1.238 -1.3973 -2.7643  0.9781
   71TMC2    H1 1108   4.310   3.674   1.304  0.7953 -0.5048 -2.4093
   71TMC2    H2 1109   4.527   3.487   1.629  0.7143  2.0328  0.7379
   71TMC2    C7 1110   4.312   3.651   1.573  0.3259  0.0040 -0.9355
   71TMC2    C8 1111   4.636   3.299   1.477  0.4255  0.3585  0.6753
   71TMC2    O1 1112   4.353   3.700   1.675  0.7825 -0.3211  0.2104
   71TMC2    O2 1113   4.657   3.212   1.402  0.1994 -0.0061  0.4693
   71TMC2    O5 1114   4.699   3.313   1.597  0.0149  0.7302 -0.3751
   71TMC2    H5 1115   4.698   3.404   1.633 -1.8240  0.5245  0.1064
   72MPD2     C 1116   4.344   3.330   0.653  0.0172 -1.0146 -0.4058
   72MPD2    C1 1117   4.400   3.447   0.700 -0.0927  0.2203 -0.3887
   72MPD2    C2 1118   4.417   3.467   0.834 -0.1781  0.0366 -0.1257
   72MPD2    C3 1119   4.378   3.375   0.928 -1.1397 -0.6312  0.1387
   72MPD2    C4 1120   4.332   3.254   0.879 -0.0864 -0.2841  0.4500
   72MPD2    C5 1121   4.308   3.240   0.745 -0.9093 -1.1123  0.0734
   72MPD2     H 1122   4.461   3.559   0.869 -1.9222  1.4214 -1.5799
   72MPD2    H1 1123   4.302   3.175   0.948 -1.8598 -0.4781 -0.5421
   72MPD2    H2 1124   4.319   3.318   0.548 -0.6528 -0.0633 -0.3568
   72MPD2    H3 1125   4.257   3.151   0.710 -1.0730 -1.4747  1.2446
   72MPD2     N 1126   4.388   3.399   1.070  0.7761 -0.8439 -0.0668
   72MPD2    H5 1127   4.367   3.320   1.130  1.5598 -2.4059 -1.8756
   72MPD2    N1 1128   4.430   3.558   0.612 -0.6879 -0.3951 -0.4929
   72MPD2    H7 1129   4.461   3.645   0.655  0.8033 -0.6683 -1.0371
   73TMC2    C1 1130   4.172   0.600  14.040 -0.6650 -0.5172 -0.1977
   73TMC2    C2 1131   4.073   0.571  14.134  0.2071 -0.0287 -0.7373
   73TMC2    C3 1132   4.112   0.557  14.269 -0.0898  0.4347 -0.0444
   73TMC2    C4 1133   4.311   0.588  14.078 -0.1021 -0.3862  0.1932
   73TMC2    C5 1134   4.342   0.549  14.208  0.2903  0.3182  0.1386
   73TMC2    C6 1135   4.246   0.550  14.300 -0.0752 -0.0467  0.1332
   73TMC2     C 1136   4.150   0.734  13.992 -0.2131 -0.6622  0.5638
   73TMC2     O 1137   4.245   0.804  14.023  0.4995  0.1997  0.6399
   73TMC2     H 1138   3.968   0.587  14.111 -0.2063 -0.1524  0.9994
   73TMC2    H1 1139   4.383   0.602  13.998  1.7915  2.0788  2.3513
   73TMC2    H2 1140   4.266   0.520  14.403 -2.1056  0.3164  0.6397
   73TMC2    C7 1141   4.457   0.621  14.245  0.3700  0.2417  0.1696
   73TMC2    C8 1142   4.026   0.570  14.377 -0.4118 -0.0759  0.4062
   73TMC2    O1 1143   4.546   0.554  14.294  0.1002 -0.4305 -0.1592
   73TMC2    O2 1144   4.059   0.634  14.475  0.4517  0.1192  0.6093
   73TMC2    O5 1145   3.913   0.506  14.349  0.0537 -0.6687 -0.5809
   73TMC2    H5 1146   3.904   0.468  14.259 -1.9019  2.3188 -1.6350
   74MPD2     C 1147   3.885   1.141  13.827  0.2282  0.3886  0.5147
   74MPD2    C1 1148   4.000   1.130  13.891  0.0302 -0.2309  0.0365
   74MPD2    C2 1149   4.051   1.006  13.929  0.0216  0.1590  0.6040
   74MPD2    C3 1150   3.983   0.890  13.901  0.2225 -0.5231  0.2845
   74MPD2    C4 1151   3.856   0.901  13.837  0.6192 -0.0410 -1.0607
   74MPD2    C5 1152   3.816   1.029  13.798 -0.3191  0.2723  0.3913
   74MPD2     H 1153   4.139   0.991  13.990 -0.0579 -0.8534  0.4722
   74MPD2    H1 1154   3.796   0.817  13.804  0.9869 -0.3264 -1.0005
   74MPD2    H2 1155   3.850   1.237  13.789 -0.5753  0.8481  2.4516
   74MPD2    H3 1156   3.728   1.031  13.735  1.8739 -0.5332 -2.7156
   74MPD2     N 1157   4.023   0.762  13.947  0.1584  0.0227 -0.5066
   74MPD2    H5 1158   3.966   0.685  13.915 -0.7411 -0.1662  1.5660
   74MPD2    N1 1159   4.077   1.250  13.900 -0.1365 -0.6781 -0.7101
   74MPD2    H7 1160   4.040   1.333  13.856 -3.7966 -2.2960 -0.6481
   75TMC2    C1 1161   4.488   1.955  13.530 -0.1444 -0.2729  0.2828
   75TMC2    C2 1162   4.477   2.092  13.548 -0.5788 -0.1878  0.1934
   75TMC2    C3 1163   4.394   2.163  13.470  0.4262 -0.3551 -0.4203
   75TMC2    C4 1164   4.419   1.889  13.439 -0.2746  0.1276 -0.2816
   75TMC2    C5 1165   4.340   1.966  13.358 -0.5028  0.4631  0.5818
   75TMC2    C6 1166   4.330   2.098  13.375  0.9954 -0.0735  0.0914
   75TMC2     C 1167   4.557   1.884  13.629 -0.5487  0.1079  0.0321
   75TMC2     O 1168   4.569   1.947  13.731  0.5199 -0.8374 -0.0139
   75TMC2     H 1169   4.534   2.149  13.620  1.1993  0.3406 -1.6565
   75TMC2    H1 1170   4.440   1.785  13.420  1.5231  0.5901 -0.8142
   75TMC2    H2 1171   4.274   2.156  13.302  1.1292  0.7885  0.6659
   75TMC2    C7 1172   4.274   1.892  13.255  0.0066 -0.1388 -0.5879
   75TMC2    C8 1173   4.397   2.304  13.489  0.5076  0.2833 -1.5670
   75TMC2    O1 1174   4.251   1.949  13.148  0.6194 -0.1643 -0.2398
   75TMC2    O2 1175   4.482   2.365  13.550 -0.6162  0.2709 -0.0143
   75TMC2    O5 1176   4.262   2.335  13.498  0.1499  0.2741 -0.1331
   75TMC2    H5 1177   4.199   2.265  13.470  2.6299 -1.9986 -0.1713
   76TMC2    C1 1178   3.426   2.367  12.098 -0.6030 -0.5346 -0.1596
   76TMC2    C2 1179   3.304   2.351  12.157  0.8021  0.0681  1.0018
   76TMC2    C3 1180   3.297   2.283  12.276  0.0529 -0.2290 -0.2250
   76TMC2    C4 1181   3.540   2.329  12.149 -0.0826  0.4374 -0.2931
   76TMC2    C5 1182   3.533   2.258  12.266 -0.5130  0.1669 -0.4860
   76TMC2    C6 1183   3.416   2.228  12.330 -0.1996  0.2237 -0.0740
   76TMC2     C 1184   3.424   2.480  11.998  0.3335 -0.3831  0.5953
   76TMC2     O 1185   3.315   2.507  11.950  0.6460 -0.4937  0.1389
   76TMC2     H 1186   3.215   2.390  12.109 -0.6541  0.9303  4.4258
   76TMC2    H1 1187   3.630   2.337  12.089 -0.9486 -0.1151 -1.6453
   76TMC2    H2 1188   3.430   2.193  12.432  2.8450  1.2008 -0.1743
   76TMC2    C7 1189   3.657   2.197  12.321  0.3857  0.4272  0.3342
   76TMC2    C8 1190   3.170   2.284  12.337 -0.1907 -0.2885 -0.7260
   76TMC2    O1 1191   3.643   2.108  12.405 -0.2425 -0.0306  0.2075
   76TMC2    O2 1192   3.075   2.342  12.297 -0.9763 -0.1082 -0.3619
   76TMC2    O5 1193   3.166   2.155  12.379  0.4856 -0.1595  0.0175
   76TMC2    H5 1194   3.239   2.120  12.435 -0.2978 -1.1209  0.4451
   77MPD2     C 1195   3.558   2.963  11.934 -0.4838  0.3353 -0.0768
   77MPD2    C1 1196   3.445   2.894  11.890 -0.0158  0.4635 -0.0324
   77MPD2    C2 1197   3.436   2.762  11.913 -0.8190  0.3922  0.0810
   77MPD2    C3 1198   3.540   2.696  11.973  0.5861 -0.5935 -0.5710
   77MPD2    C4 1199   3.653   2.765  12.013  0.3171 -0.0585 -0.6996
   77MPD2    C5 1200   3.660   2.898  12.000 -0.5756  0.0883  0.0671
   77MPD2     H 1201   3.353   2.707  11.871  0.8502 -0.3485 -2.2517
   77MPD2    H1 1202   3.732   2.718  12.070 -0.0260 -0.5154 -0.5948
   77MPD2    H2 1203   3.557   3.071  11.936 -0.5384  0.3042  1.6226
   77MPD2    H3 1204   3.740   2.962  12.036 -2.0200  1.9140  0.0342
   77MPD2     N 1205   3.533   2.559  12.009  0.3526  0.6201  0.2803
   77MPD2    H5 1206   3.610   2.516  12.059 -0.2781 -1.9410 -0.9439
   77MPD2    N1 1207   3.325   2.958  11.856  0.5245  0.5392 -0.3306
   77MPD2    H7 1208   3.244   2.897  11.849  0.7188  0.3363 -0.7894
   78TMC2    C1 1209   4.113   2.791   0.017 -0.3983 -0.2316 -0.0833
   78TMC2    C2 1210   4.019   2.709   0.065  0.8552 -0.0272  0.1456
   78TMC2    C3 1211   4.037   2.645   0.187 -0.4882 -0.0374 -0.5763
   78TMC2    C4 1212   4.229   2.816   0.088  0.1769 -0.0492  0.2686
   78TMC2    C5 1213   4.253   2.746   0.198 -0.2473  0.1999  0.3643
   78TMC2    C6 1214   4.160   2.656   0.249  0.3131  0.1290  0.9733
   78TMC2     C 1215   4.064   2.883  17.659  0.5380  0.8060  0.6495
   78TMC2     O 1216   3.982   2.842  17.580 -0.5938  0.2458  0.1213
   78TMC2     H 1217   3.926   2.695   0.010 -0.8849  0.2066  3.0255
   78TMC2    H1 1218   4.296   2.891   0.046  0.4072 -1.1423 -1.3234
   78TMC2    H2 1219   4.177   2.623   0.351  0.2507  0.4369  1.0855
   78TMC2    C7 1220   4.388   2.762   0.257 -0.0284  0.4181 -0.0535
   78TMC2    C8 1221   3.925   2.603   0.273 -0.3261 -0.0100  0.0665
   78TMC2    O1 1222   4.444   2.871   0.261  0.1196 -0.5127 -0.0614
   78TMC2    O2 1223   3.937   2.515   0.357 -0.2272  0.5645 -0.6299
   78TMC2    O5 1224   3.828   2.695   0.266  0.3782 -0.2892 -0.8950
   78TMC2    H5 1225   3.852   2.781   0.226 -0.7551 -0.1636 -1.3196
   79MPD1     C 1226   4.105   3.314  17.400 -0.0105  0.2933  0.0221
   79MPD1    C1 1227   4.060   3.191  17.360  0.3389 -0.8810  0.7070
   79MPD1    C2 1228   4.075   3.088  17.451 -0.0729  0.4188 -0.1153
   79MPD1    C3 1229   4.103   3.108  17.584  0.0239  0.0131  0.3269
   79MPD1    C4 1230   4.132   3.236  17.623  0.6104  0.1780 -0.2492
   79MPD1    C5 1231   4.139   3.337  17.529 -0.4628  0.1462 -0.6948
   79MPD1     H 1232   4.052   2.988  17.417 -1.6372  0.5886  0.4478
   79MPD1    H1 1233   4.152   3.260  17.727  1.6304  0.6518 -0.5530
   79MPD1    H2 1234   4.112   3.388  17.321 -0.7912  0.6521  0.2846
   79MPD1    H3 1235   4.163   3.436  17.566 -0.0965 -0.1818 -0.0681
   79MPD1     N 1236   4.117   3.009  17.676 -0.2016 -0.4041  0.0866
   79MPD1    H5 1237   4.147   3.030   0.022  1.4731  2.4010 -1.0802
   79MPD1    N1 1238   4.033   3.165  17.225  0.2347 -0.0709  0.4496
   79MPD1    H6 1239   3.971   3.236  17.185 -0.3341  0.0505  1.5495
   79MPD1    H7 1240   3.979   3.080  17.216  1.6000 -0.9644  0.6917
   80TMC2    C1 1241   2.056   1.612  11.888 -0.2698 -0.1892  0.1526
   80TMC2    C2 1242   2.156   1.522  11.900  0.4464  0.0473 -0.0761
   80TMC2    C3 1243   2.123   1.389  11.909  0.6161  0.5664  0.4013
   80TMC2    C4 1244   1.920   1.571  11.898  0.1908  0.3833  0.1529
   80TMC2    C5 1245   1.892   1.440  11.893  0.0604  0.3788  0.3373
   80TMC2    C6 1246   1.991   1.348  11.913  0.0166 -0.1799  0.0915
   80TMC2     C 1247   2.096   1.750  11.868 -0.0234  0.4715  0.1842
   80TMC2     O 1248   2.216   1.773  11.850 -0.5512  0.2207 -0.7234
   80TMC2     H 1249   2.258   1.560  11.895  0.1048  1.0228  0.4809
   80TMC2    H1 1250   1.839   1.641  11.878 -0.5336 -0.4941  0.0046
   80TMC2    H2 1251   1.965   1.243  11.911  0.4736 -0.3095  0.7731
   80TMC2    C7 1252   1.782   1.402  11.978 -0.0193  0.0343  0.0350
   80TMC2    C8 1253   2.235   1.301  11.920  0.6249  0.4530  0.0475
   80TMC2    O1 1254   1.701   1.325  11.927 -0.3826  0.1192  0.3138
   80TMC2    O2 1255   2.346   1.324  11.877  0.1679 -0.4450  0.3745
   80TMC2    O5 1256   2.203   1.209  12.015  0.3534 -0.0906  0.2871
   80TMC2    H5 1257   2.112   1.217  12.053  0.0301  0.5208 -0.6275
   81MPD2     C 1258   2.121   2.048  11.841 -0.2248  0.1218  0.6414
   81MPD2    C1 1259   2.007   1.975  11.889  0.6280  0.0356  1.3481
   81MPD2    C2 1260   1.896   2.053  11.910  0.3302  0.6308 -0.1719
   81MPD2    C3 1261   1.899   2.189  11.919 -0.3918  0.7655  0.2127
   81MPD2    C4 1262   2.003   2.259  11.879 -0.0268 -0.6249  0.7212
   81MPD2    C5 1263   2.116   2.187  11.845  0.0617  0.1570 -0.2245
   81MPD2     H 1264   1.810   1.988  11.925  2.0012 -1.6514 -0.4449
   81MPD2    H1 1265   2.017   2.367  11.886 -1.2019 -0.4037 -0.3391
   81MPD2    H2 1266   2.209   1.999  11.799 -1.4737  0.7901 -2.7658
   81MPD2    H3 1267   2.195   2.244  11.799  0.8852  1.1649  2.4242
   81MPD2     N 1268   1.779   2.257  11.972  0.4283  0.3346 -0.2199
   81MPD2    H5 1269   1.770   2.356  11.954  1.2178  0.4372 -0.0237
   81MPD2    N1 1270   1.987   1.837  11.884 -0.1475 -0.0536  0.0617
   81MPD2    H7 1271   1.895   1.800  11.904  0.6122 -1.5709  0.8516
   82TMC2    C1 1272   0.530   1.070  11.695  0.4385  0.5218 -0.3612
   82TMC2    C2 1273   0.603   1.001  11.602 -0.1328  0.3654 -1.1113
   82TMC2    C3 1274   0.657   0.880  11.646  0.7655  0.3595  0.3944
   82TMC2    C4 1275   0.517   1.028  11.824 -1.0977 -0.1039  0.6662
   82TMC2    C5 1276   0.585   0.918  11.865  0.0335  0.2858 -0.3364
   82TMC2    C6 1277   0.652   0.839  11.780 -0.7038  0.0361  0.2803
   82TMC2     C 1278   0.469   1.189  11.637  0.5476  0.0610  0.8642
   82TMC2     O 1279   0.464   1.200  11.513 -0.0769 -0.4700  0.5792
   82TMC2     H 1280   0.640   1.050  11.513 -1.0297  2.6333 -0.2303
   82TMC2    H1 1281   0.472   1.091  11.900  0.7705  0.9163  0.9271
   82TMC2    H2 1282   0.687   0.740  11.805 -2.0739 -0.0247  1.9129
   82TMC2    C7 1283   0.524   0.843  11.970 -0.5046  0.3165  0.6319
   82TMC2    C8 1284   0.734   0.816  11.556  0.2958 -0.0941 -0.1909
   82TMC2    O1 1285   0.407   0.870  11.989  0.1628  0.4951  0.4891
   82TMC2    O2 1286   0.795   0.896  11.487 -0.7031 -0.0299 -0.1217
   82TMC2    O5 1287   0.653   0.719  11.520  0.0340 -0.0405  0.1908
   82TMC2    H5 1288   0.630   0.662  11.596  0.1467  2.2477  1.9370
   83MPD2     C 1289   0.201   1.628  11.647  0.4887  0.3186  0.0970
   83MPD2    C1 1290   0.226   1.542  11.543  0.1740 -0.1063  0.2978
   83MPD2    C2 1291   0.298   1.427  11.565 -0.5166  0.3387 -0.2312
   83MPD2    C3 1292   0.342   1.390  11.693  0.0703 -0.5298 -0.2366
   83MPD2    C4 1293   0.305   1.472  11.797  0.0490  0.3058  0.0082
   83MPD2    C5 1294   0.233   1.586  11.771  0.4215 -0.0925  0.0208
   83MPD2     H 1295   0.322   1.368  11.478 -1.1756  1.2991 -1.0699
   83MPD2    H1 1296   0.323   1.451  11.902  0.2208 -0.8497 -0.2602
   83MPD2    H2 1297   0.145   1.720  11.630  1.3503  1.0632  1.2987
   83MPD2    H3 1298   0.190   1.647  11.850 -1.9180 -0.6447 -0.8083
   83MPD2     N 1299   0.416   1.279  11.727  0.4780 -0.3675 -0.2990
   83MPD2    H5 1300   0.433   1.270  11.826 -1.5411 -0.6960  0.0225
   83MPD2    N1 1301   0.183   1.572  11.411 -0.7146 -0.4195 -0.2996
   83MPD2    H7 1302   0.138   1.663  11.404  0.0829  0.1147  1.3228
   84TMC2    C1 1303   1.560   0.653  11.030 -0.0457  0.7710 -0.2969
   84TMC2    C2 1304   1.653   0.758  11.065  0.2787  0.0411 -0.0550
   84TMC2    C3 1305   1.758   0.767  10.983 -0.2833 -0.3093 -0.0336
   84TMC2    C4 1306   1.556   0.604  10.901  0.0179  0.2179  0.4618
   84TMC2    C5 1307   1.651   0.646  10.810  0.6547 -0.5763  0.3867
   84TMC2    C6 1308   1.754   0.724  10.854  0.3493 -0.4483  0.0841
   84TMC2     C 1309   1.484   0.599  11.137  0.2168 -0.3977 -0.5766
   84TMC2     O 1310   1.474   0.672  11.232 -0.0545  0.0595 -0.6686
   84TMC2     H 1311   1.650   0.807  11.162 -1.1070  1.1853 -0.6951
   84TMC2    H1 1312   1.473   0.536  10.881 -0.8217  1.4842 -0.3490
   84TMC2    H2 1313   1.848   0.731  10.801 -0.5471  0.4099 -1.3924
   84TMC2    C7 1314   1.619   0.626  10.674 -0.0230  0.6537 -0.1497
   84TMC2    C8 1315   1.889   0.810  11.032  0.0431  1.0273  0.1724
   84TMC2    O1 1316   1.541   0.531  10.651  0.6408 -0.5004 -0.1349
   84TMC2    O2 1317   1.984   0.855  10.967  0.2872  0.0682  0.7100
   84TMC2    O5 1318   1.881   0.823  11.166 -0.3559 -0.3416 -0.1434
   84TMC2    H5 1319   1.818   0.757  11.204  1.1658 -1.8032 -0.1917
   85TMC2    C1 1320   2.487   3.668  15.905  0.0997  0.1350 -0.0987
   85TMC2    C2 1321   2.516   3.795  15.940  0.4910 -0.5689 -0.9236
   85TMC2    C3 1322   2.617   3.860  15.868 -0.5950  0.4779  0.4226
   85TMC2    C4 1323   2.554   3.602  15.809 -0.2727  0.3586 -0.2368
   85TMC2    C5 1324   2.650   3.672  15.742 -0.2087 -0.2518 -0.6297
   85TMC2    C6 1325   2.681   3.803  15.768 -0.1715  0.1404  0.2844
   85TMC2     C 1326   2.458   3.580  16.023  0.5606 -0.4489 -1.1974
   85TMC2     O 1327   2.484   3.623  16.138 -0.0222 -0.9869 -0.1235
   85TMC2     H 1328   2.461   3.837  16.023  3.9321 -0.5625  1.3274
   85TMC2    H1 1329   2.542   3.496  15.793 -0.0432  0.4550 -1.0249
   85TMC2    H2 1330   2.773   3.854  15.743  0.2655 -0.1264  1.3778
   85TMC2    C7 1331   2.691   3.625  15.618  0.3714 -0.8010 -0.1027
   85TMC2    C8 1332   2.674   3.968  15.940  0.3425  0.2583 -0.4387
   85TMC2    O1 1333   2.700   3.504  15.609  0.7377  0.2731  0.3995
   85TMC2    O2 1334   2.653   3.985  16.060  0.2460 -0.3823 -0.6215
   85TMC2    O5 1335   2.720   4.052  15.847 -0.2952  0.2019  0.1154
   85TMC2    H5 1336   2.700   4.035  15.753  1.1477  0.3030 -0.2071
   86MPD2     C 1337   2.386   3.128  16.228  0.7342 -0.1729  0.2896
   86MPD2    C1 1338   2.277   3.150  16.145 -0.0824  0.1536  0.3170
   86MPD2    C2 1339   2.286   3.256  16.060  0.0462 -0.4522 -0.9876
   86MPD2    C3 1340   2.384   3.346  16.076  0.4394 -0.2799 -0.2656
   86MPD2    C4 1341   2.474   3.337  16.177 -1.1304  0.2043  0.0850
   86MPD2    C5 1342   2.480   3.218  16.247 -0.0566  0.4274  0.2277
   86MPD2     H 1343   2.206   3.283  15.991 -0.2961  1.6745  0.2338
   86MPD2    H1 1344   2.543   3.416  16.205 -3.0556  1.4528  1.2194
   86MPD2    H2 1345   2.386   3.042  16.295  1.0531 -1.6018 -1.5463
   86MPD2    H3 1346   2.547   3.220  16.333  2.8461 -1.3600 -2.0063
   86MPD2     N 1347   2.378   3.468  15.994 -0.3740 -0.1662  0.4294
   86MPD2    H5 1348   2.333   3.465  15.903 -3.2428  0.8859  1.8107
   86MPD2    N1 1349   2.171   3.057  16.141 -0.5967  0.6483 -0.1377
   86MPD2    H7 1350   2.116   3.059  16.057  0.4293 -0.2424 -0.8366
   87TMC2    C1 1351   0.596   1.697   0.082 -0.4121 -0.2614 -0.0534
   87TMC2    C2 1352   0.661   1.752  17.721 -0.9573  0.1980 -0.2650
   87TMC2    C3 1353   0.751   1.853  17.747  0.3754  0.3226 -0.1749
   87TMC2    C4 1354   0.615   1.739   0.213  0.4915  0.0190 -0.2176
   87TMC2    C5 1355   0.704   1.843   0.238  0.5250  0.0837  0.0551
   87TMC2    C6 1356   0.779   1.896   0.131  0.5363 -0.0225  0.4556
   87TMC2     C 1357   0.523   1.575   0.046 -0.4736  0.6434  0.0703
   87TMC2     O 1358   0.544   1.527  17.683 -0.2742  0.1241  0.1957
   87TMC2     H 1359   0.623   1.730  17.622  0.8715  2.5630 -1.4796
   87TMC2    H1 1360   0.576   1.679   0.294 -1.6973 -1.5198 -2.3895
   87TMC2    H2 1361   0.848   1.977   0.149 -0.5435  0.8047  0.8546
   87TMC2    C7 1362   0.698   1.905   0.366 -0.4064 -0.4851  0.4314
   87TMC2    C8 1363   0.839   1.882  17.636  0.0492  0.6852 -0.5272
   87TMC2    O1 1364   0.591   1.895   0.426  0.2065 -0.1783  0.0788
   87TMC2    O2 1365   0.821   1.864  17.516 -0.3634 -0.4663  0.1905
   87TMC2    O5 1366   0.965   1.900  17.685  0.3233  0.3521  0.1991
   87TMC2    H5 1367   0.973   1.911   0.034  0.1880  1.6551  0.0599
   88MPD2     C 1368   0.959   2.089   0.557 -0.1091 -0.8212  0.4082
   88MPD2    C1 1369   0.827   2.053   0.525 -0.2712  0.2607 -0.1085
   88MPD2    C2 1370   0.717   2.090   0.598  0.2226 -0.5542  0.0179
   88MPD2    C3 1371   0.738   2.165   0.716 -0.1157 -0.5693  0.1269
   88MPD2    C4 1372   0.871   2.208   0.744  0.4366  0.4507  0.7119
   88MPD2    C5 1373   0.975   2.167   0.668 -0.1276 -0.6768  0.5324
   88MPD2     H 1374   0.620   2.048   0.575  0.5661 -0.6585 -1.2692
   88MPD2    H1 1375   0.885   2.271   0.831  2.4605  0.0431  0.6652
   88MPD2    H2 1376   1.042   2.076   0.489 -1.2808  1.5463 -1.4847
   88MPD2    H3 1377   1.073   2.211   0.682  0.4523 -2.1132  1.0624
   88MPD2     N 1378   0.636   2.223   0.798  0.1980  0.3730 -0.3008
   88MPD2    H5 1379   0.661   2.281   0.878 -1.9646 -1.8463  1.9967
   88MPD2    N1 1380   0.814   1.974   0.403 -0.3212  0.2546  0.1924
   88MPD2    H7 1381   0.893   1.972   0.340  0.2374  0.1368  0.8923
   89TMC2    C1 1382   1.013   4.312   1.562 -0.6419 -0.3991  0.2411
   89TMC2    C2 1383   0.940   4.427   1.584 -0.9204 -0.1502  0.1040
   89TMC2    C3 1384   0.981   4.536   1.521  0.2553 -0.3109  0.0286
   89TMC2    C4 1385   1.097   4.317   1.458  0.3440 -0.7772  0.0265
   89TMC2    C5 1386   1.125   4.433   1.388 -0.0637  0.4804 -0.6505
   89TMC2    C6 1387   1.075   4.553   1.424  0.5109  0.1345  0.8562
   89TMC2     C 1388   0.958   4.184   1.611  0.6598 -0.0395  0.4796
   89TMC2     O 1389   0.973   4.091   1.537 -0.1288  0.0900 -0.3288
   89TMC2     H 1390   0.869   4.432   1.666  0.0505  3.2677  0.7113
   89TMC2    H1 1391   1.156   4.227   1.445 -1.0263 -1.7203  0.4035
   89TMC2    H2 1392   1.081   4.651   1.379 -0.7843  0.0433  0.4706
   89TMC2    C7 1393   1.240   4.426   1.303 -0.8336  0.3713 -1.0591
   89TMC2    C8 1394   0.905   4.656   1.558  0.8589 -0.2941  0.5519
   89TMC2    O1 1395   1.304   4.324   1.307 -0.4138  0.1369 -0.2642
   89TMC2    O2 1396   0.790   4.664   1.588 -0.2695 -0.7509 -0.2580
   89TMC2    O5 1397   0.996   0.002   1.606  0.1775  0.3832  0.6535
   89TMC2    H5 1398   1.089   4.711   1.591  0.1748 -0.0041  1.3692
   90MPD2     C 1399   0.743   3.890   1.963 -0.3542  0.2149 -0.3798
   90MPD2    C1 1400   0.738   3.883   1.825  0.6308 -0.4617 -0.2967
   90MPD2    C2 1401   0.800   3.991   1.758  0.1590 -0.2935  0.7326
   90MPD2    C3 1402   0.856   4.095   1.821 -0.2091  0.0046  0.2598
   90MPD2    C4 1403   0.851   4.102   1.955  0.2947  0.0654 -1.0816
   90MPD2    C5 1404   0.800   3.997   2.023  0.0719 -0.4910 -0.2258
   90MPD2     H 1405   0.801   3.991   1.649  0.8598 -0.2316  0.7364
   90MPD2    H1 1406   0.895   4.182   2.014  0.2661 -0.3414 -0.5071
   90MPD2    H2 1407   0.695   3.826   2.036  0.5143 -0.0229 -0.0182
   90MPD2    H3 1408   0.807   3.999   2.131  1.3978  3.6370 -0.4027
   90MPD2     N 1409   0.927   4.194   1.744 -0.5338 -0.0959 -0.4420
   90MPD2    H5 1410   0.958   4.280   1.788 -0.3769 -0.9522  1.1169
   90MPD2    N1 1411   0.681   3.782   1.744  0.2599  0.4474 -0.2377
   90MPD2    H7 1412   0.673   3.802   1.645 -1.3453 -0.2472 -0.2470
   91TMC2    C1 1413   2.104   4.466  15.926 -0.7184  0.2939 -0.2562
   91TMC2    C2 1414   2.164   4.521  16.036  0.3843  0.4125  0.6442
   91TMC2    C3 1415   2.113   4.496  16.160  1.1655 -1.0980  0.1744
   91TMC2    C4 1416   1.986   4.402  15.944 -0.4391  0.8551 -0.2504
   91TMC2    C5 1417   1.932   4.382  16.071  0.2801 -0.4694  0.1706
   91TMC2    C6 1418   2.005   4.424  16.177 -0.2093  0.0702  0.4876
   91TMC2     C 1419   2.185   4.450  15.800  0.5326  0.5635 -0.1487
   91TMC2     O 1420   2.131   4.436  15.691 -0.2487 -0.2634 -0.1133
   91TMC2     H 1421   2.254   4.578  16.014 -0.2906 -0.2697 -3.8493
   91TMC2    H1 1422   1.930   4.371  15.856  0.4607 -1.8451  0.1293
   91TMC2    H2 1423   1.968   4.391  16.274 -0.0322 -1.0366  0.1856
   91TMC2    C7 1424   1.856   4.262  16.094  0.2797 -0.1409  0.2225
   91TMC2    C8 1425   2.173   4.540  16.285  0.9584 -0.1269  0.1538
   91TMC2    O1 1426   1.873   4.197  16.201  0.3320  0.4838 -0.3788
   91TMC2    O2 1427   2.106   4.565  16.385 -0.1293  0.1857 -0.0375
   91TMC2    O5 1428   2.306   4.542  16.266  0.3377 -0.7546 -0.2662
   91TMC2    H5 1429   2.330   4.473  16.201 -0.6942 -1.5630  0.1965
   92MPD2     C 1430   2.433   4.469  15.617 -0.0281  0.3433 -0.2137
   92MPD2    C1 1431   2.432   4.443  15.752 -0.0582  0.4554 -0.6326
   92MPD2    C2 1432   2.546   4.415  15.820 -0.0754 -0.0228  0.3077
   92MPD2    C3 1433   2.667   4.415  15.761 -0.1211  0.0172  0.0644
   92MPD2    C4 1434   2.675   4.450  15.626  0.1252  0.2880 -0.4988
   92MPD2    C5 1435   2.557   4.471  15.556  0.2926 -0.4933  0.6876
   92MPD2     H 1436   2.534   4.389  15.925  1.8334  2.1161  1.0600
   92MPD2    H1 1437   2.767   4.459  15.570  0.0215 -0.0036 -0.7137
   92MPD2    H2 1438   2.348   4.497  15.556  0.5206  1.3071 -0.5374
   92MPD2    H3 1439   2.564   4.483  15.449 -0.5731  2.4291  0.9536
   92MPD2     N 1440   2.785   4.376  15.836  0.0930 -0.2715 -0.5816
   92MPD2    H5 1441   2.875   4.379  15.790  0.4531 -0.8435  0.0922
   92MPD2    N1 1442   2.318   4.427  15.829 -0.4025 -0.1227  0.3420
   92MPD2    H7 1443   2.335   4.416  15.928 -1.9045  1.0486  0.7248
   93TMC2    C1 1444   4.142   4.325  14.138  0.0259 -0.4119  0.2763
   93TMC2    C2 1445   4.158   4.265  14.264  0.1162 -0.3817 -0.1466
   93TMC2    C3 1446   4.282   4.269  14.320  0.7213 -0.3936 -0.3811
   93TMC2    C4 1447   4.248   4.376  14.067  0.0071  0.2305 -0.3518
   93TMC2    C5 1448   4.371   4.368  14.122  1.1056  0.0105  0.1169
   93TMC2    C6 1449   4.396   4.308  14.242 -0.1296 -0.7284  0.6730
   93TMC2     C 1450   4.040   4.258  14.072 -0.0852 -0.1908 -0.1552
   93TMC2     O 1451   3.927   4.259  14.119 -0.0344 -0.4964  0.4465
   93TMC2     H 1452   4.073   4.224  14.318 -0.8334  0.2689 -1.1759
   93TMC2    H1 1453   4.231   4.417  13.968 -1.8941  2.5769  0.9511
   93TMC2    H2 1454   4.491   4.320  14.293  0.1962 -0.3826 -0.0105
   93TMC2    C7 1455   4.465   4.470  14.082  0.7711  0.2571  0.1647
   93TMC2    C8 1456   4.293   4.231  14.464 -0.6764 -0.2905 -0.1057
   93TMC2    O1 1457   4.582   4.444  14.108  0.0686  0.6748  0.3559
   93TMC2    O2 1458   4.190   4.220  14.524 -0.3804 -0.1416  0.1336
   93TMC2    O5 1459   4.416   4.173  14.495  0.0617  0.5862 -0.3885
   93TMC2    H5 1460   4.470   4.148  14.417  1.4339  0.3557  0.6318
   94MPD2     C 1461   4.077   3.998  13.808 -0.2573  0.0691  0.2865
   94MPD2    C1 1462   4.020   4.100  13.882 -0.0890 -0.2681 -0.4623
   94MPD2    C2 1463   3.882   4.129  13.850 -0.1200  0.2405  0.0015
   94MPD2    C3 1464   3.812   4.048  13.759 -0.2638 -0.7253  0.4484
   94MPD2    C4 1465   3.865   3.943  13.690 -0.3085  0.4476  0.2239
   94MPD2    C5 1466   3.998   3.920  13.723  0.0807 -0.3491 -0.3035
   94MPD2     H 1467   3.826   4.206  13.904 -0.4035 -2.2409  3.2776
   94MPD2    H1 1468   3.814   3.880  13.618 -0.3840  0.6665  0.0883
   94MPD2    H2 1469   4.183   3.979  13.820  0.0175  0.8413 -0.9256
   94MPD2    H3 1470   4.037   3.833  13.671 -2.0302 -1.6948  0.3621
   94MPD2     N 1471   3.676   4.075  13.726 -0.5706 -0.3118 -0.3968
   94MPD2    H5 1472   3.619   4.008  13.677 -0.0226  0.9675 -2.7879
   94MPD2    N1 1473   4.097   4.180  13.970 -0.5085  0.0293 -0.2441
   94MPD2    H7 1474   4.198   4.177  13.964 -0.4788  0.8074 -0.1490
   95TMC2    C1 1475   4.059   1.499  16.104 -0.3109 -0.1991 -0.3147
   95TMC2    C2 1476   4.047   1.366  16.141  0.3432 -0.5748  0.4860
   95TMC2    C3 1477   4.058   1.334  16.270 -0.0989 -0.4169 -0.3892
   95TMC2    C4 1478   4.085   1.592  16.201  0.0170  0.1769 -0.4063
   95TMC2    C5 1479   4.082   1.568  16.335  0.0759  0.4533  0.5662
   95TMC2    C6 1480   4.065   1.432  16.370 -0.0249 -0.0056  0.1688
   95TMC2     C 1481   4.065   1.537  15.965  0.3539  0.6028 -0.0924
   95TMC2     O 1482   4.101   1.654  15.944 -0.3890 -0.3131 -0.4272
   95TMC2     H 1483   4.036   1.292  16.063  1.9831 -0.4257  0.1000
   95TMC2    H1 1484   4.092   1.693  16.163  1.4173 -0.0648 -0.7767
   95TMC2    H2 1485   4.056   1.396  16.472  1.0779  0.6780  0.4983
   95TMC2    C7 1486   4.069   1.681  16.422 -0.3133  0.0560  0.2961
   95TMC2    C8 1487   4.043   1.200  16.330  0.0345 -0.3773  0.0904
   95TMC2    O1 1488   4.089   1.788  16.367 -0.0280 -0.5966 -0.6848
   95TMC2    O2 1489   3.995   1.178  16.436  0.0899 -0.1651 -0.3091
   95TMC2    O5 1490   4.063   1.106  16.238 -0.0025  0.2971  0.0010
   95TMC2    H5 1491   4.113   1.137  16.159  0.9602  0.5100  0.6842
   96MPD2     C 1492   4.036   1.464  15.469  0.4267 -0.4337 -0.0895
   96MPD2    C1 1493   4.117   1.550  15.537  0.2383  0.4601  0.3253
   96MPD2    C2 1494   4.110   1.547  15.675 -0.5911 -0.1805 -0.1420
   96MPD2    C3 1495   4.017   1.462  15.740  0.2304 -0.4241  0.1940
   96MPD2    C4 1496   3.949   1.371  15.670 -0.2304  0.6564  0.6517
   96MPD2    C5 1497   3.963   1.371  15.532 -0.2733 -0.2745  0.0427
   96MPD2     H 1498   4.181   1.612  15.725 -2.7267  0.6165  1.8493
   96MPD2    H1 1499   3.892   1.292  15.717 -0.8810  1.4418  1.1694
   96MPD2    H2 1500   4.019   1.473  15.362 -0.6086 -1.9438 -0.0483
   96MPD2    H3 1501   3.903   1.305  15.472 -0.6950  1.1397 -1.0864
   96MPD2     N 1502   4.015   1.444  15.878  0.4626  0.9834  0.1970
   96MPD2    H5 1503   3.972   1.363  15.922  1.3666 -0.5999 -1.8607
   96MPD2    N1 1504   4.187   1.648  15.459  0.7946 -0.0781 -0.5427
   96MPD2    H7 1505   4.180   1.631  15.359 -2.7942  1.6471 -0.5741
   97TMC2    C1 1506   1.889   4.316  17.429 -0.3878 -0.0940  0.0171
   97TMC2    C2 1507   1.861   4.261  17.305 -0.1961  0.0104  0.0836
   97TMC2    C3 1508   1.826   4.350  17.211 -0.0332 -0.6934 -0.3649
   97TMC2    C4 1509   1.882   4.451  17.459  0.0121 -0.8403 -0.1557
   97TMC2    C5 1510   1.863   4.533  17.351 -0.7680  0.5699  1.2644
   97TMC2    C6 1511   1.820   4.485  17.230 -0.7220  0.3808  0.4584
   97TMC2     C 1512   1.926   4.216  17.523 -0.1025 -0.2259 -0.2219
   97TMC2     O 1513   1.905   4.103  17.492 -0.8992  0.0116 -0.0639
   97TMC2     H 1514   1.878   4.155  17.292 -1.0436 -0.3654  2.0948
   97TMC2    H1 1515   1.897   4.474  17.564  1.2518  1.1757 -0.7896
   97TMC2    H2 1516   1.772   4.554  17.160  1.2050  0.0970 -1.1385
   97TMC2    C7 1517   1.888   4.678  17.350  0.9633  0.2841 -0.1576
   97TMC2    C8 1518   1.753   4.301  17.101 -0.2235 -0.2511 -0.1127
   97TMC2    O1 1519   1.859   0.005  17.248 -0.1251  0.0046 -0.1990
   97TMC2    O2 1520   1.787   4.291  16.983  0.3707  0.6728  0.1978
   97TMC2    O5 1521   1.634   4.263  17.142 -0.1145  0.2424 -0.3432
   97TMC2    H5 1522   1.618   4.285  17.236  0.7712  0.5706 -0.2710
   98MPD2     C 1523   2.021   4.094   0.272 -0.2096 -0.3182 -0.3195
   98MPD2    C1 1524   1.940   4.036   0.184 -0.0622 -0.6002 -0.1140
   98MPD2    C2 1525   1.929   4.084   0.050  0.6241 -0.5038  0.0469
   98MPD2    C3 1526   2.010   4.183   0.011  0.3850 -0.7892  0.5479
   98MPD2    C4 1527   2.091   4.245   0.108 -0.2562  0.5309  0.3079
   98MPD2    C5 1528   2.106   4.194   0.230  0.4031  0.4155 -0.6680
   98MPD2     H 1529   1.852   4.044  17.733  1.3938  0.4951 -1.4560
   98MPD2    H1 1530   2.155   4.330   0.084  1.0582 -0.6102 -0.2132
   98MPD2    H2 1531   2.032   4.052   0.372 -0.3134 -1.1125 -0.6467
   98MPD2    H3 1532   2.166   4.246   0.304  1.1734 -0.5932 -0.5853
   98MPD2     N 1533   1.983   4.261  17.642  0.7580 -0.1219 -0.2606
   98MPD2    H5 1534   2.015   4.357  17.649 -0.4045  0.2987 -0.7423
   98MPD2    N1 1535   1.866   3.920   0.235 -1.0815  0.7770 -0.2023
   98MPD2    H7 1536   1.867   3.889   0.332  2.0757  0.4945 -0.3190
   99TMC2    C1 1537   0.563   0.725   1.787  0.0365 -0.2722 -0.1444
   99TMC2    C2 1538   0.594   0.688   1.920 -0.3927 -1.1348 -0.4572
   99TMC2    C3 1539   0.509   0.718   2.022  0.0552  0.4773  0.5087
   99TMC2    C4 1540   0.451   0.796   1.755 -0.4281 -0.9958 -0.0576
   99TMC2    C5 1541   0.377   0.835   1.866 -0.1081 -0.7371  0.0658
   99TMC2    C6 1542   0.400   0.804   1.997  0.5220 -0.6431  0.3686
   99TMC2     C 1543   0.661   0.696   1.684 -0.1030  0.3083  0.1079
   99TMC2     O 1544   0.776   0.674   1.724  0.2547  0.4036  0.2770
   99TMC2     H 1545   0.679   0.627   1.947  0.4852  0.1788 -0.2169
   99TMC2    H1 1546   0.429   0.828   1.653 -4.5987  0.6566  1.3791
   99TMC2    H2 1547   0.347   0.843   2.084  0.1415  1.8048 -0.9778
   99TMC2    C7 1548   0.258   0.905   1.839 -0.2002  0.2009 -0.2710
   99TMC2    C8 1549   0.554   0.709   2.154  0.7499 -0.0841 -0.2411
   99TMC2    O1 1550   0.204   0.968   1.929  0.0502  0.4027  0.5492
   99TMC2    O2 1551   0.665   0.740   2.184 -0.0059 -0.2992  0.7805
   99TMC2    O5 1552   0.457   0.690   2.233  0.3948 -0.4118  0.2881
   99TMC2    H5 1553   0.374   0.677   2.182  2.2448 -3.0782 -2.0696
  100MPD2     C 1554   0.810   0.623   1.442 -0.1991 -0.3725 -0.1039
  100MPD2    C1 1555   0.679   0.663   1.444 -0.1452  0.6165 -0.4363
  100MPD2    C2 1556   0.616   0.662   1.325 -0.5874  0.1574  0.0060
  100MPD2    C3 1557   0.664   0.612   1.208 -0.2956 -0.0469  0.0911
  100MPD2    C4 1558   0.795   0.573   1.209  0.0051  0.2089 -0.8449
  100MPD2    C5 1559   0.868   0.593   1.325  1.4602  0.4765  0.0989
  100MPD2     H 1560   0.509   0.682   1.328 -0.6207  0.2703 -1.8828
  100MPD2    H1 1561   0.843   0.522   1.126 -1.7733  0.3808 -1.9797
  100MPD2    H2 1562   0.873   0.627   1.530 -0.4218 -0.1414  0.0458
  100MPD2    H3 1563   0.970   0.559   1.338  0.9149 -2.0476 -2.3186
  100MPD2     N 1564   0.583   0.612   1.089 -0.4708 -0.2356 -1.1386
  100MPD2    H5 1565   0.494   0.660   1.097  0.6714  1.6295  0.6079
  100MPD2    N1 1566   0.609   0.692   1.562 -0.4358 -0.4161  0.4992
  100MPD2    H7 1567   0.508   0.692   1.550 -0.1021  3.5739 -2.3519
  101TMC2    C1 1568   0.691   2.777  12.830 -0.4588 -0.3474 -0.1670
  101TMC2    C2 1569   0.590   2.857  12.876  0.3781  0.6104  0.2279
  101TMC2    C3 1570   0.564   2.977  12.813 -0.4166  0.8019  0.5390
  101TMC2    C4 1571   0.779   2.805  12.725  0.6961 -0.0629  0.2670
  101TMC2    C5 1572   0.746   2.927  12.665 -0.0325 -0.5437 -0.3620
  101TMC2    C6 1573   0.638   3.000  12.700 -0.1596 -0.2445  0.1141
  101TMC2     C 1574   0.715   2.659  12.908  0.3625  0.5615 -0.7758
  101TMC2     O 1575   0.646   2.629  13.002 -0.4141 -0.0459 -0.2606
  101TMC2     H 1576   0.534   2.833  12.966 -1.1659  2.2701 -0.2940
  101TMC2    H1 1577   0.859   2.742  12.686  2.0614  0.6145  1.9995
  101TMC2    H2 1578   0.631   3.095  12.649 -0.2754 -1.2555 -1.7549
  101TMC2    C7 1579   0.829   2.964  12.550  0.0443 -0.0613  0.0061
  101TMC2    C8 1580   0.477   3.077  12.875  0.0216  0.3144 -0.3985
  101TMC2    O1 1581   0.932   2.899  12.537 -0.1302 -0.2483 -0.1385
  101TMC2    O2 1582   0.487   3.196  12.845 -0.3821  0.2867  0.5713
  101TMC2    O5 1583   0.360   3.021  12.895  0.5832  0.2245 -0.4786
  101TMC2    H5 1584   0.355   2.923  12.891  0.1164  0.1661  1.5813
  102MPD2     C 1585   1.011   2.454  12.820 -0.5607 -0.4313  0.0765
  102MPD2    C1 1586   0.903   2.483  12.897 -0.2221 -0.6056 -0.3404
  102MPD2    C2 1587   0.844   2.397  12.990  0.0683  0.5970  0.3600
  102MPD2    C3 1588   0.901   2.274  13.001 -0.9924  0.2261  0.2327
  102MPD2    C4 1589   1.012   2.238  12.927 -0.2564 -0.3098  0.0135
  102MPD2    C5 1590   1.065   2.329  12.842 -0.4311  0.0186  0.5270
  102MPD2     H 1591   0.759   2.428  13.049 -1.0208 -3.8358  1.1145
  102MPD2    H1 1592   1.074   2.152  12.946  1.2635  1.1777  1.8182
  102MPD2    H2 1593   1.056   2.515  12.743 -1.2959 -1.4246 -1.1286
  102MPD2    H3 1594   1.151   2.302  12.782 -0.1413 -1.4120  1.5867
  102MPD2     N 1595   0.836   2.187  13.085  0.4092  0.7540 -0.7098
  102MPD2    H5 1596   0.766   2.223  13.148  1.6667  2.2066 -0.1410
  102MPD2    N1 1597   0.831   2.598  12.856 -0.6360  0.8190  0.5764
  102MPD2    H7 1598   0.872   2.660  12.786 -2.8220 -0.3627 -1.7654
  103TMC2    C1 1599   4.119   2.243  12.827  0.0677 -0.4074  0.3404
  103TMC2    C2 1600   4.255   2.237  12.830 -0.6180  0.2836 -0.2750
  103TMC2    C3 1601   4.327   2.268  12.945 -0.2583  0.0129  0.2579
  103TMC2    C4 1602   4.053   2.267  12.946  0.4519 -0.3454 -0.3158
  103TMC2    C5 1603   4.123   2.291  13.060 -0.2367 -0.0077 -0.1660
  103TMC2    C6 1604   4.261   2.296  13.059 -0.1725 -0.0999  0.9563
  103TMC2     C 1605   4.034   2.246  12.703  0.3483  0.7717  0.2230
  103TMC2     O 1606   3.911   2.258  12.708  0.3874  0.5863 -0.4931
  103TMC2     H 1607   4.309   2.221  12.737  0.4478  1.1486  0.1911
  103TMC2    H1 1608   3.945   2.264  12.954  0.5821 -3.2361  0.0481
  103TMC2    H2 1609   4.300   2.333  13.153  3.8285 -1.0932 -0.3309
  103TMC2    C7 1610   4.054   2.356  13.171 -0.0112  0.0853 -0.6909
  103TMC2    C8 1611   4.455   2.335  12.923 -0.3613  0.4970  0.4496
  103TMC2    O1 1612   4.084   2.335  13.289  0.4306 -0.5919 -0.2703
  103TMC2    O2 1613   4.552   2.277  12.873  0.1695 -0.3088 -0.2061
  103TMC2    O5 1614   4.417   2.466  12.894 -0.2795  0.1794  0.0714
  103TMC2    H5 1615   4.348   2.499  12.956  0.1217  0.8894  0.1407
  104MPD2     C 1616   4.147   2.179  12.359 -0.1002 -0.1692 -0.3849
  104MPD2    C1 1617   4.052   2.207  12.456  0.4919 -1.2554  0.0818
  104MPD2    C2 1618   3.919   2.199  12.414 -0.0462 -0.7327 -0.1913
  104MPD2    C3 1619   3.891   2.182  12.278  0.7839  0.1905 -0.2872
  104MPD2    C4 1620   3.986   2.142  12.190 -0.3357 -0.3011  0.1198
  104MPD2    C5 1621   4.113   2.147  12.233  0.2245  0.2721 -0.5301
  104MPD2     H 1622   3.847   2.207  12.495  1.7633 -2.0774  1.5635
  104MPD2    H1 1623   3.960   2.108  12.090 -0.0829 -2.0331  0.6388
  104MPD2    H2 1624   4.253   2.184  12.381  0.1160  1.1558 -1.7296
  104MPD2    H3 1625   4.184   2.102  12.165 -0.4450  2.5286 -2.7466
  104MPD2     N 1626   3.761   2.210  12.235  0.5648  0.7696  0.5007
  104MPD2    H5 1627   3.745   2.219  12.136 -0.0411  0.2373  0.5494
  104MPD2    N1 1628   4.107   2.224  12.588  0.6670  0.9142  0.3575
  104MPD2    H7 1629   4.208   2.220  12.598  0.7671 -0.6138 -1.4119
  105TMC2    C1 1630   0.521   0.830  17.462 -0.6269 -0.5170 -0.3121
  105TMC2    C2 1631   0.464   0.706  17.448 -0.2633  0.3953  0.8924
  105TMC2    C3 1632   0.366   0.664  17.528  0.5117  0.2146  0.4642
  105TMC2    C4 1633   0.477   0.913  17.560 -0.3750  0.6761  0.0542
  105TMC2    C5 1634   0.367   0.872  17.629 -0.1650  1.0064 -0.1371
  105TMC2    C6 1635   0.316   0.745  17.624  0.4247  0.1777  0.5384
  105TMC2     C 1636   0.647   0.859  17.390 -0.3621 -0.1891  0.5498
  105TMC2     O 1637   0.701   0.761  17.339 -0.0744  0.0664 -0.3200
  105TMC2     H 1638   0.504   0.635  17.376 -0.7235  1.0816 -0.0366
  105TMC2    H1 1639   0.530   1.002  17.592  1.7730  0.4016 -2.6729
  105TMC2    H2 1640   0.235   0.716  17.690 -0.9094  0.2913 -1.0762
  105TMC2    C7 1641   0.309   0.948  17.736  0.4752  1.0475 -0.5605
  105TMC2    C8 1642   0.363   0.517  17.542 -0.2434 -0.5340  0.6363
  105TMC2    O1 1643   0.239   0.896   0.071  0.5588 -0.1915 -0.0896
  105TMC2    O2 1644   0.461   0.446  17.527  0.1896  0.2265  0.1048
  105TMC2    O5 1645   0.235   0.476  17.577  0.1991  0.0298  0.2857
  105TMC2    H5 1646   0.165   0.544  17.589 -0.6437 -0.9557  0.9236
  106MPD2     C 1647   0.987   1.161  17.150  0.7935 -0.6679 -0.3161
  106MPD2    C1 1648   0.876   1.239  17.186  0.1460 -0.1508  0.4524
  106MPD2    C2 1649   0.778   1.187  17.266 -0.0550  0.1880 -0.4877
  106MPD2    C3 1650   0.783   1.049  17.301  0.1540 -1.2873 -0.3493
  106MPD2    C4 1651   0.891   0.975  17.262 -0.6546  0.3315  0.1919
  106MPD2    C5 1652   0.995   1.038  17.199 -0.4384 -0.1779  0.1082
  106MPD2     H 1653   0.684   1.238  17.285 -1.0062 -1.7126 -0.1090
  106MPD2    H1 1654   0.897   0.868  17.281 -1.5197  0.5056  1.4539
  106MPD2    H2 1655   1.078   1.197  17.104 -0.4103  1.3030 -1.1413
  106MPD2    H3 1656   1.081   0.983  17.162  0.4824  1.2020  0.1946
  106MPD2     N 1657   0.675   0.994  17.377 -0.6444  0.4035  0.1345
  106MPD2    H5 1658   0.604   1.058  17.411  1.8109  2.1264  2.0940
  106MPD2    N1 1659   0.861   1.375  17.143  0.2345 -0.1185 -0.5443
  106MPD2    H7 1660   0.775   1.419  17.173  0.7088  0.4349 -0.0014
  107TMC2    C1 1661   1.253   0.591  11.955 -0.9246 -0.1249  0.1632
  107TMC2    C2 1662   1.247   0.521  12.074 -0.0736 -0.2814  0.6868
  107TMC2    C3 1663   1.268   0.387  12.067 -0.0864 -0.1723 -0.4585
  107TMC2    C4 1664   1.261   0.532  11.834  0.8419  0.4376  0.5977
  107TMC2    C5 1665   1.279   0.391  11.834 -0.0744  0.8047 -0.1491
  107TMC2    C6 1666   1.279   0.317  11.950  0.2623 -0.2146  0.4526
  107TMC2     C 1667   1.224   0.730  11.970 -0.3624  0.1909 -0.2407
  107TMC2     O 1668   1.157   0.749  12.071  0.4877 -0.5933  0.4507
  107TMC2     H 1669   1.245   0.573  12.169 -0.8555  0.0054  0.5199
  107TMC2    H1 1670   1.239   0.591  11.746  0.9469 -0.0207  0.2630
  107TMC2    H2 1671   1.311   0.213  11.952 -3.3570 -1.3555  0.5102
  107TMC2    C7 1672   1.287   0.314  11.713 -0.1232 -0.2252 -0.1443
  107TMC2    C8 1673   1.252   0.307  12.186 -0.5437  0.0552 -0.0755
  107TMC2    O1 1674   1.262   0.197  11.728  0.0359  0.9798  0.1120
  107TMC2    O2 1675   1.294   0.189  12.188  0.0179 -0.5354  0.0922
  107TMC2    O5 1676   1.212   0.380  12.296  0.2485  0.3529 -0.1158
  107TMC2    H5 1677   1.144   0.449  12.279 -0.0396 -0.0808 -0.7490
  108MPD2     C 1678   1.147   0.965  11.702 -0.5322 -0.1432 -0.0192
  108MPD2    C1 1679   1.147   0.919  11.831 -0.3258 -0.2273 -0.0916
  108MPD2    C2 1680   1.052   0.973  11.924 -0.7442  0.2938  1.0771
  108MPD2    C3 1681   0.974   1.083  11.876  0.4748 -0.5656 -0.2423
  108MPD2    C4 1682   0.987   1.130  11.748  0.0375  0.3867  0.0898
  108MPD2    C5 1683   1.072   1.074  11.663 -0.4289  0.7622  0.7294
  108MPD2     H 1684   1.051   0.940  12.027  0.3425  0.2564  1.0759
  108MPD2    H1 1685   0.922   1.212  11.721 -0.4498  0.2342  0.7925
  108MPD2    H2 1686   1.197   0.912  11.622 -0.7857 -0.3823 -0.0173
  108MPD2    H3 1687   1.086   1.111  11.562 -1.0406  3.1808  1.5533
  108MPD2     N 1688   0.886   1.155  11.963  0.5329 -0.4424  0.4952
  108MPD2    H5 1689   0.815   1.216  11.923  1.7761  0.0886 -0.8763
  108MPD2    N1 1690   1.227   0.801  11.856 -0.0823  1.0135 -0.5353
  108MPD2    H7 1691   1.283   0.767  11.778 -1.5616 -1.3757 -0.5454
  109TMC2    C1 1692   0.671   3.939   0.484  0.2839  0.2982 -0.8872
  109TMC2    C2 1693   0.693   4.071   0.526  0.1581 -0.4554  0.1123
  109TMC2    C3 1694   0.824   4.117   0.530  0.2790  0.3904  0.0921
  109TMC2    C4 1695   0.767   3.850   0.452 -0.2864  0.5250 -0.6101
  109TMC2    C5 1696   0.894   3.906   0.469 -0.0919  0.4962 -0.1821
  109TMC2    C6 1697   0.925   4.033   0.495  0.5808 -0.6374 -0.4939
  109TMC2     C 1698   0.534   3.900   0.469  0.4175  0.3739 -0.2843
  109TMC2     O 1699   0.462   3.993   0.458  0.5588 -0.0739 -0.6717
  109TMC2     H 1700   0.615   4.137   0.563 -0.1368  0.6988 -2.5618
  109TMC2    H1 1701   0.745   3.745   0.437 -1.4119  0.6006  0.5421
  109TMC2    H2 1702   1.029   4.060   0.507  0.2201  0.5240 -0.0203
  109TMC2    C7 1703   0.994   3.831   0.394  0.6396  0.3989  0.0706
  109TMC2    C8 1704   0.855   4.239   0.609 -0.4022  0.1936  0.1103
  109TMC2    O1 1705   1.110   3.877   0.402 -0.3817 -0.5859 -0.2757
  109TMC2    O2 1706   0.789   4.273   0.709  0.1297 -0.2946 -0.1756
  109TMC2    O5 1707   0.978   4.285   0.565  0.2244 -0.1344 -0.4797
  109TMC2    H5 1708   0.995   4.264   0.471  0.8029  0.1023 -0.4300
  110MPD2     C 1709   0.151   3.572   0.447  0.9526 -0.9343 -0.5759
  110MPD2    C1 1710   0.248   3.512   0.514 -0.9785  0.1844  0.0722
  110MPD2    C2 1711   0.364   3.581   0.526  0.3376 -0.0150 -0.1820
  110MPD2    C3 1712   0.384   3.708   0.470 -0.5800  0.8303  0.4439
  110MPD2    C4 1713   0.277   3.774   0.413  0.1072  0.5427 -0.1909
  110MPD2    C5 1714   0.158   3.704   0.410 -0.5670 -0.5320  0.4576
  110MPD2     H 1715   0.451   3.533   0.569  1.0863  0.5314 -1.1062
  110MPD2    H1 1716   0.269   3.874   0.372  0.1519  0.5990 -0.0620
  110MPD2    H2 1717   0.056   3.521   0.433 -0.3718  1.3560 -0.0272
  110MPD2    H3 1718   0.069   3.733   0.355 -0.9398 -1.7198  0.4193
  110MPD2     N 1719   0.513   3.764   0.482  0.4087  0.2200 -0.1472
  110MPD2    H5 1720   0.583   3.704   0.525 -0.7504 -0.0413  1.4177
  110MPD2    N1 1721   0.234   3.378   0.558 -0.3489  0.3288 -0.5498
  110MPD2    H7 1722   0.139   3.343   0.571  0.4880 -1.2716  1.1791
  111TMC2    C1 1723   1.310   3.634  11.358  0.4067  0.5502 -0.1962
  111TMC2    C2 1724   1.403   3.690  11.268  0.0024 -0.4278 -0.6123
  111TMC2    C3 1725   1.509   3.759  11.314  0.4256 -0.1191 -0.0921
  111TMC2    C4 1726   1.322   3.638  11.493 -0.6092 -0.2658  0.1978
  111TMC2    C5 1727   1.447   3.687  11.536 -0.3060 -0.3330 -0.2892
  111TMC2    C6 1728   1.537   3.750  11.445 -0.4711  0.1210  0.0079
  111TMC2     C 1729   1.202   3.561  11.294 -0.5537  0.2993  0.2508
  111TMC2     O 1730   1.217   3.518  11.181  0.6327 -0.3681 -0.0426
  111TMC2     H 1731   1.380   3.688  11.162 -0.6642 -0.6546 -0.4641
  111TMC2    H1 1732   1.255   3.573  11.548 -0.5183 -1.2144 -0.8002
  111TMC2    H2 1733   1.640   3.779  11.465 -0.3100 -0.3686 -0.0964
  111TMC2    C7 1734   1.500   3.597  11.632 -0.2486  0.1530  0.1277
  111TMC2    C8 1735   1.597   3.805  11.211  0.0846 -0.4493  0.4341
  111TMC2    O1 1736   1.424   3.513  11.676 -0.2360 -0.0389 -0.5207
  111TMC2    O2 1737   1.586   3.763  11.093 -0.5355  0.4858  0.2192
  111TMC2    O5 1738   1.688   3.886  11.264 -1.1406  0.3465  0.3167
  111TMC2    H5 1739   1.659   3.931  11.346  4.1650  1.4923  1.6157
  112MPD2     C 1740   0.707   3.421  11.301 -0.4857  0.3300 -0.5536
  112MPD2    C1 1741   0.805   3.392  11.206 -0.7801 -0.2401  0.6408
  112MPD2    C2 1742   0.932   3.450  11.218 -0.6213 -0.2806  0.5987
  112MPD2    C3 1743   0.958   3.532  11.330 -0.6965 -0.1520 -0.4110
  112MPD2    C4 1744   0.855   3.561  11.414 -0.9508  0.3550 -0.4058
  112MPD2    C5 1745   0.731   3.517  11.395 -0.1793  0.4875 -0.2111
  112MPD2     H 1746   1.009   3.417  11.150  0.1735 -1.0090  1.8455
  112MPD2    H1 1747   0.871   3.614  11.507  1.9397 -2.6188  0.8046
  112MPD2    H2 1748   0.606   3.384  11.297 -0.3548  0.0097 -0.8711
  112MPD2    H3 1749   0.648   3.538  11.462 -0.1163 -2.4678  0.7641
  112MPD2     N 1750   1.087   3.575  11.369  0.4034 -0.7395  0.5195
  112MPD2    H5 1751   1.098   3.630  11.454  3.4419  1.0130 -1.0097
  112MPD2    N1 1752   0.782   3.300  11.096 -0.0577  0.0136  0.1655
  112MPD2    H7 1753   0.856   3.287  11.028  0.7991  0.3042  1.0401
  113TMC2    C1 1754   4.346   0.953   0.651 -0.8345  0.7563 -0.4384
  113TMC2    C2 1755   4.302   1.082   0.624 -0.6487  0.0490 -0.6676
  113TMC2    C3 1756   4.173   1.113   0.616 -0.1517  0.2995 -0.3110
  113TMC2    C4 1757   4.259   0.844   0.654  0.4806 -0.2769  0.2822
  113TMC2    C5 1758   4.131   0.879   0.638  0.1153  0.3679  0.7210
  113TMC2    C6 1759   4.087   1.005   0.617 -0.3548 -0.1023 -0.2164
  113TMC2     C 1760   4.472   0.940   0.712  0.4633 -1.0087  0.5698
  113TMC2     O 1761   4.524   1.045   0.741 -0.0227  0.1373  0.0284
  113TMC2     H 1762   4.377   1.157   0.603 -1.3731  0.5563 -1.4525
  113TMC2    H1 1763   4.294   0.748   0.690 -0.7067 -0.3363  1.2671
  113TMC2    H2 1764   3.981   1.018   0.600 -0.9159  1.3322  4.5203
  113TMC2    C7 1765   4.028   0.779   0.647 -0.6372 -0.0511 -0.0324
  113TMC2    C8 1766   4.138   1.230   0.539  0.1602 -0.2578  0.0866
  113TMC2    O1 1767   3.911   0.812   0.635 -0.5034 -0.0824 -0.0531
  113TMC2    O2 1768   4.041   1.299   0.570 -0.3009  0.0077 -0.3711
  113TMC2    O5 1769   4.176   1.196   0.415 -0.5247 -0.8888  0.4333
  113TMC2    H5 1770   4.227   1.112   0.412  1.1159  0.0014  3.0793
  114MPD2     C 1771   0.138   0.676   0.892 -0.2330  0.3186 -0.2043
  114MPD2    C1 1772   0.090   0.806   0.928 -0.3394 -0.2692  0.5675
  114MPD2    C2 1773   4.714   0.853   0.863 -0.1847 -0.2732 -0.1360
  114MPD2    C3 1774   4.648   0.778   0.763  0.1919  0.1318  0.0258
  114MPD2    C4 1775   4.699   0.648   0.738 -0.2468  0.8265 -0.7103
  114MPD2    C5 1776   0.072   0.601   0.799  0.3149  0.1883  0.3241
  114MPD2     H 1777   4.679   0.949   0.899  2.8930  0.4687  0.8093
  114MPD2    H1 1778   4.653   0.587   0.661 -0.4242 -0.2083  0.2341
  114MPD2    H2 1779   0.225   0.635   0.943  0.7505  1.1253 -1.2336
  114MPD2    H3 1780   0.117   0.509   0.762 -0.4921 -0.3530  0.6906
  114MPD2     N 1781   4.527   0.810   0.701 -0.4301 -0.3708  0.3246
  114MPD2    H5 1782   4.486   0.746   0.633  0.0915 -0.6344  0.2604
  114MPD2    N1 1783   0.151   0.887   1.024 -0.1595 -0.2607 -0.0905
  114MPD2    H7 1784   0.107   0.975   1.050 -0.7150 -1.1501  1.9952
  115TMC2    C1 1785   0.283   3.691  17.500  0.1881  0.4247  0.7339
  115TMC2    C2 1786   0.418   3.654  17.521  0.8506 -0.0454 -0.4926
  115TMC2    C3 1787   0.502   3.761  17.527 -0.5819 -0.1075  0.5729
  115TMC2    C4 1788   0.243   3.817  17.478 -0.1719 -0.0060  0.3186
  115TMC2    C5 1789   0.338   3.914  17.476 -0.0485  0.2664  0.4836
  115TMC2    C6 1790   0.466   3.886  17.509 -0.0526  0.3474  0.5680
  115TMC2     C 1791   0.199   3.573  17.471  0.0634 -0.4595  0.0690
  115TMC2     O 1792   0.259   3.464  17.472  0.0021 -0.3076  0.2482
  115TMC2     H 1793   0.445   3.549  17.526  0.4959 -0.0978  0.5430
  115TMC2    H1 1794   0.143   3.834  17.441  0.4399 -2.0372 -2.2199
  115TMC2    H2 1795   0.542   3.960  17.532  1.0240 -0.6107  0.0358
  115TMC2    C7 1796   0.291   4.054  17.473  0.4160  0.4277 -0.1304
  115TMC2    C8 1797   0.644   3.738  17.546  0.3845  0.2810 -0.2248
  115TMC2    O1 1798   0.179   4.079  17.515 -0.5164 -0.3792  0.0687
  115TMC2    O2 1799   0.731   3.820  17.509  0.2540  0.2442 -0.4007
  115TMC2    O5 1800   0.666   3.639  17.626 -0.2015  0.1569  0.0729
  115TMC2    H5 1801   0.584   3.616  17.674 -1.0502  1.8664 -0.5760
  116MPD2     C 1802   4.500   3.324  17.417  0.7724  0.0537 -0.7891
  116MPD2    C1 1803   4.626   3.273  17.419  0.4563  0.3144  0.6847
  116MPD2    C2 1804   4.735   3.356  17.445  0.4942 -0.4981 -0.0512
  116MPD2    C3 1805   4.706   3.486  17.473  0.7703 -0.0995  0.3250
  116MPD2    C4 1806   4.579   3.532  17.489  0.2100  0.8753  0.8397
  116MPD2    C5 1807   4.479   3.451  17.450  0.3344  0.0880  0.3157
  116MPD2     H 1808   0.101   3.328  17.431  0.6852  0.4806 -0.6431
  116MPD2    H1 1809   4.559   3.638  17.501  0.3605  1.1674 -1.3552
  116MPD2    H2 1810   4.417   3.267  17.377 -0.7786  3.3412 -2.2613
  116MPD2    H3 1811   4.376   3.487  17.448 -0.0441 -0.8067  2.9760
  116MPD2     N 1812   0.065   3.594  17.471  0.3357  0.5264 -0.7483
  116MPD2    H5 1813   0.028   3.687  17.489  1.6718  1.4727 -2.8091
  116MPD2    N1 1814   4.643   3.132  17.393  0.0783  0.1557 -0.3107
  116MPD2    H7 1815   4.554   3.092  17.362  0.6746 -1.7808  0.4477
  117TMC2    C1 1816   3.650   4.705  14.040 -0.2596  0.0407  0.4336
  117TMC2    C2 1817   3.771   4.639  14.043  0.5164  0.0172  0.1691
  117TMC2    C3 1818   3.881   4.724  14.046 -0.1090 -0.1605 -0.1230
  117TMC2    C4 1819   3.639   0.098  14.066 -0.0077 -0.3525  0.9907
  117TMC2    C5 1820   3.753   0.175  14.083  0.0930 -0.1407 -0.3255
  117TMC2    C6 1821   3.874   0.121  14.059  0.9519  0.2173  0.3254
  117TMC2     C 1822   3.536   4.631  14.000  0.1946 -0.1244 -0.1406
  117TMC2     O 1823   3.535   4.509  14.026 -0.5981 -0.2211  0.7330
  117TMC2     H 1824   3.776   4.531  14.045 -1.9229 -0.0718  0.4626
  117TMC2    H1 1825   3.545   0.140  14.101 -1.1117 -0.2019 -2.0767
  117TMC2    H2 1826   3.967   0.177  14.054 -0.4675  2.6142  1.0101
  117TMC2    C7 1827   3.745   0.321  14.098  0.6074  0.0796 -0.3782
  117TMC2    C8 1828   4.017   4.665  14.039 -0.3744  0.5425 -0.0606
  117TMC2    O1 1829   3.848   0.376  14.133  0.3211 -0.3703  0.1752
  117TMC2    O2 1830   4.113   4.701  14.109  0.3612 -0.0732  0.1807
  117TMC2    O5 1831   4.012   4.566  13.939 -0.2489 -0.0936  0.0899
  117TMC2    H5 1832   3.942   4.588  13.873 -0.5216 -0.4429  0.2604
  118MPD2     C 1833   3.431   0.505  14.068  0.0769  0.2929  0.0296
  118MPD2    C1 1834   3.571   0.495  14.089 -1.1842  0.5520  0.0730
  118MPD2    C2 1835   3.645   0.609  14.128 -0.0071 -1.1138  0.7067
  118MPD2    C3 1836   3.585   0.728  14.141  0.2074 -0.0555 -0.0913
  118MPD2    C4 1837   3.453   0.735  14.112  0.7126  0.1210 -0.7298
  118MPD2    C5 1838   3.375   0.627  14.086  0.0938 -0.0749 -0.3475
  118MPD2     H 1839   3.750   0.600  14.154  0.7177 -0.2499 -1.8412
  118MPD2    H1 1840   3.399   0.829  14.115  2.4430  1.0820 -0.1842
  118MPD2    H2 1841   3.372   0.418  14.038  0.4112  0.3527 -0.8029
  118MPD2    H3 1842   3.270   0.648  14.069 -0.0104  0.0305  0.4198
  118MPD2     N 1843   3.648   0.859  14.158  0.1522 -0.2050 -0.0894
  118MPD2    H5 1844   3.595   0.945  14.162  2.4245  1.0557  2.3291
  118MPD2    N1 1845   3.621   0.365  14.079 -0.9752 -0.0700 -0.1529
  118MPD2    H7 1846   3.557   0.301  14.032 -0.0924 -3.0341  2.7110
  119TMC2    C1 1847   1.708   0.927  13.566  0.8992  0.3029  0.3257
  119TMC2    C2 1848   1.780   0.814  13.596 -0.2381  0.1416  0.7548
  119TMC2    C3 1849   1.718   0.719  13.671  0.0987  0.6249  0.1754
  119TMC2    C4 1850   1.578   0.940  13.601  0.1220 -0.1326  0.4135
  119TMC2    C5 1851   1.525   0.842  13.682 -0.0237  0.2444 -0.3603
  119TMC2    C6 1852   1.588   0.723  13.715 -0.1525  1.0717  0.0109
  119TMC2     C 1853   1.764   1.028  13.479 -0.5338 -0.7278  0.7193
  119TMC2     O 1854   1.863   0.985  13.422 -0.1224  0.1962  0.1440
  119TMC2     H 1855   1.882   0.794  13.565 -0.9792 -0.3910 -1.2637
  119TMC2    H1 1856   1.521   1.032  13.594  0.0015  0.0471  4.0748
  119TMC2    H2 1857   1.545   0.642  13.773  1.4305  1.5026  1.7965
  119TMC2    C7 1858   1.382   0.858  13.718 -0.4355 -0.0297 -0.0001
  119TMC2    C8 1859   1.801   0.603  13.703 -0.5049  0.1657 -0.1066
  119TMC2    O1 1860   1.297   0.888  13.631  0.6986  0.1388  0.3483
  119TMC2    O2 1861   1.786   0.527  13.799 -0.1344 -0.0132 -0.3048
  119TMC2    O5 1862   1.852   0.560  13.588 -0.5135 -0.1139 -0.6043
  119TMC2    H5 1863   1.838   0.621  13.512 -0.4599 -1.5056 -1.7504
  120MPD2     C 1864   1.834   1.494  13.314  0.6571 -0.0443  0.0741
  120MPD2    C1 1865   1.737   1.498  13.407 -0.2264 -0.1692 -0.2716
  120MPD2    C2 1866   1.689   1.378  13.467 -0.1129 -0.0365  0.5435
  120MPD2    C3 1867   1.749   1.260  13.426 -0.7224 -0.8320  0.1111
  120MPD2    C4 1868   1.836   1.257  13.320 -0.3440  0.5207 -0.1417
  120MPD2    C5 1869   1.878   1.378  13.264  0.2069 -0.3826  0.6212
  120MPD2     H 1870   1.614   1.387  13.544 -0.3713  0.9395  0.1797
  120MPD2    H1 1871   1.877   1.165  13.281  1.7758  1.5999 -0.4724
  120MPD2    H2 1872   1.879   1.578  13.261  1.8354 -0.8717 -0.2517
  120MPD2    H3 1873   1.960   1.374  13.193 -1.2345 -1.8848 -0.9656
  120MPD2     N 1874   1.703   1.149  13.493 -0.2184  0.2809  0.0865
  120MPD2    H5 1875   1.632   1.155  13.565 -0.7279 -0.1039 -0.3808
  120MPD2    N1 1876   1.693   1.617  13.463 -0.4161 -0.8091  0.3226
  120MPD2    H7 1877   1.612   1.616  13.525 -0.3357  2.1377  0.4588
  121TMC2    C1 1878   3.034   2.957  13.804  0.0303 -0.4625 -0.6096
  121TMC2    C2 1879   3.013   2.838  13.876 -0.1311 -0.3170  0.7758
  121TMC2    C3 1880   2.898   2.764  13.857 -0.1935  0.6622  0.2644
  121TMC2    C4 1881   2.954   2.989  13.693 -0.7820 -0.3777  0.2626
  121TMC2    C5 1882   2.850   2.903  13.679  0.7732  0.7733 -0.0755
  121TMC2    C6 1883   2.807   2.797  13.758 -0.7021 -0.0652 -0.1033
  121TMC2     C 1884   3.163   3.026  13.817 -0.6419 -0.3575 -0.2125
  121TMC2     O 1885   3.229   3.004  13.915 -0.1404  0.4934  0.1631
  121TMC2     H 1886   3.070   2.820  13.967  1.7068  0.6691 -0.2078
  121TMC2    H1 1887   2.947   3.092  13.660  2.1649 -1.1398 -2.7932
  121TMC2    H2 1888   2.725   2.731  13.734  0.6053 -1.5633 -0.4589
  121TMC2    C7 1889   2.756   2.958  13.585  0.1999 -0.0440  0.0566
  121TMC2    C8 1890   2.893   2.628  13.901 -0.1721 -1.1099  0.2808
  121TMC2    O1 1891   2.797   3.019  13.485  0.1728 -0.8636 -0.1770
  121TMC2    O2 1892   2.995   2.559  13.901 -0.5706 -0.3271  0.1835
  121TMC2    O5 1893   2.762   2.585  13.926 -0.2419  0.3076  0.0688
  121TMC2    H5 1894   2.684   2.645  13.919 -1.0929 -0.9913 -1.6442
  122MPD2     C 1895   3.427   3.110  13.715 -0.2181  0.2041 -0.1950
  122MPD2    C1 1896   3.312   3.134  13.660 -0.2916  0.4093 -0.6641
  122MPD2    C2 1897   3.313   3.191  13.537 -0.5239  0.0404  0.1543
  122MPD2    C3 1898   3.423   3.216  13.461 -0.0543 -0.0715  0.1980
  122MPD2    C4 1899   3.545   3.183  13.518  0.0781  0.1541 -0.5075
  122MPD2    C5 1900   3.544   3.140  13.651 -0.2589  0.2751  0.1149
  122MPD2     H 1901   3.217   3.206  13.490 -0.1667  0.4550 -0.4317
  122MPD2    H1 1902   3.639   3.204  13.469 -0.9350  1.9310 -1.6583
  122MPD2    H2 1903   3.425   3.073  13.816 -1.3514  1.1433  0.1204
  122MPD2    H3 1904   3.639   3.112  13.696  0.5207  0.3383 -1.5053
  122MPD2     N 1905   3.421   3.275  13.332 -0.0379  0.3384 -0.0920
  122MPD2    H5 1906   3.513   3.301  13.299  0.2419  0.4328  0.7662
  122MPD2    N1 1907   3.184   3.096  13.711  0.6285  0.2082 -0.6088
  122MPD2    H7 1908   3.105   3.107  13.648 -0.6295 -0.6798  0.8221
  123TMC2    C1 1909   1.683   2.252  10.608 -0.1281  0.8413 -0.3154
  123TMC2    C2 1910   1.720   2.352  10.697  0.4303 -0.0926  0.4585
  123TMC2    C3 1911   1.791   2.455  10.653 -0.1293 -0.0489 -0.2037
  123TMC2    C4 1912   1.711   2.266  10.474 -0.0728  0.2057 -0.4073
  123TMC2    C5 1913   1.778   2.384  10.435 -0.0435 -0.0120 -0.1149
  123TMC2    C6 1914   1.819   2.479  10.519 -0.1377 -0.3497  0.1584
  123TMC2     C 1915   1.664   2.122  10.673  0.6446  0.8384  0.2547
  123TMC2     O 1916   1.647   2.129  10.796  0.0196 -0.3299  0.5147
  123TMC2     H 1917   1.703   2.349  10.804  1.6904  0.4819  0.6734
  123TMC2    H1 1918   1.694   2.182  10.407  1.4984 -0.7771  0.4296
  123TMC2    H2 1919   1.872   2.563  10.476  1.3031 -1.2957  0.0815
  123TMC2    C7 1920   1.789   2.399  10.288  0.0675  1.0553  0.1493
  123TMC2    C8 1921   1.850   2.534  10.757 -0.2305  0.8502  0.3462
  123TMC2    O1 1922   1.786   2.514  10.255 -0.0519 -0.7162 -0.0270
  123TMC2    O2 1923   1.867   2.502  10.877  0.5467  0.2567 -0.0785
  123TMC2    O5 1924   1.828   2.665  10.723 -0.3137 -0.3135 -0.2807
  123TMC2    H5 1925   1.768   2.677  10.646  0.4820 -2.6389 -1.2653
  124MPD2     C 1926   1.550   1.628  10.700  0.1925 -0.2774 -0.2187
  124MPD2    C1 1927   1.566   1.660  10.567 -0.4910 -0.3044  0.0241
  124MPD2    C2 1928   1.599   1.791  10.534 -0.1306 -0.4283  0.0150
  124MPD2    C3 1929   1.607   1.888  10.632 -0.3450  0.1012  0.3218
  124MPD2    C4 1930   1.576   1.854  10.765  0.0850  0.5154  0.1124
  124MPD2    C5 1931   1.548   1.726  10.793 -0.3996 -0.0729 -0.4161
  124MPD2     H 1932   1.614   1.820  10.431 -0.5379 -0.9340 -0.1895
  124MPD2    H1 1933   1.568   1.926  10.845  0.8592 -0.6333  1.2180
  124MPD2    H2 1934   1.518   1.531  10.735 -0.1786  0.4638  1.5074
  124MPD2    H3 1935   1.521   1.696  10.893  0.3477  1.2529  0.1892
  124MPD2     N 1936   1.653   2.010  10.592  0.7341 -0.1705  0.3570
  124MPD2    H5 1937   1.677   2.033  10.497  0.3065 -1.9552 -0.1708
  124MPD2    N1 1938   1.543   1.554  10.472  0.4553 -0.1493 -0.7471
  124MPD2    H7 1939   1.512   1.468  10.516 -0.7014  0.9331  0.5807
  125TMC2    C1 1940   2.094   3.469   9.922 -0.7247 -0.0867  0.2988
  125TMC2    C2 1941   2.112   3.455  10.055  0.6003 -0.0774 -0.0308
  125TMC2    C3 1942   2.100   3.561  10.133  0.2446  0.6653  0.4923
  125TMC2    C4 1943   2.101   3.602   9.872 -0.4200 -0.2234 -0.2317
  125TMC2    C5 1944   2.088   3.703   9.954  0.4661 -0.3360 -0.4881
  125TMC2    C6 1945   2.084   3.693  10.087  0.2500 -0.0245  0.6860
  125TMC2     C 1946   2.100   3.358   9.828 -0.0107  0.3718  0.0290
  125TMC2     O 1947   2.134   3.381   9.714 -0.2123  0.1490 -0.0886
  125TMC2     H 1948   2.128   3.355  10.094  2.8811  0.0086 -0.6964
  125TMC2    H1 1949   2.109   3.614   9.765  1.0665  2.9015  0.2506
  125TMC2    H2 1950   2.070   3.781  10.148 -1.2848 -1.6184  2.6140
  125TMC2    C7 1951   2.114   3.829   9.891 -0.8196  0.3314 -0.3960
  125TMC2    C8 1952   2.147   3.542  10.264 -0.4222  0.8328 -0.2718
  125TMC2    O1 1953   2.050   3.923   9.936 -0.2611  0.5800  0.4692
  125TMC2    O2 1954   2.146   3.427  10.308  0.6518  0.2062 -0.2462
  125TMC2    O5 1955   2.247   3.629  10.269 -0.0595  0.3948 -0.0687
  125TMC2    H5 1956   2.255   3.684  10.188 -0.6317  1.0206  0.2977
  126MPD1     C 1957   2.108   2.854   9.708  0.2391  0.5741 -0.3917
  126MPD1    C1 1958   2.055   2.864   9.835  0.7622  0.6101  0.1624
  126MPD1    C2 1959   2.037   2.990   9.881 -0.4513 -0.0206  0.7023
  126MPD1    C3 1960   2.075   3.104   9.814  0.7945  0.0976 -0.6081
  126MPD1    C4 1961   2.121   3.090   9.686 -0.3263 -0.3172 -0.4867
  126MPD1    C5 1962   2.134   2.965   9.637 -0.5047 -0.8919 -0.0503
  126MPD1     H 1963   2.012   3.007   9.986  2.8967 -2.3634  1.8822
  126MPD1    H1 1964   2.145   3.172   9.619 -2.1356  0.1090 -0.6133
  126MPD1    H2 1965   2.126   2.758   9.661  1.1593  1.0355 -0.9904
  126MPD1    H3 1966   2.163   2.939   9.536  0.8580 -3.1381  0.9317
  126MPD1     N 1967   2.064   3.231   9.879 -0.5724 -0.1161 -0.4578
  126MPD1    H5 1968   2.046   3.240   9.978 -1.2575 -1.5104 -0.4464
  126MPD1    N1 1969   2.007   2.758   9.911 -0.1797  0.8940 -0.1372
  126MPD1    H6 1970   2.061   2.675   9.889 -0.9904  0.5971 -0.9593
  126MPD1    H7 1971   2.033   2.772  10.009 -1.7139  0.8439  0.2790
  127TMC2    C1 1972   3.083   2.243   9.766 -0.3871  0.4429  0.0123
  127TMC2    C2 1973   3.152   2.163   9.857  0.3357  0.0777 -0.1033
  127TMC2    C3 1974   3.089   2.049   9.898  0.0250 -0.2436 -0.0142
  127TMC2    C4 1975   2.954   2.212   9.740  0.1248 -0.2573  0.3363
  127TMC2    C5 1976   2.891   2.108   9.798  0.1840 -0.5961  0.3315
  127TMC2    C6 1977   2.962   2.010   9.864  0.7239 -0.3884 -0.0333
  127TMC2     C 1978   3.147   2.366   9.722 -0.0203 -0.3667 -0.1110
  127TMC2     O 1979   3.249   2.400   9.784 -0.0326  0.1079  0.0718
  127TMC2     H 1980   3.253   2.191   9.886  1.2486 -0.2263 -2.9984
  127TMC2    H1 1981   2.899   2.290   9.689  1.1154  0.7873  0.8681
  127TMC2    H2 1982   2.920   1.912   9.881 -1.1262  0.4929  0.5784
  127TMC2    C7 1983   2.756   2.077   9.747 -0.4893  0.3232  1.0776
  127TMC2    C8 1984   3.152   1.981  10.008 -0.1404  0.6768 -0.1427
  127TMC2    O1 1985   2.706   2.166   9.677 -0.2787 -0.4359  0.1706
  127TMC2    O2 1986   3.267   1.990  10.042 -0.1258 -0.1652 -0.5139
  127TMC2    O5 1987   3.062   1.902  10.066  0.1281  0.6927 -0.1093
  127TMC2    H5 1988   2.968   1.916  10.041  0.5899  1.8288 -1.2531
  128MPD2     C 1989   3.069   2.554   9.406 -0.0172 -0.3173 -0.6671
  128MPD2    C1 1990   3.134   2.521   9.527  0.1538 -0.0878  0.0631
  128MPD2    C2 1991   3.236   2.601   9.573  0.3265 -0.0828  0.2621
  128MPD2    C3 1992   3.286   2.709   9.499  0.4932 -0.1479  0.0541
  128MPD2    C4 1993   3.225   2.734   9.383 -0.0298 -0.1116  0.1792
  128MPD2    C5 1994   3.118   2.659   9.344  0.2224  0.4077 -0.4253
  128MPD2     H 1995   3.292   2.581   9.664  0.2098  0.4025  0.4409
  128MPD2    H1 1996   3.245   2.816   9.314  0.6712  0.6450  1.2755
  128MPD2    H2 1997   2.994   2.496   9.354  0.7117 -0.4882 -1.5279
  128MPD2    H3 1998   3.069   2.681   9.250  0.3739 -0.0575 -0.6131
  128MPD2     N 1999   3.392   2.788   9.552 -0.2932 -0.4866  0.1556
  128MPD2    H5 2000   3.436   2.752   9.636 -0.2857 -1.2570 -0.1819
  128MPD2    N1 2001   3.091   2.412   9.600  0.3537 -0.3528  0.0136
  128MPD2    H7 2002   3.027   2.353   9.547 -1.0321  1.5361 -0.3961
  129TMC2    C1 2003   3.146   2.132   1.060  0.2827 -0.3691 -0.3860
  129TMC2    C2 2004   3.222   2.155   1.171  0.0844  0.3936 -0.3309
  129TMC2    C3 2005   3.207   2.076   1.283  0.5009 -0.1403 -0.0985
  129TMC2    C4 2006   3.069   2.025   1.066  0.0837  0.3225  0.1914
  129TMC2    C5 2007   3.037   1.961   1.182  0.0100  0.7999 -0.2411
  129TMC2    C6 2008   3.121   1.972   1.293 -0.3240  0.6480 -0.2330
  129TMC2     C 2009   3.183   2.186   0.931  0.0037 -0.1790  0.8025
  129TMC2     O 2010   3.152   2.125   0.832  0.4363 -0.1386  0.4169
  129TMC2     H 2011   3.305   2.224   1.180  0.6399 -0.8624  4.1179
  129TMC2    H1 2012   3.009   1.998   0.979  0.3197  0.0526  0.1156
  129TMC2    H2 2013   3.085   1.941   1.391 -1.7589  0.8880 -0.6811
  129TMC2    C7 2014   2.919   1.875   1.189 -0.0207 -0.1667 -0.9399
  129TMC2    C8 2015   3.301   2.101   1.393  0.0347  0.1347  0.4653
  129TMC2    O1 2016   2.822   1.904   1.123  0.3539  0.5483 -0.7208
  129TMC2    O2 2017   3.360   2.209   1.398 -0.2803 -0.5125  0.0869
  129TMC2    O5 2018   3.335   1.994   1.462  0.1307 -0.0405  0.1981
  129TMC2    H5 2019   3.282   1.915   1.436 -0.1406  0.8597 -2.0797
  130MPD2     C 2020   3.257   2.375   0.720  0.3778 -0.0954 -0.0248
  130MPD2    C1 2021   3.240   2.410   0.851 -0.1966  0.3188  0.8643
  130MPD2    C2 2022   3.245   2.542   0.876  0.0591 -0.2225  0.5073
  130MPD2    C3 2023   3.258   2.643   0.778  0.5060 -0.5940  0.6348
  130MPD2    C4 2024   3.259   2.591   0.648 -0.5425  0.3462 -0.1919
  130MPD2    C5 2025   3.261   2.462   0.617  0.3498 -0.0024  0.2881
  130MPD2     H 2026   3.230   2.566   0.981  0.6247 -3.5400  1.3463
  130MPD2    H1 2027   3.269   2.660   0.566 -1.7859  0.3966 -0.3049
  130MPD2    H2 2028   3.255   2.269   0.697  0.6204 -0.1212  0.0764
  130MPD2    H3 2029   3.247   2.432   0.514  1.0959  1.7578 -0.3316
  130MPD2     N 2030   3.277   2.782   0.811  0.2398  0.2277  0.0592
  130MPD2    H5 2031   3.271   2.808   0.909 -0.9570 -0.5017  0.1882
  130MPD2    N1 2032   3.225   2.317   0.950 -0.2595 -0.3048 -0.4134
  130MPD2    H7 2033   3.241   2.342   1.048 -2.2429 -1.5421  0.2053
  131TMC2    C1 2034   1.462   2.305   9.906 -0.1506  1.0621  0.0659
  131TMC2    C2 2035   1.443   2.371  10.029 -0.6129  0.5523  0.0453
  131TMC2    C3 2036   1.478   2.501  10.038  0.1326 -0.2805 -0.4909
  131TMC2    C4 2037   1.528   2.370   9.804  0.2403  0.6303  0.3554
  131TMC2    C5 2038   1.559   2.500   9.818  0.2347 -0.2183 -0.2059
  131TMC2    C6 2039   1.532   2.575   9.932 -0.2663 -0.4466 -0.0086
  131TMC2     C 2040   1.452   2.158   9.908  0.3823  0.0342  0.0510
  131TMC2     O 2041   1.450   2.111  10.018 -0.2942  0.0777  0.1078
  131TMC2     H 2042   1.411   2.324  10.122  1.7488  1.1431  1.1611
  131TMC2    H1 2043   1.550   2.316   9.713  1.0730  0.7675  0.4764
  131TMC2    H2 2044   1.565   2.676   9.951 -0.7511 -0.4639  0.9710
  131TMC2    C7 2045   1.612   2.573   9.701 -0.2077  0.3189  0.0727
  131TMC2    C8 2046   1.433   2.567  10.158 -0.8651 -0.2219  0.2713
  131TMC2    O1 2047   1.627   2.507   9.598  0.1348 -0.2292  0.2072
  131TMC2    O2 2048   1.369   2.514  10.248  0.0097 -0.1188 -0.0125
  131TMC2    O5 2049   1.502   2.687  10.178 -0.2414  0.2903 -0.3468
  131TMC2    H5 2050   1.562   2.717  10.107  1.3693 -1.6636  0.2058
  132MPD2     C 2051   1.442   1.927   9.607 -0.5414 -0.1099 -0.1592
  132MPD2    C1 2052   1.443   1.966   9.741  0.5009  0.5829  0.9677
  132MPD2    C2 2053   1.432   1.871   9.835  0.2003  0.1267  0.8507
  132MPD2    C3 2054   1.426   1.740   9.797  0.0880  0.0806  0.1487
  132MPD2    C4 2055   1.412   1.700   9.670  0.0096  0.5498 -0.1005
  132MPD2    C5 2056   1.427   1.795   9.570  0.5090 -0.1059 -0.8892
  132MPD2     H 2057   1.446   1.892   9.941  1.0786  0.5094  0.6560
  132MPD2    H1 2058   1.405   1.594   9.647 -2.1403  0.4053  1.2863
  132MPD2    H2 2059   1.457   2.000   9.528  4.4594 -0.4974  0.4553
  132MPD2    H3 2060   1.432   1.769   9.465 -2.7215  1.8150 -1.5278
  132MPD2     N 2061   1.435   1.646   9.907 -0.1487 -0.1130  0.0419
  132MPD2    H5 2062   1.454   1.683   9.999 -2.9704 -1.3811  1.1483
  132MPD2    N1 2063   1.440   2.103   9.778  0.5265  0.2849 -0.0881
  132MPD2    H7 2064   1.437   2.165   9.698  1.9074  0.9058  0.3427
  133TMC2    C1 2065   4.689   3.297   9.541 -0.0699  0.2018  0.4319
  133TMC2    C2 2066   0.082   3.316   9.581 -0.5953  0.3563 -0.2245
  133TMC2    C3 2067   0.130   3.444   9.552  0.1688 -0.2932  0.7814
  133TMC2    C4 2068   4.620   3.394   9.469  0.6837 -0.8096  0.0950
  133TMC2    C5 2069   4.674   3.507   9.434 -0.2064  0.3234  0.9272
  133TMC2    C6 2070   0.057   3.537   9.484 -0.3854  0.2688 -0.2744
  133TMC2     C 2071   4.666   3.160   9.496 -0.0181 -0.4574  0.3889
  133TMC2     O 2072   4.734   3.071   9.546 -0.3848 -0.9262  0.3682
  133TMC2     H 2073   0.143   3.227   9.595 -1.4191 -0.3943 -1.4081
  133TMC2    H1 2074   4.514   3.376   9.453  0.3438  0.1840  1.2098
  133TMC2    H2 2075   0.112   3.631   9.475 -0.4608  0.1688 -1.8099
  133TMC2    C7 2076   4.607   3.594   9.332  0.0492  0.6592  0.0088
  133TMC2    C8 2077   0.270   3.469   9.576 -0.1272 -0.1005 -0.7585
  133TMC2    O1 2078   4.523   3.541   9.258 -0.6513 -0.2755 -0.0291
  133TMC2    O2 2079   0.328   3.414   9.669 -0.0906 -0.7236 -0.0179
  133TMC2    O5 2080   0.325   3.522   9.467 -0.3154  0.6137 -0.5113
  133TMC2    H5 2081   0.275   3.556   9.390 -1.2783  2.1182  0.7734
  134MPD2     C 2082   4.430   3.043   9.232 -0.1076  0.0874 -0.6751
  134MPD2    C1 2083   4.545   3.041   9.319  0.0291 -0.0011 -0.5469
  134MPD2    C2 2084   4.623   2.921   9.327  0.2065  0.0392 -0.4121
  134MPD2    C3 2085   4.577   2.801   9.276  0.0976  0.1159 -0.0912
  134MPD2    C4 2086   4.471   2.810   9.182 -0.8077 -0.3399 -0.2123
  134MPD2    C5 2087   4.397   2.928   9.161 -0.3719  0.6255  0.5651
  134MPD2     H 2088   4.718   2.916   9.379  0.7639 -1.0201 -1.5236
  134MPD2    H1 2089   4.446   2.723   9.123  0.1784  0.5607 -1.9362
  134MPD2    H2 2090   4.373   3.134   9.216 -0.4522 -0.0924 -0.4673
  134MPD2    H3 2091   4.308   2.926   9.100 -0.8984 -2.1134  1.4275
  134MPD2     N 2092   4.630   2.681   9.318  0.3939  0.3063 -0.0054
  134MPD2    H5 2093   4.691   2.686   9.399  1.0846 -4.6768 -0.2325
  134MPD2    N1 2094   4.582   3.158   9.391 -0.2185 -0.3903 -0.0488
  134MPD2    H7 2095   4.525   3.240   9.372 -1.0413 -0.0114  4.0453
  135TMC2    C1 2096   2.383   4.365  10.072  0.0405 -0.1130  0.6731
  135TMC2    C2 2097   2.285   4.408  10.164 -0.4590 -0.2670 -1.0158
  135TMC2    C3 2098   2.274   4.339  10.278  0.8595 -0.3497  0.4537
  135TMC2    C4 2099   2.463   4.250  10.105  0.1805 -0.0347  1.0197
  135TMC2    C5 2100   2.457   4.197  10.229 -0.8520 -0.3482  0.6168
  135TMC2    C6 2101   2.363   4.243  10.320 -0.1582  0.2707 -0.5976
  135TMC2     C 2102   2.424   4.467   9.973 -0.0439  0.8291 -0.5434
  135TMC2     O 2103   2.384   4.582   9.989  0.4699  0.4503  0.2977
  135TMC2     H 2104   2.224   4.492  10.135 -0.1044  0.9506  1.8739
  135TMC2    H1 2105   2.543   4.209  10.045  0.4279  1.2413  0.4652
  135TMC2    H2 2106   2.374   4.213  10.424  0.5884  1.5139 -0.3146
  135TMC2    C7 2107   2.546   4.088  10.272 -0.4485 -0.0730  0.0611
  135TMC2    C8 2108   2.181   4.380  10.382 -0.1685  0.2858 -0.6890
  135TMC2    O1 2109   2.649   4.076  10.211  0.2547 -0.0525  0.1828
  135TMC2    O2 2110   2.120   4.484  10.382  0.2782 -0.0767 -0.3186
  135TMC2    O5 2111   2.116   4.269  10.416  0.2974 -0.1854  0.0121
  135TMC2    H5 2112   2.176   4.194  10.400  1.8077  0.5571  2.2305
  136MPD2     C 2113   2.491   4.609   9.725 -0.1661  0.4379 -0.0497
  136MPD2    C1 2114   2.536   4.476   9.757 -0.0939  0.1891  0.4400
  136MPD2    C2 2115   2.614   4.409   9.663  0.2634 -0.4586 -0.1555
  136MPD2    C3 2116   2.647   4.467   9.540 -0.5662 -0.3059  0.3105
  136MPD2    C4 2117   2.607   4.596   9.516 -0.5116 -0.0315  0.2503
  136MPD2    C5 2118   2.534   4.673   9.612  0.0603 -0.1534  0.2734
  136MPD2     H 2119   2.658   4.313   9.686  2.4092  0.3230 -0.9082
  136MPD2    H1 2120   2.635   4.649   9.425 -0.4243  2.9343  2.0263
  136MPD2    H2 2121   2.434   4.676   9.789 -0.4623  0.0883  0.0513
  136MPD2    H3 2122   2.502   0.036   9.587  0.5697  0.4908  2.2339
  136MPD2     N 2123   2.721   4.404   9.442 -0.5967  0.1585 -0.6449
  136MPD2    H5 2124   2.726   4.444   9.349 -0.2236 -1.1026 -1.1696
  136MPD2    N1 2125   2.506   4.410   9.877 -0.1355  0.2372  0.3601
  136MPD2    H7 2126   2.541   4.315   9.889  2.9430  1.0104 -2.4228
  137TMC2    C1 2127   2.490   3.377   9.281 -0.1673  0.7851 -0.6153
  137TMC2    C2 2128   2.508   3.350   9.147  0.0769  0.3349  0.2046
  137TMC2    C3 2129   2.492   3.461   9.063  0.4275  0.2653  0.5151
  137TMC2    C4 2130   2.467   3.502   9.336 -0.2183 -0.7595  0.2335
  137TMC2    C5 2131   2.455   3.602   9.247  0.2574 -0.0388  0.2543
  137TMC2    C6 2132   2.471   3.587   9.111 -0.0217  0.3937 -0.3151
  137TMC2     C 2133   2.505   3.264   9.362  0.2927  0.1704 -0.3940
  137TMC2     O 2134   2.529   3.282   9.478  0.2382  0.8701 -0.4165
  137TMC2     H 2135   2.543   3.257   9.106  2.9592  0.6778  1.9109
  137TMC2    H1 2136   2.450   3.516   9.442 -0.8662 -0.3849  0.0836
  137TMC2    H2 2137   2.453   3.667   9.041  0.2178  1.7893  1.2031
  137TMC2    C7 2138   2.392   3.731   9.290 -0.1627 -0.2194 -0.4766
  137TMC2    C8 2139   2.526   3.456   8.916 -0.3598  0.0473  0.3590
  137TMC2    O1 2140   2.415   3.833   9.225  0.0775  0.0973  0.2864
  137TMC2    O2 2141   2.564   3.555   8.851  0.1625 -0.2632  0.3146
  137TMC2    O5 2142   2.468   3.340   8.872  0.2947 -0.2026  0.9134
  137TMC2    H5 2143   2.416   3.288   8.937  0.7867 -0.0428  1.4347
  138MPD2     C 2144   2.381   2.915   9.301 -0.4593  0.7423  0.3333
  138MPD2    C1 2145   2.456   3.014   9.367 -0.6543 -0.1350  0.1957
  138MPD2    C2 2146   2.510   2.980   9.492  0.1914  0.5066 -0.0270
  138MPD2    C3 2147   2.494   2.859   9.552  0.1989 -0.7895 -0.1934
  138MPD2    C4 2148   2.425   2.763   9.481  0.0417 -0.0832 -0.4432
  138MPD2    C5 2149   2.371   2.792   9.356 -0.4801  1.0764 -0.6770
  138MPD2     H 2150   2.560   3.058   9.548  0.9515  0.6855 -0.9597
  138MPD2    H1 2151   2.403   2.669   9.531 -0.1987 -0.3321 -1.0176
  138MPD2    H2 2152   2.331   2.942   9.210  0.2844  0.6037 -0.1180
  138MPD2    H3 2153   2.305   2.719   9.311 -0.1070 -0.8065  1.8054
  138MPD2     N 2154   2.525   2.847   9.685 -0.9538 -0.3180  0.0899
  138MPD2    H5 2155   2.566   2.932   9.721  1.6064 -1.0479 -1.1058
  138MPD2    N1 2156   2.466   3.145   9.302 -0.0342  0.0699 -0.1150
  138MPD2    H7 2157   2.409   3.163   9.220  0.2186  1.9300  0.1076
  139TMC2    C1 2158   3.348   1.439  13.464 -0.1006 -0.1910  0.3120
  139TMC2    C2 2159   3.394   1.502  13.352  0.3288  0.5412  0.1315
  139TMC2    C3 2160   3.354   1.632  13.332 -0.5411 -0.1356  0.3524
  139TMC2    C4 2161   3.267   1.499  13.549 -0.3936 -0.3659  0.5775
  139TMC2    C5 2162   3.231   1.634  13.528 -0.0676 -0.2464  0.6578
  139TMC2    C6 2163   3.268   1.700  13.416  0.0750 -0.1731 -0.3673
  139TMC2     C 2164   3.396   1.306  13.485 -0.1469  0.4534 -0.4502
  139TMC2     O 2165   3.450   1.253  13.388  0.2002  0.3982 -0.4264
  139TMC2     H 2166   3.460   1.455  13.280  0.5354  0.4513  0.3806
  139TMC2    H1 2167   3.212   1.444  13.625  0.5754 -0.6272  1.0864
  139TMC2    H2 2168   3.245   1.802  13.389 -2.4603 -0.8558 -0.7663
  139TMC2    C7 2169   3.157   1.710  13.631  0.4796 -0.2430  0.5106
  139TMC2    C8 2170   3.396   1.697  13.212  0.6755  0.3798  0.0945
  139TMC2    O1 2171   3.119   1.818  13.597  0.0819 -0.5193 -0.3022
  139TMC2    O2 2172   3.335   1.797  13.170  0.2882 -0.5907  0.4781
  139TMC2    O5 2173   3.531   1.687  13.200 -0.4485 -0.8355 -0.2082
  139TMC2    H5 2174   3.568   1.630  13.271  2.8168 -1.9483 -2.8220
  140MPD2     C 2175   3.469   1.115  13.793 -0.3027  0.2435 -0.0060
  140MPD2    C1 2176   3.446   1.138  13.657  0.9355  0.3822 -0.4602
  140MPD2    C2 2177   3.456   1.028  13.573 -0.6175 -0.7644  0.8063
  140MPD2    C3 2178   3.480   0.899  13.624  0.4518  1.0093  0.2443
  140MPD2    C4 2179   3.502   0.875  13.758 -0.7340  0.0390  0.0101
  140MPD2    C5 2180   3.492   0.986  13.839 -0.0804 -0.1753  0.7152
  140MPD2     H 2181   3.430   1.034  13.468 -0.0335  0.1214  0.7138
  140MPD2    H1 2182   3.518   0.779  13.805 -1.6894 -0.2251 -0.2084
  140MPD2    H2 2183   3.475   1.196  13.865  0.7986  1.2551 -1.2385
  140MPD2    H3 2184   3.505   0.973  13.946 -0.9539  2.9411  1.1824
  140MPD2     N 2185   3.494   0.788  13.533  0.0338 -0.3934 -0.6503
  140MPD2    H5 2186   3.470   0.816  13.438  0.0316 -0.6674 -0.7304
  140MPD2    N1 2187   3.404   1.264  13.616 -0.6774 -0.0223 -0.1081
  140MPD2    H7 2188   3.385   1.330  13.690 -3.8879 -0.7811 -0.2700
  141TMC2    C1 2189   3.851   2.263  14.722 -0.4668 -0.8041  0.1773
  141TMC2    C2 2190   3.829   2.154  14.804 -0.5646 -0.1908 -0.1337
  141TMC2    C3 2191   3.856   2.174  14.937  0.4334 -0.4687 -0.1875
  141TMC2    C4 2192   3.898   2.384  14.771 -0.3991 -0.6243  0.7706
  141TMC2    C5 2193   3.938   2.396  14.898  0.2374 -0.5037 -0.1793
  141TMC2    C6 2194   3.915   2.288  14.979 -0.4162 -0.1307 -0.2257
  141TMC2     C 2195   3.830   2.259  14.580  0.0496 -0.3576  0.5017
  141TMC2     O 2196   3.792   2.363  14.524  0.2122  0.2561 -0.6005
  141TMC2     H 2197   3.767   2.073  14.767 -4.1851  1.9279  1.3388
  141TMC2    H1 2198   3.916   2.462  14.697 -0.6389 -1.3701 -0.0699
  141TMC2    H2 2199   3.928   2.290  15.087 -1.3453  0.0963 -0.1182
  141TMC2    C7 2200   4.000   2.517  14.952 -0.0714 -0.1276  0.0054
  141TMC2    C8 2201   3.821   2.072  15.032  0.0449  0.0114 -0.1078
  141TMC2    O1 2202   3.989   2.534  15.069  0.3803 -0.3737 -0.0403
  141TMC2    O2 2203   3.844   2.100  15.152  0.8091  0.0697  0.6357
  141TMC2    O5 2204   3.725   1.995  14.991 -0.5851  0.6260  0.2499
  141TMC2    H5 2205   3.696   2.000  14.897 -0.3563 -1.1051  0.0904
  142TMC2    C1 2206   1.806   1.534   9.807 -0.9325 -0.0406  0.1461
  142TMC2    C2 2207   1.781   1.528   9.672 -0.2641 -0.6264  0.0422
  142TMC2    C3 2208   1.763   1.649   9.609 -0.7981 -0.4402 -0.1575
  142TMC2    C4 2209   1.827   1.652   9.877 -0.1358 -0.0473 -0.3005
  142TMC2    C5 2210   1.803   1.772   9.807 -0.4653 -0.4423 -0.1459
  142TMC2    C6 2211   1.770   1.771   9.674  0.3054  0.2365 -0.3714
  142TMC2     C 2212   1.788   1.412   9.881 -0.2001 -0.1340  0.4586
  142TMC2     O 2213   1.719   1.319   9.836 -0.3335  0.1372  0.3529
  142TMC2     H 2214   1.777   1.430   9.626 -0.2762 -0.6920  0.1825
  142TMC2    H1 2215   1.835   1.651   9.985 -0.3614  0.0541 -0.2812
  142TMC2    H2 2216   1.756   1.866   9.625  0.7069  0.1038 -0.7412
  142TMC2    C7 2217   1.784   1.891   9.886  0.2787 -0.1565  0.3313
  142TMC2    C8 2218   1.751   1.649   9.466 -0.1703 -0.0632  0.1069
  142TMC2    O1 2219   1.767   1.866  10.002 -0.3224  0.5180  0.5956
  142TMC2    O2 2220   1.677   1.715   9.398 -0.0522  0.2815 -0.1485
  142TMC2    O5 2221   1.829   1.546   9.417  0.3699  0.1424  0.0030
  142TMC2    H5 2222   1.900   1.517   9.478 -0.6788 -2.2544  0.0949
  143MPD2     C 2223   1.814   1.191  10.344 -0.0199  0.2372  0.4125
  143MPD2    C1 2224   1.732   1.163  10.236  0.1194 -0.3313 -0.2545
  143MPD2    C2 2225   1.738   1.239  10.119 -1.1199  0.0139 -0.3665
  143MPD2    C3 2226   1.840   1.331  10.108  0.0187  0.3260  0.4684
  143MPD2    C4 2227   1.928   1.349  10.210  0.2378  0.7148  0.2990
  143MPD2    C5 2228   1.915   1.283  10.327 -0.0547 -0.0616  0.1279
  143MPD2     H 2229   1.662   1.224  10.043 -0.6579  1.7096 -1.1789
  143MPD2    H1 2230   2.012   1.418  10.197 -0.1978  1.0282 -0.8586
  143MPD2    H2 2231   1.812   1.139  10.439  0.0228  1.5385  1.1344
  143MPD2    H3 2232   1.978   1.298  10.413  0.8065  1.3765 -0.7639
  143MPD2     N 2233   1.859   1.416   9.997  0.1313  0.2664  0.5433
  143MPD2    H5 2234   1.938   1.479   9.998  0.6686 -0.4512  2.1998
  143MPD2    N1 2235   1.628   1.071  10.262  0.9155 -0.9516  0.3692
  143MPD2    H7 2236   1.633   1.022  10.351  1.0422 -2.0248 -0.2214
  144TMC2    C1 2237   4.484   4.472   0.451 -0.4823 -0.5428 -0.1491
  144TMC2    C2 2238   4.539   4.392   0.355 -0.6299 -0.4317 -0.5506
  144TMC2    C3 2239   4.673   4.386   0.348 -0.1869  0.1468 -0.3390
  144TMC2    C4 2240   4.566   4.543   0.537 -0.1098 -0.7784 -0.2801
  144TMC2    C5 2241   4.704   4.537   0.515  0.2824  0.1046  0.2047
  144TMC2    C6 2242   0.020   4.452   0.429  0.5581  0.8772  0.1812
  144TMC2     C 2243   4.338   4.489   0.444  0.6047 -0.0729  0.0663
  144TMC2     O 2244   4.282   4.442   0.345  0.3013 -0.0279 -0.3292
  144TMC2     H 2245   4.485   4.329   0.285 -1.3037 -1.4745  0.9336
  144TMC2    H1 2246   4.528   4.611   0.612  1.1553 -2.2641  1.6951
  144TMC2    H2 2247   0.127   4.457   0.412  0.5311 -1.1225 -0.5824
  144TMC2    C7 2248   0.054   4.607   0.593 -0.7314  0.2585 -0.0918
  144TMC2    C8 2249   4.724   4.281   0.260 -0.4307 -0.6525 -0.0244
  144TMC2    O1 2250   0.175   4.580   0.584 -0.1436 -0.8970  0.3135
  144TMC2    O2 2251   4.665   4.250   0.160 -0.5824 -0.1378  0.6729
  144TMC2    O5 2252   0.113   4.252   0.292 -0.2829  0.4304  0.1175
  144TMC2    H5 2253   0.127   4.274   0.386 -0.6251  0.0018  0.2703
  145MPD2     C 2254   3.901   4.722   0.555 -0.1892 -0.6799  0.9074
  145MPD2    C1 2255   3.941   4.661   0.440 -0.2508  0.0382 -0.3339
  145MPD2    C2 2256   4.070   4.610   0.443  0.1899 -0.1550  0.0419
  145MPD2    C3 2257   4.151   4.608   0.553 -0.1103 -0.2130  0.6933
  145MPD2    C4 2258   4.108   4.678   0.663 -0.5519 -0.1613 -0.4374
  145MPD2    C5 2259   3.978   4.728   0.667 -1.1212  0.4926  0.2904
  145MPD2     H 2260   4.106   4.561   0.353 -2.6850 -1.3989 -0.4060
  145MPD2    H1 2261   4.157   4.668   0.759 -1.7084 -0.7209  0.1026
  145MPD2    H2 2262   3.803   0.028   0.571  0.7203  1.8418 -0.3655
  145MPD2    H3 2263   3.944   0.028   0.764  2.1383 -0.4000  1.7637
  145MPD2     N 2264   4.285   4.566   0.548  0.0380  0.4981 -0.2205
  145MPD2    H5 2265   4.337   4.587   0.632  1.1030  0.4658 -0.8774
  145MPD2    N1 2266   3.860   4.646   0.321  0.6051  0.4696 -0.3885
  145MPD2    H7 2267   3.897   4.588   0.247  1.1709  1.0348 -0.5485
  146TMC2    C1 2268   0.089   3.810  12.500 -0.5087 -0.3292  1.1909
  146TMC2    C2 2269   4.707   3.780  12.451 -0.1382  0.4335 -0.9453
  146TMC2    C3 2270   4.703   3.717  12.325 -0.9015  0.4121  0.1235
  146TMC2    C4 2271   0.202   3.775  12.434  0.1045 -0.2822  0.3052
  146TMC2    C5 2272   0.199   3.732  12.303  0.0391 -0.0448 -0.0597
  146TMC2    C6 2273   0.080   3.698  12.248 -0.6726  0.4654 -0.8959
  146TMC2     C 2274   0.097   3.849  12.637  0.6902 -0.1884 -0.3904
  146TMC2     O 2275   4.737   3.906  12.683  0.0602  0.3435  0.1826
  146TMC2     H 2276   4.619   3.807  12.507  0.8816  0.4352  0.6666
  146TMC2    H1 2277   0.297   3.816  12.468  2.0412 -2.4549 -2.4015
  146TMC2    H2 2278   0.069   3.666  12.145  0.1299  0.2852 -0.9244
  146TMC2    C7 2279   0.327   3.700  12.238 -0.4275  0.0751 -0.5904
  146TMC2    C8 2280   4.578   3.665  12.276 -0.0169  0.1271 -0.2198
  146TMC2    O1 2281   0.321   3.693  12.115  0.5178 -0.0577 -0.0551
  146TMC2    O2 2282   4.469   3.693  12.324  0.2980  0.3865  0.2418
  146TMC2    O5 2283   4.607   3.538  12.248 -0.3603 -0.7239 -0.3007
  146TMC2    H5 2284   4.702   3.515  12.233 -0.0996  0.1436  0.0301
  147MPD2     C 2285   0.804   3.540  12.222 -0.0114 -0.0257  0.6311
  147MPD2    C1 2286   0.759   3.510  12.350  0.2823  0.5373  0.8867
  147MPD2    C2 2287   0.629   3.546  12.384  0.1344 -0.1417 -0.1070
  147MPD2    C3 2288   0.557   3.614  12.289 -0.1048  0.2503 -0.0298
  147MPD2    C4 2289   0.601   3.633  12.163 -0.0532  0.1075 -0.0862
  147MPD2    C5 2290   0.729   3.607  12.128  0.0519  0.3336  0.6717
  147MPD2     H 2291   0.593   3.544  12.486  0.3760  3.6472  0.0471
  147MPD2    H1 2292   0.536   3.672  12.085 -1.2122  0.6624  1.1661
  147MPD2    H2 2293   0.907   3.528  12.190 -0.7342 -1.9684 -0.9527
  147MPD2    H3 2294   0.758   3.618  12.025  0.2295  1.4553  0.8449
  147MPD2     N 2295   0.423   3.655  12.326  0.0887 -0.2781  0.5353
  147MPD2    H5 2296   0.400   3.649  12.424  3.2181  0.4089  1.3027
  147MPD2    N1 2297   0.850   3.453  12.445 -0.2791 -1.1781  0.5364
  147MPD2    H7 2298   0.940   3.429  12.406 -0.9289 -1.3471 -0.8666
  148TMC2    C1 2299   0.887   2.355  10.241 -0.2757 -0.4786 -0.1632
  148TMC2    C2 2300   0.888   2.452  10.339 -0.5413 -0.2665 -0.5052
  148TMC2    C3 2301   1.004   2.470  10.406  0.5032  0.1529 -0.1331
  148TMC2    C4 2302   1.002   2.287  10.197  0.3199 -0.5237  0.4969
  148TMC2    C5 2303   1.115   2.310  10.274  0.3919  0.0482 -0.5483
  148TMC2    C6 2304   1.118   2.404  10.381  0.2684  0.9306 -0.6855
  148TMC2     C 2305   0.759   2.332  10.179  0.2675 -0.6166  0.0086
  148TMC2     O 2306   0.683   2.424  10.186  0.0199 -1.1888  0.3755
  148TMC2     H 2307   0.797   2.500  10.373 -0.5721 -2.0325  1.8556
  148TMC2    H1 2308   0.994   2.201  10.131  0.4599  1.0090 -1.5194
  148TMC2    H2 2309   1.212   2.418  10.434 -0.0333  1.8328 -0.3912
  148TMC2    C7 2310   1.202   2.190  10.287  0.7147  0.0012 -0.7670
  148TMC2    C8 2311   0.999   2.584  10.499  0.2503 -0.6218  0.4294
  148TMC2    O1 2312   1.230   2.133  10.183 -0.2881 -0.7314  0.0702
  148TMC2    O2 2313   0.917   2.672  10.493 -0.6406  0.0004 -0.9785
  148TMC2    O5 2314   1.093   2.575  10.595  0.5111 -0.4121  0.4115
  148TMC2    H5 2315   1.143   2.490  10.599 -0.7604 -1.3354 -2.8734
  149MPD2     C 2316   0.534   2.200  10.028 -0.1678  0.7407 -0.0427
  149MPD2    C1 2317   0.625   2.131  10.094 -0.4518  0.6496  0.8437
  149MPD2    C2 2318   0.611   1.997  10.106 -0.4332  0.7683  0.9457
  149MPD2    C3 2319   0.488   1.937  10.068 -0.0374 -0.7237  0.4444
  149MPD2    C4 2320   0.395   2.010  10.003  0.5260 -0.8884 -0.1672
  149MPD2    C5 2321   0.421   2.145   9.981  0.1499 -0.3216  0.4814
  149MPD2     H 2322   0.691   1.946  10.158  0.0427 -0.7762 -1.2895
  149MPD2    H1 2323   0.304   1.962   9.970  0.7668 -1.8774  0.6264
  149MPD2    H2 2324   0.544   2.306  10.007 -0.5577  0.4299 -1.8334
  149MPD2    H3 2325   0.339   2.200   9.938  0.1797  0.0531  0.9112
  149MPD2     N 2326   0.457   1.803  10.080 -0.3941 -0.0372  0.1183
  149MPD2    H5 2327   0.361   1.774  10.061 -0.6320  1.1050 -0.4278
  149MPD2    N1 2328   0.739   2.194  10.153  0.2366 -0.0234  0.2734
  149MPD2    H7 2329   0.810   2.127  10.179  0.6327 -0.2068 -1.3140
  150TMC2    C1 2330   3.217   1.542  12.061 -0.1317 -0.4667  0.1518
  150TMC2    C2 2331   3.221   1.601  11.937 -0.4180  0.7017 -0.4615
  150TMC2    C3 2332   3.336   1.639  11.888  0.6000 -0.2623 -0.2276
  150TMC2    C4 2333   3.332   1.511  12.118  0.3451 -0.2814 -0.1075
  150TMC2    C5 2334   3.452   1.548  12.068 -0.5330  0.3115 -0.2544
  150TMC2    C6 2335   3.455   1.614  11.951 -0.3801  0.9587 -0.2534
  150TMC2     C 2336   3.100   1.449  12.086 -0.2839 -0.0507  0.2704
  150TMC2     O 2337   3.106   1.390  12.191 -0.3366 -0.4275  0.5184
  150TMC2     H 2338   3.135   1.634  11.878  0.5051  1.3374 -1.4583
  150TMC2    H1 2339   3.326   1.475  12.220  0.4980  0.3450  0.1186
  150TMC2    H2 2340   3.546   1.648  11.903  0.9946 -1.6772  0.5284
  150TMC2    C7 2341   3.576   1.544  12.151 -0.0723  0.0320  0.8597
  150TMC2    C8 2342   3.337   1.779  11.837  0.4030  0.5286  0.7194
  150TMC2    O1 2343   3.666   1.618  12.107 -0.2488 -0.2371  0.1565
  150TMC2    O2 2344   3.390   1.874  11.889 -0.3544  0.2661 -0.2225
  150TMC2    O5 2345   3.297   1.772  11.708  0.0204 -0.3287  0.1041
  150TMC2    H5 2346   3.250   1.689  11.683 -0.9250  0.5307 -0.9824
  151MPD2     C 2347   2.639   1.271  11.972  0.2147 -0.5172  1.2234
  151MPD2    C1 2348   2.677   1.369  11.878  0.2401  0.4447  0.2877
  151MPD2    C2 2349   2.803   1.427  11.887 -0.3243 -0.3117 -0.2693
  151MPD2    C3 2350   2.878   1.395  11.995 -0.4016  0.0351 -0.6074
  151MPD2    C4 2351   2.843   1.302  12.084 -0.8584  0.3646 -0.0284
  151MPD2    C5 2352   2.723   1.234  12.074  0.2146  0.2193  0.3747
  151MPD2     H 2353   2.846   1.495  11.814  0.1056 -0.3335 -0.0416
  151MPD2    H1 2354   2.909   1.261  12.160 -1.9677 -0.6524  0.3896
  151MPD2    H2 2355   2.543   1.220  11.970  0.7253 -1.4044 -0.8289
  151MPD2    H3 2356   2.699   1.158  12.147  0.6448 -1.0348 -0.8053
  151MPD2     N 2357   3.000   1.466  11.992  0.7277 -0.0312  0.3745
  151MPD2    H5 2358   3.009   1.548  11.933  2.2164 -0.7510 -0.3868
  151MPD2    N1 2359   2.581   1.416  11.788 -0.7781 -0.4781  0.6517
  151MPD2    H7 2360   2.489   1.374  11.783 -0.5543 -1.0423  1.2594
  152TMC2    C1 2361   2.624   1.510  12.448 -0.3101 -1.0482  0.1322
  152TMC2    C2 2362   2.676   1.388  12.475  0.1024 -0.5313  0.6259
  152TMC2    C3 2363   2.809   1.375  12.469  0.1725  0.1890 -0.2181
  152TMC2    C4 2364   2.698   1.607  12.385  0.1256  0.5931 -0.3277
  152TMC2    C5 2365   2.830   1.580  12.360  0.4796  0.7986 -0.2589
  152TMC2    C6 2366   2.888   1.464  12.405 -0.7613 -1.0475 -0.6003
  152TMC2     C 2367   2.510   1.553  12.532  0.3079  0.0240  0.3667
  152TMC2     O 2368   2.445   1.466  12.586 -0.0814 -0.3524 -0.4012
  152TMC2     H 2369   2.613   1.322  12.534  0.2864 -0.0420  1.3691
  152TMC2    H1 2370   2.660   1.706  12.362 -0.8971  0.4971  0.9157
  152TMC2    H2 2371   2.993   1.440  12.392 -0.0930  1.4153  0.3282
  152TMC2    C7 2372   2.910   1.685  12.311 -0.1377  0.1490 -0.1058
  152TMC2    C8 2373   2.864   1.265  12.555 -0.1842 -0.3369 -0.0341
  152TMC2    O1 2374   2.861   1.766  12.232 -0.0523  1.1388 -0.1374
  152TMC2    O2 2375   2.824   1.154  12.527 -0.5308 -0.1294  0.3369
  152TMC2    O5 2376   2.990   1.289  12.594  0.0432  0.0151  0.9544
  152TMC2    H5 2377   2.999   1.385  12.612  0.6520 -0.1021  1.2763
  153MPD2     C 2378   2.472   1.869  12.715  0.5539 -0.2571 -1.3614
  153MPD2    C1 2379   2.444   1.742  12.683  0.1617  0.1925  0.2400
  153MPD2    C2 2380   2.327   1.686  12.734  0.1000  0.7304  0.0021
  153MPD2    C3 2381   2.245   1.746  12.823  0.9625  0.2816  0.0257
  153MPD2    C4 2382   2.277   1.875  12.857  0.2384  0.2521 -0.0170
  153MPD2    C5 2383   2.389   1.933  12.806 -0.2464 -0.0943  0.7264
  153MPD2     H 2384   2.299   1.589  12.694  0.3931  1.1142 -1.1355
  153MPD2    H1 2385   2.218   1.932  12.928 -1.5044 -0.2965 -1.0197
  153MPD2    H2 2386   2.558   1.915  12.667  1.3504 -3.0564 -2.6299
  153MPD2    H3 2387   2.410   2.037  12.828 -0.9126  0.1241  0.3118
  153MPD2     N 2388   2.141   1.667  12.873 -0.5961 -0.0295 -0.5914
  153MPD2    H5 2389   2.134   1.568  12.854  1.2692  0.0664 -1.7431
  153MPD2    N1 2390   2.525   1.680  12.577  0.1032 -0.2789 -0.0108
  153MPD2    H7 2391   2.597   1.740  12.538  0.2079 -1.1720 -1.2098
  154TMC2    C1 2392   4.605   1.013  17.711  0.2763 -0.0164  0.3826
  154TMC2    C2 2393   4.673   1.062  17.603  0.0322  0.4333  0.1745
  154TMC2    C3 2394   4.705   0.972  17.513 -0.2089  0.1676  0.0357
  154TMC2    C4 2395   4.600   0.878  17.741  0.3653  0.4529  0.1763
  154TMC2    C5 2396   4.655   0.794  17.650 -0.1632  0.1473 -0.0608
  154TMC2    C6 2397   4.703   0.838  17.529  1.0496  0.0797  0.1289
  154TMC2     C 2398   4.536   1.112   0.051 -0.1957 -0.5035 -0.1789
  154TMC2     O 2399   4.523   1.100   0.168  0.3470  0.8417 -0.0424
  154TMC2     H 2400   4.698   1.164  17.577  0.6505  0.2601  0.0948
  154TMC2    H1 2401   4.547   0.848   0.081 -1.3370  0.7960 -0.7211
  154TMC2    H2 2402   0.003   0.768  17.456  0.4170  0.3964 -0.5142
  154TMC2    C7 2403   4.661   0.654  17.677 -0.8667 -0.2796  0.1533
  154TMC2    C8 2404   0.034   1.016  17.398  0.6987 -0.5388  0.7559
  154TMC2    O1 2405   0.025   0.598  17.641 -0.2341 -0.5994  0.1068
  154TMC2    O2 2406   0.105   0.941  17.332  0.2818 -0.0998  0.2237
  154TMC2    O5 2407   4.711   1.124  17.345  0.0358 -0.1348 -0.4777
  154TMC2    H5 2408   4.633   1.150  17.399  0.1248  0.3041 -0.5549
  155MPD2     C 2409   4.407   1.441  17.679 -0.3528  0.2003 -0.1716
  155MPD2    C1 2410   4.454   1.347   0.022 -0.3752  0.1691  0.1960
  155MPD2    C2 2411   4.432   1.371   0.156 -0.3254 -0.6093 -0.8162
  155MPD2    C3 2412   4.356   1.483   0.198  0.3425  0.1723  0.0152
  155MPD2    C4 2413   4.312   1.567   0.097  1.0130  0.3694  0.1782
  155MPD2    C5 2414   4.328   1.540  17.717 -0.2597 -0.6047  0.6948
  155MPD2     H 2415   4.466   1.300   0.230 -1.5565 -0.7619 -0.3934
  155MPD2    H1 2416   4.243   1.650   0.103 -0.0218 -0.5223  0.5930
  155MPD2    H2 2417   4.411   1.419  17.573 -2.1949  1.6472 -0.5343
  155MPD2    H3 2418   4.284   1.597  17.636  1.3341  0.8544  0.8614
  155MPD2     N 2419   4.333   1.517   0.334  0.5608  0.2216 -0.1264
  155MPD2    H5 2420   4.273   1.596   0.356  0.2158 -0.4272  1.2622
  155MPD2    N1 2421   4.504   1.223  17.720  0.5638 -0.3109  0.0201
  155MPD2    H7 2422   4.504   1.215  17.619 -0.5056 -0.6628  0.0555
  156TMC2    C1 2423   3.187   3.917  12.021 -0.1986  0.2430 -0.2483
  156TMC2    C2 2424   3.226   3.784  12.017  0.1097 -0.0080 -0.5931
  156TMC2    C3 2425   3.201   3.714  11.902  0.3118 -0.4538  0.4766
  156TMC2    C4 2426   3.158   3.986  11.906 -0.6888 -0.1699 -0.8258
  156TMC2    C5 2427   3.143   3.918  11.791  0.0526  0.6789  0.1358
  156TMC2    C6 2428   3.160   3.776  11.787 -0.6545  0.2565  0.7840
  156TMC2     C 2429   3.147   3.975  12.147  0.3004 -0.0772  0.2771
  156TMC2     O 2430   3.164   4.096  12.165  0.4561  0.6581  0.4008
  156TMC2     H 2431   3.240   3.725  12.108  1.9089 -0.2617 -1.0288
  156TMC2    H1 2432   3.120   4.087  11.915  0.2492  0.1079  0.1771
  156TMC2    H2 2433   3.133   3.703  11.711  3.3104  1.1006 -1.4556
  156TMC2    C7 2434   3.082   3.983  11.677 -0.2111  0.0328  0.3864
  156TMC2    C8 2435   3.228   3.572  11.899 -0.3988 -0.3101 -0.7381
  156TMC2    O1 2436   3.092   4.103  11.684  0.3031  0.4805  0.0889
  156TMC2    O2 2437   3.156   3.482  11.947  0.2517 -0.5245 -0.3667
  156TMC2    O5 2438   3.352   3.575  11.927 -0.0761  0.8438 -0.0505
  156TMC2    H5 2439   3.403   3.640  11.873 -2.8896  2.3773 -0.8226
  157MPD2     C 2440   2.868   3.866  12.348 -0.2362  0.3668 -0.6296
  157MPD2    C1 2441   2.940   3.954  12.271  0.1624 -0.2983  0.1990
  157MPD2    C2 2442   2.898   4.086  12.248  0.2729 -0.2430 -0.2931
  157MPD2    C3 2443   2.793   4.139  12.320  1.5128  0.2176  0.1246
  157MPD2    C4 2444   2.725   4.054  12.405 -0.4750  0.0117  0.0937
  157MPD2    C5 2445   2.767   3.924  12.419  0.5912  0.0322 -0.5997
  157MPD2     H 2446   2.953   4.149  12.180  2.8933  0.8893  2.8989
  157MPD2    H1 2447   2.637   4.093  12.454 -0.2215 -1.4882  1.7501
  157MPD2    H2 2448   2.897   3.763  12.362 -0.3226  0.5954  1.2437
  157MPD2    H3 2449   2.709   3.860  12.484  1.9349 -2.3223 -1.7183
  157MPD2     N 2450   2.726   4.260  12.295  0.7639 -0.0375  0.4372
  157MPD2    H5 2451   2.629   4.261  12.325  0.1414  2.1166 -1.6400
  157MPD2    N1 2452   3.050   3.896  12.202 -0.2671  0.4028  0.3839
  157MPD2    H7 2453   3.055   3.795  12.198  0.7426  0.4564  0.1944
  158TMC2    C1 2454   3.372   2.421  13.107 -0.4362  0.6887 -0.1907
  158TMC2    C2 2455   3.443   2.495  13.017  0.0868  1.0578  0.6071
  158TMC2    C3 2456   3.380   2.600  12.951  0.2857  0.2208 -0.0691
  158TMC2    C4 2457   3.235   2.445  13.129 -0.0692 -0.4076 -0.5651
  158TMC2    C5 2458   3.184   2.559  13.071 -0.5381  0.4420 -0.1102
  158TMC2    C6 2459   3.255   2.635  12.981 -0.6746 -0.4577 -0.2762
  158TMC2     C 2460   3.419   2.300  13.159 -0.3432 -0.3210  0.2821
  158TMC2     O 2461   3.504   2.245  13.089 -0.1985  0.0575  0.0851
  158TMC2     H 2462   3.547   2.469  13.003 -0.6845 -1.1138 -1.1620
  158TMC2    H1 2463   3.176   2.370  13.180 -1.4798  1.6206  0.7851
  158TMC2    H2 2464   3.206   2.717  12.929 -1.0243 -1.1723 -1.0764
  158TMC2    C7 2465   3.053   2.601  13.107 -0.4095  0.7235  0.4739
  158TMC2    C8 2466   3.436   2.667  12.837  0.2639 -0.1420  0.6637
  158TMC2    O1 2467   2.995   2.682  13.032  0.3364 -0.5429  0.3746
  158TMC2    O2 2468   3.378   2.753  12.773  0.0380 -0.3884  0.4756
  158TMC2    O5 2469   3.555   2.625  12.805  0.3794  0.2174 -0.4859
  158TMC2    H5 2470   3.580   2.544  12.854  0.0106 -0.7615 -1.9221
  159MPD2     C 2471   3.462   1.923  13.523 -0.1248 -0.3710 -0.3954
  159MPD2    C1 2472   3.373   2.025  13.566  0.1848  0.0828  0.4424
  159MPD2    C2 2473   3.344   2.132  13.476  0.2283 -0.4209 -0.4656
  159MPD2    C3 2474   3.405   2.139  13.353 -0.5935 -0.5830 -0.4632
  159MPD2    C4 2475   3.495   2.048  13.315  0.5503 -0.3993  0.8224
  159MPD2    C5 2476   3.524   1.942  13.400 -0.4687  0.7860 -0.1771
  159MPD2     H 2477   3.273   2.208  13.504 -0.8586 -1.2628 -0.9440
  159MPD2    H1 2478   3.535   2.045  13.214  2.1049 -1.2966  1.4621
  159MPD2    H2 2479   3.497   1.842  13.585 -0.4781 -0.3271 -0.1451
  159MPD2    H3 2480   3.606   1.878  13.369 -1.7055 -1.0484  0.3136
  159MPD2     N 2481   3.360   2.258  13.277 -0.1568  1.0643  0.0152
  159MPD2    H5 2482   3.295   2.317  13.327 -1.4665 -1.1708  0.9678
  159MPD2    N1 2483   3.336   2.028  13.702  0.1921  0.0529  0.2163
  159MPD2    H7 2484   3.353   1.943  13.755  3.2152  0.4931 -0.0303
  160TMC2    C1 2485   2.626   0.343   1.391  0.5337 -0.0624 -0.1141
  160TMC2    C2 2486   2.573   0.220   1.381 -0.4627 -0.3821 -0.0682
  160TMC2    C3 2487   2.657   0.117   1.352 -0.4501  0.0097 -0.3527
  160TMC2    C4 2488   2.756   0.374   1.370 -0.2414 -0.3764 -0.0802
  160TMC2    C5 2489   2.837   0.267   1.352 -0.9422  0.5178 -0.0645
  160TMC2    C6 2490   2.786   0.142   1.355  0.2982  0.1007 -0.0214
  160TMC2     C 2491   2.537   0.456   1.390  0.4967 -0.1972 -0.5957
  160TMC2     O 2492   2.451   0.447   1.477 -0.3712 -0.1221 -0.1515
  160TMC2     H 2493   2.468   0.209   1.406 -0.3347  0.2354  0.7656
  160TMC2    H1 2494   2.789   0.476   1.390 -0.7288 -0.2252 -0.0409
  160TMC2    H2 2495   2.851   0.055   1.351  1.6171  1.0076  1.3952
  160TMC2    C7 2496   2.971   0.281   1.384  0.3762  0.0133  0.2773
  160TMC2    C8 2497   2.604   4.724   1.349  0.3474 -0.8466 -0.0230
  160TMC2    O1 2498   3.034   0.187   1.422  0.0485  0.6172 -0.2109
  160TMC2    O2 2499   2.653   4.637   1.417  0.7330 -0.2425  0.0465
  160TMC2    O5 2500   2.476   4.723   1.295 -0.6608  0.2172 -0.4973
  160TMC2    H5 2501   2.465   0.068   1.244 -1.8563  0.4148  0.0768
  161MPD2     C 2502   2.388   0.705   1.344  0.1431 -0.7486 -0.6328
  161MPD2    C1 2503   2.488   0.667   1.256  0.2909 -1.0236  0.1902
  161MPD2    C2 2504   2.505   0.731   1.131  0.0303  0.2849 -0.4977
  161MPD2    C3 2505   2.423   0.840   1.105  0.2628  0.2493  0.0583
  161MPD2    C4 2506   2.334   0.879   1.199 -0.0012 -0.0612  1.2420
  161MPD2    C5 2507   2.313   0.814   1.320 -0.3098 -0.9272 -0.1270
  161MPD2     H 2508   2.574   0.692   1.056 -0.7839  0.3659 -1.2875
  161MPD2    H1 2509   2.271   0.963   1.170 -0.7798 -0.4472  1.8006
  161MPD2    H2 2510   2.387   0.666   1.445  1.1198  1.4238  0.2195
  161MPD2    H3 2511   2.233   0.837   1.389  0.1217 -0.6045  0.2707
  161MPD2     N 2512   2.430   0.910   0.980  0.1351 -0.0227 -0.3539
  161MPD2    H5 2513   2.352   0.975   0.977  2.2796  2.5210 -0.3305
  161MPD2    N1 2514   2.567   0.547   1.294  0.3162 -0.2470 -0.2424
  161MPD2    H7 2515   2.649   0.518   1.241  1.1151  1.9877 -0.2206
  162TMC2    C1 2516   1.365   2.186   1.269 -0.0012  0.0219  0.3383
  162TMC2    C2 2517   1.253   2.187   1.345  0.3527 -0.7241 -0.8489
  162TMC2    C3 2518   1.266   2.146   1.475 -0.5368 -0.0443 -0.9528
  162TMC2    C4 2519   1.487   2.138   1.322 -0.3301 -0.8412  0.5000
  162TMC2    C5 2520   1.499   2.085   1.449 -0.1766  0.2445 -0.1402
  162TMC2    C6 2521   1.383   2.102   1.532 -0.0909  0.4154  0.1835
  162TMC2     C 2522   1.353   2.225   1.127 -0.5015 -0.4928 -0.6289
  162TMC2     O 2523   1.445   2.195   1.053  0.5576  0.3380  0.0907
  162TMC2     H 2524   1.159   2.228   1.309 -0.6424 -1.8927  0.3970
  162TMC2    H1 2525   1.570   2.149   1.255 -0.8129 -0.0677  0.0263
  162TMC2    H2 2526   1.389   2.070   1.636  1.2395 -1.9785 -0.6356
  162TMC2    C7 2527   1.629   2.052   1.496 -0.2412  0.8038 -0.2582
  162TMC2    C8 2528   1.146   2.173   1.553 -0.8783  0.3570  0.3075
  162TMC2    O1 2529   1.642   2.066   1.619 -0.1820  0.0292  0.5855
  162TMC2    O2 2530   1.044   2.219   1.504 -0.0227  0.3617 -0.1592
  162TMC2    O5 2531   1.151   2.125   1.683 -0.0052  0.2993  0.7316
  162TMC2    H5 2532   1.232   2.073   1.704  0.1448 -0.4891 -1.7891
  163MPD2     C 2533   1.162   2.502   0.721  0.6569  0.1895  0.1949
  163MPD2    C1 2534   1.266   2.414   0.729  0.2117  0.8041  0.7618
  163MPD2    C2 2535   1.291   2.347   0.850  0.0112  0.2547 -0.5981
  163MPD2    C3 2536   1.212   2.366   0.960  0.1362  0.6015  0.5939
  163MPD2    C4 2537   1.101   2.445   0.944  0.1289  0.1466 -0.1990
  163MPD2    C5 2538   1.080   2.513   0.830  0.9444  0.5288 -0.0989
  163MPD2     H 2539   1.363   2.267   0.859 -1.2197 -0.8551 -0.6122
  163MPD2    H1 2540   1.032   2.458   1.026 -0.1959  0.7895 -0.5794
  163MPD2    H2 2541   1.124   2.548   0.631  1.4890  0.0723 -0.2112
  163MPD2    H3 2542   0.992   2.577   0.826 -0.7844 -1.7510  1.2283
  163MPD2     N 2543   1.247   2.312   1.092  0.3776  0.5559 -0.1185
  163MPD2    H5 2544   1.185   2.342   1.167  0.5669  1.7693 -0.4579
  163MPD2    N1 2545   1.336   2.394   0.610 -0.1066 -0.2587 -0.2100
  163MPD2    H7 2546   1.299   2.439   0.527 -1.7472  0.5602  0.9674
  164TMC2    C1 2547   1.538   2.095  11.363  0.2142 -0.1659  0.1870
  164TMC2    C2 2548   1.564   2.132  11.493  0.7721 -0.2512  0.3642
  164TMC2    C3 2549   1.547   2.266  11.513 -0.5800  0.2973  0.3957
  164TMC2    C4 2550   1.489   2.174  11.265 -0.2638 -0.4320 -0.2870
  164TMC2    C5 2551   1.464   2.303  11.295 -0.0338 -0.1166  0.3590
  164TMC2    C6 2552   1.495   2.351  11.420 -0.1818 -0.1275 -0.3851
  164TMC2     C 2553   1.554   1.955  11.333  0.6151 -0.0520 -0.2403
  164TMC2     O 2554   1.536   1.880  11.428 -0.5178 -0.0103 -0.0346
  164TMC2     H 2555   1.614   2.066  11.562  3.2347 -0.1752 -1.3370
  164TMC2    H1 2556   1.459   2.128  11.171  0.3078  2.1666 -1.7351
  164TMC2    H2 2557   1.489   2.458  11.435  3.8825  0.1475 -0.6155
  164TMC2    C7 2558   1.390   2.379  11.191 -0.0059  0.4838  0.1390
  164TMC2    C8 2559   1.602   2.336  11.628  0.4468  0.6077  0.3103
  164TMC2    O1 2560   1.337   2.312  11.100 -0.2877 -0.0484 -0.5752
  164TMC2    O2 2561   1.619   2.455  11.632  0.0597  0.0423 -0.4802
  164TMC2    O5 2562   1.596   2.246  11.729 -0.5092  0.2995  0.1085
  164TMC2    H5 2563   1.542   2.167  11.709  0.2188 -1.0428  3.5910
  165TMC2    C1 2564   3.392   4.322   2.080  0.2195  0.0170  0.3830
  165TMC2    C2 2565   3.477   4.222   2.114 -0.2781  0.0260  0.3458
  165TMC2    C3 2566   3.612   4.237   2.115 -0.2933 -0.2863  0.2851
  165TMC2    C4 2567   3.440   4.443   2.041  0.0752  0.3836 -0.4396
  165TMC2    C5 2568   3.577   4.459   2.042  0.9448  0.1107  0.2872
  165TMC2    C6 2569   3.662   4.365   2.089 -0.1708 -0.1489 -0.7930
  165TMC2     C 2570   3.274   4.272   2.024  0.0653 -0.5522  0.4835
  165TMC2     O 2571   3.283   4.155   1.984 -0.1739 -0.6588  0.2816
  165TMC2     H 2572   3.441   4.124   2.143 -1.4298  1.0267  2.2691
  165TMC2    H1 2573   3.373   4.508   1.986  0.8113  2.2447  0.9037
  165TMC2    H2 2574   3.768   4.383   2.077 -0.3288  0.3810 -1.3638
  165TMC2    C7 2575   3.627   4.568   1.961  0.4874  0.6302  0.1674
  165TMC2    C8 2576   3.681   4.143   2.188  0.2717  0.0863 -0.0648
  165TMC2    O1 2577   3.751   4.573   1.952  0.2310  0.3885 -0.0337
  165TMC2    O2 2578   3.658   4.023   2.205  0.4246 -0.5374 -0.0267
  165TMC2    O5 2579   3.752   4.219   2.269  0.6773 -0.5969 -0.7972
  165TMC2    H5 2580   3.790   4.307   2.246  1.3420 -0.4745  0.7248
  166MPD2     C 2581   2.808   4.362   1.833  0.2530  0.0070  0.2936
  166MPD2    C1 2582   2.891   4.252   1.826 -0.5181 -1.0311  0.1300
  166MPD2    C2 2583   3.019   4.256   1.885 -0.2301 -0.2071  0.1676
  166MPD2    C3 2584   3.053   4.368   1.963 -0.1917  0.2521 -0.7460
  166MPD2    C4 2585   2.962   4.466   1.988  0.1087 -0.2949 -0.0899
  166MPD2    C5 2586   2.843   4.464   1.918 -1.3940 -0.6184 -0.1118
  166MPD2     H 2587   3.083   4.169   1.873  0.8913  0.7062 -0.4589
  166MPD2    H1 2588   2.978   4.540   2.066  2.8331  1.3620 -2.2314
  166MPD2    H2 2589   2.714   4.365   1.780  1.3114 -0.2747 -1.6169
  166MPD2    H3 2590   2.764   4.537   1.931  1.5856  2.4207  0.7620
  166MPD2     N 2591   3.180   4.373   2.032 -0.5713 -0.1992 -0.5009
  166MPD2    H5 2592   3.190   4.434   2.112  1.8546 -2.1155  0.6850
  166MPD2    N1 2593   2.839   4.146   1.741  0.2215  0.1392 -0.2718
  166MPD2    H7 2594   2.751   4.165   1.694 -0.1377  0.8411  0.6744
  167TMC2    C1 2595   0.493   2.594  12.580  0.5360 -0.3941 -0.2697
  167TMC2    C2 2596   0.392   2.652  12.644  0.0026 -0.6013 -0.1934
  167TMC2    C3 2597   0.328   2.568  12.735 -0.2986 -0.5067  0.0068
  167TMC2    C4 2598   0.548   2.477  12.617 -0.0025  0.0258  0.2661
  167TMC2    C5 2599   0.482   2.400  12.712 -0.1798  0.5851 -0.6947
  167TMC2    C6 2600   0.367   2.445  12.771  0.3172  0.1865 -0.1041
  167TMC2     C 2601   0.554   2.673  12.476 -0.1752 -0.2159  0.1099
  167TMC2     O 2602   0.527   2.794  12.464  0.2266 -0.1473  0.3546
  167TMC2     H 2603   0.357   2.751  12.618 -1.3861 -0.8799  0.6368
  167TMC2    H1 2604   0.640   2.436  12.577 -0.1966 -1.2326  1.0955
  167TMC2    H2 2605   0.319   2.397  12.856 -1.2809 -1.2666 -1.8214
  167TMC2    C7 2606   0.501   2.256  12.716 -0.4007  0.1212  0.3158
  167TMC2    C8 2607   0.270   2.649  12.844 -0.3029 -0.5960 -0.2270
  167TMC2    O1 2608   0.411   2.196  12.774 -0.3223 -0.3167  0.1326
  167TMC2    O2 2609   0.319   2.762  12.860  0.5709 -0.3436 -0.3195
  167TMC2    O5 2610   0.142   2.632  12.803  0.0222 -0.2942  0.6520
  167TMC2    H5 2611   0.123   2.536  12.805  0.4444 -0.4251 -1.0889
  168MPD2     C 2612   0.707   2.757  12.223 -0.2136 -0.8508 -0.8310
  168MPD2    C1 2613   0.687   2.623  12.264  0.4431  0.4439  0.5002
  168MPD2    C2 2614   0.747   2.521  12.194 -0.2986  0.2102  0.4828
  168MPD2    C3 2615   0.797   2.545  12.060 -0.2014 -0.1273  0.4403
  168MPD2    C4 2616   0.810   2.676  12.015 -0.4618 -0.0670 -0.0436
  168MPD2    C5 2617   0.776   2.778  12.106 -0.2190  0.9045  0.4278
  168MPD2     H 2618   0.744   2.422  12.238  0.1351 -0.1216 -0.2347
  168MPD2    H1 2619   0.859   2.699  11.922  1.4021 -0.0189  0.9537
  168MPD2    H2 2620   0.684   2.847  12.278  1.4461 -0.1312 -1.3425
  168MPD2    H3 2621   0.784   2.879  12.067 -2.8939  1.6774  1.8393
  168MPD2     N 2622   0.821   2.436  11.968 -0.2512  0.3339 -0.1874
  168MPD2    H5 2623   0.871   2.465  11.885 -0.7116  0.2465 -0.4978
  168MPD2    N1 2624   0.622   2.589  12.387 -0.0114 -0.2894  0.2641
  168MPD2    H7 2625   0.621   2.488  12.401  2.2434 -0.6125 -1.8947
  169MPD1     C 2626   3.860   2.733   9.382  0.7894 -0.3126  0.0803
  169MPD1    C1 2627   3.873   2.655   9.497 -0.0362 -0.0645  0.1639
  169MPD1    C2 2628   3.782   2.553   9.519 -0.3361  0.3163 -0.0713
  169MPD1    C3 2629   3.668   2.531   9.433  0.9182  0.4939  0.3193
  169MPD1    C4 2630   3.646   2.625   9.338  0.0177 -0.0812 -0.3046
  169MPD1    C5 2631   3.739   2.725   9.308 -0.9991 -0.0223 -0.4323
  169MPD1     H 2632   3.791   2.497   9.611 -2.7454  1.0395  0.6104
  169MPD1    H1 2633   3.563   2.613   9.269  0.0898 -1.0706 -0.2204
  169MPD1    H2 2634   3.933   2.804   9.346  0.8718 -0.1631  0.5533
  169MPD1    H3 2635   3.735   2.777   9.213 -0.4965 -0.6470 -0.7982
  169MPD1     N 2636   3.582   2.416   9.464 -0.5829 -0.0144  0.5601
  169MPD1    H5 2637   3.606   2.360   9.545  3.0501 -0.2123 -0.6501
  169MPD1    N1 2638   3.996   2.659   9.562  0.3580  0.2990  0.0651
  169MPD1    H6 2639   3.984   2.621   9.656 -2.0326  0.5521 -0.1481
  169MPD1    H7 2640   4.050   2.745   9.563 -0.2131  0.6612 -3.7159
  170MPD1     C 2641   1.921   3.889  12.910 -0.4646  0.2218 -0.1844
  170MPD1    C1 2642   1.806   3.939  12.948  0.0663  0.2935 -0.5853
  170MPD1    C2 2643   1.792   3.990  13.075 -0.6787  0.3296 -0.2998
  170MPD1    C3 2644   1.897   3.977  13.164  0.3931 -0.6165  0.1848
  170MPD1    C4 2645   2.018   3.925  13.123  0.3062 -0.1204 -0.3356
  170MPD1    C5 2646   2.026   3.877  13.000  0.0224  0.1555 -0.2954
  170MPD1     H 2647   1.703   4.046  13.102  0.5885  2.1001  0.2043
  170MPD1    H1 2648   2.105   3.913  13.187 -0.4926  0.0789  0.7732
  170MPD1    H2 2649   1.941   3.866  12.806 -1.6610 -2.6424  0.2369
  170MPD1    H3 2650   2.119   3.829  12.971  1.0151  1.3957  0.8573
  170MPD1     N 2651   1.880   4.026  13.297  0.0491  0.4410  0.1124
  170MPD1    H5 2652   1.784   4.036  13.329 -0.1195 -0.2414 -0.1760
  170MPD1    N1 2653   1.715   3.968  12.839  0.5611 -0.3439 -0.1589
  170MPD1    H6 2654   1.715   3.901  12.762  0.1723 -0.8602  0.2937
  170MPD1    H7 2655   1.621   3.981  12.876  1.3142 -0.2857  1.7142
  171MPD1     C 2656   4.690   0.474  15.819  0.7080 -0.3784 -0.5079
  171MPD1    C1 2657   4.652   0.381  15.723  0.2899 -0.6152  0.2665
  171MPD1    C2 2658   0.000   0.271  15.700 -0.6649 -0.2509  0.1032
  171MPD1    C3 2659   0.128   0.273  15.755 -0.3771 -0.1534  0.4608
  171MPD1    C4 2660   0.167   0.379  15.838  0.7339 -0.3343  0.6094
  171MPD1    C5 2661   0.078   0.473  15.870  0.0186  0.5052 -0.3850
  171MPD1     H 2662   4.716   0.190  15.632 -1.8632  0.6383 -0.5714
  171MPD1    H1 2663   0.262   0.388  15.890  1.0380  2.8037 -0.4628
  171MPD1    H2 2664   4.627   0.552  15.860  0.3104  0.6003 -3.0075
  171MPD1    H3 2665   0.097   0.544  15.950  0.0811 -1.9088  1.7228
  171MPD1     N 2666   0.227   0.175  15.743  0.5090 -0.0616  0.1415
  171MPD1    H5 2667   0.321   0.194  15.776  0.6456  0.4492 -0.5517
  171MPD1    N1 2668   4.527   0.383  15.676 -1.0122 -0.0946  0.2640
  171MPD1    H6 2669   4.528   0.345  15.581 -2.2776  0.4996  0.0124
  171MPD1    H7 2670   4.506   0.481  15.663  0.5314 -0.1169 -2.5478
  172MPD1     C 2671   4.061   4.094  17.490 -0.1472  0.0074 -0.6395
  172MPD1    C1 2672   4.025   4.112  17.621 -0.2336  0.2379  0.1304
  172MPD1    C2 2673   4.069   4.224  17.683 -0.5381 -0.5102  0.0934
  172MPD1    C3 2674   4.150   4.318  17.616 -0.4119 -0.0393  0.5079
  172MPD1    C4 2675   4.198   4.279  17.498 -0.7513  0.2619  0.8438
  172MPD1    C5 2676   4.149   4.177  17.431  0.3764 -0.3021  0.1075
  172MPD1     H 2677   4.044   4.248   0.037  0.5322  0.9190  0.0287
  172MPD1    H1 2678   4.263   4.350  17.448 -0.2219 -0.3262  0.7069
  172MPD1    H2 2679   4.036   4.006  17.432 -0.0678  0.3460 -1.1882
  172MPD1    H3 2680   4.181   4.161  17.329 -2.7458  2.0010 -1.2425
  172MPD1     N 2681   4.199   4.432  17.677 -0.5810 -0.0782  0.1954
  172MPD1    H5 2682   4.277   4.469  17.623  1.3572 -0.8128  2.5108
  172MPD1    N1 2683   3.926   4.039  17.681 -0.5099  0.1192 -0.2803
  172MPD1    H6 2684   3.947   3.940  17.665  0.5949  0.3246 -0.0825
  172MPD1    H7 2685   3.931   4.045   0.033 -1.1176 -1.0819 -0.1769
  173MPD1     C 2686   1.333   0.107  13.698  0.9235  0.0010  0.3895
  173MPD1    C1 2687   1.241   0.135  13.801 -0.0270 -0.1524  0.1851
  173MPD1    C2 2688   1.260   0.081  13.927  0.1999  0.1008  0.0902
  173MPD1    C3 2689   1.370   4.729  13.936 -0.4968  0.4029  0.3751
  173MPD1    C4 2690   1.445   4.690  13.832 -0.0869 -0.4033  0.4715
  173MPD1    C5 2691   1.428   0.012  13.707  0.4578 -0.5675  0.0434
  173MPD1     H 2692   1.201   0.119  14.009 -0.1844  1.9730 -1.0656
  173MPD1    H1 2693   1.509   4.604  13.841 -0.0246 -0.6233 -2.2334
  173MPD1    H2 2694   1.319   0.168  13.610 -0.5352 -2.8782 -1.3767
  173MPD1    H3 2695   1.479   4.704  13.623  1.1205 -1.4636  0.9436
  173MPD1     N 2696   1.382   4.666  14.064 -0.1333  0.7003 -0.3173
  173MPD1    H5 2697   1.302   4.688  14.123 -1.2942  0.7612 -1.9096
  173MPD1    N1 2698   1.137   0.233  13.783  0.0323 -0.0204  0.2481
  173MPD1    H6 2699   1.107   0.224  13.686 -2.1732 -1.2088  1.0568
  173MPD1    H7 2700   1.059   0.215  13.845  0.1069  2.4965  1.0507
  174MPD1     C 2701   2.023   3.928  14.291 -0.1906  0.2681 -0.7654
  174MPD1    C1 2702   1.921   3.918  14.386  0.0481  0.4865 -0.2485
  174MPD1    C2 2703   1.810   4.001  14.377 -0.1310 -0.0474 -0.6175
  174MPD1    C3 2704   1.807   4.102  14.284  0.9054 -0.0423 -0.7236
  174MPD1    C4 2705   1.914   4.117  14.191  0.0257  0.0039  0.2718
  174MPD1    C5 2706   2.013   4.026  14.196  0.5558  0.6706 -0.4598
  174MPD1     H 2707   1.725   3.972  14.438  1.3853 -0.6350  1.1917
  174MPD1    H1 2708   1.901   4.185  14.108 -0.2379 -0.6471 -0.2171
  174MPD1    H2 2709   2.110   3.866  14.278  0.3393  0.5866  1.2339
  174MPD1    H3 2710   2.092   4.027  14.122  0.5929  0.2636 -0.4283
  174MPD1     N 2711   1.695   4.185  14.270  0.1883 -0.3417  0.0270
  174MPD1    H5 2712   1.699   4.253  14.195 -0.1461 -1.6599 -1.1939
  174MPD1    N1 2713   1.926   3.810  14.482  0.2120 -0.1953 -0.3752
  174MPD1    H6 2714   1.854   3.806  14.554  1.6893 -0.0911  1.0887
  174MPD1    H7 2715   2.021   3.789  14.510  0.6472 -1.3907 -2.7070
  175MPD1     C 2716   4.000   0.287  15.525  0.1635 -0.5860  0.2654
  175MPD1    C1 2717   3.896   0.380  15.523  0.0482  0.7750 -0.3379
  175MPD1    C2 2718   3.884   0.466  15.629  0.5705  0.0416  0.7997
  175MPD1    C3 2719   3.957   0.441  15.750  0.0063 -0.7820  0.5327
  175MPD1    C4 2720   4.042   0.329  15.755  0.9389  0.3933 -0.3478
  175MPD1    C5 2721   4.064   0.256  15.641  0.1415 -0.2847  0.6585
  175MPD1     H 2722   3.811   0.546  15.629  0.0171 -0.4725 -0.1689
  175MPD1    H1 2723   4.097   0.305  15.845  1.5187 -4.0611 -1.9192
  175MPD1    H2 2724   4.027   0.220  15.445 -0.5463  0.1119 -0.5521
  175MPD1    H3 2725   4.137   0.176  15.641  0.7239  0.2443 -0.1645
  175MPD1     N 2726   3.942   0.514  15.872 -0.2779 -0.0724  0.3540
  175MPD1    H5 2727   4.002   0.476  15.944  1.6020  2.3824  0.0664
  175MPD1    N1 2728   3.829   0.395  15.402  0.1783 -0.3376  0.2894
  175MPD1    H6 2729   3.741   0.445  15.415  1.1906  1.0198  1.8847
  175MPD1    H7 2730   3.807   0.304  15.362  2.3539 -0.7082 -0.0477
  176MPD1     C 2731   1.173   2.517  17.131  0.0537  0.5653 -0.5565
  176MPD1    C1 2732   1.102   2.593  17.032  0.3896  0.3912 -0.7579
  176MPD1    C2 2733   1.081   2.727  17.082 -0.3146 -0.2122 -0.1225
  176MPD1    C3 2734   1.115   2.771  17.211  0.2868 -0.3278 -0.0829
  176MPD1    C4 2735   1.171   2.690  17.302  0.2475 -0.2109 -0.0056
  176MPD1    C5 2736   1.195   2.560  17.256 -0.0131  0.0818 -0.2435
  176MPD1     H 2737   1.026   2.798  17.021  1.1626 -1.4523 -2.8878
  176MPD1    H1 2738   1.184   2.708  17.408 -1.2745  0.8362  0.0042
  176MPD1    H2 2739   1.202   2.420  17.094 -0.3172 -0.8194  2.7860
  176MPD1    H3 2740   1.231   2.488  17.328 -0.8192 -1.6545 -1.5643
  176MPD1     N 2741   1.094   2.904  17.244  0.0555 -0.1965  0.5204
  176MPD1    H5 2742   1.026   2.951  17.185 -3.6195 -1.9778  3.3329
  176MPD1    N1 2743   1.075   2.546  16.904  0.5206 -0.1510 -0.1097
  176MPD1    H6 2744   0.990   2.584  16.861  0.5017  2.1739  2.0051
  176MPD1    H7 2745   1.050   2.447  16.910 -4.8122  1.2533  1.4862
  177MPD1     C 2746   4.240   2.766  10.025 -0.0541 -0.3940  0.8587
  177MPD1    C1 2747   4.265   2.882   9.961 -0.2917 -0.2621  0.3073
  177MPD1    C2 2748   4.154   2.938   9.890 -0.1943  0.1172  0.6937
  177MPD1    C3 2749   4.033   2.872   9.888 -0.1891 -0.0689  0.2971
  177MPD1    C4 2750   4.012   2.765   9.962 -0.1642  0.2869  0.1670
  177MPD1    C5 2751   4.117   2.709  10.036  0.8118 -0.0274  0.2465
  177MPD1     H 2752   4.168   3.013   9.814  2.0188 -1.3992 -0.4030
  177MPD1    H1 2753   3.912   2.726   9.978  0.9222 -2.3404  0.6348
  177MPD1    H2 2754   4.329   2.720  10.066 -0.1191 -1.5841 -0.3427
  177MPD1    H3 2755   4.094   2.623  10.097  0.0627 -0.5572 -0.7755
  177MPD1     N 2756   3.938   2.919   9.806  0.7784  0.1955 -0.8799
  177MPD1    H5 2757   3.960   3.005   9.757  0.7387  1.3008  1.0156
  177MPD1    N1 2758   4.405   2.920   9.945  0.1663 -0.0159 -0.1036
  177MPD1    H6 2759   4.474   2.879  10.008  2.4660 -0.6537 -3.0533
  177MPD1    H7 2760   4.422   3.021   9.945 -0.2484  0.0519  0.1800
  178MPD1     C 2761   1.453   4.356   0.200 -0.0766  0.4353 -0.6321
  178MPD1    C1 2762   1.568   4.284   0.226  0.1880 -0.0835  0.4229
  178MPD1    C2 2763   1.598   4.189   0.128 -0.4708 -0.1716 -0.7379
  178MPD1    C3 2764   1.523   4.169   0.014  0.0510 -0.5673  0.9040
  178MPD1    C4 2765   1.414   4.242  17.740 -0.0257 -0.4523  0.2538
  178MPD1    C5 2766   1.392   4.346   0.081 -1.0144  0.0846  0.4496
  178MPD1     H 2767   1.677   4.121   0.158 -1.6186 -1.5723 -0.8825
  178MPD1    H1 2768   1.357   4.230  17.649 -0.4039  2.1108  0.1601
  178MPD1    H2 2769   1.429   4.432   0.273 -0.2862  1.3488 -1.6600
  178MPD1    H3 2770   1.312   4.417   0.060 -2.0393 -1.1447  0.1944
  178MPD1     N 2771   1.565   4.062  17.673  0.2325 -0.2242 -0.4735
  178MPD1    H5 2772   1.652   4.016  17.696 -1.9339 -2.9278  2.1873
  178MPD1    N1 2773   1.606   4.268   0.358  0.3283 -0.0773  0.5520
  178MPD1    H6 2774   1.696   4.224   0.375  0.9335  1.0427  0.2992
  178MPD1    H7 2775   1.593   4.354   0.411  0.2421 -0.2337  0.7850
  179MPD1     C 2776   1.182   2.014  16.345 -0.3988 -0.0363 -0.4191
  179MPD1    C1 2777   1.173   1.994  16.207  0.3952 -0.6865  0.5892
  179MPD1    C2 2778   1.170   1.868  16.165  0.0954 -0.0577 -0.4587
  179MPD1    C3 2779   1.198   1.758  16.250  0.1318  1.1479  0.1276
  179MPD1    C4 2780   1.205   1.777  16.385  0.0852  0.4185 -0.3325
  179MPD1    C5 2781   1.197   1.906  16.434  0.3601  0.3527 -0.2519
  179MPD1     H 2782   1.133   1.845  16.065 -0.5750 -0.5948 -0.0843
  179MPD1    H1 2783   1.196   1.690  16.449 -0.8989  0.6487 -0.1554
  179MPD1    H2 2784   1.168   2.115  16.382  2.9337 -0.1070  0.9705
  179MPD1    H3 2785   1.196   1.922  16.542  2.2612 -0.9256 -0.0316
  179MPD1     N 2786   1.216   1.628  16.193 -0.4208 -0.3824  0.1663
  179MPD1    H5 2787   1.217   1.551  16.259  0.1847  0.7211  1.4464
  179MPD1    N1 2788   1.136   2.102  16.125  0.5711 -0.2742 -0.0821
  179MPD1    H6 2789   1.169   2.080  16.031  1.4655  1.7230 -0.2351
  179MPD1    H7 2790   1.184   2.190  16.144 -0.3609  0.6814 -2.0186
  180MPD1     C 2791   1.774   2.978  14.693  0.1571  0.8176  0.0908
  180MPD1    C1 2792   1.641   2.933  14.704  0.0379 -0.0648  0.5634
  180MPD1    C2 2793   1.565   2.934  14.588  0.2700  0.0734 -0.7918
  180MPD1    C3 2794   1.608   2.998  14.472  0.2430 -1.1851  0.1503
  180MPD1    C4 2795   1.732   3.059  14.470 -0.3589  0.2807 -0.0441
  180MPD1    C5 2796   1.812   3.037  14.579  0.3101  0.1183  0.0010
  180MPD1     H 2797   1.468   2.887  14.581 -0.3601  1.3851 -0.9255
  180MPD1    H1 2798   1.770   3.118  14.387 -0.6761  2.0219  1.0442
  180MPD1    H2 2799   1.843   2.969  14.776 -0.0550 -1.7220 -0.0205
  180MPD1    H3 2800   1.908   3.087  14.575  0.3855 -0.0908 -0.6959
  180MPD1     N 2801   1.518   2.994  14.360  0.0872 -0.0323  0.0213
  180MPD1    H5 2802   1.429   2.945  14.361 -0.7197  1.4545  1.6910
  180MPD1    N1 2803   1.608   2.848  14.805  0.7259 -0.5779  0.2209
  180MPD1    H6 2804   1.510   2.861  14.832  0.9125  1.0600  0.1409
  180MPD1    H7 2805   1.662   2.861  14.890 -1.6321  0.2193  1.5892
  181MPD1     C 2806   2.770   0.603   9.388  0.1488  0.0678  0.4831
  181MPD1    C1 2807   2.700   0.670   9.491 -0.2187  0.1137  0.2015
  181MPD1    C2 2808   2.773   0.722   9.595  0.0978 -0.2923 -0.1731
  181MPD1    C3 2809   2.907   0.698   9.610  0.5394 -0.2118 -0.0858
  181MPD1    C4 2810   2.974   0.640   9.505 -0.3879  0.2996  0.3009
  181MPD1    C5 2811   2.906   0.586   9.395 -0.3376 -0.1261 -0.3304
  181MPD1     H 2812   2.715   0.782   9.664  2.9280  2.1360  0.1046
  181MPD1    H1 2813   3.082   0.626   9.503 -0.6801 -1.8404 -0.5259
  181MPD1    H2 2814   2.714   0.558   9.306  4.0923 -1.3202 -1.4502
  181MPD1    H3 2815   2.959   0.532   9.318  0.1831 -0.9015  0.5735
  181MPD1     N 2816   2.985   0.741   9.721 -0.6512  0.3042  0.1517
  181MPD1    H5 2817   3.083   0.715   9.720 -1.0309 -1.0217 -1.6163
  181MPD1    N1 2818   2.568   0.706   9.469  0.2762  0.4771  0.2452
  181MPD1    H6 2819   2.516   0.703   9.557  1.5339 -1.6902  0.9389
  181MPD1    H7 2820   2.522   0.659   9.392  1.2617  2.2772 -1.4297
  182MPD1     C 2821   4.722   3.913   1.543  0.1412  0.0849  0.4033
  182MPD1    C1 2822   4.689   3.991   1.648  0.2294  0.0049  0.4444
  182MPD1    C2 2823   4.578   4.071   1.625 -0.1751 -0.3899  0.2083
  182MPD1    C3 2824   4.499   4.054   1.511 -0.0091 -0.6096  0.2278
  182MPD1    C4 2825   4.528   3.960   1.417  0.0520 -0.2997 -0.3306
  182MPD1    C5 2826   4.648   3.897   1.432  0.7649 -0.4617 -0.5521
  182MPD1     H 2827   4.561   4.152   1.695  1.9713 -1.6702  2.2301
  182MPD1    H1 2828   4.468   3.955   1.327 -0.2665 -0.4023 -0.1103
  182MPD1    H2 2829   0.084   3.871   1.545 -0.4468 -1.2933  1.5362
  182MPD1    H3 2830   4.680   3.823   1.359 -0.2489 -0.2844 -1.1770
  182MPD1     N 2831   4.388   4.135   1.481 -0.1082 -0.2049 -0.2268
  182MPD1    H5 2832   4.334   4.101   1.402  0.4160  1.7791 -1.4533
  182MPD1    N1 2833   0.039   4.011   1.760 -0.4753 -0.2878  0.1490
  182MPD1    H6 2834   4.719   4.051   1.834  0.3674 -0.1652  0.7355
  182MPD1    H7 2835   0.096   3.928   1.775 -1.4933 -1.1357 -0.6235
  183MPD1     C 2836   3.165   4.238   8.565  0.5850 -0.3659 -0.1513
  183MPD1    C1 2837   3.109   4.352   8.620 -0.0985 -0.5691  0.1720
  183MPD1    C2 2838   3.191   4.429   8.704  0.7685 -1.2785 -0.7784
  183MPD1    C3 2839   3.327   4.411   8.717 -0.2851  0.8431 -0.0684
  183MPD1    C4 2840   3.376   4.299   8.650 -0.4213  0.3383 -0.0064
  183MPD1    C5 2841   3.301   4.214   8.572 -0.5349 -0.5937 -0.2242
  183MPD1     H 2842   3.153   4.524   8.741  0.3814 -0.8040 -2.4053
  183MPD1    H1 2843   3.481   4.279   8.666 -0.6673  0.0014  1.1371
  183MPD1    H2 2844   3.102   4.178   8.500 -0.0721 -0.8535  0.9298
  183MPD1    H3 2845   3.354   4.144   8.508  0.5138 -1.1999  1.3091
  183MPD1     N 2846   3.400   4.490   8.813 -0.2960  0.6123  0.3375
  183MPD1    H5 2847   3.347   4.555   8.870  1.9856  1.3586  1.6364
  183MPD1    N1 2848   2.971   4.384   8.616 -0.5316  1.1745  0.0093
  183MPD1    H6 2849   2.922   4.358   8.701  0.0216  1.1087  0.3052
  183MPD1    H7 2850   2.927   4.337   8.537 -2.4658  2.7895  0.1328
  184MPD1     C 2851   2.934   2.273  10.152 -0.0339 -0.1490  1.1198
  184MPD1    C1 2852   2.829   2.318  10.074  0.7163  0.0531 -0.6054
  184MPD1    C2 2853   2.841   2.429   9.993  0.4302 -0.0692  0.6600
  184MPD1    C3 2854   2.954   2.501   9.989 -0.4323 -0.1474 -0.0475
  184MPD1    C4 2855   3.059   2.469  10.080 -0.6605  0.0206 -0.5194
  184MPD1    C5 2856   3.048   2.361  10.160  0.1297 -0.7450  0.2402
  184MPD1     H 2857   2.753   2.448   9.932 -0.4507  0.9082  2.2426
  184MPD1    H1 2858   3.151   2.526  10.088 -1.3878  0.9769  0.9522
  184MPD1    H2 2859   2.926   2.184  10.213 -0.8960 -1.7195 -1.3208
  184MPD1    H3 2860   3.120   2.343  10.239  0.4849 -0.9731 -0.1394
  184MPD1     N 2861   2.973   2.606   9.900  0.2370 -0.1311  0.1122
  184MPD1    H5 2862   3.064   2.651   9.891 -0.0046  0.4545  0.6375
  184MPD1    N1 2863   2.707   2.244  10.057 -0.6552 -0.4318  0.8993
  184MPD1    H6 2864   2.676   2.205  10.146 -0.0626 -0.1287  1.2391
  184MPD1    H7 2865   2.630   2.292  10.012 -0.9883 -0.7708  1.1101
  185MPD1     C 2866   2.712   3.147   8.963 -0.7681  1.0982  0.0109
  185MPD1    C1 2867   2.658   3.039   9.016 -0.3421  0.0286  0.0073
  185MPD1    C2 2868   2.703   3.003   9.143 -0.2975  0.0346 -0.2986
  185MPD1    C3 2869   2.810   3.073   9.203  0.0569 -0.3541  0.2685
  185MPD1    C4 2870   2.865   3.178   9.137 -0.0424  0.3298 -0.3695
  185MPD1    C5 2871   2.821   3.212   9.012  1.0242 -0.1469  0.0765
  185MPD1     H 2872   2.645   2.925   9.193  0.3362  0.4884  1.1505
  185MPD1    H1 2873   2.962   3.217   9.166  2.2798 -2.9751 -3.6756
  185MPD1    H2 2874   2.669   3.181   8.869  1.3119  0.5627 -1.1288
  185MPD1    H3 2875   2.861   3.301   8.966  2.1075 -0.4539  0.4404
  185MPD1     N 2876   2.860   3.029   9.330 -0.9770 -0.2527  0.2963
  185MPD1    H5 2877   2.936   3.088   9.362  0.3625 -2.1055  0.5388
  185MPD1    N1 2878   2.554   2.972   8.956  0.8775  0.9622 -0.2181
  185MPD1    H6 2879   2.551   2.987   8.855  1.3908 -3.8815 -0.9659
  185MPD1    H7 2880   2.562   2.873   8.979 -1.7206  1.2184  1.8347
  186MPD1     C 2881   1.633   1.467  15.831 -0.3173  0.0388  0.4437
  186MPD1    C1 2882   1.736   1.440  15.915 -0.1538  0.1687 -0.1134
  186MPD1    C2 2883   1.764   1.531  16.019 -0.7124 -1.0253  0.5998
  186MPD1    C3 2884   1.684   1.638  16.055 -0.2707  0.6033  0.3861
  186MPD1    C4 2885   1.565   1.651  15.982  0.4576 -0.8683  0.4620
  186MPD1    C5 2886   1.544   1.573  15.866  0.3199  0.2432 -0.2353
  186MPD1     H 2887   1.856   1.511  16.073  2.0599  2.3058 -2.9367
  186MPD1    H1 2888   1.489   1.724  16.007  0.7241 -0.0519 -1.0755
  186MPD1    H2 2889   1.616   1.416  15.737  0.5621  1.4725 -0.4942
  186MPD1    H3 2890   1.452   1.587  15.811  0.6507 -1.5456 -1.2493
  186MPD1     N 2891   1.719   1.733  16.152  0.2392  0.5626  0.2627
  186MPD1    H5 2892   1.665   1.818  16.168 -0.3977  0.2301 -0.1200
  186MPD1    N1 2893   1.833   1.345  15.877  0.2953  0.3360  0.7440
  186MPD1    H6 2894   1.868   1.292  15.956 -0.2415  1.1772  1.5483
  186MPD1    H7 2895   1.809   1.290  15.795  0.4661  1.6563 -0.1985
  187MPD1     C 2896   0.965   4.397  17.664 -0.7092  0.0547 -0.5351
  187MPD1    C1 2897   0.833   4.378  17.628 -0.9094  0.5657  0.0120
  187MPD1    C2 2898   0.819   4.278  17.538 -0.2325  0.0996  0.0929
  187MPD1    C3 2899   0.918   4.195  17.490  0.2449  0.3450  0.0985
  187MPD1    C4 2900   1.043   4.217  17.528 -0.9663 -0.5014  0.5434
  187MPD1    C5 2901   1.068   4.313  17.624 -0.7521  0.0073 -0.1166
  187MPD1     H 2902   0.715   4.262  17.511 -1.1835  0.8155  3.3904
  187MPD1    H1 2903   1.131   4.163  17.495 -0.4078  0.3329  0.6735
  187MPD1    H2 2904   0.997   4.468  17.740 -2.5170  0.1101  0.1690
  187MPD1    H3 2905   1.171   4.339  17.644 -1.1860  1.0956  0.7071
  187MPD1     N 2906   0.893   4.096  17.397  0.0206 -0.1112  0.3753
  187MPD1    H5 2907   0.979   4.051  17.367  0.4905  1.8439 -1.2226
  187MPD1    N1 2908   0.734   4.467  17.654 -0.0222 -0.2611  0.8850
  187MPD1    H6 2909   0.642   4.426  17.636  0.5729 -0.7317 -1.0950
  187MPD1    H7 2910   0.748   4.508  17.746 -1.4535 -0.6763  1.2823
  188MPD1     C 2911   0.879   3.923  10.155  0.0587 -0.2140 -0.1557
  188MPD1    C1 2912   0.956   3.836  10.228  0.3351  0.1144 -0.5486
  188MPD1    C2 2913   0.943   3.700  10.195  0.2484 -0.9284 -0.6052
  188MPD1    C3 2914   0.882   3.659  10.076  0.8064 -0.4313 -0.1941
  188MPD1    C4 2915   0.841   3.757   9.988  0.4705  0.0848  0.0802
  188MPD1    C5 2916   0.827   3.881  10.035  0.0629  0.5279  0.0810
  188MPD1     H 2917   0.988   3.623  10.257  0.7749 -1.1240 -1.2366
  188MPD1    H1 2918   0.788   3.747   9.894 -1.5893  1.8535  1.0465
  188MPD1    H2 2919   0.871   4.030  10.173  2.8621  0.0831 -0.7315
  188MPD1    H3 2920   0.775   3.960   9.981 -2.6979  0.0570  2.0354
  188MPD1     N 2921   0.859   3.527  10.043 -0.0151 -0.4181  0.3814
  188MPD1    H5 2922   0.810   3.509   9.956  2.1105 -1.7306 -0.5387
  188MPD1    N1 2923   1.005   3.876  10.352  0.5173 -0.6822 -0.2239
  188MPD1    H6 2924   1.042   3.970  10.355 -0.1955 -0.3526 -1.8481
  188MPD1    H7 2925   1.079   3.814  10.386  1.2882  0.8724  0.9370
  189MPD1     C 2926   2.651   4.651   0.839 -0.2833 -0.2330  0.1602
  189MPD1    C1 2927   2.545   4.612   0.759  0.0665  0.6077  0.2024
  189MPD1    C2 2928   2.522   4.687   0.650 -0.4735  0.4439 -0.0790
  189MPD1    C3 2929   2.593   0.065   0.618  0.7427 -0.7021  0.7364
  189MPD1    C4 2930   2.695   0.104   0.698 -0.1669 -0.0706 -0.0380
  189MPD1    C5 2931   2.712   0.034   0.818 -0.2031  0.1155 -0.7236
  189MPD1     H 2932   2.453   4.644   0.579 -0.8828  1.4343 -0.2809
  189MPD1    H1 2933   2.756   0.190   0.674  0.5457 -1.0536 -1.7693
  189MPD1    H2 2934   2.678   4.591   0.925 -2.0808 -1.0944  0.1181
  189MPD1    H3 2935   2.783   0.066   0.894 -2.4310  1.9514  0.5843
  189MPD1     N 2936   2.568   0.121   0.487 -0.0356 -0.0962 -0.4120
  189MPD1    H5 2937   2.495   0.072   0.436 -0.1443  0.8903 -1.2083
  189MPD1    N1 2938   2.489   4.484   0.772 -0.0495 -0.0194 -0.6017
  189MPD1    H6 2939   2.488   4.447   0.867  1.1573 -0.0164 -0.5822
  189MPD1    H7 2940   2.398   4.468   0.729  0.3580 -0.2388 -1.3781
  190MPD1     C 2941   1.057   2.752  15.566  0.0549 -0.2928 -0.3984
  190MPD1    C1 2942   1.088   2.880  15.618  0.0710  0.7865  0.4403
  190MPD1    C2 2943   1.222   2.909  15.628 -0.3647  0.2621  0.2815
  190MPD1    C3 2944   1.319   2.828  15.570  0.4513  0.4332  0.2058
  190MPD1    C4 2945   1.286   2.711  15.512 -0.3802  0.1582 -0.0597
  190MPD1    C5 2946   1.153   2.676  15.502 -0.5872  0.2976 -0.2496
  190MPD1     H 2947   1.246   3.007  15.666  0.8831 -0.1970  0.6513
  190MPD1    H1 2948   1.355   2.650  15.455  0.6267  0.0889  1.2428
  190MPD1    H2 2949   0.958   2.711  15.550  0.4179 -0.1972 -2.9367
  190MPD1    H3 2950   1.122   2.584  15.453  0.9913  0.0607 -0.8045
  190MPD1     N 2951   1.456   2.862  15.579  0.0343  0.5270  0.7862
  190MPD1    H5 2952   1.473   2.949  15.629  0.6346  1.4452 -1.0005
  190MPD1    N1 2953   0.989   2.955  15.683 -0.3569 -0.2343  0.0654
  190MPD1    H6 2954   1.001   3.056  15.688 -0.8125 -0.2771  2.2527
  190MPD1    H7 2955   0.895   2.948  15.646  1.2661  0.4165 -4.2034
  191MPD1     C 2956   0.517   4.222  13.440  0.2288  0.4971 -0.3218
  191MPD1    C1 2957   0.392   4.250  13.396  0.0321  0.3415 -0.8128
  191MPD1    C2 2958   0.344   4.381  13.393 -0.6550 -0.4965  1.1302
  191MPD1    C3 2959   0.416   4.476  13.456  0.5342  0.4957 -0.0299
  191MPD1    C4 2960   0.544   4.444  13.496 -0.1227  0.3049 -0.6039
  191MPD1    C5 2961   0.596   4.321  13.480 -0.4623 -0.4227 -0.4507
  191MPD1     H 2962   0.244   4.406  13.358 -1.5098 -1.6513  2.7483
  191MPD1    H1 2963   0.617   4.518  13.526 -1.5135  1.0928  0.8286
  191MPD1    H2 2964   0.563   4.124  13.432 -2.4044 -0.8458  0.8210
  191MPD1    H3 2965   0.700   4.306  13.505 -0.0924  2.5611 -0.2663
  191MPD1     N 2966   0.355   4.602  13.471  0.4412  0.1300 -0.4468
  191MPD1    H5 2967   0.263   4.619  13.432 -0.8522  0.7836  2.8972
  191MPD1    N1 2968   0.319   4.141  13.336 -0.0463 -0.5978  0.4808
  191MPD1    H6 2969   0.322   4.054  13.389 -0.8473 -1.3954 -0.7851
  191MPD1    H7 2970   0.224   4.169  13.311 -0.3793 -1.1731  1.0929
  192MPD1     C 2971   4.247   0.178  13.468  0.3100 -0.2288 -0.3562
  192MPD1    C1 2972   4.316   0.301  13.465  0.1086  0.2498 -0.1480
  192MPD1    C2 2973   4.457   0.295  13.484  0.7706  0.6971  0.0547
  192MPD1    C3 2974   4.530   0.176  13.485  0.5525  1.0198 -0.3334
  192MPD1    C4 2975   4.450   0.060  13.481  0.2418 -0.0548 -0.7330
  192MPD1    C5 2976   4.313   0.060  13.477 -0.2404 -0.0028 -0.1083
  192MPD1     H 2977   4.499   0.394  13.493  0.3390  0.8132  0.8001
  192MPD1    H1 2978   4.493   4.698  13.488 -0.6258 -0.4824 -1.4962
  192MPD1    H2 2979   4.140   0.164  13.463  0.0865  0.2544  2.9233
  192MPD1    H3 2980   4.255   4.707  13.464 -0.7898  0.0483  2.0573
  192MPD1     N 2981   4.667   0.162  13.490 -0.5446  0.0783 -0.2956
  192MPD1    H5 2982   4.695   0.065  13.483 -1.2589 -0.1910  0.6100
  192MPD1    N1 2983   4.248   0.420  13.487  0.0637  0.4260  0.0272
  192MPD1    H6 2984   4.164   0.419  13.430  1.4106 -0.6713 -1.9393
  192MPD1    H7 2985   4.312   0.494  13.458 -2.5101  2.8315  0.4682
  193MPD1     C 2986   0.049   0.201  16.603  0.1576  0.1546  0.7226
  193MPD1    C1 2987   0.140   0.135  16.685 -0.0273  0.1736 -0.7419
  193MPD1    C2 2988   0.255   0.204  16.712  0.2021  0.1128 -0.3798
  193MPD1    C3 2989   0.280   0.339  16.694 -0.5096 -0.4181 -0.6785
  193MPD1    C4 2990   0.188   0.403  16.625 -0.1548 -0.2197 -0.8728
  193MPD1    C5 2991   0.075   0.332  16.584 -0.6981  0.3074 -1.0547
  193MPD1     H 2992   0.339   0.153  16.757  1.5817  2.4053 -0.3392
  193MPD1    H1 2993   0.198   0.506  16.593 -1.8620  0.3784  0.5025
  193MPD1    H2 2994   4.699   0.152  16.560  0.8260 -0.0713 -0.3804
  193MPD1    H3 2995   0.002   0.394  16.534  0.1835 -0.3772 -3.1802
  193MPD1     N 2996   0.404   0.405  16.733 -0.0759 -0.3413 -0.0449
  193MPD1    H5 2997   0.398   0.506  16.737  2.4585 -0.2325  0.9639
  193MPD1    N1 2998   0.140   4.728  16.685  0.1611  0.2044 -0.3619
  193MPD1    H6 2999   0.045   4.692  16.692  0.4494 -0.1068  1.9667
  193MPD1    H7 3000   0.206   4.690  16.753  0.2084 -0.9139 -1.0306
  194MPD1     C 3001   2.939   2.859  17.222 -0.2508 -0.6276  0.1421
  194MPD1    C1 3002   3.007   2.812  17.333  0.3172  0.7166  0.9750
  194MPD1    C2 3003   3.054   2.677  17.330  0.7363  0.3599 -0.6206
  194MPD1    C3 3004   3.071   2.609  17.207 -0.0741 -0.6452 -0.2234
  194MPD1    C4 3005   3.003   2.662  17.099 -0.2040 -0.2257 -0.0730
  194MPD1    C5 3006   2.929   2.780  17.108 -0.8322 -0.7206  0.4058
  194MPD1     H 3007   3.101   2.635  17.419 -1.9457  1.0408  1.1085
  194MPD1    H1 3008   3.001   2.607  17.006 -0.8097 -0.1131 -0.1250
  194MPD1    H2 3009   2.865   2.939  17.231 -0.7292 -0.8400 -2.0724
  194MPD1    H3 3010   2.861   2.805  17.029 -1.3403  3.3367  2.1379
  194MPD1     N 3011   3.149   2.495  17.180 -0.3436 -0.2399 -0.5799
  194MPD1    H5 3012   3.148   2.459  17.085  2.1206  2.1449 -1.5148
  194MPD1    N1 3013   3.012   2.887  17.453  0.2174  0.1556  0.3626
  194MPD1    H6 3014   3.104   2.871  17.494 -0.1726  1.8969  1.9186
  194MPD1    H7 3015   3.016   2.987  17.433 -1.3985 -0.2949 -2.2518
  195MPD1     C 3016   0.347   4.720   0.357  0.2803  0.5444  0.3143
  195MPD1    C1 3017   0.480   4.693   0.387  0.0314 -0.3426  0.1563
  195MPD1    C2 3018   0.538   4.576   0.338  0.1629  0.9572  0.4546
  195MPD1    C3 3019   0.459   4.495   0.258 -0.5615 -0.1999  0.1960
  195MPD1    C4 3020   0.328   4.527   0.223 -0.4869  0.6397  0.0355
  195MPD1    C5 3021   0.269   4.642   0.273 -0.3314 -0.4397  0.1667
  195MPD1     H 3022   0.641   4.558   0.365 -0.0452  0.1854  0.7473
  195MPD1    H1 3023   0.280   4.467   0.146 -0.0915 -0.8004  0.9007
  195MPD1    H2 3024   0.299   0.068   0.403 -0.7467 -0.9576  2.0340
  195MPD1    H3 3025   0.166   4.666   0.252  0.6069  0.3222 -3.5485
  195MPD1     N 3026   0.515   4.378   0.206  0.0918  0.2260 -0.0882
  195MPD1    H5 3027   0.472   4.344   0.120 -0.8025  1.9595 -0.3258
  195MPD1    N1 3028   0.553   0.038   0.477  0.2629 -0.2766 -0.0942
  195MPD1    H6 3029   0.654   0.039   0.467  0.4999 -1.2671  2.2106
  195MPD1    H7 3030   0.522   0.135   0.472 -0.2287 -0.3189  2.1622
  196MPD1     C 3031   4.230   3.784  17.407 -0.2254  0.6088  0.2733
  196MPD1    C1 3032   4.320   3.883  17.441  0.4608  1.1921  0.4206
  196MPD1    C2 3033   4.355   3.899  17.576  0.2275  0.6244  0.1324
  196MPD1    C3 3034   4.294   3.823  17.680  0.2860 -0.6386  0.1055
  196MPD1    C4 3035   4.199   3.727  17.640  0.2541 -0.0395 -0.1242
  196MPD1    C5 3036   4.166   3.715  17.505 -0.0037 -0.1967  1.0597
  196MPD1     H 3037   4.433   3.970  17.601  0.2468  0.6387  0.0301
  196MPD1    H1 3038   4.138   3.671  17.710 -1.1798 -0.2895 -1.5934
  196MPD1    H2 3039   4.210   3.759  17.304  1.7246  2.1630 -0.4770
  196MPD1    H3 3040   4.102   3.634  17.472  0.6034 -0.1742 -0.1760
  196MPD1     N 3041   4.331   3.825   0.070 -0.3144 -0.8975 -0.1380
  196MPD1    H5 3042   4.284   3.762   0.135 -2.5831  0.0791 -0.8320
  196MPD1    N1 3043   4.394   3.945  17.339 -0.5552 -0.1094  0.4238
  196MPD1    H6 3044   4.429   4.034  17.374  2.1130 -1.3256  0.7927
  196MPD1    H7 3045   4.349   3.943  17.248  0.4838  1.7679 -0.1394
  197MPD1     C 3046   4.097   1.052  17.717  0.5694  0.2192 -0.0783
  197MPD1    C1 3047   4.126   1.186  17.736 -0.8215 -0.8139 -0.6461
  197MPD1    C2 3048   4.112   1.269  17.624 -0.4732  0.8092  0.5597
  197MPD1    C3 3049   4.093   1.210  17.501  0.1773  0.4185  0.5215
  197MPD1    C4 3050   4.071   1.073  17.484  0.2527  0.1102  0.1153
  197MPD1    C5 3051   4.073   0.991  17.596  0.5642 -0.7820 -0.7526
  197MPD1     H 3052   4.142   1.372  17.628 -0.8075  0.8901  1.0283
  197MPD1    H1 3053   4.056   1.033  17.384  1.8554 -1.4461  0.5001
  197MPD1    H2 3054   4.086   0.983   0.051  1.8958 -2.9306 -2.5572
  197MPD1    H3 3055   4.063   0.883  17.592 -0.7495 -0.6875 -0.2401
  197MPD1     N 3056   4.069   1.287  17.384 -0.2767 -0.0752 -0.2072
  197MPD1    H5 3057   4.040   1.236  17.301  3.9393  0.6967 -2.1615
  197MPD1    N1 3058   4.136   1.247   0.114  0.5673  0.0363  0.0187
  197MPD1    H6 3059   4.189   1.334   0.110  1.7714 -0.7919 -2.0467
  197MPD1    H7 3060   4.174   1.189   0.189  1.4643  1.2535  0.5090
  198MPD1     C 3061   0.560   3.988  15.315  0.0820 -0.7804  0.4147
  198MPD1    C1 3062   0.605   4.022  15.438 -0.3675  0.2351 -0.5305
  198MPD1    C2 3063   0.740   4.010  15.472 -0.4365 -0.1031  0.5943
  198MPD1    C3 3064   0.830   3.958  15.377 -0.0567  0.3748 -0.1493
  198MPD1    C4 3065   0.772   3.911  15.266  0.0225  0.0964  0.0841
  198MPD1    C5 3066   0.642   3.923  15.229 -0.2437 -0.2832 -0.4933
  198MPD1     H 3067   0.775   4.040  15.570 -1.0261 -1.3945  1.1998
  198MPD1    H1 3068   0.841   3.862  15.199  1.9054  1.7107  0.8490
  198MPD1    H2 3069   0.455   3.991  15.288 -0.2320  0.5910  1.8413
  198MPD1    H3 3070   0.595   3.887  15.138 -0.1525  1.4136 -1.2153
  198MPD1     N 3071   0.963   3.937  15.409 -0.0855  0.2693 -0.4553
  198MPD1    H5 3072   0.986   3.966  15.503 -0.0761 -1.5475  0.1061
  198MPD1    N1 3073   0.514   4.078  15.528 -0.2930 -0.7450 -0.3081
  198MPD1    H6 3074   0.550   4.067  15.622 -0.7344 -1.3561 -0.2075
  198MPD1    H7 3075   0.507   4.180  15.522 -4.5527 -1.0161  0.0722
  199MPD1     C 3076   3.454   0.840   9.626  0.0712 -0.1665 -0.1750
  199MPD1    C1 3077   3.447   0.890   9.750  0.1620 -0.1955 -0.3863
  199MPD1    C2 3078   3.344   0.975   9.780 -0.1527  0.1502  0.2928
  199MPD1    C3 3079   3.233   0.977   9.695  0.2114  0.4873  0.5443
  199MPD1    C4 3080   3.232   0.908   9.576 -0.8507  0.4447  0.8711
  199MPD1    C5 3081   3.352   0.862   9.533 -0.2182 -0.0377  0.4137
  199MPD1     H 3082   3.346   1.018   9.880  3.3233  1.7383 -0.4628
  199MPD1    H1 3083   3.148   0.913   9.507 -0.2858 -0.2291  0.1391
  199MPD1    H2 3084   3.541   0.783   9.594 -0.1250 -1.7399  2.0486
  199MPD1    H3 3085   3.354   0.817   9.435  1.5259  2.1398 -0.5341
  199MPD1     N 3086   3.121   1.059   9.721  0.5137 -0.3152 -0.3168
  199MPD1    H5 3087   3.048   1.040   9.654  0.5756 -0.9502 -0.2015
  199MPD1    N1 3088   3.561   0.869   9.830  0.3314  0.3030  0.0444
  199MPD1    H6 3089   3.542   0.856   9.929  0.6042  0.7560  0.1583
  199MPD1    H7 3090   3.612   0.785   9.805 -1.3872 -0.0933 -2.1903
  200MPD1     C 3091   1.959   0.404  14.095  0.5846 -0.3296 -0.2802
  200MPD1    C1 3092   2.059   0.382  13.999  0.3920  0.1108 -0.3949
  200MPD1    C2 3093   2.179   0.334  14.037 -0.4635  0.4785 -0.3533
  200MPD1    C3 3094   2.203   0.332  14.177  0.0938 -0.0546 -0.9970
  200MPD1    C4 3095   2.110   0.358  14.267  0.7478 -0.3479  0.0722
  200MPD1    C5 3096   1.982   0.390  14.223  0.4913 -0.4274 -0.0277
  200MPD1     H 3097   2.244   0.314  13.952 -0.8179  1.1282 -0.7820
  200MPD1    H1 3098   2.120   0.367  14.374 -0.5190  0.5689  0.1183
  200MPD1    H2 3099   1.855   0.415  14.068  0.3654  1.6777  1.3239
  200MPD1    H3 3100   1.904   0.423  14.290  0.5631  0.9529 -0.6234
  200MPD1     N 3101   2.336   0.298  14.224 -0.2400 -0.4352 -0.5375
  200MPD1    H5 3102   2.407   0.272  14.156 -0.4391 -0.3388 -0.7829
  200MPD1    N1 3103   2.034   0.400  13.863  0.4920 -0.3320  0.5171
  200MPD1    H6 3104   2.117   0.419  13.807  0.2896 -0.7838  0.0625
  200MPD1    H7 3105   1.964   0.469  13.836 -1.3779 -1.9722  1.1776
  201MPD1     C 3106   4.190   4.478  13.675  0.5440  0.3666 -0.6474
  201MPD1    C1 3107   4.118   4.364  13.650 -0.0156 -0.2742 -0.7011
  201MPD1    C2 3108   4.201   4.255  13.627  0.0116  0.5650 -0.5947
  201MPD1    C3 3109   4.344   4.267  13.629 -0.1103  0.1785 -0.1858
  201MPD1    C4 3110   4.404   4.383  13.660 -0.2455 -0.4918 -0.4559
  201MPD1    C5 3111   4.330   4.489  13.680  0.6873  0.3205 -0.0187
  201MPD1     H 3112   4.167   4.157  13.596 -0.4450  0.9096 -1.1812
  201MPD1    H1 3113   4.511   4.399  13.667 -0.6005  2.1452 -1.3537
  201MPD1    H2 3114   4.123   4.563  13.679  4.8218  3.5958  2.5584
  201MPD1    H3 3115   4.378   4.585  13.698  2.4901 -1.0912  2.6049
  201MPD1     N 3116   4.430   4.153  13.592  0.1273 -0.2708 -0.4520
  201MPD1    H5 3117   4.373   4.070  13.577  0.3325 -0.2747 -1.1945
  201MPD1    N1 3118   3.982   4.369  13.620 -0.1557  0.3901 -0.0323
  201MPD1    H6 3119   3.941   4.279  13.646 -2.6913  1.0028 -1.8429
  201MPD1    H7 3120   3.928   4.441  13.668 -0.3456 -0.9889  1.8359
  202MPD1     C 3121   4.071   3.346   8.975 -0.1766 -0.2071  0.0963
  202MPD1    C1 3122   4.011   3.469   8.969 -0.7553  0.3139  0.5361
  202MPD1    C2 3123   4.042   3.554   9.078  0.2990 -0.3760 -0.4820
  202MPD1    C3 3124   4.165   3.537   9.149  0.5260  0.3454  0.5461
  202MPD1    C4 3125   4.233   3.420   9.130 -0.9962  0.0738 -1.1122
  202MPD1    C5 3126   4.187   3.328   9.050  0.2194  0.7371 -0.1510
  202MPD1     H 3127   3.989   3.647   9.093 -0.0394 -0.5864 -0.3526
  202MPD1    H1 3128   4.328   3.398   9.177 -1.0311 -1.3140 -1.7019
  202MPD1    H2 3129   4.040   3.265   8.909  0.6913 -0.2350 -0.2727
  202MPD1    H3 3130   4.247   3.238   9.048 -2.0956 -0.7558 -1.8878
  202MPD1     N 3131   4.216   3.634   9.244 -0.2819  0.0815 -0.2240
  202MPD1    H5 3132   4.305   3.608   9.285 -0.2026 -1.1138 -1.1328
  202MPD1    N1 3133   3.881   3.477   8.918 -0.0904  0.3840 -0.5767
  202MPD1    H6 3134   3.858   3.436   8.828 -0.4516 -2.5121  0.8544
  202MPD1    H7 3135   3.855   3.575   8.926  2.2602  0.9202  0.5277
  203MPD1     C 3136   3.216   0.232  12.231 -0.2929 -0.8768  0.0258
  203MPD1    C1 3137   3.159   0.128  12.158  0.0911 -0.0654  0.9300
  203MPD1    C2 3138   3.184   4.736  12.207 -0.0637  0.1169 -0.2149
  203MPD1    C3 3139   3.238   4.722  12.338  0.2061  0.2236 -0.9287
  203MPD1    C4 3140   3.257   0.096  12.420  0.7056  0.0970  0.4519
  203MPD1    C5 3141   3.252   0.216  12.362 -0.0003 -0.6695 -0.0777
  203MPD1     H 3142   3.159   4.642  12.159  4.7217 -0.8858 -0.7149
  203MPD1    H1 3143   3.284   0.096  12.525 -1.1818  0.3770  0.9254
  203MPD1    H2 3144   3.221   0.333  12.193  3.8086 -1.7080 -1.5646
  203MPD1    H3 3145   3.278   0.305  12.418 -1.1130 -1.6565  1.9825
  203MPD1     N 3146   3.251   4.589  12.381  0.5447 -0.5056  0.1637
  203MPD1    H5 3147   3.233   4.508  12.323 -0.1999 -0.7298  0.7101
  203MPD1    N1 3148   3.116   0.147  12.032 -0.2128  0.0661  0.2268
  203MPD1    H6 3149   3.044   0.082  12.003 -0.0301 -0.2749  0.5387
  203MPD1    H7 3150   3.089   0.244  12.017  0.6844  0.7404  2.8037
  204MPD1     C 3151   2.819   1.848  17.084  0.0548  0.0741  0.5746
  204MPD1    C1 3152   2.865   1.763  17.178 -0.0388 -0.3988  0.8150
  204MPD1    C2 3153   2.893   1.638  17.142  0.1588  0.3836 -0.1609
  204MPD1    C3 3154   2.853   1.588  17.018  0.3806 -0.6234  0.7340
  204MPD1    C4 3155   2.798   1.668  16.921 -0.1371  0.2948 -0.7647
  204MPD1    C5 3156   2.777   1.797  16.966 -0.4438  0.2756 -0.4727
  204MPD1     H 3157   2.945   1.565  17.203  0.0009 -0.8316 -1.4745
  204MPD1    H1 3158   2.763   1.647  16.821 -0.8475  0.8524 -0.6368
  204MPD1    H2 3159   2.812   1.954  17.105 -3.1416 -0.3100  1.4026
  204MPD1    H3 3160   2.734   1.865  16.893 -1.3403  1.3660  1.0764
  204MPD1     N 3161   2.885   1.455  16.989 -0.1937 -0.9298 -0.1564
  204MPD1    H5 3162   2.945   1.403  17.053  2.6854  1.1150 -1.1992
  204MPD1    N1 3163   2.928   1.816  17.296 -0.1525 -0.1120  0.1334
  204MPD1    H6 3164   2.940   1.756  17.377  2.2342  1.2924  0.8081
  204MPD1    H7 3165   2.880   1.895  17.339  0.3638 -1.4660  3.1476
  205MPD1     C 3166   3.070   4.624  16.924  0.0170 -0.0088 -0.4237
  205MPD1    C1 3167   3.105   4.573  17.051 -0.5143  0.3004 -1.1600
  205MPD1    C2 3168   3.080   4.648  17.161 -0.5249 -0.1757 -0.5930
  205MPD1    C3 3169   3.051   0.041  17.147  0.6117 -0.2389  0.2603
  205MPD1    C4 3170   3.033   0.096  17.024 -0.6953 -0.3462  0.4718
  205MPD1    C5 3171   3.038   0.018  16.914  0.4607  0.0714 -0.1141
  205MPD1     H 3172   3.108   4.608  17.258  0.8764 -0.3420 -1.0680
  205MPD1    H1 3173   3.015   0.201  17.004 -2.3821 -0.9987 -1.4208
  205MPD1    H2 3174   3.063   4.564  16.833  0.2765  2.5207 -2.1010
  205MPD1    H3 3175   3.010   0.060  16.818  1.8507  1.4801  0.0969
  205MPD1     N 3176   3.059   0.129  17.258 -0.1144 -0.2991  0.0434
  205MPD1    H5 3177   3.054   0.225  17.223 -4.4875 -0.8030 -0.7335
  205MPD1    N1 3178   3.134   4.437  17.066  0.2639  0.0480  0.6872
  205MPD1    H6 3179   3.206   4.407  17.000 -0.4252  0.9842 -0.4951
  205MPD1    H7 3180   3.170   4.414  17.158  0.9865  1.6038  0.7965
  206MPD1     C 3181   3.324   2.510  16.629 -0.8872  0.6434  0.6021
  206MPD1    C1 3182   3.223   2.597  16.638  0.2255 -0.2566  0.8395
  206MPD1    C2 3183   3.157   2.632  16.525  0.6462  0.5662  0.3718
  206MPD1    C3 3184   3.212   2.593  16.396 -0.2287  0.6499  0.2787
  206MPD1    C4 3185   3.314   2.506  16.391 -0.2842  0.7327 -0.6967
  206MPD1    C5 3186   3.371   2.473  16.511 -0.1088 -0.3792 -0.4104
  206MPD1     H 3187   3.067   2.692  16.537  0.7502  1.2643 -2.2071
  206MPD1    H1 3188   3.371   2.488  16.300 -1.0241 -1.7777 -0.6576
  206MPD1    H2 3189   3.371   2.473  16.719 -1.9785 -0.2159  0.8264
  206MPD1    H3 3190   3.461   2.412  16.513 -1.1178 -1.8086  0.9020
  206MPD1     N 3191   3.152   2.621  16.266  0.3118 -0.3416  0.2672
  206MPD1    H5 3192   3.189   2.563  16.192 -1.6027 -0.5254 -0.5315
  206MPD1    N1 3193   3.169   2.623  16.762 -0.0986 -0.2806  0.2948
  206MPD1    H6 3194   3.242   2.622  16.832 -0.8183 -0.5582  1.0329
  206MPD1    H7 3195   3.112   2.707  16.770 -1.4328 -0.9807 -1.7167
  207MPD1     C 3196   0.991   0.237   9.892 -0.7596 -0.3910 -0.1491
  207MPD1    C1 3197   1.078   0.317   9.825  0.2993  0.0648 -0.1253
  207MPD1    C2 3198   1.151   0.414   9.890 -0.3082  0.1662  0.5175
  207MPD1    C3 3199   1.140   0.435  10.024  0.0901  0.3025  0.2774
  207MPD1    C4 3200   1.048   0.354  10.090 -0.1434  0.0166 -0.2393
  207MPD1    C5 3201   0.983   0.257  10.023 -0.1771 -0.1993 -0.5268
  207MPD1     H 3202   1.225   0.477   9.842  1.0718 -1.6119  0.2944
  207MPD1    H1 3203   1.027   0.360  10.196  0.7278 -1.4986  0.0260
  207MPD1    H2 3204   0.939   0.155   9.845  0.1437 -1.6439  1.0268
  207MPD1    H3 3205   0.912   0.192  10.073 -1.2335 -0.2541 -2.0997
  207MPD1     N 3206   1.215   0.532  10.093 -0.5429  0.3097 -0.4535
  207MPD1    H5 3207   1.195   0.553  10.190  1.2403 -2.0805  0.4280
  207MPD1    N1 3208   1.106   0.296   9.684  0.1795  0.1815 -0.2179
  207MPD1    H6 3209   1.116   0.388   9.642 -0.5116  0.3876  0.0622
  207MPD1    H7 3210   1.027   0.248   9.642 -1.0732  1.0075  1.1912
  208MPD1     C 3211   3.339   3.923   0.040  0.0846  0.3908  0.1668
  208MPD1    C1 3212   3.257   3.964   0.147  0.1504 -0.3676  0.1236
  208MPD1    C2 3213   3.310   4.050   0.241  0.6358 -0.4238 -0.6664
  208MPD1    C3 3214   3.437   4.103   0.217 -0.6919  0.0154 -0.0061
  208MPD1    C4 3215   3.501   4.082   0.099 -0.1724 -0.4415 -0.1882
  208MPD1    C5 3216   3.461   3.985   0.014 -0.7865  0.2724  0.3496
  208MPD1     H 3217   3.259   4.083   0.331 -0.4254  0.4420 -1.5843
  208MPD1    H1 3218   3.599   4.122   0.076  0.4313 -1.2876  0.8915
  208MPD1    H2 3219   3.309   3.847  17.718  0.0293  2.2576 -1.8154
  208MPD1    H3 3220   3.519   3.962  17.674 -0.3209 -2.5114  1.3870
  208MPD1     N 3221   3.475   4.198   0.308 -0.4022  0.5606  0.2080
  208MPD1    H5 3222   3.417   4.205   0.390  1.7518  1.0601  1.6970
  208MPD1    N1 3223   3.141   3.902   0.173 -0.6295 -0.5324 -0.1010
  208MPD1    H6 3224   3.094   3.869   0.089  0.2968  0.4466 -0.9997
  208MPD1    H7 3225   3.074   3.967   0.213 -2.2824 -0.6983 -2.5997
  209MPD1     C 3226   0.851   4.456  10.885  0.1765  0.4063  0.3392
  209MPD1    C1 3227   0.874   4.561  10.792  0.1251 -0.0291 -0.5964
  209MPD1    C2 3228   0.871   4.689  10.840 -0.0780  0.0128 -0.2856
  209MPD1    C3 3229   0.858   4.714  10.975 -0.3137  0.0553 -0.4561
  209MPD1    C4 3230   0.833   4.612  11.062  0.4827 -0.7311  0.0804
  209MPD1    C5 3231   0.825   4.476  11.019  0.1039 -0.4584  0.4845
  209MPD1     H 3232   0.894   0.035  10.775 -2.2296  1.2122  0.4996
  209MPD1    H1 3233   0.815   4.636  11.166  3.6693  1.6225  0.0697
  209MPD1    H2 3234   0.842   4.357  10.842 -1.3124 -0.1649  2.0041
  209MPD1    H3 3235   0.787   4.386  11.066 -0.6642 -0.7767 -0.7575
  209MPD1     N 3236   0.886   0.109  11.018 -0.2184 -0.0980 -0.2428
  209MPD1    H5 3237   0.897   0.183  10.949 -0.1947 -0.3813 -0.5421
  209MPD1    N1 3238   0.882   4.540  10.653  0.3754 -0.3889 -0.2529
  209MPD1    H6 3239   0.920   4.611  10.590  0.4317 -1.1460 -1.0652
  209MPD1    H7 3240   0.930   4.454  10.629 -0.7336 -0.7464 -1.1605
  210MPD1     C 3241   0.910   0.482  11.961 -0.3150 -0.2272 -0.6218
  210MPD1    C1 3242   0.922   0.598  11.885 -0.0172  0.1664 -0.0558
  210MPD1    C2 3243   0.938   0.587  11.750 -0.3505 -0.2658 -0.3842
  210MPD1    C3 3244   0.943   0.452  11.698  0.3235 -0.2270  0.4761
  210MPD1    C4 3245   0.914   0.341  11.781 -0.2343 -0.0854 -0.9174
  210MPD1    C5 3246   0.890   0.360  11.916  0.1728 -0.1408 -0.6984
  210MPD1     H 3247   0.950   0.674  11.686  0.1905 -0.9432 -1.2165
  210MPD1    H1 3248   0.895   0.242  11.742 -0.9394 -0.8067  1.2734
  210MPD1    H2 3249   0.912   0.491  12.069  1.0884 -0.3511 -0.6252
  210MPD1    H3 3250   0.863   0.279  11.983  1.0634  0.4509  0.3866
  210MPD1     N 3251   0.959   0.426  11.558  0.5100 -0.5272 -0.6246
  210MPD1    H5 3252   0.937   0.333  11.526 -1.5018  0.3779 -1.8524
  210MPD1    N1 3253   0.883   0.725  11.946  0.1510  0.4211 -1.0875
  210MPD1    H6 3254   0.907   0.722  12.045 -1.0061 -3.0142 -0.9186
  210MPD1    H7 3255   0.949   0.789  11.902 -1.0544  0.7223 -2.4517
  211MPD1     C 3256   3.580   3.846  15.759  0.6483 -0.4704  0.4238
  211MPD1    C1 3257   3.623   3.975  15.739  0.5332 -0.2937  0.8085
  211MPD1    C2 3258   3.547   4.076  15.791 -0.1672  0.0057 -0.5472
  211MPD1    C3 3259   3.417   4.049  15.838 -0.7606 -0.7086  0.1954
  211MPD1    C4 3260   3.369   3.917  15.838 -0.4933 -0.3238 -0.6759
  211MPD1    C5 3261   3.452   3.813  15.794  0.2162  0.2496  0.5798
  211MPD1     H 3262   3.582   4.179  15.797 -3.2098  1.0102  0.2301
  211MPD1    H1 3263   3.270   3.898  15.876 -0.2401 -0.8051 -0.2601
  211MPD1    H2 3264   3.643   3.762  15.730 -0.9889 -1.4878 -0.1544
  211MPD1    H3 3265   3.423   3.710  15.780 -1.3341  0.7752 -0.1487
  211MPD1     N 3266   3.330   4.148  15.894  0.3239  0.1809 -0.5788
  211MPD1    H5 3267   3.368   4.238  15.921 -1.8583  0.3686  1.7890
  211MPD1    N1 3268   3.749   4.002  15.687  0.3820 -0.3807 -0.5260
  211MPD1    H6 3269   3.769   3.937  15.612 -2.4953 -2.0731  0.1822
  211MPD1    H7 3270   3.745   4.098  15.651 -2.1796  0.1588  1.2099
  212MPD1     C 3271   2.676   2.885  16.495  0.1051 -0.7084  0.7866
  212MPD1    C1 3272   2.695   2.748  16.486 -0.1519 -0.4480  0.0652
  212MPD1    C2 3273   2.616   2.671  16.563  0.1652 -0.6149 -0.1255
  212MPD1    C3 3274   2.528   2.718  16.660 -0.6836 -0.4765  0.5678
  212MPD1    C4 3275   2.517   2.852  16.673 -0.3109  0.1457 -0.4597
  212MPD1    C5 3276   2.591   2.932  16.590 -0.5153  0.0049 -0.3438
  212MPD1     H 3277   2.628   2.564  16.549 -1.0918 -0.8926  0.9021
  212MPD1    H1 3278   2.436   2.892  16.732  0.7586  0.3562  0.8662
  212MPD1    H2 3279   2.732   2.953  16.432  0.4479  0.6736  2.5935
  212MPD1    H3 3280   2.581   3.040  16.595 -1.8113 -0.1559  0.6333
  212MPD1     N 3281   2.452   2.641  16.749  0.4449 -0.2365  0.1366
  212MPD1    H5 3282   2.377   2.685  16.802  1.0660  1.6503 -0.5357
  212MPD1    N1 3283   2.771   2.706  16.376 -0.5333 -0.5416 -0.2024
  212MPD1    H6 3284   2.847   2.770  16.354 -0.1621 -0.4462  1.3152
  212MPD1    H7 3285   2.810   2.612  16.375  1.1345  0.1116  1.3501
  213MPD1     C 3286   0.641   3.219  16.084 -0.0231  0.2361 -0.1445
  213MPD1    C1 3287   0.690   3.113  16.016 -0.0314 -0.8148  0.4990
  213MPD1    C2 3288   0.655   3.123  15.882 -0.4779 -0.2593 -0.0301
  213MPD1    C3 3289   0.636   3.237  15.811  0.3083  0.0716 -0.1371
  213MPD1    C4 3290   0.618   3.348  15.876  0.4903  0.3943  0.0546
  213MPD1    C5 3291   0.617   3.339  16.014 -0.4874  0.1188 -0.2878
  213MPD1     H 3292   0.648   3.026  15.833  0.7799  0.7304 -2.1933
  213MPD1    H1 3293   0.588   3.438  15.824 -0.0100 -0.0611 -0.4447
  213MPD1    H2 3294   0.652   3.223  16.191 -0.4194  0.8528 -0.1272
  213MPD1    H3 3295   0.605   3.427  16.076 -0.4866  1.8607 -2.7752
  213MPD1     N 3296   0.618   3.213  15.668 -0.6923 -1.0679  0.1604
  213MPD1    H5 3297   0.629   3.118  15.635  1.6685 -0.3574 -1.0645
  213MPD1    N1 3298   0.697   2.986  16.075 -0.2846  0.0244  0.3072
  213MPD1    H6 3299   0.754   2.919  16.025 -0.3120 -0.0702  0.4010
  213MPD1    H7 3300   0.742   2.987  16.166 -1.9404 -0.5524  1.1467
  214MPD1     C 3301   0.170   2.548  15.028  0.1772  0.3847 -0.4390
  214MPD1    C1 3302   0.273   2.540  15.128  0.6975  0.6484 -0.6875
  214MPD1    C2 3303   0.313   2.662  15.181  0.3291 -0.3700 -1.1867
  214MPD1    C3 3304   0.247   2.786  15.159 -1.1333 -0.4301 -0.1424
  214MPD1    C4 3305   0.144   2.781  15.068  0.2328 -0.3350 -0.2575
  214MPD1    C5 3306   0.106   2.668  15.007 -0.7603 -0.2873  0.5651
  214MPD1     H 3307   0.403   2.657  15.241 -0.3055  0.2888 -0.1743
  214MPD1    H1 3308   0.091   2.873  15.047  1.0242  0.7307  2.4018
  214MPD1    H2 3309   0.128   2.461  14.980 -0.7082  1.2252 -1.1910
  214MPD1    H3 3310   0.030   2.667  14.930 -0.4677 -0.7844  0.2817
  214MPD1     N 3311   0.288   2.913  15.209 -0.0163  0.1551 -0.4652
  214MPD1    H5 3312   0.241   2.993  15.167 -0.5201 -0.8686 -1.8213
  214MPD1    N1 3313   0.365   2.435  15.125  0.5353 -0.1628  0.0960
  214MPD1    H6 3314   0.430   2.429  15.203  0.8344  0.6537 -0.0910
  214MPD1    H7 3315   0.324   2.345  15.104 -2.1354  0.8236  1.0947
  215MPD1     C 3316   0.664   4.099  10.381  0.5356 -1.4033  0.4851
  215MPD1    C1 3317   0.732   4.134  10.494 -0.0794  0.1022 -0.2843
  215MPD1    C2 3318   0.708   4.260  10.537 -0.4819 -0.0984 -0.3731
  215MPD1    C3 3319   0.636   4.356  10.475 -0.8545 -0.2180 -0.2916
  215MPD1    C4 3320   0.575   4.324  10.361 -0.2640 -0.4944  0.3189
  215MPD1    C5 3321   0.590   4.195  10.311  0.8450 -0.5174  0.2243
  215MPD1     H 3322   0.750   4.281  10.635  0.3213  0.4195 -0.8236
  215MPD1    H1 3323   0.534   4.407  10.305  0.2623 -1.3271 -1.2948
  215MPD1    H2 3324   0.667   4.002  10.332 -0.3310 -1.0419 -0.2965
  215MPD1    H3 3325   0.541   4.164  10.219 -1.2997  3.1884  0.1028
  215MPD1     N 3326   0.636   4.481  10.527 -0.4295  0.2272  0.0545
  215MPD1    H5 3327   0.691   4.496  10.612  0.4666  2.7589 -0.9729
  215MPD1    N1 3328   0.790   4.042  10.579 -0.1956  0.0286 -0.5273
  215MPD1    H6 3329   0.858   4.088  10.639 -1.9015  1.8974 -0.0380
  215MPD1    H7 3330   0.851   3.985  10.521  1.6416  1.3157  0.1288
  216MPD1     C 3331   2.454   3.309   0.503 -0.2560  0.2277  0.3409
  216MPD1    C1 3332   2.494   3.193   0.571  0.2015  0.2679  0.2569
  216MPD1    C2 3333   2.524   3.087   0.496 -0.1217  0.1336 -0.2665
  216MPD1    C3 3334   2.522   3.073   0.356 -0.1515 -0.1054  0.2794
  216MPD1    C4 3335   2.489   3.191   0.290 -0.8644  0.0769  0.7495
  216MPD1    C5 3336   2.448   3.300   0.365  0.3390 -0.2738  0.4394
  216MPD1     H 3337   2.537   3.003   0.563 -1.4160  1.0166  1.0861
  216MPD1    H1 3338   2.475   3.186   0.183  0.7440 -1.2124  0.6005
  216MPD1    H2 3339   2.419   3.400   0.551  1.7285  0.3928  1.4865
  216MPD1    H3 3340   2.403   3.379   0.306 -2.5494 -0.9995  1.6464
  216MPD1     N 3341   2.552   2.949   0.296  0.2936  0.2673 -0.9724
  216MPD1    H5 3342   2.565   2.870   0.359 -2.5167  1.5528  1.1839
  216MPD1    N1 3343   2.527   3.197   0.707 -0.5787 -0.1053 -0.3277
  216MPD1    H6 3344   2.457   3.251   0.759 -1.6993 -1.1380 -0.7718
  216MPD1    H7 3345   2.523   3.106   0.752  0.1619  0.0411  0.0329
  217MPD1     C 3346   2.405   4.495   8.671 -0.2497 -0.1058 -0.2168
  217MPD1    C1 3347   2.504   4.405   8.635 -0.4187 -0.5824  0.8130
  217MPD1    C2 3348   2.586   4.346   8.733 -0.4442 -1.0678  0.3762
  217MPD1    C3 3349   2.559   4.370   8.866 -0.1070  0.2179  0.1294
  217MPD1    C4 3350   2.454   4.457   8.901  0.2422  0.0943 -0.4232
  217MPD1    C5 3351   2.378   4.521   8.799 -0.3073  0.1173  0.3141
  217MPD1     H 3352   2.650   4.265   8.700  1.8232  1.1855 -0.7689
  217MPD1    H1 3353   2.438   4.487   9.004 -1.4128 -0.0420 -0.6414
  217MPD1    H2 3354   2.334   4.532   8.599 -0.4860 -0.5415 -0.2077
  217MPD1    H3 3355   2.295   4.585   8.828  0.6324  1.1241  0.7485
  217MPD1     N 3356   2.634   4.317   8.973  0.3884 -0.2557 -0.0904
  217MPD1    H5 3357   2.616   4.349   9.068  1.6074  0.1520  0.0044
  217MPD1    N1 3358   2.504   4.352   8.504 -0.1712  0.8010 -0.5499
  217MPD1    H6 3359   2.499   4.421   8.429  1.4825 -0.0559 -1.4590
  217MPD1    H7 3360   2.592   4.305   8.487 -1.6229 -2.2513  0.3240
  218MPD1     C 3361   4.191   1.040  13.527  0.0574 -1.2766 -0.1378
  218MPD1    C1 3362   4.277   1.098  13.439 -0.0358 -0.8622 -0.1463
  218MPD1    C2 3363   4.358   1.020  13.361  0.1422 -0.0518  0.5141
  218MPD1    C3 3364   4.382   0.893  13.400 -0.6869 -0.5440 -0.4481
  218MPD1    C4 3365   4.298   0.833  13.486 -0.0958 -0.3406  1.2201
  218MPD1    C5 3366   4.195   0.904  13.544  0.1043  0.1365 -0.6814
  218MPD1     H 3367   4.415   1.073  13.285 -0.2699 -1.5008 -0.7872
  218MPD1    H1 3368   4.309   0.730  13.519 -2.5073 -0.0548  2.9287
  218MPD1    H2 3369   4.115   1.095  13.581  1.5824  2.1969 -1.5316
  218MPD1    H3 3370   4.147   0.856  13.629  0.8958 -0.3252 -0.5001
  218MPD1     N 3371   4.465   0.812  13.311  0.2084 -0.3499 -0.3064
  218MPD1    H5 3372   4.511   0.870  13.241  1.6601 -0.6074  0.4208
  218MPD1    N1 3373   4.258   1.226  13.403 -0.0853 -0.1070 -0.3828
  218MPD1    H6 3374   4.200   1.280  13.467  2.9607  2.3345  0.3342
  218MPD1    H7 3375   4.346   1.274  13.383  0.4818 -0.3845  1.4129
  219MPD1     C 3376   0.492   0.791  12.652  0.0831  0.4777  0.0576
  219MPD1    C1 3377   0.388   0.867  12.693  0.0356 -0.6538  0.4839
  219MPD1    C2 3378   0.310   0.811  12.792  0.6826 -0.1948  0.2026
  219MPD1    C3 3379   0.328   0.690  12.853  0.5413 -0.1203 -0.1832
  219MPD1    C4 3380   0.441   0.617  12.819 -0.4600  0.0189  0.6900
  219MPD1    C5 3381   0.517   0.673  12.713 -0.3614 -0.3668  0.7852
  219MPD1     H 3382   0.212   0.857  12.806 -0.5159 -2.4164 -0.8847
  219MPD1    H1 3383   0.483   0.524  12.856 -0.5041 -0.9586 -1.6823
  219MPD1    H2 3384   0.554   0.817  12.566  0.8841  0.8465  0.7511
  219MPD1    H3 3385   0.605   0.617  12.684 -2.2344 -1.6050 -2.5937
  219MPD1     N 3386   0.237   0.632  12.946  0.1168 -0.0198 -0.5199
  219MPD1    H5 3387   0.242   0.531  12.957  3.3146  0.1530 -0.5218
  219MPD1    N1 3388   0.343   0.972  12.620  0.3021 -0.0507  0.3877
  219MPD1    H6 3389   0.420   1.029  12.585 -0.4865  0.6654 -0.1734
  219MPD1    H7 3390   0.295   1.028  12.690  1.4151  0.5305  0.6878
  220MPD1     C 3391   4.722   0.797  11.320 -0.0817 -0.5783 -0.7944
  220MPD1    C1 3392   0.041   0.692  11.254  0.6898 -0.6105  0.2477
  220MPD1    C2 3393   4.701   0.634  11.147 -0.1667 -0.4450  0.5290
  220MPD1    C3 3394   4.563   0.674  11.131  0.1957  0.1120  0.0193
  220MPD1    C4 3395   4.502   0.772  11.206 -0.2283 -0.2713  0.2069
  220MPD1    C5 3396   4.586   0.830  11.302 -1.1101  0.8782 -0.1003
  220MPD1     H 3397   0.005   0.558  11.082  2.3057  0.0316  1.5204
  220MPD1    H1 3398   4.397   0.799  11.200 -0.8851 -2.8947  0.0233
  220MPD1    H2 3399   0.046   0.852  11.390  0.3052 -1.3051 -0.5683
  220MPD1    H3 3400   4.550   0.911  11.364  1.4768  1.6468  0.3816
  220MPD1     N 3401   4.501   0.624  11.015 -0.6829 -0.4754  0.4736
  220MPD1    H5 3402   4.554   0.559  10.957 -1.2712 -0.2695 -0.2902
  220MPD1    N1 3403   0.182   0.672  11.266 -0.1299  0.0841  0.2568
  220MPD1    H6 3404   0.221   0.687  11.359 -0.8641 -0.3616  0.6411
  220MPD1    H7 3405   0.213   0.579  11.240 -1.8907 -0.0977 -1.1543
  221MPD1     C 3406   2.243   4.221  16.639  0.0315  0.3308 -0.7170
  221MPD1    C1 3407   2.284   4.096  16.682 -0.2057 -0.1794  1.1232
  221MPD1    C2 3408   2.398   4.041  16.627 -0.1450 -0.1426  0.0987
  221MPD1    C3 3409   2.439   4.088  16.500 -0.3194 -0.0310  0.3762
  221MPD1    C4 3410   2.395   4.212  16.460 -0.3732 -0.3406 -0.1662
  221MPD1    C5 3411   2.299   4.280  16.528 -0.1589  0.7578 -0.1715
  221MPD1     H 3412   2.447   3.951  16.662 -1.5899 -1.6120 -1.5831
  221MPD1    H1 3413   2.435   4.257  16.370  0.9221 -3.6243 -1.2362
  221MPD1    H2 3414   2.175   4.269  16.708  1.1472  0.4481  0.2938
  221MPD1    H3 3415   2.266   4.380  16.502 -2.8724  0.1479  0.8932
  221MPD1     N 3416   2.544   4.024  16.435 -0.1340  0.0347  0.1384
  221MPD1    H5 3417   2.566   4.074  16.350 -0.5785 -0.8742 -0.5082
  221MPD1    N1 3418   2.233   4.047  16.802  0.2860 -0.1092  0.2149
  221MPD1    H6 3419   2.140   4.081  16.824 -0.3071 -0.9624 -0.9867
  221MPD1    H7 3420   2.236   3.946  16.801  1.6373 -0.0773  0.0254
  222MPD1     C 3421   2.304   2.491   0.285  0.1525 -0.5284  0.2905
  222MPD1    C1 3422   2.250   2.585   0.209  1.0258  0.2131  0.1740
  222MPD1    C2 3423   2.206   2.701   0.269  0.3411 -0.0708  0.8185
  222MPD1    C3 3424   2.201   2.725   0.407  0.3903  0.3782 -0.5459
  222MPD1    C4 3425   2.258   2.630   0.485  0.4530 -0.0288 -0.4343
  222MPD1    C5 3426   2.321   2.524   0.419  0.5518 -0.6534  0.3261
  222MPD1     H 3427   2.171   2.780   0.204 -1.7233 -1.7656 -0.1067
  222MPD1    H1 3428   2.272   2.650   0.590 -0.5935  1.5367 -0.6057
  222MPD1    H2 3429   2.346   2.395   0.256  0.4136 -0.5150  0.6237
  222MPD1    H3 3430   2.386   2.459   0.476 -0.2794 -1.7537  0.0189
  222MPD1     N 3431   2.158   2.844   0.462  0.2337 -0.2264 -0.0608
  222MPD1    H5 3432   2.171   2.853   0.562  3.3413 -1.0083 -0.4157
  222MPD1    N1 3433   2.243   2.568   0.073  0.2066  0.5589 -0.2582
  222MPD1    H6 3434   2.299   2.488   0.044 -0.6344  0.0907 -0.5882
  222MPD1    H7 3435   2.258   2.651   0.016  1.7215  0.6687  0.3145
  223MPD1     C 3436   1.430   3.237   1.001 -0.0883 -0.2667  0.5140
  223MPD1    C1 3437   1.464   3.343   0.923  1.0317  0.7835  0.1494
  223MPD1    C2 3438   1.571   3.334   0.842  0.2297 -0.4182 -0.3392
  223MPD1    C3 3439   1.648   3.222   0.844 -0.5080  0.5396 -0.3149
  223MPD1    C4 3440   1.622   3.124   0.931  0.0345 -0.0996  0.2445
  223MPD1    C5 3441   1.506   3.130   1.001  0.9546  0.0880 -0.0949
  223MPD1     H 3442   1.599   3.420   0.783 -0.0497 -0.0695  0.0316
  223MPD1    H1 3443   1.668   3.026   0.944  1.1817  0.3029 -0.8632
  223MPD1    H2 3444   1.340   3.244   1.061  1.6340  0.3966  3.0160
  223MPD1    H3 3445   1.481   3.048   1.067 -1.0746 -1.2337 -2.5140
  223MPD1     N 3446   1.768   3.232   0.769 -0.2680  0.3648 -0.5083
  223MPD1    H5 3447   1.779   3.316   0.713  1.8332 -0.5046 -1.4034
  223MPD1    N1 3448   1.387   3.459   0.928 -0.1576  0.2462  0.1553
  223MPD1    H6 3449   1.327   3.469   1.010  1.2480  1.2521  1.0455
  223MPD1    H7 3450   1.433   3.544   0.895  2.9688 -1.0217  1.2413
  224MPD1     C 3451   3.095   4.333   9.002  0.0056 -0.0641  0.6865
  224MPD1    C1 3452   3.074   4.464   9.047 -0.6535 -0.0280 -0.2837
  224MPD1    C2 3453   3.138   4.514   9.154 -0.0348 -0.5331  0.3630
  224MPD1    C3 3454   3.217   4.433   9.233 -0.5928 -0.2724  0.2273
  224MPD1    C4 3455   3.240   4.303   9.193 -0.2574  0.0392 -0.0174
  224MPD1    C5 3456   3.181   4.256   9.080  0.0215  0.5318  0.7628
  224MPD1     H 3457   3.105   4.614   9.177 -0.8513 -0.6889 -0.1435
  224MPD1    H1 3458   3.295   4.227   9.247  0.8327  0.5062 -0.4815
  224MPD1    H2 3459   3.041   4.295   8.916 -0.4816 -0.1713  1.0346
  224MPD1    H3 3460   3.204   4.155   9.047 -0.2362  1.4282 -2.1596
  224MPD1     N 3461   3.295   4.482   9.335  0.8938  0.2003 -0.6711
  224MPD1    H5 3462   3.362   4.416   9.372  0.5172 -0.2020 -0.7134
  224MPD1    N1 3463   2.965   4.541   8.992 -0.3019 -0.2209  0.0058
  224MPD1    H6 3464   2.966   4.642   8.976 -0.5075  0.0311  1.6682
  224MPD1    H7 3465   2.931   4.496   8.907 -0.4046 -2.9355  1.5000
  225MPD1     C 3466   0.392   4.497  12.586  0.2604  0.1180 -0.0012
  225MPD1    C1 3467   0.403   4.565  12.706  0.2716  0.2575  0.2646
  225MPD1    C2 3468   0.293   4.637  12.749 -0.0821 -0.2860 -1.1070
  225MPD1    C3 3469   0.174   4.624  12.680  0.0021 -0.1443 -0.0981
  225MPD1    C4 3470   0.162   4.549  12.572 -0.0733 -0.1332  0.8672
  225MPD1    C5 3471   0.271   4.481  12.524 -0.0644 -0.4312 -0.2351
  225MPD1     H 3472   0.286   4.695  12.840 -0.9795 -1.0040 -0.7104
  225MPD1    H1 3473   0.068   4.546  12.518 -0.8288  0.3675  2.1801
  225MPD1    H2 3474   0.477   4.444  12.546  2.4381 -0.5068  5.4065
  225MPD1    H3 3475   0.268   4.421  12.434  1.3190 -0.9673  0.0617
  225MPD1     N 3476   0.058   4.697  12.709 -0.1567  0.3237 -0.0368
  225MPD1    H5 3477   4.711   4.664  12.665 -2.0710  3.8413  0.9453
  225MPD1    N1 3478   0.536   4.572  12.769 -0.5933 -0.1814  0.1139
  225MPD1    H6 3479   0.569   4.477  12.783  2.7614  1.3225  2.4297
  225MPD1    H7 3480   0.527   4.609  12.863 -2.1142 -3.2116  1.1400
  226MPD1     C 3481   2.822   0.778  10.374 -0.3760  0.0514 -0.7971
  226MPD1    C1 3482   2.919   0.685  10.367  0.5195  1.1721 -0.1422
  226MPD1    C2 3483   2.932   0.604  10.258 -0.1964  0.1752  0.3966
  226MPD1    C3 3484   2.837   0.612  10.158 -1.1650  0.3704 -0.1105
  226MPD1    C4 3485   2.739   0.712  10.163  0.2318  0.1230 -0.3599
  226MPD1    C5 3486   2.733   0.795  10.274  0.0781 -0.0005  0.2146
  226MPD1     H 3487   3.015   0.534  10.257  0.0538  0.5008 -1.5270
  226MPD1    H1 3488   2.670   0.725  10.080 -0.8425  2.3802  0.9067
  226MPD1    H2 3489   2.821   0.848  10.457 -2.5450  0.9812 -1.6012
  226MPD1    H3 3490   2.644   0.854  10.290  0.1708 -0.1561  1.3259
  226MPD1     N 3491   2.846   0.520  10.054 -0.0333 -0.2200  0.5519
  226MPD1    H5 3492   2.935   0.471  10.049  0.0829  0.2487 -1.7051
  226MPD1    N1 3493   3.027   0.685  10.457  0.1924 -0.4128 -0.4911
  226MPD1    H6 3494   2.999   0.734  10.541  1.0482  2.1979 -1.7321
  226MPD1    H7 3495   3.031   0.589  10.490 -2.3303  0.4503  2.3263
  227MPD1     C 3496   2.531   0.092   9.083  0.0717  0.8893  0.0850
  227MPD1    C1 3497   2.663   0.130   9.082  0.2374 -0.2775  0.6471
  227MPD1    C2 3498   2.726   0.170   9.201  0.4467  0.1944  0.2016
  227MPD1    C3 3499   2.646   0.190   9.313  1.5947 -0.9641 -0.1682
  227MPD1    C4 3500   2.513   0.159   9.310  0.6980 -0.1850  0.7965
  227MPD1    C5 3501   2.459   0.110   9.198 -0.0514 -0.0841  0.2193
  227MPD1     H 3502   2.830   0.192   9.224  0.4670  2.4632 -2.0199
  227MPD1    H1 3503   2.440   0.162   9.391  0.7779  2.9527  0.7562
  227MPD1    H2 3504   2.470   0.066   8.997 -1.2045  0.1448  1.1972
  227MPD1    H3 3505   2.352   0.095   9.197 -0.1433  0.4972  1.7734
  227MPD1     N 3506   2.711   0.248   9.419  0.5380 -0.3684  0.0037
  227MPD1    H5 3507   2.812   0.250   9.413  0.4138  0.1633 -1.9727
  227MPD1    N1 3508   2.748   0.096   8.974  0.3071  0.0896 -0.3584
  227MPD1    H6 3509   2.708   0.075   8.883 -0.6340  1.4257 -0.2553
  227MPD1    H7 3510   2.819   0.168   8.967 -0.5369  0.9451 -0.1376
  228MPD1     C 3511   1.664   3.303  12.317  0.4464  0.2099 -0.3756
  228MPD1    C1 3512   1.565   3.379  12.266  0.3174  0.6288 -0.1867
  228MPD1    C2 3513   1.444   3.378  12.326  0.4979  0.6095 -0.2829
  228MPD1    C3 3514   1.421   3.290  12.431 -0.0924  0.6664  0.2211
  228MPD1    C4 3515   1.524   3.205  12.472 -0.1879 -1.0973 -0.4337
  228MPD1    C5 3516   1.653   3.219  12.420  0.3496 -0.7912 -0.3571
  228MPD1     H 3517   1.369   3.455  12.309  0.6178 -0.2327 -4.6178
  228MPD1    H1 3518   1.510   3.134  12.552 -0.2870 -0.2187  0.3350
  228MPD1    H2 3519   1.759   3.319  12.267  0.7843 -1.5535 -0.2750
  228MPD1    H3 3520   1.735   3.155  12.449  0.8279 -0.1675 -0.3465
  228MPD1     N 3521   1.296   3.280  12.485  0.0624  0.3186 -0.1289
  228MPD1    H5 3522   1.225   3.347  12.458  0.8070  0.4674 -1.6739
  228MPD1    N1 3523   1.592   3.470  12.162 -0.2582 -0.0569 -0.0455
  228MPD1    H6 3524   1.522   3.472  12.088 -0.2956  1.1100  0.0348
  228MPD1    H7 3525   1.677   3.455  12.109 -0.9233 -1.2101 -0.8002
  229MPD1     C 3526   1.743   1.657  13.883  0.2844  0.3660  0.0971
  229MPD1    C1 3527   1.877   1.632  13.871 -0.2720  0.6001 -0.8954
  229MPD1    C2 3528   1.956   1.619  13.978  0.2619  0.3511  0.4569
  229MPD1    C3 3529   1.895   1.648  14.104 -0.1549 -0.1607  0.3912
  229MPD1    C4 3530   1.766   1.695  14.111  0.1376 -0.1561 -0.0480
  229MPD1    C5 3531   1.692   1.703  14.003 -0.4974  0.1776  0.5212
  229MPD1     H 3532   2.055   1.576  13.974 -0.0998 -0.5544  1.0412
  229MPD1    H1 3533   1.719   1.709  14.208 -0.2073  0.2670 -0.2795
  229MPD1    H2 3534   1.676   1.669  13.799  1.0490  1.0232 -0.4105
  229MPD1    H3 3535   1.586   1.722  14.018 -0.6963  0.4540 -1.2175
  229MPD1     N 3536   1.956   1.611  14.228 -0.4804  0.4624 -0.5035
  229MPD1    H5 3537   1.901   1.613  14.314 -1.8222 -0.1043 -1.3520
  229MPD1    N1 3538   1.920   1.582  13.749  0.2102  0.7291  0.4937
  229MPD1    H6 3539   1.861   1.607  13.669  1.1016 -0.4776 -0.5198
  229MPD1    H7 3540   2.020   1.592  13.739  0.4516  1.2497  3.2832
  230MPD1     C 3541   1.775   1.514  15.199 -0.0042  0.1199  0.3758
  230MPD1    C1 3542   1.891   1.441  15.193  0.0103  0.8145 -0.2156
  230MPD1    C2 3543   1.961   1.441  15.074 -0.1023  0.5134 -0.9027
  230MPD1    C3 3544   1.917   1.513  14.961 -0.8185 -0.4487 -0.7235
  230MPD1    C4 3545   1.804   1.589  14.975 -0.3017 -0.5035 -0.3836
  230MPD1    C5 3546   1.741   1.595  15.096 -0.5391 -0.5682  0.1437
  230MPD1     H 3547   2.047   1.375  15.071 -0.1496  0.4734 -1.3531
  230MPD1    H1 3548   1.758   1.643  14.893  0.0907  0.3065 -0.0659
  230MPD1    H2 3549   1.712   1.522  15.286  2.4377 -1.6585  2.3256
  230MPD1    H3 3550   1.646   1.645  15.110 -0.9244 -0.9160 -1.2301
  230MPD1     N 3551   1.986   1.492  14.839  0.4480 -0.2013 -0.0844
  230MPD1    H5 3552   2.045   1.411  14.825 -1.1627 -1.2761 -0.6098
  230MPD1    N1 3553   1.917   1.338  15.289  0.7357 -0.2729 -0.3898
  230MPD1    H6 3554   2.014   1.312  15.307  1.1501  1.9222  0.5271
  230MPD1    H7 3555   1.895   1.374  15.382  2.9708  0.6954 -0.2414
  231MPD1     C 3556   0.102   3.423  15.307 -0.1965 -0.8177  1.0511
  231MPD1    C1 3557   0.046   3.410  15.183  0.1868 -0.3201 -0.2441
  231MPD1    C2 3558   0.127   3.454  15.082  0.0040 -0.5299  0.0457
  231MPD1    C3 3559   0.244   3.526  15.091  0.5355  0.4626  0.3002
  231MPD1    C4 3560   0.294   3.545  15.219 -0.5342  0.0090 -0.3492
  231MPD1    C5 3561   0.223   3.485  15.328  1.1126 -0.2900 -0.1857
  231MPD1     H 3562   0.086   3.446  14.982 -0.6577 -5.4025  0.7126
  231MPD1    H1 3563   0.387   3.598  15.234 -1.5992  1.8593 -0.2706
  231MPD1    H2 3564   0.053   3.374  15.391  0.5582  0.3782  2.1997
  231MPD1    H3 3565   0.257   3.481  15.431  0.7341  0.8015 -0.0231
  231MPD1     N 3566   0.304   3.577  14.975  0.1185  0.0457 -0.1110
  231MPD1    H5 3567   0.272   3.553  14.882  1.9016 -0.4800 -0.5942
  231MPD1    N1 3568   4.669   3.330  15.157 -0.1867 -0.1998  0.1989
  231MPD1    H6 3569   4.616   3.317  15.242 -1.1726 -1.4268 -0.6146
  231MPD1    H7 3570   4.615   3.376  15.083  0.6830  1.3810  0.5314
  232MPD1     C 3571   2.271   1.287   0.279  0.1403 -0.6639 -0.1984
  232MPD1    C1 3572   2.306   1.162   0.235 -0.5361  0.0903  0.3500
  232MPD1    C2 3573   2.215   1.091   0.159 -0.4962 -0.4900  0.1354
  232MPD1    C3 3574   2.090   1.139   0.134 -0.1833 -0.3817  0.1528
  232MPD1    C4 3575   2.051   1.255   0.196 -0.4341  0.1797  0.0973
  232MPD1    C5 3576   2.145   1.335   0.259 -0.8418  0.7850  0.0583
  232MPD1     H 3577   2.251   1.001   0.111  2.4294 -0.8035  2.9192
  232MPD1    H1 3578   1.952   1.298   0.189  0.5517  2.6543  1.4459
  232MPD1    H2 3579   2.324   1.353   0.347 -2.6591  2.2483 -0.8472
  232MPD1    H3 3580   2.118   1.428   0.306 -0.2835  0.5134  0.9233
  232MPD1     N 3581   1.995   1.063   0.052  0.1891 -0.5504 -0.7650
  232MPD1    H5 3582   2.036   0.982   0.006  0.3843 -0.8727 -0.0315
  232MPD1    N1 3583   2.436   1.118   0.244 -0.2642  0.6340 -0.2924
  232MPD1    H6 3584   2.444   1.017   0.230 -0.3751  0.5567  0.2168
  232MPD1    H7 3585   2.483   1.153   0.327 -0.5509 -1.0652  0.5732
  233MPD1     C 3586   2.555   0.269   1.783  0.5938 -0.5035 -0.1676
  233MPD1    C1 3587   2.690   0.305   1.793 -0.5352  0.5170  0.0422
  233MPD1    C2 3588   2.792   0.221   1.751 -0.6906 -0.1706  0.1155
  233MPD1    C3 3589   2.761   0.093   1.708 -0.0284  0.5551 -0.3063
  233MPD1    C4 3590   2.631   0.058   1.690  0.5902 -0.6381 -0.0912
  233MPD1    C5 3591   2.531   0.145   1.724  0.4860  0.6083 -0.3924
  233MPD1     H 3592   2.897   0.247   1.757 -1.3519  2.8148 -1.0069
  233MPD1    H1 3593   2.607   4.705   1.637 -1.2786 -0.2421  0.1018
  233MPD1    H2 3594   2.478   0.336   1.819  1.3891  1.0059 -1.2588
  233MPD1    H3 3595   2.428   0.118   1.705  0.6500 -1.3327  1.4541
  233MPD1     N 3596   2.847   4.732   1.660  0.5739 -0.3439  0.5253
  233MPD1    H5 3597   2.803   4.645   1.631 -1.0537  1.3757 -2.1164
  233MPD1    N1 3598   2.722   0.442   1.826  0.3630 -0.3693 -0.2179
  233MPD1    H6 3599   2.655   0.468   1.898 -0.5517  0.5345 -1.3883
  233MPD1    H7 3600   2.811   0.450   1.873 -0.3157 -0.3041  1.0546
  234MPD1     C 3601   3.975   3.015   9.205 -0.3066 -0.3365 -0.5016
  234MPD1    C1 3602   3.856   3.067   9.159 -0.3266 -0.9306  0.0405
  234MPD1    C2 3603   3.824   3.195   9.198  0.5831 -0.0722 -0.2879
  234MPD1    C3 3604   3.890   3.246   9.306 -0.5380 -0.3566 -0.8502
  234MPD1    C4 3605   4.006   3.180   9.359  0.7974 -0.0864 -0.1680
  234MPD1    C5 3606   4.046   3.069   9.300 -0.0373 -0.3790 -0.0022
  234MPD1     H 3607   3.749   3.250   9.143  1.4642  1.7707  0.3496
  234MPD1    H1 3608   4.070   3.209   9.442  0.5372  1.5040 -0.5249
  234MPD1    H2 3609   3.998   2.915   9.170  1.5729 -0.9088  2.3674
  234MPD1    H3 3610   4.136   3.019   9.335 -0.2213  0.3458  1.4675
  234MPD1     N 3611   3.857   3.375   9.340  0.0509 -0.8551 -0.2074
  234MPD1    H5 3612   3.784   3.416   9.282  0.3256 -0.0805 -0.0151
  234MPD1    N1 3613   3.788   3.011   9.047 -0.4288 -0.0129 -0.1232
  234MPD1    H6 3614   3.693   3.048   9.049 -0.6607 -0.6884  0.8757
  234MPD1    H7 3615   3.781   2.911   9.060 -2.1053  0.1867  0.5204
  235MPD1     C 3616   0.947   0.798  10.144 -0.3287  0.0569  0.1224
  235MPD1    C1 3617   0.991   0.847  10.030 -0.2622 -0.5725 -0.4644
  235MPD1    C2 3618   1.074   0.959  10.031 -0.5940  0.3090  0.8586
  235MPD1    C3 3619   1.111   1.017  10.144  0.2160  0.3327 -0.0307
  235MPD1    C4 3620   1.057   0.980  10.266 -0.1979  0.0119  0.3699
  235MPD1    C5 3621   0.988   0.860  10.255 -0.3615 -0.4471  0.0604
  235MPD1     H 3622   1.115   0.995   9.937 -2.7438 -0.2356 -0.2934
  235MPD1    H1 3623   1.087   1.023  10.360  0.4824  0.7065 -0.1605
  235MPD1    H2 3624   0.884   0.709  10.144 -0.6125  0.2580  0.4134
  235MPD1    H3 3625   0.948   0.821  10.348 -1.0688  1.6261  0.6162
  235MPD1     N 3626   1.205   1.126  10.136  0.1864  0.7277  0.2524
  235MPD1    H5 3627   1.234   1.154  10.043  1.2123 -1.0205  0.0567
  235MPD1    N1 3628   0.952   0.786   9.910 -0.8645  0.1272  0.5489
  235MPD1    H6 3629   0.913   0.692   9.911  3.1511 -1.5284 -0.1998
  235MPD1    H7 3630   1.026   0.783   9.841 -0.2106 -0.5509  1.2924
  236MPD1     C 3631   4.552   1.038   9.998  0.8866  0.2233  0.0285
  236MPD1    C1 3632   4.605   1.133   9.911 -0.2265 -0.6150  0.2800
  236MPD1    C2 3633   4.730   1.197   9.943 -0.8347 -0.3516  0.0083
  236MPD1    C3 3634   0.042   1.179  10.070  0.3173  0.4205  0.0189
  236MPD1    C4 3635   4.706   1.102  10.161 -0.0142 -0.3987 -0.7487
  236MPD1    C5 3636   4.591   1.037  10.125 -0.0690  0.0805 -0.3875
  236MPD1     H 3637   0.047   1.252   9.867 -0.6891  0.0736  0.4198
  236MPD1    H1 3638   4.734   1.094  10.266  0.8050 -0.6570 -0.9862
  236MPD1    H2 3639   4.468   0.973   9.973 -0.2940  1.4755  0.7805
  236MPD1    H3 3640   4.547   0.977  10.204  1.1918 -1.3952 -0.8046
  236MPD1     N 3641   0.151   1.250  10.123  0.6453  0.2900  0.4512
  236MPD1    H5 3642   0.172   1.240  10.221 -1.0555  0.1666  0.8149
  236MPD1    N1 3643   4.561   1.139   9.778  0.0330  1.0192 -0.5446
  236MPD1    H6 3644   4.580   1.227   9.730 -1.8715  0.6490 -1.9532
  236MPD1    H7 3645   4.461   1.129   9.766  0.2894  0.5107 -2.2732
  237MPD1     C 3646   0.752   0.073  14.820 -0.4611  0.6761 -0.7110
  237MPD1    C1 3647   0.715   0.033  14.692  0.5827  0.2986 -0.7352
  237MPD1    C2 3648   0.621   4.671  14.682  0.2914  0.1044  0.2350
  237MPD1    C3 3649   0.561   4.623  14.795 -0.7617  0.7505  0.0071
  237MPD1    C4 3650   0.613   4.655  14.923  0.3820  0.2833  0.3909
  237MPD1    C5 3651   0.704   0.016  14.935 -0.2628  0.0900 -0.3606
  237MPD1     H 3652   0.583   4.643  14.584 -0.7359 -1.4882  1.0873
  237MPD1    H1 3653   0.577   4.607  15.014 -2.6041  1.9045  0.0461
  237MPD1    H2 3654   0.817   0.158  14.837 -1.5267  1.3266  0.0874
  237MPD1    H3 3655   0.742   0.051  15.030  0.6616 -2.0652  0.0666
  237MPD1     N 3656   0.454   4.533  14.792  0.4810  0.0596  0.1470
  237MPD1    H5 3657   0.405   4.529  14.881  2.2856  1.6248  1.2187
  237MPD1    N1 3658   0.767   0.092  14.575 -0.8184  0.4629  0.1695
  237MPD1    H6 3659   0.826   0.172  14.598 -1.2242  0.7741  0.1295
  237MPD1    H7 3660   0.824   0.029  14.519 -0.5329 -1.6512  2.8834
  238MPD1     C 3661   2.297   3.454  14.526  0.7695 -0.0996  0.8310
  238MPD1    C1 3662   2.217   3.484  14.629 -0.1251 -0.3549 -0.1976
  238MPD1    C2 3663   2.080   3.472  14.615 -0.3445 -0.5228 -0.2269
  238MPD1    C3 3664   2.023   3.406  14.510  0.0156  0.7111 -0.5022
  238MPD1    C4 3665   2.109   3.364  14.408  0.3124 -0.4941 -0.4552
  238MPD1    C5 3666   2.240   3.390  14.415  0.0144 -0.3779 -0.1247
  238MPD1     H 3667   2.015   3.506  14.695  1.5705 -1.4572  1.7367
  238MPD1    H1 3668   2.066   3.316  14.320  0.2451  1.5978 -1.5774
  238MPD1    H2 3669   2.396   3.498  14.529  0.7294  0.0572 -0.0400
  238MPD1    H3 3670   2.294   3.373  14.323  0.6128 -3.3707  0.7979
  238MPD1     N 3671   1.888   3.372  14.506  0.0802 -0.3733  0.1577
  238MPD1    H5 3672   1.858   3.331  14.418 -1.5828 -1.1524  1.0789
  238MPD1    N1 3673   2.267   3.560  14.735  0.4163 -0.1020  0.1557
  238MPD1    H6 3674   2.360   3.533  14.765  0.2088  0.8729  1.6872
  238MPD1    H7 3675   2.211   3.556  14.820  3.0335  1.0023  1.9240
  239MPD1     C 3676   2.336   3.739  15.062  0.1943  0.1006  0.2373
  239MPD1    C1 3677   2.204   3.783  15.082  0.1940 -0.3674 -0.3615
  239MPD1    C2 3678   2.152   3.870  14.991 -0.3352 -0.0154  0.1465
  239MPD1    C3 3679   2.233   3.935  14.904 -0.2708  0.1665 -0.4893
  239MPD1    C4 3680   2.371   3.906  14.898  0.1046  0.4544 -0.3843
  239MPD1    C5 3681   2.417   3.804  14.970  0.6097  0.0186 -0.1725
  239MPD1     H 3682   2.046   3.889  15.002  0.3748  2.6463  2.3552
  239MPD1    H1 3683   2.438   3.960  14.832 -0.2952  0.3590 -0.8651
  239MPD1    H2 3684   2.378   3.657  15.120  0.1477  0.6152  1.0016
  239MPD1    H3 3685   2.515   3.759  14.964  1.2912  1.3874  0.7156
  239MPD1     N 3686   2.184   4.020  14.808  0.1631  0.6141  0.8196
  239MPD1    H5 3687   2.246   4.077  14.752 -2.7822  0.9728 -2.0711
  239MPD1    N1 3688   2.125   3.703  15.163 -0.1393  0.2394  0.8113
  239MPD1    H6 3689   2.174   3.659  15.240 -1.2124 -0.3489  1.1501
  239MPD1    H7 3690   2.053   3.755  15.211 -0.0973  0.3525  0.7520
  240MPD1     C 3691   1.039   4.414  13.940  0.1622 -0.3015 -0.6486
  240MPD1    C1 3692   0.965   4.315  13.998 -0.1104  0.7724  0.3142
  240MPD1    C2 3693   1.033   4.222  14.072  0.5046 -0.6228 -0.1376
  240MPD1    C3 3694   1.165   4.201  14.058 -0.2695  0.2963  0.7380
  240MPD1    C4 3695   1.244   4.295  13.990 -1.1432  0.1437  0.6156
  240MPD1    C5 3696   1.176   4.404  13.950 -0.4909  0.0566  0.2389
  240MPD1     H 3697   0.972   4.151  14.126 -0.7437 -0.3066 -1.1240
  240MPD1    H1 3698   1.352   4.288  13.997 -0.8723  0.0868 -3.5300
  240MPD1    H2 3699   0.999   4.511  13.914 -0.6534 -0.5583 -0.3550
  240MPD1    H3 3700   1.237   4.477  13.897 -1.4401  0.5821 -0.1220
  240MPD1     N 3701   1.210   4.081  14.119  0.6237 -0.2909 -0.2349
  240MPD1    H5 3702   1.145   4.022  14.171  0.9214  0.9913  1.5733
  240MPD1    N1 3703   0.832   4.340  14.033 -0.3205 -0.0569 -0.2153
  240MPD1    H6 3704   0.778   4.374  13.954 -0.5303  0.0480 -0.0287
  240MPD1    H7 3705   0.790   4.250  14.052 -2.9019  1.3415  0.7942
  241MPD1     C 3706   1.601   3.830  14.935 -0.0007 -0.4714  0.2067
  241MPD1    C1 3707   1.551   3.709  14.888 -0.2348  0.0169  0.3734
  241MPD1    C2 3708   1.518   3.706  14.755  0.3268  0.1817  0.6593
  241MPD1    C3 3709   1.515   3.821  14.682 -0.5384  0.1329 -0.5370
  241MPD1    C4 3710   1.559   3.941  14.734  0.0535  1.6354  0.0456
  241MPD1    C5 3711   1.604   3.942  14.857 -0.1594  0.1041 -0.8722
  241MPD1     H 3712   1.502   3.604  14.720 -0.6914  0.2605  0.8767
  241MPD1    H1 3713   1.572   4.033  14.679  0.0878  1.6718  0.1146
  241MPD1    H2 3714   1.651   3.839  15.031  1.6872 -2.4392 -0.4917
  241MPD1    H3 3715   1.653   4.031  14.895  0.4954 -0.1075 -1.2177
  241MPD1     N 3716   1.474   3.825  14.549  0.4747  0.1145  0.8238
  241MPD1    H5 3717   1.462   3.920  14.515  0.1594 -0.4270 -0.5617
  241MPD1    N1 3718   1.563   3.598  14.972 -0.1526 -0.1092  0.0955
  241MPD1    H6 3719   1.490   3.533  14.943  0.6824 -2.0948  2.5108
  241MPD1    H7 3720   1.551   3.626  15.069  1.4013  4.4476 -1.0211
  242MPD1     C 3721   1.469   3.259  15.357 -0.0279  0.0165  0.3277
  242MPD1    C1 3722   1.358   3.185  15.375  0.2233  0.0365  0.7943
  242MPD1    C2 3723   1.356   3.054  15.325 -0.1975 -0.2793  0.0775
  242MPD1    C3 3724   1.461   3.007  15.243 -0.2698  0.1354  0.3718
  242MPD1    C4 3725   1.570   3.086  15.232  0.0071  0.1455 -0.7931
  242MPD1    C5 3726   1.576   3.213  15.285  0.7560 -0.0188 -0.0993
  242MPD1     H 3727   1.270   2.995  15.356  2.4039 -3.4556  1.1931
  242MPD1    H1 3728   1.652   3.051  15.170  1.4095  3.2529 -0.7247
  242MPD1    H2 3729   1.473   3.362  15.391  0.1604  0.3178 -0.6056
  242MPD1    H3 3730   1.666   3.274  15.276  2.4186 -2.6032 -0.9841
  242MPD1     N 3731   1.470   2.878  15.182  0.4051 -0.1006  0.7923
  242MPD1    H5 3732   1.553   2.856  15.128 -0.2037 -0.5249  0.0267
  242MPD1    N1 3733   1.268   3.218  15.481 -0.3443 -0.6417 -0.2863
  242MPD1    H6 3734   1.247   3.318  15.488  0.5567 -0.4323 -0.4958
  242MPD1    H7 3735   1.182   3.169  15.461  0.4443 -2.9601  1.9719
  243MPD1     C 3736   3.282   0.592  16.801 -0.8173 -0.5246  0.0853
  243MPD1    C1 3737   3.347   0.536  16.697 -0.1679 -0.4417 -0.4695
  243MPD1    C2 3738   3.275   0.516  16.578 -0.2484 -0.0775 -0.4371
  243MPD1    C3 3739   3.147   0.571  16.561 -0.4927  0.2140  0.9116
  243MPD1    C4 3740   3.094   0.632  16.664  0.5000 -0.0522 -0.8469
  243MPD1    C5 3741   3.171   0.658  16.775 -0.8035  0.0063  0.3769
  243MPD1     H 3742   3.315   0.453  16.499 -2.7535 -0.6738 -1.2475
  243MPD1    H1 3743   2.993   0.673  16.663  0.8765  0.8735 -1.0208
  243MPD1    H2 3744   3.330   0.609  16.897 -1.3665  0.6315  0.1661
  243MPD1    H3 3745   3.132   0.712  16.860 -1.0033  0.9200 -0.3040
  243MPD1     N 3746   3.090   0.556  16.435  0.0299 -0.6212 -0.1937
  243MPD1    H5 3747   3.145   0.516  16.359 -0.4952  0.9529 -1.3810
  243MPD1    N1 3748   3.468   0.465  16.727 -0.0729 -0.1362 -0.4717
  243MPD1    H6 3749   3.530   0.455  16.647  0.0792  1.3585 -0.5402
  243MPD1    H7 3750   3.533   0.505  16.795  0.1167  0.2204 -0.8640
  244MPD1     C 3751   3.305   0.079  15.741 -0.2788  0.3513  0.4186
  244MPD1    C1 3752   3.277   0.048  15.871  0.1042 -0.0017 -0.2002
  244MPD1    C2 3753   3.201   0.133  15.945 -0.0709  0.4945 -0.0901
  244MPD1    C3 3754   3.145   0.251  15.903 -0.2555  0.0931  0.2683
  244MPD1    C4 3755   3.182   0.289  15.777  0.0580  0.1436 -0.1582
  244MPD1    C5 3756   3.264   0.203  15.701 -0.0570  0.2315  0.0063
  244MPD1     H 3757   3.172   0.099  16.044  1.1400 -0.9826 -0.2476
  244MPD1    H1 3758   3.167   0.392  15.747  1.8044 -0.0288 -1.6452
  244MPD1    H2 3759   3.368   0.021  15.675 -0.8254 -0.4341  0.5980
  244MPD1    H3 3760   3.297   0.239  15.604  0.4353  0.4180  0.2427
  244MPD1     N 3761   3.060   0.324  15.990  0.1999  0.1304  0.3459
  244MPD1    H5 3762   3.040   0.286  16.082  3.7974 -0.6581  0.8151
  244MPD1    N1 3763   3.314   4.659  15.915  0.3848 -0.1215  0.4056
  244MPD1    H6 3764   3.391   4.627  15.856 -0.4290  1.6921 -1.6417
  244MPD1    H7 3765   3.310   4.649  16.016 -0.8631 -1.2443  0.2471
  245MPD1     C 3766   0.271   1.398  13.002  0.3997 -0.4180 -0.5807
  245MPD1    C1 3767   0.380   1.433  13.083  0.3691 -0.5059  0.2328
  245MPD1    C2 3768   0.360   1.534  13.173  0.3949  0.1077  0.7220
  245MPD1    C3 3769   0.233   1.575  13.209 -0.1598  0.3698 -0.3984
  245MPD1    C4 3770   0.126   1.532  13.134 -0.4975 -0.5512  0.0205
  245MPD1    C5 3771   0.150   1.444  13.034  0.8557 -0.2160  0.0555
  245MPD1     H 3772   0.446   1.575  13.224  1.8615 -1.4566 -0.5095
  245MPD1    H1 3773   0.023   1.562  13.147 -0.6135 -0.8928 -0.0934
  245MPD1    H2 3774   0.271   1.332  12.916 -1.7014  0.8785 -1.5609
  245MPD1    H3 3775   0.065   1.407  12.977 -0.5571  1.4691  1.1026
  245MPD1     N 3776   0.225   1.683  13.306  0.4104 -0.3427 -0.2716
  245MPD1    H5 3777   0.312   1.709  13.353  0.1065 -1.3591  0.8258
  245MPD1    N1 3778   0.514   1.388  13.061 -1.1916  0.5702  0.2414
  245MPD1    H6 3779   0.571   1.390  13.146 -0.8583  0.9880  0.0122
  245MPD1    H7 3780   0.515   1.296  13.017  3.3601  0.5118  0.4185
  246MPD1     C 3781   4.527   4.052   9.110  0.2672 -0.6911 -0.4596
  246MPD1    C1 3782   4.582   4.067   9.235 -0.1936 -0.0550  0.4297
  246MPD1    C2 3783   4.621   3.964   9.311  0.3127  0.2966  0.5866
  246MPD1    C3 3784   4.593   3.836   9.268  0.4798 -1.2866  0.7837
  246MPD1    C4 3785   4.510   3.819   9.159  0.4181 -0.5742  0.4551
  246MPD1    C5 3786   4.487   3.928   9.075  0.1568 -0.5585  0.0341
  246MPD1     H 3787   4.686   3.973   9.398  0.6939  2.5031  0.0712
  246MPD1    H1 3788   4.485   3.719   9.127 -0.0709  0.5116 -2.5598
  246MPD1    H2 3789   4.493   4.133   9.046 -0.1310 -2.8106 -2.9361
  246MPD1    H3 3790   4.441   3.917   8.977 -1.7101  1.0688  0.7259
  246MPD1     N 3791   4.634   3.731   9.351 -0.3735  0.2659  0.4799
  246MPD1    H5 3792   4.689   3.752   9.434 -0.7739  1.4552  0.4548
  246MPD1    N1 3793   4.628   4.196   9.266  0.1552 -0.5299  0.0192
  246MPD1    H6 3794   4.554   4.257   9.231 -0.3386 -0.5097  1.1144
  246MPD1    H7 3795   4.621   4.211   9.366  5.2313 -0.4224  0.3405
  247MPD1     C 3796   3.935   1.911  16.853  1.0708 -1.0050 -0.9739
  247MPD1    C1 3797   4.019   1.957  16.745 -0.3040  0.4132 -0.3404
  247MPD1    C2 3798   4.057   1.869  16.643 -0.1726 -0.5851 -0.1315
  247MPD1    C3 3799   4.009   1.741  16.648  0.4130  0.6287 -0.3523
  247MPD1    C4 3800   3.943   1.696  16.759 -0.1580 -0.1530  0.0887
  247MPD1    C5 3801   3.905   1.778  16.863 -0.1013 -0.2268  0.2523
  247MPD1     H 3802   4.116   1.912  16.563 -1.5757 -0.2958 -1.0172
  247MPD1    H1 3803   3.927   1.591  16.782  0.7380 -0.4269 -0.5435
  247MPD1    H2 3804   3.891   1.973  16.931  0.0596 -2.7088 -0.1837
  247MPD1    H3 3805   3.854   1.740  16.950 -1.2065 -0.3816 -0.4637
  247MPD1     N 3806   4.033   1.642  16.543 -0.1486 -0.1201 -0.5814
  247MPD1    H5 3807   4.006   1.544  16.545 -0.3746 -0.0838 -1.4500
  247MPD1    N1 3808   4.040   2.095  16.731  0.2046 -0.1071  0.0662
  247MPD1    H6 3809   4.126   2.118  16.682  0.9235 -2.1214  0.3649
  247MPD1    H7 3810   4.038   2.149  16.817 -0.3093 -1.0223  0.6379
  248MPD1     C 3811   4.440   0.210  17.643 -0.9323 -0.2249  0.0288
  248MPD1    C1 3812   4.337   0.301  17.621 -0.3970  0.2211 -0.1793
  248MPD1    C2 3813   4.376   0.435  17.634 -0.6239  0.1549  0.9388
  248MPD1    C3 3814   4.506   0.466  17.664  0.0914 -0.5080 -0.0932
  248MPD1    C4 3815   4.606   0.380  17.698 -0.5101 -0.2214  0.1055
  248MPD1    C5 3816   4.565   0.247  17.680  0.4852 -0.3999  0.7046
  248MPD1     H 3817   4.312   0.517  17.604 -0.1704  1.2410  2.9516
  248MPD1    H1 3818   4.704   0.406  17.739  0.1075 -0.9297 -0.9271
  248MPD1    H2 3819   4.420   0.105  17.625 -1.6845 -0.0856  0.0525
  248MPD1    H3 3820   4.643   0.176  17.708 -0.1514 -1.3940 -0.0645
  248MPD1     N 3821   4.533   0.606  17.671 -0.0435 -0.3189  0.4153
  248MPD1    H5 3822   4.456   0.673  17.666  0.5047  0.2747  0.0289
  248MPD1    N1 3823   4.212   0.265  17.563 -0.3303  0.4312  0.0012
  248MPD1    H6 3824   4.136   0.328  17.589  0.7212  1.1471  1.3280
  248MPD1    H7 3825   4.178   0.173  17.588 -1.2161  0.9798  0.8237
  249MPD1     C 3826   0.932   4.490  10.318  0.4225  0.5856 -0.0006
  249MPD1    C1 3827   1.010   4.429  10.222 -0.0411  0.2684 -0.5873
  249MPD1    C2 3828   1.116   4.497  10.157  0.1977  0.1746 -0.0767
  249MPD1    C3 3829   1.138   4.632  10.180  0.0183  0.3592 -0.0846
  249MPD1    C4 3830   1.050   4.694  10.267  0.3731  0.0006  0.3314
  249MPD1    C5 3831   0.957   4.623  10.339 -0.6364  0.1995  0.1155
  249MPD1     H 3832   1.178   4.441  10.088  0.7530  1.2341 -0.4385
  249MPD1    H1 3833   1.063   0.058  10.300 -0.0343 -0.1820  1.0754
  249MPD1    H2 3834   0.851   4.438  10.368  0.4950  0.3580 -0.1199
  249MPD1    H3 3835   0.887   4.672  10.406 -0.5742 -1.0054  1.0612
  249MPD1     N 3836   1.236   4.700  10.105  0.0364  0.4552  0.4085
  249MPD1    H5 3837   1.279   4.654  10.026 -0.9442 -0.0008  0.1435
  249MPD1    N1 3838   0.990   4.290  10.196 -0.2229 -0.5939 -0.2777
  249MPD1    H6 3839   0.890   4.271  10.198 -0.3605 -0.0521 -1.5178
  249MPD1    H7 3840   1.016   4.268  10.100 -1.4312 -0.9899 -0.5029
  250MPD2     C 3841   2.704   0.679  12.454  0.2060 -0.0598 -0.3937
  250MPD2    C1 3842   2.644   0.717  12.575  0.0824 -0.6201  0.1832
  250MPD2    C2 3843   2.519   0.659  12.610 -0.9520  0.0602  0.0146
  250MPD2    C3 3844   2.459   0.584  12.512 -0.4073  0.3623  0.1139
  250MPD2    C4 3845   2.510   0.567  12.387  0.2973  0.7518 -0.5294
  250MPD2    C5 3846   2.641   0.592  12.365 -0.8461 -0.2593  0.0822
  250MPD2     H 3847   2.474   0.693  12.703 -0.7300 -0.2684  0.2449
  250MPD2    H1 3848   2.459   0.501  12.318  1.2629 -1.1498  0.5892
  250MPD2    H2 3849   2.801   0.718  12.427  1.0541 -0.9608  1.3438
  250MPD2    H3 3850   2.687   0.574  12.269  0.6536 -1.3195  1.0086
  250MPD2     N 3851   2.333   0.517  12.529  0.1690 -0.3969  0.0030
  250MPD2    H5 3852   2.291   0.468  12.450  1.2590  2.1198 -2.1330
  250MPD2    N1 3853   2.715   0.819  12.646 -0.0363  0.5794 -0.5937
  250MPD2    H7 3854   2.806   0.845  12.611  0.2282  0.3204 -0.1010
  251TMC3    C1 3855   2.789   0.944  12.830 -0.0821 -0.2954 -0.2146
  251TMC3    C2 3856   2.757   1.048  12.920  0.1075 -0.1072 -0.1459
  251TMC3    C3 3857   2.864   1.133  12.948 -0.9466  0.5836 -1.1136
  251TMC3    C4 3858   2.918   0.919  12.782  0.3494  0.2321 -0.6225
  251TMC3    C5 3859   3.018   1.001  12.825 -0.7117 -0.8129  0.0419
  251TMC3    C6 3860   2.994   1.112  12.905 -0.4745  0.2714 -0.4592
  251TMC3     C 3861   2.685   0.861  12.775 -0.4328  0.9006  0.8574
  251TMC3     O 3862   2.582   0.850  12.839 -0.5668  0.1737 -0.0140
  251TMC3     H 3863   2.654   1.077  12.937 -0.0031 -1.1829  1.0974
  251TMC3    H1 3864   2.939   0.841  12.709  1.9520  0.6980 -0.6518
  251TMC3    H2 3865   3.074   1.162  12.958  1.1692 -2.3903 -0.4467
  251TMC3    C7 3866   3.151   0.941  12.847 -0.0450  0.1233  0.6007
  251TMC3    C8 3867   2.849   1.233  13.053  0.2596 -0.8647 -0.6168
  251TMC3    O1 3868   3.160   0.818  12.848  0.3511 -0.2125  0.4192
  251TMC3    O2 3869   2.759   1.218  13.132 -0.3972 -0.1382 -0.5804
  252TMC3    C1 3870   3.450   2.236   9.418 -0.0683 -0.0755  0.3352
  252TMC3    C2 3871   3.546   2.162   9.487 -0.5545 -0.3376 -0.2719
  252TMC3    C3 3872   3.491   2.061   9.570  0.8055  0.0256 -0.0026
  252TMC3    C4 3873   3.322   2.201   9.396  0.7412 -0.0159 -0.2294
  252TMC3    C5 3874   3.274   2.101   9.479 -0.5514 -0.4080 -0.4914
  252TMC3    C6 3875   3.362   2.025   9.562 -0.0738  0.3170 -0.0296
  252TMC3     C 3876   3.485   2.370   9.379  0.2352 -0.6838 -0.0288
  252TMC3     O 3877   3.441   2.415   9.275  0.1983  0.1208  0.0212
  252TMC3     H 3878   3.652   2.185   9.485 -0.6082 -0.0750 -0.0669
  252TMC3    H1 3879   3.263   2.250   9.319  1.6106 -1.4254 -1.7696
  252TMC3    H2 3880   3.314   1.952   9.625  3.4070 -1.3551  0.6606
  252TMC3    C7 3881   3.137   2.069   9.450  0.4765  0.3652  0.9165
  252TMC3    C8 3882   3.561   2.010   9.686  0.8578  0.1595  0.4149
  252TMC3    O1 3883   3.070   2.160   9.406 -0.2732  0.0256  0.1655
  252TMC3    O2 3884   3.490   1.960   9.776  0.0565 -0.0108  0.1901
  253MPD2     C 3885   4.141   4.516  14.660 -0.3238 -0.1307 -0.8875
  253MPD2    C1 3886   4.006   4.538  14.684 -0.2626 -0.2546 -0.3890
  253MPD2    C2 3887   3.964   4.584  14.804 -0.7488 -0.5052  0.2589
  253MPD2    C3 3888   4.057   4.628  14.901 -0.0538 -0.0865  0.4583
  253MPD2    C4 3889   4.188   4.606  14.873 -0.2714 -0.6866  0.9227
  253MPD2    C5 3890   4.225   4.548  14.752  0.2984  0.3251 -0.0160
  253MPD2     H 3891   3.861   4.614  14.815 -0.5908 -0.5540  1.8753
  253MPD2    H1 3892   4.267   4.623  14.945  0.2794  1.0362 -0.0990
  253MPD2    H2 3893   4.178   4.504  14.559  1.3932 -0.0665 -0.2619
  253MPD2    H3 3894   4.331   4.531  14.740  0.0936 -0.1739 -1.0944
  253MPD2     N 3895   4.017   4.670  15.030 -0.4724  0.4842 -0.1633
  253MPD2    H5 3896   4.092   4.688  15.097  0.5286 -3.3094 -0.2472
  253MPD2    N1 3897   3.905   4.537  14.583  0.3921 -0.2226 -0.2708
  253MPD2    H7 3898   3.813   4.564  14.615  0.7521  0.0504  0.5484
  254TMC3    C1 3899   3.875   4.713  15.213 -0.0416  0.0218 -1.0641
  254TMC3    C2 3900   3.746   0.003  15.244  0.4003  0.2979  0.2208
  254TMC3    C3 3901   3.690   4.702  15.363 -0.0021  0.1417  0.3250
  254TMC3    C4 3902   3.962   4.662  15.303 -0.5069 -0.2398 -0.3904
  254TMC3    C5 3903   3.901   4.616  15.419 -0.2924 -0.9969 -0.0382
  254TMC3    C6 3904   3.769   4.631  15.449  0.0079  0.0943 -0.1061
  254TMC3     C 3905   3.889   4.696  15.073 -0.7085  0.4469 -0.2557
  254TMC3     O 3906   3.794   4.727  15.003  0.5923  0.1367  0.2697
  254TMC3     H 3907   3.668   0.029  15.173  0.1614  0.9627  0.7344
  254TMC3    H1 3908   4.060   4.628  15.273 -0.1978  0.1742  0.1490
  254TMC3    H2 3909   3.732   4.583  15.539  1.8863 -0.2871  0.4491
  254TMC3    C7 3910   3.982   4.575  15.529 -0.4414  0.5247 -0.4490
  254TMC3    C8 3911   3.602   0.056  15.433 -0.5779 -0.0276 -0.2905
  254TMC3    O1 3912   3.932   4.513  15.621  0.4534  0.5069 -0.3965
  254TMC3    O2 3913   3.564   0.017  15.542  0.3309  0.4333  0.1306
  255MPD2     C 3914   2.138   2.731  10.576  0.1041 -0.5439 -0.0479
  255MPD2    C1 3915   2.232   2.833  10.569 -0.3070 -0.4585  0.4336
  255MPD2    C2 3916   2.344   2.817  10.492 -0.3260 -0.6890  0.1226
  255MPD2    C3 3917   2.360   2.699  10.415 -0.1119  0.4412  0.2490
  255MPD2    C4 3918   2.272   2.598  10.429  0.4649 -0.2027  0.7218
  255MPD2    C5 3919   2.160   2.615  10.502 -0.3188 -0.3620  0.0997
  255MPD2     H 3920   2.425   2.889  10.486 -0.5996 -0.1680  2.6403
  255MPD2    H1 3921   2.296   2.504  10.381  0.9663  0.7681 -0.9424
  255MPD2    H2 3922   2.050   2.744  10.637 -0.2561  1.2980 -0.9749
  255MPD2    H3 3923   2.091   2.532  10.497  1.0042 -1.2501 -3.8438
  255MPD2     N 3924   2.468   2.704  10.325 -0.1016  0.2781 -0.7022
  255MPD2    H5 3925   2.512   2.795  10.318  0.5326 -0.0751 -1.2251
  255MPD2    N1 3926   2.209   2.948  10.650 -0.1714 -0.4495  0.7013
  255MPD2    H7 3927   2.125   2.949  10.707 -0.3609  0.0400  0.4079
  256TMC3    C1 3928   2.252   3.173  10.729  0.5841 -0.2393 -0.6103
  256TMC3    C2 3929   2.347   3.269  10.733 -0.7145  0.1831 -0.1721
  256TMC3    C3 3930   2.325   3.401  10.693 -0.4259  0.1649  0.5014
  256TMC3    C4 3931   2.126   3.208  10.692 -0.0925  0.1479 -0.2806
  256TMC3    C5 3932   2.107   3.333  10.642 -0.0222 -0.5246 -0.4217
  256TMC3    C6 3933   2.206   3.426  10.633 -0.1878 -0.8782  0.5435
  256TMC3     C 3934   2.300   3.047  10.669  0.5268 -0.6296 -0.1177
  256TMC3     O 3935   2.424   3.051  10.661 -0.0923 -0.1096 -0.0631
  256TMC3     H 3936   2.441   3.248  10.783 -1.1654  2.5042  1.6593
  256TMC3    H1 3937   2.048   3.134  10.696  1.0777 -1.0696 -0.0574
  256TMC3    H2 3938   2.187   3.511  10.569 -1.7176  0.6527  3.0052
  256TMC3    C7 3939   1.983   3.346  10.569 -0.0063  0.0456  0.7163
  256TMC3    C8 3940   2.448   3.464  10.644  0.3885 -0.2559  0.2064
  256TMC3    O1 3941   1.947   3.255  10.499 -0.1576  0.2272 -0.6097
  256TMC3    O2 3942   2.555   3.402  10.640  0.2534  0.5170  0.3239
  257MPD2     C 3943   1.258   4.494  13.510 -0.2799 -0.1649  0.2608
  257MPD2    C1 3944   1.366   4.539  13.439  0.1554 -0.1432 -0.4581
  257MPD2    C2 3945   1.496   4.495  13.477 -0.0263 -0.6059  0.1001
  257MPD2    C3 3946   1.516   4.401  13.582 -0.1747  0.2913  0.8575
  257MPD2    C4 3947   1.406   4.371  13.654 -0.1527  0.1421  0.5477
  257MPD2    C5 3948   1.286   4.417  13.615  0.2531 -0.0032  0.1444
  257MPD2     H 3949   1.583   4.524  13.419 -0.6672  1.3643  0.1379
  257MPD2    H1 3950   1.414   4.318  13.748 -1.1106  0.2697  0.7080
  257MPD2    H2 3951   1.155   4.527  13.500 -0.2939  0.3138  1.8825
  257MPD2    H3 3952   1.203   4.389  13.680  0.8629 -1.6345  0.2316
  257MPD2     N 3953   1.642   4.350  13.606 -0.3165 -0.5495  0.6440
  257MPD2    H5 3954   1.719   4.367  13.542 -0.7750  1.7727  0.6917
  257MPD2    N1 3955   1.342   4.628  13.341  0.3230  0.0983 -0.6259
  257MPD2    H7 3956   1.249   4.620  13.300  1.1181 -0.1178 -2.3894
  258TMC3    C1 3957   1.797   4.174  13.673  0.0931  0.0464  0.1145
  258TMC3    C2 3958   1.818   4.146  13.543  0.3013  0.1122  0.3097
  258TMC3    C3 3959   1.938   4.073  13.525 -0.2357 -0.3297  0.0912
  258TMC3    C4 3960   1.851   4.117  13.784 -1.0079  0.4236  0.1055
  258TMC3    C5 3961   1.969   4.040  13.756  0.3409 -0.3207 -0.0251
  258TMC3    C6 3962   2.018   4.030  13.628  0.7364 -0.0910 -0.9623
  258TMC3     C 3963   1.674   4.251  13.701  0.3986  0.6404  0.4829
  258TMC3     O 3964   1.622   4.244  13.809  0.3592  0.1897 -0.1609
  258TMC3     H 3965   1.755   4.177  13.461  1.3096 -0.8697 -0.8314
  258TMC3    H1 3966   1.804   4.118  13.882 -0.7093 -1.3297  0.2596
  258TMC3    H2 3967   2.087   3.948  13.611 -0.2896 -1.1875  0.1577
  258TMC3    C7 3968   1.982   3.935  13.846  0.1715 -0.0761 -0.3497
  258TMC3    C8 3969   1.980   4.044  13.391 -0.2452 -0.6160 -0.4616
  258TMC3    O1 3970   1.884   3.908  13.916  0.7231 -0.1034  0.1666
  258TMC3    O2 3971   2.101   4.044  13.380  0.2286 -0.2397  0.4530
  259MPD2     C 3972   0.976   1.569   0.639  0.2381  0.9129 -0.6897
  259MPD2    C1 3973   1.003   1.438   0.623 -0.4455 -0.2781 -0.5575
  259MPD2    C2 3974   0.980   1.386   0.499 -0.6116  0.3198 -0.0776
  259MPD2    C3 3975   0.942   1.468   0.392  0.6425  0.5495  0.0017
  259MPD2    C4 3976   0.921   1.601   0.418 -0.1261 -0.4967 -0.2102
  259MPD2    C5 3977   0.936   1.650   0.540  0.0717 -0.4500  0.3831
  259MPD2     H 3978   0.991   1.280   0.478 -2.3058  0.1753 -0.2681
  259MPD2    H1 3979   0.887   1.676   0.347  1.4248 -1.2782 -1.7579
  259MPD2    H2 3980   0.997   1.623   0.731 -0.0346  0.4544 -0.3552
  259MPD2    H3 3981   0.925   1.756   0.559 -0.7671 -0.4081 -0.3032
  259MPD2     N 3982   0.914   1.416   0.260  0.1159 -0.3826  0.0489
  259MPD2    H5 3983   0.926   1.316   0.248  2.8563 -0.0844  0.3780
  259MPD2    N1 3984   1.061   1.366   0.726 -0.3670  0.4029 -0.5668
  259MPD2    H7 3985   1.069   1.420   0.812  1.1724  2.7661 -2.1989
  260TMC3    C1 3986   0.866   1.414   0.031  0.5204  0.8476 -1.1487
  260TMC3    C2 3987   0.925   1.450  17.660  0.0166  0.5009 -0.3268
  260TMC3    C3 3988   0.953   1.361  17.563  0.3867 -0.0135  0.5156
  260TMC3    C4 3989   0.833   1.282   0.048  0.3531  0.4194  0.6546
  260TMC3    C5 3990   0.860   1.192  17.694  0.5069  0.2963 -0.3388
  260TMC3    C6 3991   0.924   1.231  17.577 -0.0966 -0.0150 -0.4672
  260TMC3     C 3992   0.893   1.491   0.146  0.3954  0.1085 -0.3184
  260TMC3     O 3993   0.881   1.609   0.130  0.1267 -0.3847 -0.1038
  260TMC3     H 3994   0.973   1.545  17.640 -0.3209  0.3475 -1.9099
  260TMC3    H1 3995   0.788   1.244   0.139 -0.6391  1.2747  0.5207
  260TMC3    H2 3996   0.926   1.170  17.488 -1.0969 -1.3867  0.4580
  260TMC3    C7 3997   0.854   1.051  17.700 -1.0031 -0.1959 -0.4986
  260TMC3    C8 3998   1.058   1.392  17.471 -0.6099 -0.2324  0.1589
  260TMC3    O1 3999   0.931   0.993  17.631  0.6395 -0.7959  0.8403
  260TMC3    O2 4000   1.059   1.502  17.422  0.1698 -0.6844 -0.3561
  261MPD2     C 4001   1.911   0.160  12.103 -0.0447  1.0024 -0.3148
  261MPD2    C1 4002   2.001   0.263  12.135  0.9281  0.4144 -0.3211
  261MPD2    C2 4003   2.057   0.336  12.032  0.0723  0.0464 -0.7866
  261MPD2    C3 4004   2.029   0.317  11.902 -0.6392 -0.3441 -0.2338
  261MPD2    C4 4005   1.952   0.209  11.864  0.1231 -0.1423 -0.0967
  261MPD2    C5 4006   1.889   0.140  11.967  0.3348  0.5881  0.6765
  261MPD2     H 4007   2.124   0.418  12.055  1.2252 -1.2837  0.6413
  261MPD2    H1 4008   1.908   0.188  11.767  2.0795 -1.0369 -0.7950
  261MPD2    H2 4009   1.849   0.111  12.176  1.7339 -0.3541  0.2984
  261MPD2    H3 4010   1.835   0.050  11.942 -0.4241  1.1375  0.3387
  261MPD2     N 4011   2.095   0.399  11.806 -0.1150 -0.0618  0.5516
  261MPD2    H5 4012   2.169   0.460  11.841 -0.1315  0.0805  0.3363
  261MPD2    N1 4013   2.029   0.293  12.270  0.5242  0.3052 -0.7888
  261MPD2    H7 4014   2.083   0.377  12.291  1.5301 -0.6228  0.3598
  262TMC3    C1 4015   2.181   0.468  11.595 -0.4280  0.5574  0.3477
  262TMC3    C2 4016   2.145   0.555  11.494  0.3555  0.6707 -0.5986
  262TMC3    C3 4017   2.244   0.637  11.433  0.4482  0.3065  0.2545
  262TMC3    C4 4018   2.312   0.447  11.621 -0.1170 -0.1110  0.2810
  262TMC3    C5 4019   2.405   0.528  11.564  0.1343  0.2623 -0.4537
  262TMC3    C6 4020   2.375   0.615  11.468 -0.3219  0.7801  0.4117
  262TMC3     C 4021   2.071   0.402  11.666  0.1323 -0.3365 -0.6890
  262TMC3     O 4022   1.976   0.358  11.606  0.5083 -0.1970  0.7337
  262TMC3     H 4023   2.043   0.558  11.457  0.3072  1.2483 -0.4197
  262TMC3    H1 4024   2.342   0.383  11.703  0.2998 -0.0116  0.2090
  262TMC3    H2 4025   2.453   0.672  11.419 -1.5527  1.6409 -0.5562
  262TMC3    C7 4026   2.549   0.510  11.612  0.5194  0.4545  0.0875
  262TMC3    C8 4027   2.209   0.777  11.404 -1.0428 -0.2202 -0.1082
  262TMC3    O1 4028   2.572   0.403  11.669 -0.2876  0.0662  0.5214
  262TMC3    O2 4029   2.298   0.843  11.351  0.6286 -0.3503  0.6009
  263MPD2     C 4030   3.305   4.219  11.399 -0.4456 -0.3403 -0.1573
  263MPD2    C1 4031   3.392   4.324  11.392 -0.6273 -0.1063 -0.2583
  263MPD2    C2 4032   3.342   4.439  11.334  0.0228  0.3431  0.4769
  263MPD2    C3 4033   3.218   4.441  11.269  0.2406  0.0927 -0.6081
  263MPD2    C4 4034   3.142   4.329  11.278  0.1126 -0.3459 -0.9557
  263MPD2    C5 4035   3.177   4.216  11.349  0.1448 -0.1551 -0.9995
  263MPD2     H 4036   3.411   4.522  11.327 -0.2047  0.7310  2.7731
  263MPD2    H1 4037   3.045   4.320  11.229 -0.2272  0.0105 -0.3475
  263MPD2    H2 4038   3.346   4.126  11.436 -3.9974 -2.9832 -2.9058
  263MPD2    H3 4039   3.122   4.123  11.339 -0.7168  0.5980 -3.2482
  263MPD2     N 4040   3.174   4.553  11.194  0.1568  0.2143  0.0701
  263MPD2    H5 4041   3.243   4.625  11.179  1.4255 -1.1938 -0.8771
  263MPD2    N1 4042   3.529   4.307  11.432  0.5730  0.7600  0.6976
  263MPD2    H7 4043   3.544   4.220  11.482  0.6301  0.4189  0.0865
  264TMC3    C1 4044   3.036   4.683  11.047 -0.2521  0.0485  1.0882
  264TMC3    C2 4045   3.080   0.060  11.108 -0.1896 -0.1607 -0.1600
  264TMC3    C3 4046   3.075   0.178  11.036  0.4877 -0.5765 -0.0611
  264TMC3    C4 4047   2.993   4.678  10.917  0.1192 -0.0225  0.2176
  264TMC3    C5 4048   3.001   0.057  10.848  0.5908  0.1144  0.0704
  264TMC3    C6 4049   3.037   0.177  10.904 -0.2349 -0.1836 -0.1496
  264TMC3     C 4050   3.055   4.554  11.114 -0.1805 -0.1824 -0.1394
  264TMC3     O 4051   2.982   4.461  11.077 -0.1737  0.3836  0.0678
  264TMC3     H 4052   3.127   0.059  11.206 -1.2206 -1.5682  0.3222
  264TMC3    H1 4053   2.975   4.579  10.875  0.0843 -0.4611  1.2771
  264TMC3    H2 4054   3.019   0.277  10.867  0.7995  0.7486  1.8534
  264TMC3    C7 4055   3.018   0.059  10.707  0.3395  0.1734 -0.8498
  264TMC3    C8 4056   3.139   0.300  11.090  0.0099 -0.1581 -0.1810
  264TMC3    O1 4057   3.081   0.156  10.668 -0.0669 -1.1968  0.1670
  264TMC3    O2 4058   3.189   0.380  11.016  0.9763 -0.4157  0.3183
  265MPD2     C 4059   0.325   4.321  15.200  0.5684  0.4449  0.0922
  265MPD2    C1 4060   0.441   4.355  15.272  0.6944  0.1618 -0.2274
  265MPD2    C2 4061   0.567   4.338  15.211 -0.2002  0.4298 -0.7251
  265MPD2    C3 4062   0.576   4.277  15.086  0.0111  0.9970 -0.7701
  265MPD2    C4 4063   0.459   4.232  15.024 -0.6940 -0.1813 -0.2682
  265MPD2    C5 4064   0.338   4.254  15.081 -0.3035  0.3342  0.2035
  265MPD2     H 4065   0.662   4.366  15.254 -0.1699  1.7672 -1.6730
  265MPD2    H1 4066   0.466   4.168  14.937 -3.0088 -0.8048  0.0068
  265MPD2    H2 4067   0.228   4.334  15.246  1.3119  4.0116  0.6854
  265MPD2    H3 4068   0.256   4.205  15.029 -0.1014  0.7426 -0.5080
  265MPD2     N 4069   0.694   4.235  15.021 -0.2221 -0.0757 -0.3360
  265MPD2    H5 4070   0.691   4.173  14.941  0.2807 -0.2728 -0.1981
  265MPD2    N1 4071   0.416   4.408  15.403  0.1547 -0.2611  0.0850
  265MPD2    H7 4072   0.323   4.395  15.443  1.6857 -1.9313  3.0894
  266TMC3    C1 4073   0.456   4.535  15.595  0.4114 -0.0120 -0.1407
  266TMC3    C2 4074   0.538   4.549  15.708 -0.4626 -0.7622  0.0113
  266TMC3    C3 4075   0.521   4.650  15.804 -0.0277 -1.4504 -0.5670
  266TMC3    C4 4076   0.348   4.616  15.581  0.2330  0.3420  0.4046
  266TMC3    C5 4077   0.331   4.714  15.685  0.4545 -0.2404 -0.3823
  266TMC3    C6 4078   0.416   0.002  15.790 -0.4551 -0.4521 -0.0692
  266TMC3     C 4079   0.508   4.480  15.476  0.0134 -0.1103 -0.4841
  266TMC3     O 4080   0.630   4.486  15.457 -0.3478 -0.0665  0.6795
  266TMC3     H 4081   0.625   4.486  15.717  0.5561  0.6803  0.2649
  266TMC3    H1 4082   0.280   4.602  15.498  1.6177 -1.2793 -0.4551
  266TMC3    H2 4083   0.399   0.065  15.876 -2.1764  0.2348 -0.9275
  266TMC3    C7 4084   0.212   0.056  15.680  0.7526  0.2244 -0.5498
  266TMC3    C8 4085   0.604   4.657  15.925 -0.7222  0.4531 -0.4330
  266TMC3    O1 4086   0.110   0.017  15.624  0.0673 -0.5806 -0.9520
  266TMC3    O2 4087   0.667   4.553  15.948 -0.1173  0.2947 -0.2413
  267MPD2     C 4088   2.861   2.262   0.698 -0.1226  0.4735  0.0322
  267MPD2    C1 4089   2.910   2.242   0.572 -0.0097 -0.0033  0.0216
  267MPD2    C2 4090   2.867   2.326   0.471  1.1551  0.7988 -0.0014
  267MPD2    C3 4091   2.769   2.424   0.499  0.1214  0.0189 -0.1343
  267MPD2    C4 4092   2.726   2.444   0.617 -0.2322  0.4062 -0.0612
  267MPD2    C5 4093   2.769   2.359   0.713 -0.1737  0.7696  0.4967
  267MPD2     H 4094   2.908   2.302   0.374 -0.1465  0.8626 -0.5650
  267MPD2    H1 4095   2.656   2.518   0.654  1.0892  1.1113  0.9999
  267MPD2    H2 4096   2.903   2.200   0.777  2.5467  0.6962 -1.2203
  267MPD2    H3 4097   2.730   2.374   0.813 -0.7837  1.2311  0.1871
  267MPD2     N 4098   2.704   2.496   0.400 -0.2871  0.5912  0.5749
  267MPD2    H5 4099   2.658   2.578   0.438 -0.7013  0.4038  0.4757
  267MPD2    N1 4100   3.017   2.150   0.561  0.2383 -0.2160  0.8062
  267MPD2    H7 4101   3.052   2.114   0.649  0.2070 -0.4185  0.7360
  268TMC3    C1 4102   3.200   2.031   0.472 -0.4762  0.1457  0.1571
  268TMC3    C2 4103   3.290   2.018   0.372 -0.1091 -0.0043 -0.6848
  268TMC3    C3 4104   3.388   1.926   0.396  0.0231 -0.5765 -0.3996
  268TMC3    C4 4105   3.201   1.949   0.585  0.3390  0.0425 -0.4502
  268TMC3    C5 4106   3.304   1.860   0.596 -0.5858  0.0338 -0.1182
  268TMC3    C6 4107   3.404   1.852   0.506 -0.1261  0.2539 -0.3745
  268TMC3     C 4108   3.090   2.118   0.447 -0.3156 -0.3766 -0.4247
  268TMC3     O 4109   3.070   2.150   0.331 -0.0139  0.0731  0.2352
  268TMC3     H 4110   3.291   2.082   0.285 -2.1186  0.3783 -0.4312
  268TMC3    H1 4111   3.127   1.956   0.664  0.1727 -3.2920 -0.3165
  268TMC3    H2 4112   3.492   1.790   0.512  0.1205  0.7865  1.5048
  268TMC3    C7 4113   3.313   1.772   0.708 -0.4306  0.0680 -0.1898
  268TMC3    C8 4114   3.498   1.908   0.297  0.2892  0.0852 -0.8235
  268TMC3    O1 4115   3.421   1.721   0.732 -0.3763 -0.7553 -0.3478
  268TMC3    O2 4116   3.598   1.844   0.325  0.2760  0.9086  0.0426
  269MPD2     C 4117   3.179   0.472  15.025  0.3053  0.0392 -0.0974
  269MPD2    C1 4118   3.127   0.487  15.157 -0.5733 -0.3576 -0.2127
  269MPD2    C2 4119   3.101   0.612  15.207 -0.0741 -0.0458 -0.4820
  269MPD2    C3 4120   3.129   0.726  15.130  0.1442  0.0618  0.1050
  269MPD2    C4 4121   3.176   0.708  15.001  0.0806 -0.0115  0.2970
  269MPD2    C5 4122   3.198   0.584  14.945 -0.5495  0.2001  0.1022
  269MPD2     H 4123   3.058   0.634  15.304  1.8029  0.3822  0.2601
  269MPD2    H1 4124   3.186   0.789  14.930 -3.8984 -1.0396 -1.4526
  269MPD2    H2 4125   3.209   0.376  14.984 -1.6559  0.5133 -2.6221
  269MPD2    H3 4126   3.238   0.571  14.845 -0.6197 -2.4529  0.4236
  269MPD2     N 4127   3.095   0.851  15.189  0.7331  0.0092  0.3867
  269MPD2    H5 4128   3.074   0.846  15.288  0.2763 -3.3305  0.1291
  269MPD2    N1 4129   3.109   0.367  15.226  0.9903  0.1428 -0.2160
  269MPD2    H7 4130   3.132   0.280  15.180 -1.0856  0.4125 -1.7464
  270TMC3    C1 4131   3.042   0.235  15.408  0.0779  0.1136 -1.1187
  270TMC3    C2 4132   2.917   0.191  15.454  0.5520  0.5339  0.7209
  270TMC3    C3 4133   2.903   0.056  15.471 -0.4565 -0.0540 -0.0555
  270TMC3    C4 4134   3.151   0.154  15.384 -0.3598 -0.4346  0.4168
  270TMC3    C5 4135   3.134   0.026  15.414 -1.3174 -0.1864 -0.6359
  270TMC3    C6 4136   3.008   4.710  15.443 -0.5932 -0.3913  0.3892
  270TMC3     C 4137   3.047   0.361  15.344 -0.4936  0.6330  0.5752
  270TMC3     O 4138   2.967   0.445  15.390  0.7811 -0.2257  0.8911
  270TMC3     H 4139   2.825   0.248  15.447  0.8532  1.3939  3.9770
  270TMC3    H1 4140   3.250   0.195  15.362 -1.0235  0.7820 -0.3116
  270TMC3    H2 4141   2.999   4.602  15.455  0.6627 -0.5045  0.3018
  270TMC3    C7 4142   3.247   4.670  15.390 -0.3936 -0.6703 -0.0775
  270TMC3    C8 4143   2.778   0.009  15.415  0.0391 -0.2883  0.3469
  270TMC3    O1 4144   3.333   4.687  15.307  0.5127 -0.7465  0.2736
  270TMC3    O2 4145   2.676   0.072  15.435  0.0811 -0.4560  0.2289
  271MPD2     C 4146   2.482   4.737  13.622 -0.0508  0.5980 -0.2461
  271MPD2    C1 4147   2.414   4.657  13.713  0.0852  0.2096  0.0606
  271MPD2    C2 4148   2.279   4.675  13.722 -0.0051  0.2244  0.3823
  271MPD2    C3 4149   2.212   0.056  13.673 -1.2329  0.0963 -0.9687
  271MPD2    C4 4150   2.282   0.137  13.584  0.6957 -0.0388 -0.1411
  271MPD2    C5 4151   2.415   0.103  13.561 -0.1684  1.0827 -0.2921
  271MPD2     H 4152   2.218   4.616  13.790  0.3916 -0.1198  0.4402
  271MPD2    H1 4153   2.233   0.221  13.536 -0.6886 -1.1204 -0.6180
  271MPD2    H2 4154   2.586   4.728  13.594 -0.7727  0.8020 -2.9704
  271MPD2    H3 4155   2.475   0.160  13.490  0.1719 -1.6633 -2.2132
  271MPD2     N 4156   2.078   0.091  13.706  0.1356  0.6944 -0.3486
  271MPD2    H5 4157   2.048   0.178  13.662  0.3229  1.1637  0.4476
  271MPD2    N1 4158   2.484   4.570  13.793  0.6716  0.0154  0.2895
  271MPD2    H7 4159   2.427   4.523  13.863  0.6236 -1.6409 -0.8670
  272TMC3    C1 4160   2.655   4.479  13.917  0.0971 -0.2102 -0.3876
  272TMC3    C2 4161   2.776   4.421  13.914 -0.3873  0.7565 -0.3881
  272TMC3    C3 4162   2.834   4.379  14.032  0.1246  0.5458  0.0766
  272TMC3    C4 4163   2.581   4.503  14.029 -0.6459  0.0851 -0.0402
  272TMC3    C5 4164   2.640   4.450  14.145 -0.2617  0.5628  0.4017
  272TMC3    C6 4165   2.768   4.396  14.145 -0.2906  0.3989  0.4239
  272TMC3     C 4166   2.619   4.540  13.790  0.4994 -0.1676  0.4430
  272TMC3     O 4167   2.701   4.552  13.702  0.4037 -0.5483  0.7238
  272TMC3     H 4168   2.830   4.404  13.821 -0.1553  0.1856 -0.1519
  272TMC3    H1 4169   2.499   4.574  14.034  0.2064  1.0099  0.7482
  272TMC3    H2 4170   2.820   4.386  14.240  0.3772  0.1866  0.0380
  272TMC3    C7 4171   2.585   4.476  14.270  0.9634 -0.0093 -0.2370
  272TMC3    C8 4172   2.957   4.294  14.021  0.7500 -0.1874 -1.0065
  272TMC3    O1 4173   2.661   4.474  14.365  0.5575 -0.2660  0.0484
  272TMC3    O2 4174   2.996   4.262  13.908  0.0153 -0.0828  0.2702
  273MPD2     C 4175   3.693   3.108  11.599  0.3713  0.7344 -0.1765
  273MPD2    C1 4176   3.822   3.101  11.544  0.5696 -0.6651  0.4151
  273MPD2    C2 4177   3.839   3.137  11.410  0.5031 -0.0843  0.3770
  273MPD2    C3 4178   3.731   3.157  11.324  0.0290 -0.4371 -0.0372
  273MPD2    C4 4179   3.601   3.142  11.380 -0.2905 -0.4393 -0.3723
  273MPD2    C5 4180   3.586   3.127  11.518 -0.2297 -0.3872  0.5508
  273MPD2     H 4181   3.938   3.161  11.371  0.6288 -0.9886  0.1434
  273MPD2    H1 4182   3.514   3.148  11.315 -0.0324 -0.8105 -0.7503
  273MPD2    H2 4183   3.675   3.085  11.703 -2.4692 -1.5379 -1.1915
  273MPD2    H3 4184   3.494   3.107  11.571 -0.8073 -1.9563 -1.0752
  273MPD2     N 4185   3.758   3.209  11.200  0.5552  0.1780  0.2247
  273MPD2    H5 4186   3.854   3.223  11.172 -0.5897  0.9355 -3.3052
  273MPD2    N1 4187   3.926   3.082  11.640  0.3619  0.5926  0.4852
  273MPD2    H7 4188   3.900   3.075  11.737  0.3989 -0.3081  0.4294
  274TMC3    C1 4189   3.722   3.341  11.011  1.2517 -0.2676  0.1144
  274TMC3    C2 4190   3.677   3.341  10.879 -0.3948  0.6086 -0.6677
  274TMC3    C3 4191   3.735   3.442  10.801  0.0360 -0.0048  0.1414
  274TMC3    C4 4192   3.798   3.439  11.067  0.6699  0.3869  0.4046
  274TMC3    C5 4193   3.847   3.539  10.987  0.0369  0.0408 -0.1398
  274TMC3    C6 4194   3.822   3.544  10.854  0.2435  0.3112 -0.4171
  274TMC3     C 4195   3.673   3.239  11.101 -0.5713  0.0796 -0.5428
  274TMC3     O 4196   3.562   3.192  11.076 -0.4140  0.4484 -0.3660
  274TMC3     H 4197   3.606   3.273  10.834  0.4320 -0.1979 -0.7760
  274TMC3    H1 4198   3.815   3.438  11.174  1.7856  0.9509  0.2343
  274TMC3    H2 4199   3.830   3.637  10.799 -1.5655  2.3863  2.8414
  274TMC3    C7 4200   3.892   3.658  11.059 -0.2835 -0.5916 -0.2466
  274TMC3    C8 4201   3.642   3.502  10.710 -0.2296 -0.0595  0.4522
  274TMC3    O1 4202   3.857   3.674  11.175 -0.4680 -0.1298 -0.1278
  274TMC3    O2 4203   3.527   3.474  10.735  0.2246 -0.5639  0.6277
  275MPD2     C 4204   3.795   1.126  14.578 -0.4084 -0.3369  0.1179
  275MPD2    C1 4205   3.820   0.991  14.597 -0.1389  0.1379 -0.0964
  275MPD2    C2 4206   3.729   0.898  14.561 -0.6398 -0.6429 -0.2597
  275MPD2    C3 4207   3.606   0.935  14.503 -0.4787 -0.3750 -0.6905
  275MPD2    C4 4208   3.584   1.071  14.491  0.7298 -0.5976 -0.5428
  275MPD2    C5 4209   3.676   1.161  14.528 -0.1648  0.6011 -0.2745
  275MPD2     H 4210   3.764   0.795  14.570  0.6465 -0.0532  1.3957
  275MPD2    H1 4211   3.495   1.115  14.449  1.0890  0.3688 -0.2756
  275MPD2    H2 4212   3.864   1.207  14.602  0.7944 -1.9248  1.9731
  275MPD2    H3 4213   3.663   1.268  14.520 -1.7113  0.5638  1.7721
  275MPD2     N 4214   3.508   0.843  14.462 -0.4957 -0.1763 -0.3612
  275MPD2    H5 4215   3.424   0.883  14.422 -0.5242 -0.1080 -0.2334
  275MPD2    N1 4216   3.950   0.949  14.655 -0.3176 -0.4384 -0.4437
  275MPD2    H7 4217   3.956   0.849  14.668  0.5030 -0.5857 -1.9181
  276TMC3    C1 4218   4.165   0.951  14.749 -0.5574 -0.2257 -0.2090
  276TMC3    C2 4219   4.167   0.814  14.754  0.3743 -0.0527  0.2728
  276TMC3    C3 4220   4.266   0.750  14.825 -0.0471 -0.0096  0.3442
  276TMC3    C4 4221   4.257   1.028  14.809 -0.4177  0.6078  0.3284
  276TMC3    C5 4222   4.354   0.967  14.881 -0.1428  0.0743 -0.2797
  276TMC3    C6 4223   4.365   0.827  14.886  0.0189 -1.4240 -0.0758
  276TMC3     C 4224   4.058   1.027  14.681  0.1605  0.0813  0.1318
  276TMC3     O 4225   4.077   1.147  14.661 -0.4945 -0.1511  0.0915
  276TMC3     H 4226   4.098   0.752  14.698 -0.2904  0.7421  0.1965
  276TMC3    H1 4227   4.271   1.132  14.783  1.3040  0.7543  1.8427
  276TMC3    H2 4228   4.441   0.780  14.947 -2.2014 -2.8056  1.6159
  276TMC3    C7 4229   4.472   1.037  14.929  0.2782 -0.4890 -0.1977
  276TMC3    C8 4230   4.307   0.613  14.795  0.5157 -0.2318 -0.8081
  276TMC3    O1 4231   4.580   0.982  14.925  0.0938  0.3908 -0.3733
  276TMC3    O2 4232   4.399   0.568  14.863 -0.1257  0.0152 -0.1216
  277MPD2     C 4233   0.782   0.544  13.405 -0.4140  0.2818  0.6283
  277MPD2    C1 4234   0.653   0.583  13.444 -0.5255 -0.4988 -0.1508
  277MPD2    C2 4235   0.595   0.503  13.537 -0.4604 -0.0034  0.3697
  277MPD2    C3 4236   0.660   0.396  13.596  0.1048 -0.4960 -0.5232
  277MPD2    C4 4237   0.788   0.362  13.562 -0.9113 -0.1602 -0.7627
  277MPD2    C5 4238   0.850   0.447  13.476 -0.2431  0.5107  0.3854
  277MPD2     H 4239   0.491   0.526  13.556 -0.5466 -0.3462  0.3086
  277MPD2    H1 4240   0.848   0.290  13.616  0.7584  1.1100 -0.9234
  277MPD2    H2 4241   0.824   0.600  13.322  3.2134 -0.7224  1.7767
  277MPD2    H3 4242   0.956   0.431  13.457 -0.2370  0.4544  0.4639
  277MPD2     N 4243   0.587   0.318  13.687  0.1678  0.4729 -0.4996
  277MPD2    H5 4244   0.489   0.343  13.692 -0.0638 -0.4592 -0.3536
  277MPD2    N1 4245   0.578   0.681  13.364  0.2531  0.7818  0.0341
  277MPD2    H7 4246   0.644   0.739  13.313  0.1060  0.5577 -0.4126
  278TMC3    C1 4247   0.533   0.132  13.821  0.3281  0.1834  0.3798
  278TMC3    C2 4248   0.566   0.004  13.854  0.9284  1.3612 -0.1195
  278TMC3    C3 4249   0.459   4.653  13.884  0.0326 -0.2538 -0.0331
  278TMC3    C4 4250   0.401   0.168  13.816  0.6912 -0.2916 -0.1181
  278TMC3    C5 4251   0.303   0.072  13.830  0.5545  0.1303  0.3374
  278TMC3    C6 4252   0.325   4.682  13.878 -0.2663 -0.4033 -0.3923
  278TMC3     C 4253   0.634   0.201  13.750  0.5461  0.9128  0.5782
  278TMC3     O 4254   0.747   0.147  13.751 -0.3429 -0.5396  0.1940
  278TMC3     H 4255   0.669   4.707  13.855  0.2387 -0.7068 -0.2505
  278TMC3    H1 4256   0.368   0.270  13.802 -0.2859 -0.3766  1.5116
  278TMC3    H2 4257   0.254   4.604  13.904 -0.5856  0.5685  1.6709
  278TMC3    C7 4258   0.170   0.127  13.832  0.1435  0.1264 -0.3848
  278TMC3    C8 4259   0.506   4.515  13.872  0.5056  0.3111 -0.2090
  278TMC3    O1 4260   0.144   0.224  13.762 -0.4915 -0.3064 -0.2850
  278TMC3    O2 4261   0.624   4.493  13.889  0.3727  0.0015 -0.0595
  279MPD2     C 4262   0.127   4.713  17.667  0.4204 -0.7156 -0.0258
  279MPD2    C1 4263   4.738   4.684  17.620  0.0216 -0.0588  0.1544
  279MPD2    C2 4264   4.707   4.704  17.482  0.2098  0.5529  0.7087
  279MPD2    C3 4265   0.066   0.017  17.398  0.3320  0.2907  0.3676
  279MPD2    C4 4266   0.192   0.045  17.442 -0.2081  0.3391 -0.0540
  279MPD2    C5 4267   0.223   0.025  17.579 -0.1871  0.0202  0.0429
  279MPD2     H 4268   4.603   4.685  17.460  0.3397  0.2096  0.3988
  279MPD2    H1 4269   0.253   0.097  17.369 -0.3310  1.0789  0.3685
  279MPD2    H2 4270   0.163   4.693   0.019  0.2732 -0.0107  0.1629
  279MPD2    H3 4271   0.324   0.051  17.608  0.5566 -2.8145  0.0133
  279MPD2     N 4272   0.035   0.050  17.262  0.2182 -0.5044 -0.0287
  279MPD2    H5 4273   0.107   0.094  17.207  0.7657  0.4478  1.4296
  279MPD2    N1 4274   4.633   4.648  17.702  0.6117  0.4840 -0.0863
  279MPD2    H7 4275   4.542   4.632  17.659  0.8135  2.7849 -1.3876
  280TMC3    C1 4276   4.482   4.650   0.129 -0.0343 -0.3148  0.2896
  280TMC3    C2 4277   4.390   4.571   0.068  0.0060  0.4359 -0.0001
  280TMC3    C3 4278   4.252   4.596   0.078 -0.2009 -0.0356  1.0970
  280TMC3    C4 4279   4.439   0.022   0.202 -0.1275  0.1540  0.2497
  280TMC3    C5 4280   4.303   0.042   0.211  0.0443 -0.3806  0.4375
  280TMC3    C6 4281   4.205   4.703   0.150 -0.0296  0.8597  0.5436
  280TMC3     C 4282   4.621   4.667   0.085  0.3767 -0.0427  0.1934
  280TMC3     O 4283   4.698   4.721   0.162 -0.0640  0.1621 -0.6601
  280TMC3     H 4284   4.433   4.487   0.015 -3.7239 -1.8318  0.5621
  280TMC3    H1 4285   4.520   0.088   0.232 -0.5170  1.2325 -1.0483
  280TMC3    H2 4286   4.099   4.724   0.157 -0.2465  0.5451 -1.6470
  280TMC3    C7 4287   4.268   0.170   0.274  0.9524 -0.3582  0.6252
  280TMC3    C8 4288   4.159   4.493   0.044 -0.3742  0.5074  0.1238
  280TMC3    O1 4289   4.345   0.213   0.359 -0.1194 -0.1273  0.0457
  280TMC3    O2 4290   4.064   4.471   0.116 -0.5808  0.4293  0.0310
  281TMC3    C1 4291   3.556   0.574  13.450 -0.5217 -0.0564  0.0661
  281TMC3    C2 4292   3.599   0.632  13.332 -0.2500  0.0550  0.4672
  281TMC3    C3 4293   3.580   0.565  13.214 -0.1146 -0.4366 -0.7849
  281TMC3    C4 4294   3.526   0.445  13.469  0.0650  0.0721 -0.3070
  281TMC3    C5 4295   3.510   0.390  13.350  0.1919  0.6060 -0.2495
  281TMC3    C6 4296   3.525   0.444  13.222 -0.4341 -0.0231 -0.9775
  281TMC3     C 4297   3.533   0.658  13.567 -0.8014  0.4516 -0.3819
  281TMC3     O 4298   3.553   0.593  13.668  0.3292 -0.4603  0.3471
  281TMC3     H 4299   3.621   0.738  13.329  0.1155 -0.0289  0.0896
  281TMC3    H1 4300   3.485   0.403  13.560  0.9848  2.1111  1.0517
  281TMC3    H2 4301   3.507   0.393  13.128 -0.3235 -1.0616 -0.4371
  281TMC3    C7 4302   3.451   0.261  13.359 -0.6664 -0.2189 -0.2640
  281TMC3    C8 4303   3.516   0.648  13.107 -0.4056 -0.8836  1.2248
  281TMC3    O1 4304   3.493   0.195  13.452 -0.2996 -0.3323 -0.4566
  281TMC3    O2 4305   3.397   0.639  13.101  0.7624  0.1627  0.6483
  282MPD2     C 4306   0.699   1.816  14.898 -0.0112 -0.5320 -0.4441
  282MPD2    C1 4307   0.567   1.831  14.926  0.6293 -0.4989 -0.1140
  282MPD2    C2 4308   0.478   1.819  14.824  0.4254  1.1433 -0.3649
  282MPD2    C3 4309   0.520   1.786  14.698 -0.0397 -0.6379 -0.5644
  282MPD2    C4 4310   0.653   1.769  14.669  0.5180 -0.3364  0.0051
  282MPD2    C5 4311   0.737   1.791  14.773  0.0398  0.3267 -0.3587
  282MPD2     H 4312   0.373   1.815  14.850  0.3060 -2.5599 -1.4506
  282MPD2    H1 4313   0.686   1.735  14.572 -1.4433  0.5860 -0.9788
  282MPD2    H2 4314   0.773   1.811  14.978 -0.3083 -2.6157 -0.3118
  282MPD2    H3 4315   0.842   1.768  14.754 -0.1881 -0.2816 -0.8914
  282MPD2     N 4316   0.408   1.773  14.607 -0.5668 -0.4215  0.0188
  282MPD2    H5 4317   0.314   1.793  14.640 -0.3667 -0.4048  0.5841
  282MPD2    N1 4318   0.515   1.850  15.055 -0.3916  0.0213  0.5225
  282MPD2    H7 4319   0.415   1.865  15.069 -0.4958 -0.6011  0.4416
  283TMC3    C1 4320   0.507   1.944  15.264 -0.2544 -0.4020 -0.6363
  283TMC3    C2 4321   0.561   2.058  15.316  0.2445  0.5290 -0.2339
  283TMC3    C3 4322   0.515   2.114  15.434  0.7545  0.2692  0.8587
  283TMC3    C4 4323   0.401   1.884  15.323 -0.2189 -0.4068 -0.6615
  283TMC3    C5 4324   0.352   1.943  15.441  0.2936  0.4650  0.0020
  283TMC3    C6 4325   0.405   2.058  15.494  0.4471 -0.0756  0.4929
  283TMC3     C 4326   0.595   1.891  15.160 -0.5993  0.6274  0.6131
  283TMC3     O 4327   0.714   1.922  15.157  0.5242  0.1149  0.0349
  283TMC3     H 4328   0.638   2.114  15.266 -0.3638  1.8481  0.3002
  283TMC3    H1 4329   0.356   1.792  15.286  2.0991 -2.2224  0.9804
  283TMC3    H2 4330   0.355   2.107  15.577  0.6471 -2.0001  1.7406
  283TMC3    C7 4331   0.240   1.880  15.511 -0.4189 -0.2814  0.1697
  283TMC3    C8 4332   0.541   2.259  15.447 -0.0781  0.1136 -0.2641
  283TMC3    O1 4333   0.231   1.913  15.631 -0.1957  0.5924 -0.2290
  283TMC3    O2 4334   0.550   2.325  15.346  0.0007  0.0400 -0.3974
  284MPD2     C 4335   4.020   1.049  12.294 -0.1352 -0.3649 -0.1943
  284MPD2    C1 4336   3.908   1.092  12.228  0.5880 -0.8827 -0.1787
  284MPD2    C2 4337   3.793   1.008  12.236 -0.1137  0.1240  0.1877
  284MPD2    C3 4338   3.789   0.889  12.302  0.3444 -0.2506  0.2928
  284MPD2    C4 4339   3.901   0.854  12.375 -0.0705  0.2791 -0.1269
  284MPD2    C5 4340   4.008   0.932  12.367  0.6464  0.4479  1.0777
  284MPD2     H 4341   3.704   1.053  12.194 -0.8262 -0.6342  0.8769
  284MPD2    H1 4342   3.919   0.763  12.431 -1.2430 -0.0683 -0.3050
  284MPD2    H2 4343   4.114   1.100  12.311 -1.8973  3.3273 -1.6071
  284MPD2    H3 4344   4.096   0.895  12.417  2.3200 -0.7148 -2.7209
  284MPD2     N 4345   3.681   0.795  12.295 -0.2407 -0.0718 -0.2281
  284MPD2    H5 4346   3.709   0.705  12.333  0.1024  0.0173 -0.2701
  284MPD2    N1 4347   3.902   1.210  12.155  0.3560  0.1916 -0.1776
  284MPD2    H7 4348   3.813   1.220  12.106  1.3008  0.0227 -1.9044
  285TMC3    C1 4349   3.979   1.400  12.049  0.3000 -0.1346  0.4407
  285TMC3    C2 4350   3.970   1.344  11.922 -0.1432  0.4000 -0.5178
  285TMC3    C3 4351   3.991   1.429  11.815  0.4534  0.1799 -0.2781
  285TMC3    C4 4352   3.991   1.531  12.072 -0.5932 -0.1612 -0.0228
  285TMC3    C5 4353   4.025   1.611  11.965  0.2343  1.0968 -0.0831
  285TMC3    C6 4354   4.021   1.562  11.837 -0.7445 -0.1421 -0.5205
  285TMC3     C 4355   3.996   1.307  12.157  0.0980 -0.6541  0.3997
  285TMC3     O 4356   4.090   1.317  12.228 -0.1723 -0.1094 -0.3216
  285TMC3     H 4357   3.961   1.236  11.922 -2.5933  0.5888  0.4356
  285TMC3    H1 4358   4.004   1.574  12.170 -1.3944  1.0340 -0.4340
  285TMC3    H2 4359   4.038   1.631  11.755  0.2127  0.0060 -0.2011
  285TMC3    C7 4360   4.007   1.751  11.976 -0.4816  0.5515 -0.3912
  285TMC3    C8 4361   3.955   1.372  11.685  0.0053 -0.1005  0.0492
  285TMC3    O1 4362   4.101   1.815  11.928  0.1426  0.5440 -0.1083
  285TMC3    O2 4363   3.933   1.250  11.675  0.6263 -0.6846  0.1781
  286MPD2     C 4364   4.519   4.607   1.457  0.1778 -0.0079 -0.0786
  286MPD2    C1 4365   4.436   4.586   1.350  0.1719 -0.5366 -0.2507
  286MPD2    C2 4366   4.462   4.482   1.268  0.6037 -0.4272 -0.0518
  286MPD2    C3 4367   4.568   4.392   1.292  0.0449  0.0841 -0.1864
  286MPD2    C4 4368   4.649   4.411   1.401  0.1233 -0.5381  0.3169
  286MPD2    C5 4369   4.625   4.521   1.480  0.3084  0.0344  0.1824
  286MPD2     H 4370   4.406   4.481   1.175  0.0716  1.2199  0.2614
  286MPD2    H1 4371   4.729   4.345   1.431  0.7233  0.3594  0.6936
  286MPD2    H2 4372   4.514   4.700   1.513 -0.2912 -0.9455  1.4553
  286MPD2    H3 4373   4.688   4.545   1.565  2.5559 -2.4215 -0.7995
  286MPD2     N 4374   4.601   4.281   1.208 -0.4007  0.3787  0.6697
  286MPD2    H5 4375   4.688   4.235   1.232  0.6115  2.5141  1.0917
  286MPD2    N1 4376   4.329   4.675   1.310  0.8796  0.3781 -0.7377
  286MPD2    H7 4377   4.284   4.652   1.222  1.8111  0.0732 -1.1363
  287TMC3    C1 4378   4.551   4.116   1.033  1.0987  0.4773 -0.1831
  287TMC3    C2 4379   4.467   4.070   0.937  0.5344 -0.7109 -0.0414
  287TMC3    C3 4380   4.493   3.950   0.879  0.4914 -0.2099  0.7058
  287TMC3    C4 4381   4.647   4.038   1.087  0.0662  0.7385 -0.4805
  287TMC3    C5 4382   4.666   3.911   1.033 -0.1091  0.0901  0.1600
  287TMC3    C6 4383   4.591   3.866   0.927 -0.0873 -0.4158  0.0048
  287TMC3     C 4384   4.512   4.237   1.109 -0.4834 -1.0634 -0.5396
  287TMC3     O 4385   4.396   4.266   1.083  0.3090  0.1777 -0.0895
  287TMC3     H 4386   4.376   4.125   0.912  1.2613  0.2833 -0.5095
  287TMC3    H1 4387   4.711   4.073   1.167 -1.0439 -0.9663  1.1612
  287TMC3    H2 4388   4.614   3.780   0.866  1.0310 -0.1511  0.0516
  287TMC3    C7 4389   0.020   3.822   1.100 -0.2316  0.1408 -1.0275
  287TMC3    C8 4390   4.398   3.908   0.771 -0.2003  0.6925 -0.3793
  287TMC3    O1 4391   0.113   3.859   1.169  0.2957 -0.1039 -0.1070
  287TMC3    O2 4392   4.403   3.787   0.744 -0.1906  0.2713 -0.0025
  288TMC3    C1 4393   1.496   4.300  14.329 -0.2309 -0.3888  0.3677
  288TMC3    C2 4394   1.373   4.301  14.393  0.5708 -0.8522 -0.0948
  288TMC3    C3 4395   1.287   4.409  14.355  0.2826  0.7271 -0.4869
  288TMC3    C4 4396   1.538   4.397  14.240  0.2524 -0.5419 -0.3563
  288TMC3    C5 4397   1.450   4.500  14.216  0.6835 -0.2604  0.3868
  288TMC3    C6 4398   1.329   4.519  14.281  0.9303  0.1020 -0.5720
  288TMC3     C 4399   1.586   4.192  14.358 -0.5292  0.5474  0.2130
  288TMC3     O 4400   1.556   4.131  14.455  0.0763 -0.4582  0.4807
  288TMC3     H 4401   1.341   4.231  14.470 -0.8310  0.7400  0.7681
  288TMC3    H1 4402   1.635   4.405  14.192  0.4376 -0.6227  0.0052
  288TMC3    H2 4403   1.267   4.608  14.277  0.6706  0.0272  1.9352
  288TMC3    C7 4404   1.480   4.587  14.102 -0.5099  0.3133 -0.4666
  288TMC3    C8 4405   1.166   4.415  14.430  0.2516  0.0486 -0.3942
  288TMC3    O1 4406   1.594   4.583  14.056  0.4323  0.1578  0.6723
  288TMC3    O2 4407   1.122   4.528  14.441 -0.2570 -0.1619 -0.2347
  289MPD2     C 4408   1.001   3.302  14.190 -0.3911 -0.1946 -1.1524
  289MPD2    C1 4409   0.984   3.427  14.131  0.4374  0.4671 -0.3457
  289MPD2    C2 4410   0.868   3.465  14.063  0.7623 -0.4660 -0.0332
  289MPD2    C3 4411   0.757   3.380  14.060  0.8174  0.2599  0.2539
  289MPD2    C4 4412   0.775   3.251  14.107 -0.1536  0.5698  0.2817
  289MPD2    C5 4413   0.892   3.218  14.176 -0.6557 -0.0018  0.0258
  289MPD2     H 4414   0.864   3.560  14.012  1.2684  0.4350  1.6363
  289MPD2    H1 4415   0.701   3.172  14.097  0.4697  0.1812 -1.2171
  289MPD2    H2 4416   1.087   3.267  14.246 -0.3473  0.7445 -0.6393
  289MPD2    H3 4417   0.902   3.120  14.221 -1.8240  0.4126  1.2172
  289MPD2     N 4418   0.629   3.417  14.006 -0.0045  0.1964  0.5016
  289MPD2    H5 4419   0.562   3.341  14.001 -1.0657  1.1234  1.0268
  289MPD2    N1 4420   1.091   3.515  14.152 -0.1641  0.2603  0.0471
  289MPD2    H7 4421   1.174   3.469  14.188  0.7574  1.2653 -0.7975
  290TMC3    C1 4422   0.433   3.537  13.950  0.1075  1.1316  0.6567
  290TMC3    C2 4423   0.370   3.652  13.955 -0.3304  0.7793 -0.9158
  290TMC3    C3 4424   0.239   3.655  13.918 -0.6554 -0.8046  0.4874
  290TMC3    C4 4425   0.369   3.417  13.910 -0.1344  0.2830  0.6678
  290TMC3    C5 4426   0.236   3.424  13.878  0.2697  0.3590  0.2233
  290TMC3    C6 4427   0.176   3.544  13.879  0.0811 -1.0176  0.6057
  290TMC3     C 4428   0.576   3.541  13.972 -0.5521  0.0501 -0.0767
  290TMC3     O 4429   0.630   3.652  13.966  0.1121  0.4718 -0.1522
  290TMC3     H 4430   0.427   3.737  13.988  1.2834 -0.5081 -0.4431
  290TMC3    H1 4431   0.431   3.331  13.885 -1.8911 -0.3731 -1.3545
  290TMC3    H2 4432   0.070   3.554  13.862  0.1953  2.5866  2.1254
  290TMC3    C7 4433   0.154   3.308  13.844  0.0182  0.2746  0.3255
  290TMC3    C8 4434   0.162   3.774  13.939  0.6364  0.2088  0.0632
  290TMC3    O1 4435   0.067   3.315  13.757  1.1601  0.1295  0.8270
  290TMC3    O2 4436   0.054   3.783  13.889  0.0203  0.3812  0.1429
  291MPD2     C 4437   0.028   3.675   0.023 -0.1364 -0.3815 -0.0818
  291MPD2    C1 4438   0.148   3.628   0.070 -0.2086  0.3025 -0.0072
  291MPD2    C2 4439   0.244   3.722   0.099 -0.3344  0.3192  0.3664
  291MPD2    C3 4440   0.234   3.854   0.064  0.5050 -0.1809 -0.6102
  291MPD2    C4 4441   0.107   3.896   0.022  0.0238 -0.2382  0.0677
  291MPD2    C5 4442   0.008   3.807   0.009 -0.6071  0.5373 -0.0035
  291MPD2     H 4443   0.335   3.682   0.142  0.6033  4.0841  1.8728
  291MPD2    H1 4444   0.088   4.002   0.006 -1.7722 -0.6024 -0.1385
  291MPD2    H2 4445   4.676   3.618   0.003 -1.9641  1.5473  2.6124
  291MPD2    H3 4446   4.657   3.834  17.701  0.0663  0.1246 -1.2396
  291MPD2     N 4447   0.340   3.942   0.092  0.2647 -0.1134 -0.4233
  291MPD2    H5 4448   0.316   4.040   0.079  2.1020  0.7807  2.9207
  291MPD2    N1 4449   0.176   3.490   0.089  0.6596  0.5549  0.7547
  291MPD2    H7 4450   0.274   3.466   0.100 -0.1196 -1.6327  2.7242
  292TMC3    C1 4451   0.134   3.257   0.095 -0.1550 -0.8546 -0.3186
  292TMC3    C2 4452   0.247   3.242   0.173 -0.0461  0.0633  0.4468
  292TMC3    C3 4453   0.273   3.117   0.213 -0.0820 -0.6679  0.2980
  292TMC3    C4 4454   0.053   3.158   0.057 -0.3094 -0.1537  0.9226
  292TMC3    C5 4455   0.099   3.030   0.083  0.3440 -0.1422  0.1368
  292TMC3    C6 4456   0.216   3.006   0.153 -0.3606  0.2651  0.1593
  292TMC3     C 4457   0.079   3.393   0.090 -0.3579  0.6138  0.5966
  292TMC3     O 4458   4.694   3.402   0.082  0.3474 -0.4601  0.2595
  292TMC3     H 4459   0.300   3.325   0.218  0.7329 -0.4229  0.4266
  292TMC3    H1 4460   4.698   3.187   0.008  0.1401 -0.0020  0.1623
  292TMC3    H2 4461   0.248   2.907   0.185 -1.5261 -0.1701 -0.0053
  292TMC3    C7 4462   0.035   2.917   0.016 -0.3277 -0.2725 -0.7167
  292TMC3    C8 4463   0.378   3.098   0.311  0.2189  0.3111 -0.1133
  292TMC3    O1 4464   0.081   2.806   0.043 -0.0644  0.2285 -0.5181
  292TMC3    O2 4465   0.440   3.200   0.343  0.4520 -0.4007  0.1623
  293MPD2     C 4466   1.557   4.418  13.039 -0.2223 -0.0687 -0.0982
  293MPD2    C1 4467   1.649   4.506  12.981 -0.1493 -0.0845  0.4451
  293MPD2    C2 4468   1.761   4.546  13.051  0.1954 -0.6210 -0.2436
  293MPD2    C3 4469   1.793   4.488  13.170 -0.1695 -0.2321 -0.6643
  293MPD2    C4 4470   1.703   4.398  13.223 -0.2487 -0.5097 -0.3068
  293MPD2    C5 4471   1.588   4.374  13.162 -0.7762 -0.3004  0.2206
  293MPD2     H 4472   1.844   4.602  13.009 -0.5140  1.9882  1.8101
  293MPD2    H1 4473   1.725   4.339  13.311 -2.0245 -0.6119  0.0581
  293MPD2    H2 4474   1.476   4.375  12.982 -3.0770  5.5618 -0.3267
  293MPD2    H3 4475   1.515   4.312  13.212 -1.4421 -1.2737 -1.9796
  293MPD2     N 4476   1.917   4.514  13.241  0.2805 -0.0829  0.6415
  293MPD2    H5 4477   1.992   4.561  13.191 -1.0138  1.0051 -0.2967
  293MPD2    N1 4478   1.618   4.562  12.856  0.3186 -0.0160 -0.1475
  293MPD2    H7 4479   1.528   4.523  12.828 -0.0736 -0.8422  2.2530
  294TMC3    C1 4480   1.605   4.686  12.663  0.1510  0.4578  0.7289
  294TMC3    C2 4481   1.521   4.595  12.598 -0.1831  0.1578  0.1048
  294TMC3    C3 4482   1.463   4.623  12.474 -0.1554  0.0680 -0.3528
  294TMC3    C4 4483   1.631   0.064  12.600  0.2097 -0.4211 -1.0145
  294TMC3    C5 4484   1.578   0.087  12.478  0.3359 -0.6215  0.2761
  294TMC3    C6 4485   1.493   0.002  12.410  0.7651 -0.1458  0.2930
  294TMC3     C 4486   1.684   4.654  12.780 -0.1588  0.1261  0.2718
  294TMC3     O 4487   1.781   4.722  12.807  0.6787 -0.2263 -0.6563
  294TMC3     H 4488   1.505   4.496  12.640  0.4918  0.2126  0.4833
  294TMC3    H1 4489   1.694   0.140  12.645 -0.3368 -0.9530  0.6228
  294TMC3    H2 4490   1.431   0.028  12.326 -0.1713  1.5497  1.5056
  294TMC3    C7 4491   1.602   0.222  12.425  0.0199  0.6478 -0.9687
  294TMC3    C8 4492   1.345   4.555  12.430 -0.1736 -0.0389  0.2866
  294TMC3    O1 4493   1.621   0.308  12.511 -0.1645 -0.0262  0.4009
  294TMC3    O2 4494   1.310   4.578  12.314 -0.0084 -0.3039  0.0241
  295MPD2     C 4495   3.105   3.807   0.493 -0.0314 -0.1997  0.7582
  295MPD2    C1 4496   2.998   3.759   0.559  0.5614 -0.1887  1.0480
  295MPD2    C2 4497   3.009   3.637   0.629 -0.2294 -0.0530  0.4220
  295MPD2    C3 4498   3.120   3.564   0.627 -0.4856 -0.7296  0.1281
  295MPD2    C4 4499   3.236   3.614   0.558 -0.2289 -0.1035 -0.3467
  295MPD2    C5 4500   3.224   3.733   0.493  0.4976 -0.3347  0.1927
  295MPD2     H 4501   2.916   3.602   0.671 -0.4309  0.0216  0.0360
  295MPD2    H1 4502   3.332   3.564   0.556 -0.4553 -0.4777 -1.6441
  295MPD2    H2 4503   3.120   3.906   0.449 -0.1111 -1.0984 -1.3045
  295MPD2    H3 4504   3.308   3.775   0.439 -0.2066  0.8964  0.0472
  295MPD2     N 4505   3.111   3.447   0.686 -0.3635  0.0880  0.4602
  295MPD2    H5 4506   3.030   3.426   0.743 -0.8726 -0.8962 -0.6202
  295MPD2    N1 4507   2.877   3.830   0.562  0.6420 -0.0822  0.5676
  295MPD2    H7 4508   2.806   3.788   0.621  0.0448 -0.1384 -0.1937
  296TMC3    C1 4509   3.184   3.232   0.733  0.3408  0.1164 -0.0133
  296TMC3    C2 4510   3.154   3.248   0.862  0.1210 -0.6093  0.1163
  296TMC3    C3 4511   3.154   3.139   0.941 -0.1551 -0.3580  0.5194
  296TMC3    C4 4512   3.235   3.115   0.681  0.3864 -0.8948  0.3466
  296TMC3    C5 4513   3.240   3.015   0.771 -0.2648  0.0795  0.2145
  296TMC3    C6 4514   3.194   3.018   0.898 -0.1227 -0.1024 -0.3817
  296TMC3     C 4515   3.209   3.354   0.661 -0.2225  0.1123  0.0367
  296TMC3     O 4516   3.288   3.343   0.571  0.3243  0.0848 -0.0561
  296TMC3     H 4517   3.130   3.346   0.901 -4.5095 -1.5578 -0.2401
  296TMC3    H1 4518   3.266   3.114   0.578 -0.0163 -0.5140  0.2254
  296TMC3    H2 4519   3.191   2.934   0.966 -1.4636 -1.0724 -1.6275
  296TMC3    C7 4520   3.284   2.887   0.718 -0.0980  0.0536  0.0675
  296TMC3    C8 4521   3.167   3.159   1.083  0.1971  0.8793 -0.3176
  296TMC3    O1 4522   3.324   2.888   0.603  0.3341  0.6703 -0.4676
  296TMC3    O2 4523   3.233   3.072   1.139  0.1888  0.4236  0.3626
  297MPD2     C 4524   4.291   0.819  16.600  0.2058  0.3573  0.9307
  297MPD2    C1 4525   4.292   0.814  16.465  0.2997  0.0278 -0.5636
  297MPD2    C2 4526   4.403   0.861  16.399 -0.0164 -0.0190  0.0342
  297MPD2    C3 4527   4.515   0.926  16.463  0.1102 -0.2710  0.2301
  297MPD2    C4 4528   4.515   0.925  16.600 -0.7781 -0.0384  0.2640
  297MPD2    C5 4529   4.395   0.881  16.661 -0.7345  0.7376  0.3645
  297MPD2     H 4530   4.399   0.870  16.291 -0.2071 -1.8987 -0.1128
  297MPD2    H1 4531   4.593   0.962  16.665 -1.1166 -1.1458  1.3187
  297MPD2    H2 4532   4.202   0.789  16.655 -0.5973  0.4566 -0.3152
  297MPD2    H3 4533   4.395   0.894  16.769  1.1764 -0.4445  0.5052
  297MPD2     N 4534   4.612   0.995  16.386 -0.2942 -0.6233 -0.6070
  297MPD2    H5 4535   4.608   0.981  16.285 -1.4857 -0.9793 -0.5054
  297MPD2    N1 4536   4.170   0.781  16.403 -0.8272  0.0871  0.1450
  297MPD2    H7 4537   4.092   0.764  16.466  0.1928 -1.3072  1.0182
  298TMC3    C1 4538   4.021   0.743  16.203  0.3071  0.3186 -0.2923
  298TMC3    C2 4539   4.007   0.682  16.088  0.1756  0.1582  0.0911
  298TMC3    C3 4540   3.883   0.689  16.030  0.5205 -0.6084  0.1790
  298TMC3    C4 4541   3.916   0.798  16.271  0.5545  0.5218 -0.5955
  298TMC3    C5 4542   3.798   0.818  16.206 -0.6139 -0.6329  0.4261
  298TMC3    C6 4543   3.776   0.758  16.080 -0.1802 -0.2018  0.4885
  298TMC3     C 4544   4.156   0.755  16.262 -0.3323  0.0170 -0.1319
  298TMC3     O 4545   4.248   0.735  16.182  0.0889 -0.0834 -0.0717
  298TMC3     H 4546   4.086   0.631  16.035  0.8788 -0.7670  2.0170
  298TMC3    H1 4547   3.932   0.858  16.359 -0.2158 -0.1360 -0.0049
  298TMC3    H2 4548   3.678   0.745  16.035  0.7340 -0.8263 -1.3506
  298TMC3    C7 4549   3.705   0.913  16.258  0.7718  0.1490 -0.1585
  298TMC3    C8 4550   3.863   0.625  15.901 -0.1550  0.1298  0.9948
  298TMC3    O1 4551   3.711   0.950  16.375 -0.5458 -0.3956  0.1038
  298TMC3    O2 4552   3.769   0.674  15.836 -0.5660 -0.3793 -0.1296
  299MPD2     C 4553   4.674   0.919  10.888  0.5432 -0.3119  0.4922
  299MPD2    C1 4554   4.733   0.960  10.770  0.7635  0.1319 -0.0609
  299MPD2    C2 4555   4.661   1.026  10.674  0.1661 -0.3152 -1.0439
  299MPD2    C3 4556   4.523   1.057  10.699  0.1417 -0.2127  0.6694
  299MPD2    C4 4557   4.467   1.025  10.816 -0.2795  0.4164  0.1353
  299MPD2    C5 4558   4.539   0.950  10.906 -0.1118  0.2120  1.1221
  299MPD2     H 4559   4.711   1.044  10.580  0.0313  2.8256 -0.5067
  299MPD2    H1 4560   4.365   1.038  10.847 -0.0559 -0.2270  1.1347
  299MPD2    H2 4561   4.709   0.850  10.965  0.6953 -1.0944 -0.2771
  299MPD2    H3 4562   4.485   0.920  10.995  0.1338 -0.0275  1.1890
  299MPD2     N 4563   4.443   1.111  10.602  0.0496  1.0287 -0.5335
  299MPD2    H5 4564   4.342   1.103  10.607  0.0362  1.4632 -0.0281
  299MPD2    N1 4565   0.124   0.910  10.757  0.9182  0.5939  1.0644
  299MPD2    H7 4566   0.167   0.862  10.835  0.8386  1.0774  1.4067
  300TMC3    C1 4567   4.386   1.188  10.382 -0.2138  0.2542 -0.2490
  300TMC3    C2 4568   4.396   1.309  10.308  0.3309  0.3185 -0.6316
  300TMC3    C3 4569   4.274   1.344  10.244  0.6615  0.2229  0.6769
  300TMC3    C4 4570   4.279   1.096  10.375  0.0342 -0.2563  0.1520
  300TMC3    C5 4571   4.188   1.116  10.270  0.4960 -0.1969  0.3330
  300TMC3    C6 4572   4.179   1.242  10.208  0.1887  0.0271  1.1150
  300TMC3     C 4573   4.487   1.173  10.489  0.5117 -0.1107  0.2633
  300TMC3     O 4574   4.598   1.221  10.471 -0.0049 -0.0834  0.0558
  300TMC3     H 4575   4.476   1.378  10.330 -1.0793  1.3026  1.4224
  300TMC3    H1 4576   4.279   1.002  10.429  4.1771  0.1691  0.8865
  300TMC3    H2 4577   4.098   1.259  10.138  0.8013 -1.6390 -0.0116
  300TMC3    C7 4578   4.067   1.038  10.274  0.8451  0.1799 -0.9885
  300TMC3    C8 4579   4.221   1.458  10.311  0.4559  0.0895 -0.2884
  300TMC3    O1 4580   4.000   1.046  10.170  0.0435 -0.2362 -0.3072
  300TMC3    O2 4581   4.305   1.521  10.372 -0.3493 -0.3614 -0.0081
  301MPD2     C 4582   2.502   1.756   0.917 -0.0472 -0.5976 -0.0151
  301MPD2    C1 4583   2.384   1.693   0.887 -0.0653 -0.0744 -0.4494
  301MPD2    C2 4584   2.385   1.567   0.831  0.4096 -0.8049 -1.1185
  301MPD2    C3 4585   2.499   1.494   0.817  0.2111 -0.5665 -0.0675
  301MPD2    C4 4586   2.617   1.556   0.849  0.0095  0.5507  0.4542
  301MPD2    C5 4587   2.619   1.689   0.893  0.1745  0.3704  0.1951
  301MPD2     H 4588   2.283   1.533   0.818  0.5030 -1.1789 -0.8653
  301MPD2    H1 4589   2.717   1.516   0.834 -0.8861 -1.1857 -0.7952
  301MPD2    H2 4590   2.509   1.864   0.923 -0.8183 -0.5237 -0.4392
  301MPD2    H3 4591   2.716   1.736   0.904  0.5053 -0.5117  0.9871
  301MPD2     N 4592   2.500   1.361   0.777 -0.0164  0.1890  0.3385
  301MPD2    H5 4593   2.573   1.301   0.814 -1.5658 -3.6151 -2.7538
  301MPD2    N1 4594   2.250   1.750   0.903  0.3305  0.5110 -0.6145
  301MPD2    H7 4595   2.166   1.701   0.876  0.0723  1.6083 -1.8364
  302TMC3    C1 4596   2.415   1.163   0.692 -0.5826 -0.7133  0.2453
  302TMC3    C2 4597   2.483   1.089   0.783 -0.4089  0.0656  0.7070
  302TMC3    C3 4598   2.468   0.957   0.766  0.8206  0.6136 -0.2579
  302TMC3    C4 4599   2.343   1.106   0.591 -0.1009 -0.7486  0.6618
  302TMC3    C5 4600   2.333   0.969   0.580  0.2558  0.4890 -1.0671
  302TMC3    C6 4601   2.406   0.894   0.660  0.1710  0.2233 -0.7774
  302TMC3     C 4602   2.391   1.304   0.716  0.1269  0.0847  0.1841
  302TMC3     O 4603   2.297   1.360   0.656  0.1588 -0.0368  0.3332
  302TMC3     H 4604   2.513   1.134   0.877 -0.4389 -0.5011  0.9903
  302TMC3    H1 4605   2.286   1.168   0.522 -0.4176 -1.4412  0.2959
  302TMC3    H2 4606   2.410   0.787   0.646 -0.8618 -0.0989  1.4064
  302TMC3    C7 4607   2.216   0.914   0.518  0.1906 -0.4603  0.2467
  302TMC3    C8 4608   2.504   0.871   0.871 -0.9370 -0.3126 -0.5890
  302TMC3    O1 4609   2.215   0.795   0.514 -0.3682  0.2037 -0.0018
  302TMC3    O2 4610   2.572   0.771   0.852  0.2067 -0.0953  0.2266
  303MPD2     C 4611   2.441   0.488  10.649 -0.2729 -0.3038  0.4813
  303MPD2    C1 4612   2.393   0.359  10.625 -0.0281  0.2034 -0.0582
  303MPD2    C2 4613   2.359   0.323  10.498  0.3278  0.6412  0.3347
  303MPD2    C3 4614   2.408   0.396  10.389 -0.8932 -0.1578  0.6302
  303MPD2    C4 4615   2.473   0.515  10.417 -0.0250 -1.1223  0.0928
  303MPD2    C5 4616   2.480   0.562  10.548  0.1724  0.0502  0.5051
  303MPD2     H 4617   2.299   0.234  10.485  0.6346  0.3206  1.1236
  303MPD2    H1 4618   2.518   0.577  10.341  0.0017 -1.2787 -0.0191
  303MPD2    H2 4619   2.458   0.528  10.749  1.4275  0.2216 -0.0204
  303MPD2    H3 4620   2.537   0.654  10.557 -0.5653  0.6422 -0.8257
  303MPD2     N 4621   2.394   0.371  10.253  0.0412 -0.0494 -0.4370
  303MPD2    H5 4622   2.439   0.434  10.188 -1.7443  0.6736 -0.9465
  303MPD2    N1 4623   2.355   0.283  10.736 -0.2677  0.4662 -0.0132
  303MPD2    H7 4624   2.355   0.327  10.827  1.1899  1.4838 -0.5196
  304TMC3    C1 4625   2.278   0.099  10.859 -0.5061  0.1701  0.0280
  304TMC3    C2 4626   2.153   0.156  10.867  0.8832  0.1150  0.5279
  304TMC3    C3 4627   2.060   0.090  10.946 -0.3280  0.3298 -0.8310
  304TMC3    C4 4628   2.304   4.709  10.903 -0.6511  0.4079 -0.7039
  304TMC3    C5 4629   2.216   4.653  10.989  0.3433  0.0012  0.8226
  304TMC3    C6 4630   2.095   4.713  11.013 -0.1679  0.3183 -0.4832
  304TMC3     C 4631   2.342   0.148  10.741 -0.3854 -0.0377  0.2451
  304TMC3     O 4632   2.379   0.071  10.653 -0.0146  0.1671  0.0095
  304TMC3     H 4633   2.126   0.244  10.810  0.9599  1.1654  2.1200
  304TMC3    H1 4634   2.405   4.671  10.892 -1.0667 -1.4388  1.6873
  304TMC3    H2 4635   2.024   4.660  11.076 -1.4760  1.5799 -0.8944
  304TMC3    C7 4636   2.210   4.510  10.991  0.0181  0.0540  0.8776
  304TMC3    C8 4637   1.927   0.076  10.887  0.1003  0.2801  0.6416
  304TMC3    O1 4638   2.226   4.463  11.107 -0.3118  0.4967 -0.1640
  304TMC3    O2 4639   1.907   0.118  10.774 -0.5066 -0.5758  0.4265
  305MPD2     C 4640   0.585   2.215  14.004  0.7094 -0.6237 -0.1845
  305MPD2    C1 4641   0.664   2.117  13.958  0.4283 -0.0377  0.5399
  305MPD2    C2 4642   0.671   2.084  13.827  0.4312  0.0241 -0.6565
  305MPD2    C3 4643   0.599   2.161  13.736 -0.3896  0.2434  1.2381
  305MPD2    C4 4644   0.507   2.257  13.783 -0.5172 -0.0905 -0.1900
  305MPD2    C5 4645   0.507   2.288  13.914  0.1704  0.0402  0.1538
  305MPD2     H 4646   0.728   1.996  13.801 -0.0119 -0.9875  1.8159
  305MPD2    H1 4647   0.441   2.306  13.712  0.6766  0.9387 -0.5843
  305MPD2    H2 4648   0.570   2.218  14.111  1.0420  2.0761 -0.2182
  305MPD2    H3 4649   0.435   2.357  13.956 -0.0778 -1.4685  2.2579
  305MPD2     N 4650   0.607   2.152  13.592  0.0696 -0.4305  0.7418
  305MPD2    H5 4651   0.559   2.218  13.531 -0.5944  0.2857  2.0327
  305MPD2    N1 4652   0.722   2.054  14.067  0.5204 -0.2533 -0.4213
  305MPD2    H7 4653   0.703   2.090  14.160 -0.0801 -0.4085 -0.4867
  306TMC3    C1 4654   0.856   1.920  14.187  0.1801 -0.0504 -0.5441
  306TMC3    C2 4655   0.974   1.857  14.196  0.1244  0.0950 -0.6608
  306TMC3    C3 4656   1.046   1.853  14.316 -0.0189 -0.3005  0.1564
  306TMC3    C4 4657   0.803   1.979  14.300 -0.3776  0.3031  0.5326
  306TMC3    C5 4658   0.870   1.965  14.425  0.0845  0.3801  0.4422
  306TMC3    C6 4659   0.996   1.908  14.427  0.1920  0.6530  0.2312
  306TMC3     C 4660   0.808   1.949  14.060  0.1594 -0.0686  0.0644
  306TMC3     O 4661   0.859   1.900  13.959  0.2807 -0.1074  0.1402
  306TMC3     H 4662   1.010   1.811  14.104  1.0852  0.0310 -0.2463
  306TMC3    H1 4663   0.701   2.013  14.315 -0.9040 -0.6043 -1.0192
  306TMC3    H2 4664   1.049   1.887  14.519 -1.0797 -2.1305  0.3547
  306TMC3    C7 4665   0.830   2.062  14.523 -0.1886 -0.3639 -0.0992
  306TMC3    C8 4666   1.151   1.752  14.326  0.6957  0.2579 -0.3293
  306TMC3    O1 4667   0.712   2.095  14.518 -0.1395  0.4989  0.0287
  306TMC3    O2 4668   1.122   1.645  14.273  0.4466  0.0928 -0.2543
  307MPD2     C 4669   3.326   0.757  17.611 -0.0528  0.6640  0.3662
  307MPD2    C1 4670   3.371   0.859  17.689 -0.2141  0.5760  0.2526
  307MPD2    C2 4671   3.399   0.831   0.075  0.1254 -0.3070  0.9096
  307MPD2    C3 4672   3.384   0.710   0.132  0.6367  0.4645 -0.5940
  307MPD2    C4 4673   3.322   0.613   0.055  0.3974  0.2705 -0.5641
  307MPD2    C5 4674   3.304   0.635  17.673  0.2595  0.0395 -0.2045
  307MPD2     H 4675   3.426   0.916   0.137  2.2227 -0.2896  0.0039
  307MPD2    H1 4676   3.295   0.514   0.090  2.0803  0.1501  0.3802
  307MPD2    H2 4677   3.298   0.782  17.509  0.2634  1.7526  0.5497
  307MPD2    H3 4678   3.267   0.545  17.624  0.3063  0.1617 -0.4664
  307MPD2     N 4679   3.420   0.687   0.268  0.1998  0.1774 -0.1216
  307MPD2    H5 4680   3.458   0.765   0.321 -1.2951  0.6214  0.2933
  307MPD2    N1 4681   3.379   0.990  17.646 -0.3993  0.2085  0.1846
  307MPD2    H7 4682   3.400   1.053  17.723 -0.6072  0.1652  0.2759
  308TMC3    C1 4683   3.421   0.491   0.674  0.6457  0.5895  1.3636
  308TMC3    C2 4684   3.512   0.578   0.734  0.1720  0.5756  0.4692
  308TMC3    C3 4685   3.571   0.671   0.657 -0.5039 -0.4619  0.1367
  308TMC3    C4 4686   3.387   0.484   0.545 -0.1739  0.3777 -0.0898
  308TMC3    C5 4687   3.456   0.575   0.472 -0.1265 -0.1399  0.7403
  308TMC3    C6 4688   3.543   0.666   0.520  0.0148  0.3271  0.0312
  308TMC3     C 4689   3.323   0.418   0.757 -0.0278  0.6430 -0.3156
  308TMC3     O 4690   3.387   0.361   0.846 -0.5329 -0.0395 -0.0086
  308TMC3     H 4691   3.533   0.572   0.840 -1.1367  0.6719  0.7255
  308TMC3    H1 4692   3.314   0.417   0.500 -1.1637  1.4787 -0.1282
  308TMC3    H2 4693   3.594   0.728   0.448  0.7734  0.8508  1.0291
  308TMC3    C7 4694   3.423   0.569   0.335  0.2587 -0.5522  0.4608
  308TMC3    C8 4695   3.552   0.797   0.716 -0.8598 -0.2416 -0.1071
  308TMC3    O1 4696   3.369   0.461   0.302 -0.3072 -0.3507  0.3614
  308TMC3    O2 4697   3.454   0.816   0.792  0.7289  0.2002 -0.0152
  309MPD2     C 4698   2.734   0.289  17.217 -0.6449  0.8830 -0.7395
  309MPD2    C1 4699   2.705   0.404  17.150  0.5099  0.1112 -0.6345
  309MPD2    C2 4700   2.682   0.523  17.218 -0.1843  0.5410  0.4801
  309MPD2    C3 4701   2.685   0.523  17.357 -0.0132 -0.3085 -0.2076
  309MPD2    C4 4702   2.703   0.404  17.422 -0.4967 -0.0436 -0.4955
  309MPD2    C5 4703   2.739   0.291  17.351  0.3733  0.4582  0.1368
  309MPD2     H 4704   2.659   0.612  17.160 -1.6803 -0.8438 -1.0355
  309MPD2    H1 4705   2.705   0.394  17.530  0.2617 -0.9954 -0.5911
  309MPD2    H2 4706   2.770   0.207  17.156 -0.9232  1.4798 -1.7083
  309MPD2    H3 4707   2.750   0.197  17.405  1.4835  0.7926  0.4899
  309MPD2     N 4708   2.652   0.640  17.430 -0.3338 -0.0424  0.1713
  309MPD2    H5 4709   2.628   0.619  17.526 -1.2066 -3.2807 -0.7725
  309MPD2    N1 4710   2.689   0.404  17.008 -0.1884  0.6728 -0.0665
  309MPD2    H7 4711   2.661   0.495  16.973 -2.9185 -0.4690 -0.8886
  310TMC3    C1 4712   2.645   0.329  16.793 -0.7832  0.4523 -0.6144
  310TMC3    C2 4713   2.575   0.440  16.769  0.7371  0.2462 -0.9283
  310TMC3    C3 4714   2.570   0.492  16.639 -0.3970 -0.3104  0.1808
  310TMC3    C4 4715   2.716   0.272  16.691  0.2076  0.6020 -0.3946
  310TMC3    C5 4716   2.716   0.326  16.564  0.5234  0.3261  0.9731
  310TMC3    C6 4717   2.646   0.435  16.539  0.3835  0.4035  0.4391
  310TMC3     C 4718   2.690   0.296  16.925  0.1265 -0.2413 -0.3204
  310TMC3     O 4719   2.730   0.184  16.944 -0.3251  0.3413 -0.4177
  310TMC3     H 4720   2.505   0.471  16.846 -0.6889 -1.2364 -1.6127
  310TMC3    H1 4721   2.754   0.172  16.711 -1.9596 -0.0485  0.4766
  310TMC3    H2 4722   2.641   0.469  16.436  1.8540 -1.8430 -0.3613
  310TMC3    C7 4723   2.811   0.273  16.473 -0.3681 -0.3250 -0.6734
  310TMC3    C8 4724   2.456   0.567  16.587  0.2646 -1.0381  0.1240
  310TMC3    O1 4725   2.774   0.265  16.358 -0.7446  0.8644 -0.3103
  310TMC3    O2 4726   2.409   0.523  16.480  0.6097 -0.7056 -0.3863
  311MPD2     C 4727   4.460   1.816  12.257  0.1105 -1.6692  0.1019
  311MPD2    C1 4728   4.461   1.850  12.394  0.2761  0.1870  0.3651
  311MPD2    C2 4729   4.344   1.858  12.458 -0.6553  0.2241 -0.0827
  311MPD2    C3 4730   4.225   1.824  12.395  0.1641  0.0232  0.5273
  311MPD2    C4 4731   4.227   1.790  12.255  0.1327 -0.2360 -0.0531
  311MPD2    C5 4732   4.347   1.785  12.187 -0.0652  0.2497  0.2544
  311MPD2     H 4733   4.336   1.895  12.560 -0.7981 -0.5671  0.1947
  311MPD2    H1 4734   4.140   1.769  12.194 -1.6965  0.7978  2.2025
  311MPD2    H2 4735   4.545   1.834  12.193 -1.7275 -1.9176 -2.4588
  311MPD2    H3 4736   4.353   1.770  12.080 -1.7164  0.3671  0.1457
  311MPD2     N 4737   4.105   1.829  12.474  1.0580  0.4154  0.2515
  311MPD2    H5 4738   4.121   1.865  12.567  1.3103 -0.8532  0.7089
  311MPD2    N1 4739   4.577   1.899  12.449  0.2631 -0.0039  0.3099
  311MPD2    H7 4740   4.566   1.944  12.540 -0.1029 -0.7958  0.6504
  312TMC3    C1 4741   3.891   1.794  12.531  0.4353  0.4731 -0.5342
  312TMC3    C2 4742   3.762   1.791  12.489 -0.1960  0.3405  0.7130
  312TMC3    C3 4743   3.672   1.728  12.567 -0.3964  0.3769  0.1104
  312TMC3    C4 4744   3.934   1.729  12.645 -0.1308  0.0657  0.4831
  312TMC3    C5 4745   3.838   1.671  12.719  0.4320 -0.2431 -0.3013
  312TMC3    C6 4746   3.712   1.665  12.681 -1.0374  0.7176 -0.6336
  312TMC3     C 4747   3.985   1.791  12.427  0.6289  0.5525  0.1857
  312TMC3     O 4748   3.948   1.768  12.318 -0.7226  0.0150 -0.2692
  312TMC3     H 4749   3.739   1.847  12.399  0.8172 -2.5508 -1.3264
  312TMC3    H1 4750   4.038   1.735  12.674  0.0905  0.3262 -0.3792
  312TMC3    H2 4751   3.645   1.608  12.743 -0.7277 -0.7315 -1.6279
  312TMC3    C7 4752   3.881   1.581  12.835 -0.2265  0.5810 -0.5314
  312TMC3    C8 4753   3.537   1.718  12.525 -1.0073  0.3597  0.7172
  312TMC3    O1 4754   3.814   1.482  12.861 -0.0537  0.5933 -0.6480
  312TMC3    O2 4755   3.472   1.637  12.591  0.0544 -0.6190  0.1764
  313MPD2     C 4756   3.574   1.364  11.651 -0.1960  0.5252 -0.2452
  313MPD2    C1 4757   3.484   1.428  11.568 -0.2103 -0.5403  0.3875
  313MPD2    C2 4758   3.405   1.345  11.490  0.3440 -0.2127 -0.1966
  313MPD2    C3 4759   3.411   1.210  11.496 -0.1856  0.2573  0.1835
  313MPD2    C4 4760   3.498   1.146  11.580  0.7670 -0.1796  0.2319
  313MPD2    C5 4761   3.581   1.226  11.651 -0.6354 -0.0791  0.4489
  313MPD2     H 4762   3.336   1.378  11.413  1.8528 -1.3346 -2.0241
  313MPD2    H1 4763   3.510   1.038  11.583  2.0535 -0.0771 -1.6386
  313MPD2    H2 4764   3.650   1.424  11.698  0.3733 -0.5250  0.1609
  313MPD2    H3 4765   3.661   1.179  11.707 -2.9835 -3.0574  1.2775
  313MPD2     N 4766   3.324   1.147  11.409 -0.2652 -0.2118 -0.1430
  313MPD2    H5 4767   3.254   1.208  11.367  0.0900 -0.1430 -0.6336
  313MPD2    N1 4768   3.493   1.566  11.537  0.1829  0.7957 -0.1098
  313MPD2    H7 4769   3.420   1.599  11.475  0.5621  0.0245 -0.9762
  314TMC3    C1 4770   3.571   1.786  11.525  0.2380 -0.5305  0.2998
  314TMC3    C2 4771   3.637   1.894  11.585 -0.4738 -0.2691 -0.1743
  314TMC3    C3 4772   3.654   2.001  11.501  0.0446  0.9095 -0.2784
  314TMC3    C4 4773   3.528   1.787  11.397 -0.0298 -0.1707 -0.2686
  314TMC3    C5 4774   3.534   1.904  11.333 -0.3790 -0.1947 -0.4575
  314TMC3    C6 4775   3.585   2.019  11.389  0.0484 -0.3253 -1.0126
  314TMC3     C 4776   3.580   1.657  11.591  0.3979  0.5704 -0.4806
  314TMC3     O 4777   3.637   1.656  11.699  0.3095 -0.1831  0.1759
  314TMC3     H 4778   3.675   1.885  11.686 -0.6528  5.3811  0.3650
  314TMC3    H1 4779   3.505   1.699  11.338  0.4200  0.9728 -2.1216
  314TMC3    H2 4780   3.602   2.105  11.325  3.8914  0.5290  1.1663
  314TMC3    C7 4781   3.522   1.902  11.188 -0.6361 -0.1274 -0.1608
  314TMC3    C8 4782   3.788   2.048  11.495 -0.4612 -0.5690 -0.1201
  314TMC3    O1 4783   3.545   1.801  11.133  0.0852  0.1131  0.1991
  314TMC3    O2 4784   3.809   2.151  11.433  0.2630  0.1497 -0.5734
  315MPD2     C 4785   3.396   0.094  17.460 -0.3386 -0.1566  0.2822
  315MPD2    C1 4786   3.438   0.127  17.583 -0.2480 -0.3617 -0.4019
  315MPD2    C2 4787   3.476   0.257  17.595 -0.3165  0.3266  0.1138
  315MPD2    C3 4788   3.474   0.345  17.495  0.2562  0.4103  0.3336
  315MPD2    C4 4789   3.424   0.310  17.370  0.2916  0.1757 -0.5103
  315MPD2    C5 4790   3.394   0.180  17.348 -0.4677 -0.6616 -0.8437
  315MPD2     H 4791   3.497   0.284  17.697  0.5774  1.0016 -0.2574
  315MPD2    H1 4792   3.425   0.375  17.284  1.1725  0.1546 -0.5242
  315MPD2    H2 4793   3.355   4.733  17.441 -0.1755 -0.5068  1.7415
  315MPD2    H3 4794   3.364   0.139  17.252  0.7925 -0.3672 -1.3636
  315MPD2     N 4795   3.540   0.466  17.518 -0.1767 -0.3268 -0.0364
  315MPD2    H5 4796   3.570   0.485  17.613 -0.3235  0.2053 -0.0941
  315MPD2    N1 4797   3.457   0.043  17.693  0.1603  0.1564 -0.5568
  315MPD2    H7 4798   3.514   0.080   0.020 -0.0083  0.8349 -0.7638
  316TMC3    C1 4799   3.633   0.676  17.485 -0.0838 -0.5138 -0.2480
  316TMC3    C2 4800   3.712   0.652  17.592  0.2733  0.5825 -0.1800
  316TMC3    C3 4801   3.777   0.752  17.650 -0.0144  0.1312  0.3044
  316TMC3    C4 4802   3.621   0.796  17.425  0.2077 -0.5616 -0.4794
  316TMC3    C5 4803   3.701   0.895  17.479 -0.5446  0.2012  0.2284
  316TMC3    C6 4804   3.774   0.876  17.593  0.3211 -0.1928  0.0273
  316TMC3     C 4805   3.564   0.568  17.429 -0.2140 -0.0759  0.6882
  316TMC3     O 4806   3.528   0.586  17.314  0.0779 -0.4528  0.1384
  316TMC3     H 4807   3.723   0.553  17.635  2.8210  0.5935 -0.8037
  316TMC3    H1 4808   3.550   0.809  17.344 -0.4559  0.1834  0.2232
  316TMC3    H2 4809   3.835   0.960  17.624 -0.7997  0.4609  0.4549
  316TMC3    C7 4810   3.694   1.038  17.437 -0.4060 -0.1712 -0.6197
  316TMC3    C8 4811   3.857   0.737   0.022  1.2146 -0.0585  0.0001
  316TMC3    O1 4812   3.708   1.128  17.522  0.2062  0.1607 -0.4699
  316TMC3    O2 4813   3.847   0.822   0.106 -0.2696 -0.2354 -0.1356
  317MPD2     C 4814   0.187   3.900  12.922 -0.0216 -0.0491 -0.0904
  317MPD2    C1 4815   0.246   3.811  12.832  0.0141  0.8318 -0.5816
  317MPD2    C2 4816   0.348   3.726  12.878  0.1719  0.5600  0.0914
  317MPD2    C3 4817   0.392   3.730  13.004 -0.1301  0.2887  0.8078
  317MPD2    C4 4818   0.325   3.815  13.092 -0.1805 -0.4596  0.2206
  317MPD2    C5 4819   0.233   3.905  13.051  0.4914  0.8931  0.2298
  317MPD2     H 4820   0.397   3.651  12.816 -0.8422  1.1808 -1.4542
  317MPD2    H1 4821   0.352   3.819  13.196  1.2153  0.7234 -0.1826
  317MPD2    H2 4822   0.095   3.951  12.895  0.7476  2.0520  1.2404
  317MPD2    H3 4823   0.189   3.966  13.130 -0.1085 -0.6492  1.0930
  317MPD2     N 4824   0.481   3.632  13.057 -0.8761  0.1616  0.0722
  317MPD2    H5 4825   0.510   3.563  12.988 -1.1555  0.4444 -0.3244
  317MPD2    N1 4826   0.206   3.802  12.696  0.0002 -0.2724 -0.1310
  317MPD2    H7 4827   0.272   3.741  12.649 -1.4762 -1.8644 -0.1148
  318TMC3    C1 4828   0.649   3.524  13.194  0.4790 -0.6612 -0.4878
  318TMC3    C2 4829   0.577   3.406  13.194  0.0101 -0.4317 -0.6677
  318TMC3    C3 4830   0.644   3.300  13.248 -0.7574  0.5760 -0.6050
  318TMC3    C4 4831   0.761   3.547  13.265 -0.1743 -0.0162  0.3241
  318TMC3    C5 4832   0.820   3.431  13.312  0.5764  0.4963 -0.0872
  318TMC3    C6 4833   0.767   3.302  13.310  0.2310  0.3004  0.5796
  318TMC3     C 4834   0.570   3.646  13.163  0.3740  0.0276  0.2193
  318TMC3     O 4835   0.591   3.752  13.222  0.0221 -0.2870 -0.0148
  318TMC3     H 4836   0.484   3.401  13.140  0.0263  0.1589 -0.7500
  318TMC3    H1 4837   0.816   3.640  13.258 -0.0900 -0.1676 -1.0423
  318TMC3    H2 4838   0.805   3.221  13.371  2.2516  0.0395 -1.0216
  318TMC3    C7 4839   0.959   3.438  13.352  0.3414 -0.4545 -0.3600
  318TMC3    C8 4840   0.576   3.173  13.250  0.6412 -0.7119  0.2053
  318TMC3    O1 4841   1.006   3.553  13.366 -0.3584  0.5690  0.1266
  318TMC3    O2 4842   0.657   3.079  13.263  0.2876  0.0537 -0.4353
  319MPD2     C 4843   2.094   0.105  16.064 -1.0933 -0.1317  0.2272
  319MPD2    C1 4844   1.996   0.077  16.165  0.3086 -0.1039 -0.9319
  319MPD2    C2 4845   1.892   0.000  16.125  0.3565  0.1900  0.0242
  319MPD2    C3 4846   1.862   4.716  15.992 -0.1644  0.4636 -0.3384
  319MPD2    C4 4847   1.953   0.023  15.899  0.9030  0.1454  0.2886
  319MPD2    C5 4848   2.064   0.085  15.934 -0.8437  0.1065 -0.8100
  319MPD2     H 4849   1.825   4.718  16.208 -0.4830 -0.1187 -0.7308
  319MPD2    H1 4850   1.931   0.006  15.794 -0.9917  0.2664  0.6655
  319MPD2    H2 4851   2.182   0.165  16.086 -1.4862  0.7124 -0.4854
  319MPD2    H3 4852   2.126   0.132  15.859  2.2994  0.3330  1.9115
  319MPD2     N 4853   1.738   4.660  15.946  0.1118 -0.6758  0.0045
  319MPD2    H5 4854   1.727   4.648  15.846 -0.3970  0.2756 -0.0533
  319MPD2    N1 4855   2.000   0.115  16.298 -0.2520  0.2485  0.0153
  319MPD2    H7 4856   1.934   0.066  16.359  0.5781 -0.9010 -0.0191
  320TMC3    C1 4857   1.538   4.549  15.946 -0.1149 -0.4006  0.3071
  320TMC3    C2 4858   1.463   4.632  15.863  0.0828  0.0342  0.6545
  320TMC3    C3 4859   1.337   4.587  15.823  0.0332  0.0663  0.0681
  320TMC3    C4 4860   1.495   4.422  15.969  0.4403  0.6359  0.5719
  320TMC3    C5 4861   1.381   4.380  15.907  0.5290 -0.2394  1.3241
  320TMC3    C6 4862   1.298   4.460  15.842 -0.3503 -0.2733 -0.2153
  320TMC3     C 4863   1.650   4.592  16.018  0.1982  0.6856 -0.9506
  320TMC3     O 4864   1.669   4.564  16.137 -0.1052  0.0166 -0.3869
  320TMC3     H 4865   1.489   4.734  15.838 -1.1643  0.5023  1.2687
  320TMC3    H1 4866   1.561   4.360  16.029 -0.2125 -0.2029  0.4300
  320TMC3    H2 4867   1.206   4.412  15.811 -0.1353 -0.8266  0.0033
  320TMC3    C7 4868   1.330   4.248  15.942 -0.1323 -0.3733  0.1357
  320TMC3    C8 4869   1.240   4.689  15.789 -0.2246  0.5673 -0.0371
  320TMC3    O1 4870   1.255   4.190  15.860 -0.0696  0.2291 -0.3928
  320TMC3    O2 4871   1.282   0.068  15.793 -0.2005  0.1124 -0.1085
  321TMC3    C1 4872   2.104   0.186  16.504  0.3462  0.2753 -0.3084
  321TMC3    C2 4873   2.021   0.099  16.574  0.0792 -0.2209 -0.3479
  321TMC3    C3 4874   1.954   0.152  16.683  0.7123  0.0719  0.0725
  321TMC3    C4 4875   2.142   0.307  16.553 -0.2057  0.7705  0.0898
  321TMC3    C5 4876   2.077   0.365  16.658 -0.4953  0.4642  1.0213
  321TMC3    C6 4877   1.979   0.290  16.716  0.5844  0.2279  0.5202
  321TMC3     C 4878   2.107   0.185  16.354  0.1228  0.2164 -1.0172
  321TMC3     O 4879   2.201   0.240  16.299 -0.4606 -0.3084  0.4208
  321TMC3     H 4880   1.990   0.000  16.542 -0.5121  0.1156 -0.7997
  321TMC3    H1 4881   2.216   0.356  16.491 -1.2489 -0.3179 -2.0080
  321TMC3    H2 4882   1.942   0.323  16.812 -0.0342  2.1094 -0.3566
  321TMC3    C7 4883   2.173   0.414  16.754 -0.3878  0.2048  0.4402
  321TMC3    C8 4884   1.969   0.078  16.806  0.0202  0.1222  0.0501
  321TMC3    O1 4885   2.278   0.352  16.758  0.0531  0.1735  0.5089
  321TMC3    O2 4886   1.952   0.125  16.918  0.2021 -0.4550  0.3117
  322MPD2     C 4887   0.445   1.435  13.595 -0.2211 -0.2169 -0.0574
  322MPD2    C1 4888   0.484   1.385  13.719 -0.2562  0.7969 -0.9096
  322MPD2    C2 4889   0.533   1.259  13.737  0.5625 -0.4655  0.8217
  322MPD2    C3 4890   0.544   1.174  13.626  0.3687  0.1862  0.1733
  322MPD2    C4 4891   0.505   1.222  13.501 -0.1335 -0.4383 -0.2626
  322MPD2    C5 4892   0.454   1.352  13.490 -0.9862 -0.3993 -0.5448
  322MPD2     H 4893   0.570   1.219  13.831  0.3424 -3.4648 -0.3548
  322MPD2    H1 4894   0.496   1.154  13.417  2.0566  0.6258 -1.3484
  322MPD2    H2 4895   0.403   1.535  13.584 -1.0393 -0.4524  0.8835
  322MPD2    H3 4896   0.402   1.387  13.401 -0.9999 -3.6214 -1.7884
  322MPD2     N 4897   0.610   1.043  13.645 -0.4421 -0.3016  0.7596
  322MPD2    H5 4898   0.623   1.011  13.740 -1.7792  0.8993  1.3518
  322MPD2    N1 4899   0.496   1.471  13.822  0.0404 -0.4173  0.2792
  322MPD2    H7 4900   0.496   1.570  13.799 -1.0403 -0.3140  0.7311
  323TMC3    C1 4901   0.632   1.545  13.992 -0.0406 -0.5406  0.1573
  323TMC3    C2 4902   0.724   1.596  13.907 -0.0912 -0.2684  1.0496
  323TMC3    C3 4903   0.856   1.590  13.935  0.4363 -0.2497  1.0782
  323TMC3    C4 4904   0.678   1.508  14.117  0.3641  0.2756  0.6534
  323TMC3    C5 4905   0.814   1.494  14.144 -0.4006 -0.9194  0.1343
  323TMC3    C6 4906   0.903   1.531  14.052  1.1239 -0.4109 -0.8012
  323TMC3     C 4907   0.547   1.438  13.947  0.8308 -0.2018 -0.1696
  323TMC3     O 4908   0.553   1.340  14.021  0.0177 -0.4048  0.2634
  323TMC3     H 4909   0.691   1.640  13.813  1.9360 -0.4977  0.2358
  323TMC3    H1 4910   0.610   1.471  14.192  0.5533  0.9025  1.1323
  323TMC3    H2 4911   1.011   1.526  14.063  1.0120 -3.5932 -1.2898
  323TMC3    C7 4912   0.849   1.403  14.254  0.3842  0.0564  0.3912
  323TMC3    C8 4913   0.964   1.637  13.843  0.2665  0.1191 -0.4446
  323TMC3    O1 4914   0.761   1.330  14.301  0.5869  0.4293 -0.2119
  323TMC3    O2 4915   1.079   1.631  13.878  0.0843  0.1736  0.5514
  324MPD2     C 4916   2.158   2.378  14.594 -0.0727  0.2725 -0.9504
  324MPD2    C1 4917   2.219   2.429  14.481  0.6201 -0.0025  0.5413
  324MPD2    C2 4918   2.142   2.461  14.370 -0.2970  0.1744  0.4683
  324MPD2    C3 4919   2.007   2.434  14.360 -0.9540 -0.3309  0.4577
  324MPD2    C4 4920   1.954   2.381  14.474  0.1952 -0.4598  0.1754
  324MPD2    C5 4921   2.027   2.354  14.585  0.0957  0.7044 -0.4303
  324MPD2     H 4922   2.195   2.497  14.282  1.0818  0.9185  1.6050
  324MPD2    H1 4923   1.846   2.374  14.479  0.0781  0.6850 -0.6700
  324MPD2    H2 4924   2.212   2.368  14.687  1.0606  0.5901 -1.5739
  324MPD2    H3 4925   1.974   2.321  14.673  0.3415 -0.4593 -0.7137
  324MPD2     N 4926   1.924   2.463  14.254  0.1694  0.5797  0.4925
  324MPD2    H5 4927   1.827   2.433  14.255  0.4842 -0.4054  0.8801
  324MPD2    N1 4928   2.365   2.445  14.476 -0.4227 -0.3310  0.1121
  324MPD2    H7 4929   2.387   2.508  14.399 -0.7956  0.1815  0.4208
  325TMC3    C1 4930   1.840   2.576  14.076 -0.3192 -0.1260  0.2952
  325TMC3    C2 4931   1.711   2.534  14.102  0.0662  0.3054 -0.1990
  325TMC3    C3 4932   1.616   2.566  14.007  0.8429 -0.6403  0.5546
  325TMC3    C4 4933   1.873   2.644  13.961  0.2716  0.9655 -0.5323
  325TMC3    C5 4934   1.766   2.674  13.870 -0.3991  0.2228 -0.1223
  325TMC3    C6 4935   1.639   2.629  13.893 -0.0597  0.5854 -0.4793
  325TMC3     C 4936   1.963   2.533  14.143 -0.4626  0.0838  0.0808
  325TMC3     O 4937   2.074   2.537  14.089 -0.0852  0.5647  0.3966
  325TMC3     H 4938   1.684   2.491  14.198 -1.9305  2.3547  0.1614
  325TMC3    H1 4939   1.974   2.680  13.945  0.2466  0.6105 -1.4426
  325TMC3    H2 4940   1.565   2.613  13.815 -2.4128  1.7080  1.5394
  325TMC3    C7 4941   1.782   2.788  13.783 -0.0512 -0.1091 -0.5776
  325TMC3    C8 4942   1.473   2.551  14.050 -0.9173 -0.5355  0.6965
  325TMC3    O1 4943   1.897   2.831  13.767 -0.7701  0.2018  0.2903
  325TMC3    O2 4944   1.398   2.566  13.955  0.8708 -0.1755 -0.1080
  326MPD2     C 4945   3.115   3.818  11.013  0.7401  0.2710 -0.3760
  326MPD2    C1 4946   3.176   3.814  10.886 -0.5114  0.2520  0.9457
  326MPD2    C2 4947   3.308   3.853  10.877 -0.1657  0.4834  0.3147
  326MPD2    C3 4948   3.386   3.885  10.990  0.5053  0.0234  0.6096
  326MPD2    C4 4949   3.320   3.880  11.109 -0.2002  0.2450  0.5915
  326MPD2    C5 4950   3.185   3.854  11.126 -0.2355 -0.3514 -0.1719
  326MPD2     H 4951   3.346   3.859  10.775 -1.3810  1.9953 -0.0558
  326MPD2    H1 4952   3.372   3.933  11.187  2.2776  0.3534 -1.0975
  326MPD2    H2 4953   3.012   3.784  11.025  0.8002  0.5542  0.9455
  326MPD2    H3 4954   3.135   3.862  11.223  3.6609  1.6968  1.6737
  326MPD2     N 4955   3.523   3.916  10.983 -0.0945  0.2470 -0.4580
  326MPD2    H5 4956   3.563   3.967  11.061 -2.2755  0.9204  0.1875
  326MPD2    N1 4957   3.097   3.798  10.774  0.2313 -0.1462 -0.7472
  326MPD2    H7 4958   3.147   3.816  10.688  0.5732 -0.0980 -0.5390
  327TMC3    C1 4959   2.922   3.790  10.635 -0.4065 -0.0628  0.2018
  327TMC3    C2 4960   2.843   3.897  10.616 -0.4682  0.4127  0.0793
  327TMC3    C3 4961   2.861   3.979  10.507 -0.1309 -0.7480 -0.7493
  327TMC3    C4 4962   3.026   3.765  10.546  0.3869  0.1150 -1.1773
  327TMC3    C5 4963   3.043   3.847  10.439  1.1702 -0.1611 -0.3001
  327TMC3    C6 4964   2.961   3.953  10.416 -0.0618 -0.3678 -0.1591
  327TMC3     C 4965   2.962   3.786  10.770  0.6098  0.1077  0.4113
  327TMC3     O 4966   2.881   3.794  10.860 -0.6655 -0.2730 -0.0511
  327TMC3     H 4967   2.765   3.909  10.689  0.8890 -1.6966  1.8766
  327TMC3    H1 4968   3.078   3.672  10.560  2.4980  1.8246  2.2656
  327TMC3    H2 4969   2.980   4.022  10.335 -2.4601  1.0544  0.4855
  327TMC3    C7 4970   3.182   3.863  10.403  0.0806  0.2121  0.8853
  327TMC3    C8 4971   2.798   4.111  10.495 -0.7487  0.2446  0.8553
  327TMC3    O1 4972   3.208   3.956  10.332 -0.2924 -0.3426  0.4916
  327TMC3    O2 4973   2.843   4.194  10.414  0.0547 -0.0908 -0.7465
  328MPD2     C 4974   1.029   3.643  16.914  0.6030  0.1629  0.2452
  328MPD2    C1 4975   0.963   3.539  16.970 -0.7982 -0.5079  0.3540
  328MPD2    C2 4976   0.841   3.492  16.919  0.4464 -0.0475 -0.0826
  328MPD2    C3 4977   0.794   3.549  16.802 -1.0377  0.2178  0.2324
  328MPD2    C4 4978   0.877   3.631  16.735  0.3800  0.2353 -0.2565
  328MPD2    C5 4979   0.979   3.698  16.801 -0.4410 -0.2472 -0.4829
  328MPD2     H 4980   0.777   3.422  16.972  0.7539 -0.5053 -0.3134
  328MPD2    H1 4981   0.849   3.667  16.637 -2.8966 -0.5046  0.3984
  328MPD2    H2 4982   1.121   3.689  16.950  0.6341  0.2901  0.0027
  328MPD2    H3 4983   1.031   3.786  16.766  0.1399 -0.3477  0.1252
  328MPD2     N 4984   0.668   3.536  16.753  0.1972  0.0717 -0.3009
  328MPD2    H5 4985   0.647   3.600  16.677 -1.2338 -0.6280 -0.4892
  328MPD2    N1 4986   1.023   3.469  17.075 -0.0115 -0.7146 -0.0852
  328MPD2    H7 4987   1.095   3.520  17.125  0.1374  0.3667 -1.4070
  329TMC3    C1 4988   1.065   3.299  17.217  0.0887  0.0777 -0.1490
  329TMC3    C2 4989   1.122   3.388  17.299 -0.2000  0.2412 -0.4901
  329TMC3    C3 4990   1.182   3.331  17.411  0.0150  0.4306 -0.2151
  329TMC3    C4 4991   1.062   3.166  17.238 -0.0492  0.3050  0.0140
  329TMC3    C5 4992   1.116   3.110  17.348 -0.1218 -0.4754 -0.2713
  329TMC3    C6 4993   1.179   3.195  17.430 -0.1865 -0.0649 -0.2090
  329TMC3     C 4994   0.996   3.339  17.100  0.5083 -0.0447 -1.1386
  329TMC3     O 4995   0.956   3.253  17.022 -0.4055 -0.5871  0.5603
  329TMC3     H 4996   1.140   3.493  17.279 -0.6882  0.0528 -1.8717
  329TMC3    H1 4997   1.016   3.101  17.165 -0.2830 -0.4068  0.7933
  329TMC3    H2 4998   1.233   3.153  17.514  2.1852  3.3405 -0.0105
  329TMC3    C7 4999   1.152   2.970  17.353 -0.5149 -0.0250  0.1479
  329TMC3    C8 5000   1.223   3.416  17.524  0.3027  0.4146 -0.0388
  329TMC3    O1 5001   1.234   2.927  17.439  0.0804  0.1404 -0.1507
  329TMC3    O2 5002   1.314   3.379  17.596 -0.9652  0.3288 -0.7433
  330TMC3    C1 5003   3.677   3.159   9.611 -0.0829  0.3786 -0.0664
  330TMC3    C2 5004   3.558   3.106   9.566 -0.2792  0.8882  1.1421
  330TMC3    C3 5005   3.539   2.971   9.577 -0.2895  0.0518  0.3096
  330TMC3    C4 5006   3.765   3.083   9.683  0.1472 -0.2308 -0.0627
  330TMC3    C5 5007   3.732   2.949   9.698  0.8382  0.0348 -0.4370
  330TMC3    C6 5008   3.623   2.891   9.644 -0.9670  0.7872  0.3728
  330TMC3     C 5009   3.682   3.306   9.645  0.5675 -0.2589 -0.0672
  330TMC3     O 5010   3.771   3.345   9.724  0.3273  0.6155  0.1626
  330TMC3     H 5011   3.473   3.162   9.530  1.2005  0.0461 -3.6971
  330TMC3    H1 5012   3.856   3.123   9.725 -1.3518  0.7112  2.3444
  330TMC3    H2 5013   3.607   2.784   9.649 -1.3462  0.8297  0.0379
  330TMC3    C7 5014   3.815   2.857   9.769  0.2554  0.2470  0.2986
  330TMC3    C8 5015   3.428   2.914   9.503 -0.6135 -0.0322  0.4370
  330TMC3    O1 5016   3.773   2.748   9.797 -0.1728  0.3929  0.4938
  330TMC3    O2 5017   3.384   2.980   9.409 -0.3556 -0.4465 -0.3724
  331MPD2     C 5018   1.396   2.258  12.705  0.5353  0.2011  0.3709
  331MPD2    C1 5019   1.462   2.190  12.604 -0.3220 -0.3378  0.2100
  331MPD2    C2 5020   1.513   2.069  12.644 -0.5258  0.0289  0.8862
  331MPD2    C3 5021   1.512   2.017  12.768  0.4363 -0.1949  0.1056
  331MPD2    C4 5022   1.441   2.084  12.868  0.6467 -0.2164  0.2387
  331MPD2    C5 5023   1.389   2.206  12.832  0.0198 -0.4280 -0.5182
  331MPD2     H 5024   1.582   2.015  12.580 -2.0036 -0.9740  0.1506
  331MPD2    H1 5025   1.429   2.047  12.969  1.1595  0.0134  0.3845
  331MPD2    H2 5026   1.358   2.359  12.692 -2.3660 -0.9670 -0.0760
  331MPD2    H3 5027   1.331   2.266  12.902  0.8325  0.6123 -0.7412
  331MPD2     N 5028   1.583   1.903  12.787  0.5641  0.2460 -0.1637
  331MPD2    H5 5029   1.612   1.848  12.706 -0.8421 -0.4248 -0.2080
  331MPD2    N1 5030   1.489   2.245  12.475 -0.3590 -0.0395 -0.2608
  331MPD2    H7 5031   1.556   2.194  12.419 -2.0535 -2.7915  0.2081
  332TMC3    C1 5032   1.693   1.727  12.897 -0.3998  0.0998  0.4557
  332TMC3    C2 5033   1.685   1.675  12.774  0.0823  0.2964 -0.7502
  332TMC3    C3 5034   1.792   1.599  12.738  0.2835  0.3308  0.1351
  332TMC3    C4 5035   1.800   1.718  12.988 -0.3768 -0.5216  0.5447
  332TMC3    C5 5036   1.903   1.648  12.944  0.3002  0.2649 -0.6243
  332TMC3    C6 5037   1.902   1.578  12.823 -0.4998 -0.6933 -0.0526
  332TMC3     C 5038   1.608   1.846  12.906  0.3355 -0.2372 -0.1285
  332TMC3     O 5039   1.600   1.889  13.020  0.3553 -0.3158  0.1287
  332TMC3     H 5040   1.589   1.674  12.722 -1.1400  0.7762  1.5151
  332TMC3    H1 5041   1.801   1.775  13.080  1.0628 -0.3503  0.4118
  332TMC3    H2 5042   1.989   1.517  12.801  0.5046 -0.0931  2.2584
  332TMC3    C7 5043   2.029   1.722  12.941  0.0555  0.5869 -0.0548
  332TMC3    C8 5044   1.797   1.543  12.606  0.1583 -0.0279 -0.0253
  332TMC3    O1 5045   2.019   1.835  12.989 -0.4481 -0.4378 -0.0732
  332TMC3    O2 5046   1.906   1.516  12.559  0.3414 -0.0450 -0.3092
  333MPD2     C 5047   2.018   2.423  11.434  0.1477 -0.4968 -0.3000
  333MPD2    C1 5048   2.069   2.364  11.321 -0.3417 -0.0112  0.4638
  333MPD2    C2 5049   2.056   2.229  11.303 -0.5525  0.2112  0.2438
  333MPD2    C3 5050   1.986   2.155  11.398 -0.0914  0.3626 -0.2508
  333MPD2    C4 5051   1.944   2.213  11.516 -0.0592  0.5702 -0.4829
  333MPD2    C5 5052   1.963   2.347  11.531  0.0982 -1.3422 -0.0686
  333MPD2     H 5053   2.109   2.175  11.225  0.1644  0.2513  0.7001
  333MPD2    H1 5054   1.896   2.166  11.600  1.5828  1.5261  0.9941
  333MPD2    H2 5055   2.025   2.531  11.446 -0.4660 -0.7486  2.3338
  333MPD2    H3 5056   1.938   2.396  11.624 -3.7062  1.4265 -2.5726
  333MPD2     N 5057   1.975   2.018  11.378  0.1170  0.2044  0.2724
  333MPD2    H5 5058   2.015   1.986  11.291  0.2266 -0.6623  0.6456
  333MPD2    N1 5059   2.130   2.448  11.235  0.2797 -0.1396 -0.1422
  333MPD2    H7 5060   2.139   2.545  11.264  1.1361 -0.0269 -0.7581
  334TMC3    C1 5061   2.236   2.525  11.034  0.2905 -0.6203 -0.3571
  334TMC3    C2 5062   2.330   2.484  10.945 -0.7224 -0.8179  0.1093
  334TMC3    C3 5063   2.391   2.583  10.877  0.1391  0.0689  0.4847
  334TMC3    C4 5064   2.206   2.660  11.059  0.3419  0.3768 -0.2130
  334TMC3    C5 5065   2.282   2.754  10.999  0.0819 -0.3669  0.0522
  334TMC3    C6 5066   2.375   2.717  10.904 -0.0985 -1.1846  0.0258
  334TMC3     C 5067   2.175   2.415  11.112 -0.1953 -0.2863 -0.9205
  334TMC3     O 5068   2.163   2.310  11.058  0.2530 -0.1739  0.5837
  334TMC3     H 5069   2.371   2.384  10.939  2.3344  0.2421  3.4015
  334TMC3    H1 5070   2.135   2.680  11.138  0.1907  0.2764 -0.3212
  334TMC3    H2 5071   2.425   2.788  10.840 -0.7393 -0.1571  0.6602
  334TMC3    C7 5072   2.246   2.894  11.012  0.3985 -0.3872  0.3698
  334TMC3    C8 5073   2.467   2.539  10.756 -0.2453  0.1751 -0.6339
  334TMC3    O1 5074   2.322   2.977  10.966  0.4341  0.2656  0.2411
  334TMC3    O2 5075   2.414   2.460  10.682 -0.2195  0.1515  0.2182
  335TMC3    C1 5076   1.561   3.908  17.495 -0.2621 -0.0619 -0.2879
  335TMC3    C2 5077   1.479   3.824  17.421  0.1736  0.1213  0.8744
  335TMC3    C3 5078   1.529   3.727  17.349  0.3733  0.5443  0.2279
  335TMC3    C4 5079   1.691   3.880  17.503  0.5534 -0.6541  0.0817
  335TMC3    C5 5080   1.737   3.777  17.427  0.0499  0.3324 -0.0604
  335TMC3    C6 5081   1.660   3.694  17.353  0.1447 -0.8771 -0.1989
  335TMC3     C 5082   1.488   4.000  17.576  0.5706  0.2751 -0.0357
  335TMC3     O 5083   1.375   4.035  17.539  0.4492  0.2429  0.3207
  335TMC3     H 5084   1.378   3.851  17.391  0.2621  2.1742  2.4501
  335TMC3    H1 5085   1.757   3.943  17.563  0.3951  1.3310 -1.8352
  335TMC3    H2 5086   1.698   3.615  17.289  3.9386 -0.8589  1.9858
  335TMC3    C7 5087   1.868   3.717  17.445 -0.2128  0.0728  0.9012
  335TMC3    C8 5088   1.440   3.666  17.246 -0.1963 -0.1027  0.5754
  335TMC3    O1 5089   1.882   3.601  17.417  0.1960  0.5713  0.9537
  335TMC3    O2 5090   1.344   3.731  17.201 -0.1883  0.4210 -0.7156
  336MPD2     C 5091   1.484   0.995  16.462 -0.1295  0.0158 -1.0925
  336MPD2    C1 5092   1.475   0.961  16.331  0.1263 -0.2192 -1.1540
  336MPD2    C2 5093   1.532   0.844  16.286 -0.0735 -0.1786 -0.3692
  336MPD2    C3 5094   1.584   0.754  16.381 -0.3851  0.9570 -0.1566
  336MPD2    C4 5095   1.585   0.783  16.511 -1.2010  0.1172 -0.0210
  336MPD2    C5 5096   1.531   0.901  16.556  0.4039  0.3205  0.2753
  336MPD2     H 5097   1.530   0.822  16.180  2.2558  2.8094 -1.0396
  336MPD2    H1 5098   1.609   0.706  16.583 -0.8199  0.6962  0.4708
  336MPD2    H2 5099   1.445   1.089  16.500  0.4975 -0.0126 -0.3756
  336MPD2    H3 5100   1.533   0.925  16.662  4.0907 -0.6416  0.4225
  336MPD2     N 5101   1.640   0.627  16.351 -0.1566 -0.2047 -0.0230
  336MPD2    H5 5102   1.665   0.568  16.430 -0.3012 -0.8747 -0.4709
  336MPD2    N1 5103   1.417   1.050  16.236 -0.2505 -0.3765 -0.0548
  336MPD2    H7 5104   1.444   1.029  16.140 -1.0162  0.9699 -0.5838
  337TMC3    C1 5105   1.330   1.244  16.141 -0.4535  0.4876 -0.2964
  337TMC3    C2 5106   1.249   1.179  16.050 -0.8277 -0.0819 -0.0560
  337TMC3    C3 5107   1.178   1.253  15.963 -0.2448 -0.2666  0.4146
  337TMC3    C4 5108   1.322   1.386  16.149  0.5457 -0.3825 -0.2089
  337TMC3    C5 5109   1.258   1.452  16.051  0.1047 -0.0895 -0.0752
  337TMC3    C6 5110   1.182   1.387  15.959 -0.3996 -0.4050  0.0544
  337TMC3     C 5111   1.363   1.171  16.262 -0.3820 -0.3743 -0.3364
  337TMC3     O 5112   1.347   1.228  16.370 -0.1463 -0.0592 -0.2705
  337TMC3     H 5113   1.231   1.072  16.052  2.9612 -0.7266 -0.6181
  337TMC3    H1 5114   1.375   1.437  16.228 -1.3317  0.7982  0.2650
  337TMC3    H2 5115   1.125   1.453  15.894  2.2195  0.3545 -1.4450
  337TMC3    C7 5116   1.231   1.592  16.059 -0.4487  0.1374 -0.3903
  337TMC3    C8 5117   1.083   1.187  15.885 -0.3930  0.0102 -0.1624
  337TMC3    O1 5118   1.226   1.652  15.952  0.3283 -0.4747  0.3734
  337TMC3    O2 5119   1.051   1.074  15.926 -0.3997  0.2651 -0.2961
  338MPD2     C 5120   1.926   0.701   1.051 -0.3697  0.0821  0.2684
  338MPD2    C1 5121   1.939   0.623   0.940  0.0667 -0.0103 -0.6237
  338MPD2    C2 5122   1.822   0.591   0.869  0.0068 -0.5281 -0.2774
  338MPD2    C3 5123   1.694   0.632   0.912 -0.5102  0.5660  1.0483
  338MPD2    C4 5124   1.680   0.700   1.028  0.3050 -0.9245  0.6102
  338MPD2    C5 5125   1.800   0.738   1.098 -0.5872 -0.0463 -0.2245
  338MPD2     H 5126   1.835   0.545   0.772  1.2981 -0.7909  0.0098
  338MPD2    H1 5127   1.583   0.735   1.062  0.5453  1.3871 -1.0671
  338MPD2    H2 5128   2.017   0.741   1.094 -0.6928 -0.0172  1.0521
  338MPD2    H3 5129   1.776   0.794   1.188  1.4747  1.2916 -0.4988
  338MPD2     N 5130   1.585   0.585   0.832  0.1385  0.5398  0.1410
  338MPD2    H5 5131   1.605   0.547   0.740  2.4608  0.0915  0.8179
  338MPD2    N1 5132   2.063   0.583   0.889 -0.1376 -0.2094  0.3444
  338MPD2    H7 5133   2.059   0.539   0.797 -0.4851  1.1579 -0.3102
  339TMC3    C1 5134   1.394   0.483   0.763 -0.1857  0.5516  0.0284
  339TMC3    C2 5135   1.379   0.350   0.797  0.1038  0.7853  0.1585
  339TMC3    C3 5136   1.406   0.254   0.705 -0.1610 -0.1686  0.4989
  339TMC3    C4 5137   1.431   0.524   0.639 -0.5330 -0.1156 -0.2302
  339TMC3    C5 5138   1.457   0.428   0.550 -0.3805  0.1663  0.5224
  339TMC3    C6 5139   1.440   0.292   0.582 -0.4479 -0.2081  0.4726
  339TMC3     C 5140   1.457   0.555   0.870  0.6859  0.2428  0.2374
  339TMC3     O 5141   1.421   0.524   0.983 -0.2484 -0.1605  0.0334
  339TMC3     H 5142   1.351   0.306   0.893 -0.7169  0.5828 -0.1760
  339TMC3    H1 5143   1.433   0.628   0.608  0.0466  0.3660  1.3998
  339TMC3    H2 5144   1.460   0.224   0.501 -0.7544  0.5258 -0.2259
  339TMC3    C7 5145   1.496   0.464   0.417 -0.4927 -0.0181  0.1226
  339TMC3    C8 5146   1.461   0.134   0.759  0.0534  0.4621  0.2001
  339TMC3    O1 5147   1.490   0.582   0.394  0.1308 -0.1204  0.3566
  339TMC3    O2 5148   1.575   0.107   0.717 -0.3015 -0.2709  0.7300
  340MPD2     C 5149   1.679   3.681  10.343  0.1167 -0.1165  0.7150
  340MPD2    C1 5150   1.733   3.566  10.289 -0.3836 -0.2163 -0.2641
  340MPD2    C2 5151   1.808   3.489  10.374  0.0691 -0.3240 -0.3721
  340MPD2    C3 5152   1.834   3.525  10.507 -0.0707  0.2749  0.4389
  340MPD2    C4 5153   1.774   3.636  10.556 -1.1437  0.3622  0.1196
  340MPD2    C5 5154   1.695   3.715  10.472 -0.0090  0.6250  0.1095
  340MPD2     H 5155   1.846   3.396  10.334  0.8318 -0.3210  0.3604
  340MPD2    H1 5156   1.789   3.671  10.658 -0.8924  0.0849  0.1788
  340MPD2    H2 5157   1.632   3.753  10.277 -1.1200 -1.4028  0.2137
  340MPD2    H3 5158   1.655   3.805  10.518 -0.6851  0.4251 -0.0864
  340MPD2     N 5159   1.919   3.464  10.594 -0.2877 -0.4288  0.2686
  340MPD2    H5 5160   1.950   3.518  10.674  1.9596 -0.7136 -0.4072
  340MPD2    N1 5161   1.713   3.526  10.152  0.2593 -0.3704 -0.5511
  340MPD2    H7 5162   1.753   3.436  10.126  0.2284 -0.1127 -1.5036
  341TMC3    C1 5163   1.683   3.563   9.916 -0.5194 -1.3501 -0.1934
  341TMC3    C2 5164   1.659   3.424   9.901 -0.1076  0.7235  0.6622
  341TMC3    C3 5165   1.685   3.372   9.773  0.4015  0.5348 -0.1917
  341TMC3    C4 5166   1.742   3.641   9.813 -0.0741  0.2612 -0.1212
  341TMC3    C5 5167   1.761   3.586   9.688 -0.4077 -0.7155  0.0136
  341TMC3    C6 5168   1.731   3.448   9.667 -0.0892 -0.1217 -0.3202
  341TMC3     C 5169   1.681   3.617  10.054 -0.1911  0.1679 -0.6627
  341TMC3     O 5170   1.665   3.738  10.055  0.1294  0.6294 -0.8428
  341TMC3     H 5171   1.635   3.366   9.989 -0.2767  0.0231  0.1544
  341TMC3    H1 5172   1.783   3.736   9.842 -0.6329  0.3625  0.3374
  341TMC3    H2 5173   1.736   3.409   9.566  0.4156  0.4991 -0.5361
  341TMC3    C7 5174   1.845   3.641   9.583 -0.4081 -0.4671 -0.7218
  341TMC3    C8 5175   1.656   3.233   9.747  0.6994 -0.3511  0.1564
  341TMC3    O1 5176   1.903   3.559   9.515  0.7309 -0.1647  0.0917
  341TMC3    O2 5177   1.586   3.177   9.829 -0.0813 -0.0485  0.4771
  342MPD2     C 5178   4.396   1.616  17.308 -0.4137 -0.4580  0.5250
  342MPD2    C1 5179   4.477   1.630  17.195  0.5990 -0.1155  0.4726
  342MPD2    C2 5180   4.529   1.755  17.159 -0.2643  0.4969 -0.1053
  342MPD2    C3 5181   4.495   1.862  17.236  0.0143 -0.3274  0.2363
  342MPD2    C4 5182   4.401   1.846  17.334 -0.1468  0.2123 -0.3542
  342MPD2    C5 5183   4.358   1.728  17.377  0.6260  0.5880  0.3005
  342MPD2     H 5184   4.586   1.761  17.067 -0.4745  0.8687 -0.2087
  342MPD2    H1 5185   4.379   1.934  17.393  1.0668 -0.2416  0.7929
  342MPD2    H2 5186   4.362   1.516  17.334 -2.0361 -0.0825 -0.2063
  342MPD2    H3 5187   4.286   1.723  17.458 -1.8834 -1.8736 -2.0649
  342MPD2     N 5188   4.549   1.992  17.217  0.0498  0.2188 -0.1327
  342MPD2    H5 5189   4.518   2.055  17.290 -3.6238 -2.0408  0.2563
  342MPD2    N1 5190   4.523   1.519  17.122 -0.2576 -0.5321  0.2874
  342MPD2    H7 5191   4.587   1.536  17.045  0.7942 -0.7644  1.1186
  343TMC3    C1 5192   4.559   1.298  17.044  0.2918 -0.0234 -0.1149
  343TMC3    C2 5193   4.692   1.321  17.040 -0.2826  0.2346 -0.1543
  343TMC3    C3 5194   0.044   1.219  17.012 -0.6279  0.6315 -0.0183
  343TMC3    C4 5195   4.506   1.171  17.039 -0.1384  0.2425 -0.1273
  343TMC3    C5 5196   4.595   1.069  17.026 -0.1638  0.1507 -0.2709
  343TMC3    C6 5197   4.733   1.086  17.016  0.2559  0.4087 -0.4028
  343TMC3     C 5198   4.479   1.386  17.135  0.2405 -0.6650  0.3500
  343TMC3     O 5199   4.400   1.333  17.214  0.4128  1.0791  0.3611
  343TMC3     H 5200   4.737   1.420  17.029 -0.0838  0.4440  2.6765
  343TMC3    H1 5201   4.401   1.157  17.062 -0.0913 -0.2155 -0.1904
  343TMC3    H2 5202   0.059   1.000  17.032 -0.4664 -0.5144 -2.5278
  343TMC3    C7 5203   4.541   0.938  17.044  0.1254  0.1822 -0.1375
  343TMC3    C8 5204   0.190   1.240  16.990 -0.5767  0.1822  0.6582
  343TMC3    O1 5205   4.427   0.931  17.004  0.0695 -0.6046  0.5672
  343TMC3    O2 5206   0.227   1.348  17.033 -0.2451 -0.3249  0.1935
  344MPD2     C 5207   0.896   0.925  10.670 -0.2251  0.3456  0.1711
  344MPD2    C1 5208   0.785   0.954  10.588  0.1435 -0.1221 -0.6642
  344MPD2    C2 5209   0.784   1.068  10.505 -0.2443  0.1121 -0.1967
  344MPD2    C3 5210   0.898   1.147  10.502  0.0665  0.0673 -0.0210
  344MPD2    C4 5211   1.005   1.117  10.582  0.4185  0.3832 -0.6376
  344MPD2    C5 5212   1.003   1.012  10.659  1.2682 -0.3779  0.0420
  344MPD2     H 5213   0.699   1.092  10.442 -0.6853  0.7291  0.6415
  344MPD2    H1 5214   1.095   1.177  10.578  0.9101 -0.4026 -1.4083
  344MPD2    H2 5215   0.906   0.837  10.732 -0.7091  1.5086  1.9047
  344MPD2    H3 5216   1.091   0.988  10.719  1.3961 -1.2172 -0.4765
  344MPD2     N 5217   0.923   1.256  10.412  0.3630 -0.4921 -0.5979
  344MPD2    H5 5218   1.012   1.303  10.426 -0.8125  0.5464  3.1202
  344MPD2    N1 5219   0.664   0.882  10.580  0.0211  0.0814  0.0206
  344MPD2    H7 5220   0.590   0.925  10.526 -0.4561  1.7896  2.0259
  345TMC3    C1 5221   0.896   1.410  10.233  0.2619 -0.4487 -0.0848
  345TMC3    C2 5222   0.993   1.485  10.288  0.6294  0.3768  0.3511
  345TMC3    C3 5223   1.064   1.559  10.195  0.2482  0.3564 -0.1256
  345TMC3    C4 5224   0.849   1.417  10.103 -0.1837 -0.4077 -0.0211
  345TMC3    C5 5225   0.916   1.500  10.018 -0.0121 -0.1941  0.0787
  345TMC3    C6 5226   1.025   1.568  10.063 -0.1163  0.5926 -0.0824
  345TMC3     C 5227   0.837   1.303  10.314 -0.3586  0.4985 -0.1529
  345TMC3     O 5228   0.737   1.253  10.269 -0.7553  0.2881 -0.1330
  345TMC3     H 5229   1.009   1.493  10.395  0.4621 -2.3133  0.5910
  345TMC3    H1 5230   0.767   1.355  10.066 -0.6879  0.8628 -1.0381
  345TMC3    H2 5231   1.079   1.632   9.994  0.6036 -2.2657 -2.1851
  345TMC3    C7 5232   0.839   1.572   9.915  0.1466 -0.2435  0.2700
  345TMC3    C8 5233   1.134   1.673  10.252  0.5212  0.6616  0.0660
  345TMC3    O1 5234   0.896   1.657   9.850 -0.1363  0.3929 -0.5745
  345TMC3    O2 5235   1.152   1.762  10.169  0.1123 -0.0464 -0.9148
  346MPD2     C 5236   0.607   2.728  14.100  0.2563  0.0595  0.0469
  346MPD2    C1 5237   0.672   2.735  13.982  0.3106 -0.1066  0.2570
  346MPD2    C2 5238   0.805   2.774  13.983  0.0597 -0.4705 -0.3028
  346MPD2    C3 5239   0.873   2.813  14.092  0.2826 -0.4312  0.7386
  346MPD2    C4 5240   0.801   2.814  14.208  0.2752  0.3561 -0.3383
  346MPD2    C5 5241   0.667   2.772  14.213 -0.0701  0.2490  0.9601
  346MPD2     H 5242   0.857   2.771  13.887  0.3789 -0.3887 -0.1317
  346MPD2    H1 5243   0.848   2.847  14.300  2.3856 -1.3525 -0.8185
  346MPD2    H2 5244   0.501   2.708  14.114  0.0277  0.1286 -1.5566
  346MPD2    H3 5245   0.609   2.763  14.305  0.9990  2.2419  1.8267
  346MPD2     N 5246   0.996   2.875  14.079  0.1366  0.5093  0.4250
  346MPD2    H5 5247   1.019   2.893  13.982 -2.8864 -0.9181 -0.5524
  346MPD2    N1 5248   0.613   2.711  13.852 -0.7412  0.2510 -0.4200
  346MPD2    H7 5249   0.669   2.731  13.770 -1.3671  2.5259 -0.3026
  347TMC3    C1 5250   1.191   2.995  14.128  0.0540 -0.5179 -0.2765
  347TMC3    C2 5251   1.180   3.064  14.012 -0.5928  0.0788  0.1976
  347TMC3    C3 5252   1.295   3.132  13.970  0.1251  0.2657 -0.0574
  347TMC3    C4 5253   1.301   2.996  14.215 -0.5176 -0.1564  0.0380
  347TMC3    C5 5254   1.414   3.069  14.171  0.6767 -0.8399  0.4014
  347TMC3    C6 5255   1.409   3.133  14.049 -0.5640 -0.2679  0.1495
  347TMC3     C 5256   1.082   2.914  14.185  0.4622  0.4038  0.0311
  347TMC3     O 5257   1.082   2.900  14.309  0.0048  0.0285  0.7612
  347TMC3     H 5258   1.084   3.081  13.964 -1.8898  1.6087  3.3112
  347TMC3    H1 5259   1.303   2.934  14.304  0.9327 -0.5299 -0.2591
  347TMC3    H2 5260   1.492   3.201  14.030 -1.8367  1.1117 -0.4663
  347TMC3    C7 5261   1.541   3.052  14.237 -0.1468 -0.3239 -0.1702
  347TMC3    C8 5262   1.280   3.230  13.861 -0.4050 -0.5539  0.0616
  347TMC3    O1 5263   1.635   3.117  14.198  0.5219  0.8101  0.0305
  347TMC3    O2 5264   1.179   3.292  13.857 -0.3443 -0.3309 -0.5485
  348MPD2     C 5265   4.575   2.579  11.781 -0.0803 -0.1236  0.8529
  348MPD2    C1 5266   4.599   2.519  11.660  0.0135 -0.0293 -0.2401
  348MPD2    C2 5267   4.574   2.593  11.542  0.4337 -0.1842  0.4230
  348MPD2    C3 5268   4.505   2.718  11.553  0.2672 -0.0375 -0.0039
  348MPD2    C4 5269   4.473   2.771  11.672  0.3413  0.3740 -0.0706
  348MPD2    C5 5270   4.514   2.704  11.783  0.0198 -0.3113 -0.5528
  348MPD2     H 5271   4.583   2.543  11.446  3.7175 -0.4054  0.8210
  348MPD2    H1 5272   4.418   2.864  11.689  0.3142  0.4785 -0.7544
  348MPD2    H2 5273   4.594   2.534  11.877 -3.2904 -0.7761  1.1780
  348MPD2    H3 5274   4.487   2.726  11.886 -0.7544 -0.1222 -0.7949
  348MPD2     N 5275   4.478   2.784  11.431  0.1016 -0.0542  0.4509
  348MPD2    H5 5276   4.490   2.731  11.345  0.7808 -0.8388  1.0248
  348MPD2    N1 5277   4.655   2.389  11.653 -0.2574  0.0228 -0.0587
  348MPD2    H7 5278   4.674   2.355  11.560  1.9531  2.3272 -0.4475
  349TMC3    C1 5279   4.726   2.176  11.716 -0.0302  1.5904  0.4841
  349TMC3    C2 5280   4.682   2.086  11.808 -0.2300 -0.1840 -0.0340
  349TMC3    C3 5281   4.652   1.960  11.765 -0.4961  0.3592  0.0279
  349TMC3    C4 5282   4.735   2.140  11.583 -0.2581  0.1513 -0.1367
  349TMC3    C5 5283   4.687   2.024  11.541  0.3212  0.7125 -0.1483
  349TMC3    C6 5284   4.645   1.927  11.631  0.6590  0.2764 -0.2177
  349TMC3     C 5285   4.704   2.314  11.757 -0.1491 -0.2580 -0.1578
  349TMC3     O 5286   4.710   2.335  11.877  0.2362  0.2258  0.0025
  349TMC3     H 5287   4.686   2.115  11.912 -0.0049  0.2374 -0.1576
  349TMC3    H1 5288   0.049   2.199  11.507  1.0095 -0.3218  0.3494
  349TMC3    H2 5289   4.611   1.829  11.599 -0.1657  0.4307  0.2000
  349TMC3    C7 5290   4.717   1.968  11.412  0.4334  0.1439 -0.5124
  349TMC3    C8 5291   4.656   1.861  11.867  0.1431 -0.0129 -0.2269
  349TMC3    O1 5292   0.031   1.853  11.409 -0.1248 -0.0353  0.2420
  349TMC3    O2 5293   4.688   1.888  11.981  0.0693  0.2904  0.0441
  350MPD2     C 5294   3.099   1.197  10.473  0.0690 -0.1805 -0.4838
  350MPD2    C1 5295   3.121   1.061  10.478  0.2461  0.1888  0.0259
  350MPD2    C2 5296   3.172   1.007  10.592  0.4020  0.2004 -0.0796
  350MPD2    C3 5297   3.208   1.091  10.697  0.2577  0.2219 -0.0091
  350MPD2    C4 5298   3.176   1.226  10.693 -0.1099  0.9024  0.4001
  350MPD2    C5 5299   3.111   1.278  10.583 -0.2535 -0.0068  0.1883
  350MPD2     H 5300   3.185   0.900  10.605 -1.2515  0.0599  0.5261
  350MPD2    H1 5301   3.210   1.302  10.762 -1.0419 -1.6752  3.6830
  350MPD2    H2 5302   3.068   1.243  10.380  3.4083  0.1933 -1.3912
  350MPD2    H3 5303   3.118   1.385  10.567  2.6467 -0.5315 -2.0063
  350MPD2     N 5304   3.262   1.035  10.809 -0.5670  0.4581 -0.2795
  350MPD2    H5 5305   3.285   0.936  10.806 -0.4402  0.4528  0.8040
  350MPD2    N1 5306   3.114   0.975  10.368  0.3963  0.3172  0.5152
  350MPD2    H7 5307   3.147   0.882  10.387  0.4960  0.0861 -0.8256
  351TMC3    C1 5308   3.093   0.901  10.148 -0.5712  0.1555  1.1955
  351TMC3    C2 5309   3.211   0.828  10.153  0.2215  1.2396  0.0840
  351TMC3    C3 5310   3.235   0.753  10.043 -0.0114 -0.0844  0.4329
  351TMC3    C4 5311   3.013   0.906  10.039 -0.5523 -1.0411 -0.3193
  351TMC3    C5 5312   3.043   0.825   9.929 -0.5550  0.1731  0.4135
  351TMC3    C6 5313   3.152   0.742   9.933 -0.4836 -0.2157 -0.1794
  351TMC3     C 5314   3.077   1.007  10.241  0.2112  0.7861 -0.1324
  351TMC3     O 5315   3.019   1.108  10.196  0.5457 -0.0942  0.2830
  351TMC3     H 5316   3.285   0.843  10.230  0.2364 -0.4617  0.4156
  351TMC3    H1 5317   2.917   0.956  10.047  0.3072  0.6275 -0.2357
  351TMC3    H2 5318   3.180   0.685   9.846  1.7680  1.5329 -0.6132
  351TMC3    C7 5319   2.938   0.799   9.836 -0.2805 -0.0975  0.8802
  351TMC3    C8 5320   3.372   0.712  10.034  0.7554  0.0340 -0.3207
  351TMC3    O1 5321   2.826   0.835   9.869  0.2499  0.5642 -0.0514
  351TMC3    O2 5322   3.454   0.787  10.088  0.6538  0.3565  0.2092
  352MPD2     C 5323   1.615   2.507   1.394  1.2029 -0.0472 -0.2547
  352MPD2    C1 5324   1.597   2.512   1.257 -0.0722  0.0262 -0.0552
  352MPD2    C2 5325   1.672   2.420   1.178 -0.0502 -0.0320  0.4864
  352MPD2    C3 5326   1.766   2.337   1.239  0.1248 -0.1495  0.2128
  352MPD2    C4 5327   1.794   2.347   1.373  0.3278 -0.4027 -0.7535
  352MPD2    C5 5328   1.720   2.439   1.450 -0.2932  0.2403  0.2654
  352MPD2     H 5329   1.665   2.417   1.070  3.9807  1.8248  0.1412
  352MPD2    H1 5330   1.863   2.285   1.428  2.5522  1.9791 -0.8472
  352MPD2    H2 5331   1.557   2.576   1.454  1.0585 -1.1843  0.9097
  352MPD2    H3 5332   1.746   2.447   1.555  2.1720 -0.3788 -0.3045
  352MPD2     N 5333   1.824   2.237   1.153  0.0275 -0.1635  0.2974
  352MPD2    H5 5334   1.775   2.222   1.065 -0.1826 -1.6712  0.6730
  352MPD2    N1 5335   1.502   2.600   1.209  0.1851 -0.4744  0.4023
  352MPD2    H7 5336   1.464   2.662   1.279 -0.3115  1.0549 -1.2003
  353TMC3    C1 5337   1.943   2.041   1.090  0.7576  0.3324 -0.3786
  353TMC3    C2 5338   2.067   1.983   1.090  0.1853  0.0122  0.1246
  353TMC3    C3 5339   2.092   1.895   0.990  0.2425 -0.5418  0.0202
  353TMC3    C4 5340   1.840   2.002   1.016 -0.3059 -0.1300  0.5679
  353TMC3    C5 5341   1.876   1.913   0.910  0.6903 -0.2044  0.1057
  353TMC3    C6 5342   2.001   1.867   0.887  0.3369  0.6766 -0.1975
  353TMC3     C 5343   1.919   2.146   1.190  0.5277 -0.0711 -0.7829
  353TMC3     O 5344   2.001   2.153   1.282  0.3033  0.7163  0.8519
  353TMC3     H 5345   2.142   1.998   1.166 -0.3436 -0.2009  0.6841
  353TMC3    H1 5346   1.739   2.038   1.032 -0.7174 -1.1967  0.3766
  353TMC3    H2 5347   2.022   1.795   0.809 -1.1853  1.0189 -0.9144
  353TMC3    C7 5348   1.771   1.842   0.837 -0.8372 -0.5075 -0.0499
  353TMC3    C8 5349   2.229   1.871   0.965 -0.4143  0.3530 -0.3087
  353TMC3    O1 5350   1.801   1.737   0.778 -0.1031 -0.1664 -0.1645
  353TMC3    O2 5351   2.313   1.947   1.015 -0.0389 -0.1680 -0.2289
  354TMC3    C1 5352   3.333   3.375  13.142 -0.1927 -0.4697 -0.4206
  354TMC3    C2 5353   3.268   3.489  13.104  0.3205 -0.0142 -0.3165
  354TMC3    C3 5354   3.268   3.525  12.972  0.4520  0.3730 -0.2075
  354TMC3    C4 5355   3.408   3.307  13.054  0.5498  0.1270 -0.1756
  354TMC3    C5 5356   3.402   3.345  12.921  0.0620 -0.0778 -1.1472
  354TMC3    C6 5357   3.325   3.452  12.873 -0.1290 -0.0623 -0.3077
  354TMC3     C 5358   3.307   3.315  13.265 -0.7054 -0.9532  0.5148
  354TMC3     O 5359   3.191   3.294  13.293 -0.1999 -0.0331 -0.3780
  354TMC3     H 5360   3.213   3.549  13.176  1.7736 -0.5639  1.2776
  354TMC3    H1 5361   3.460   3.219  13.088 -1.0681 -1.2819 -1.3321
  354TMC3    H2 5362   3.322   3.472  12.767  2.2864 -1.3971 -0.6354
  354TMC3    C7 5363   3.501   3.282  12.826 -0.2808  0.4241 -0.3815
  354TMC3    C8 5364   3.261   3.659  12.947  0.0637 -0.2057  0.8079
  354TMC3    O1 5365   3.536   3.171  12.857  0.0145  0.3241 -0.7655
  354TMC3    O2 5366   3.271   3.700  12.830  0.1002  0.0142  0.0414
  355MPD2     C 5367   3.261   4.648  11.794 -0.5376 -1.0148  0.3191
  355MPD2    C1 5368   3.355   4.676  11.694 -0.4521 -0.7565 -0.4932
  355MPD2    C2 5369   3.490   4.650  11.724 -0.0098 -0.4214 -0.7352
  355MPD2    C3 5370   3.525   4.592  11.844 -0.2888 -0.5771 -0.0408
  355MPD2    C4 5371   3.428   4.547  11.935 -0.1229  0.2211  0.2238
  355MPD2    C5 5372   3.302   4.591  11.909 -0.1666 -0.3367 -0.1206
  355MPD2     H 5373   3.567   4.674  11.652 -0.2741 -0.0494 -0.8909
  355MPD2    H1 5374   3.438   4.487  12.025 -0.5077 -1.1015 -0.6240
  355MPD2    H2 5375   3.154   4.665  11.786 -0.5548 -0.8821  0.8174
  355MPD2    H3 5376   3.233   4.558  11.986  0.4981  0.0587  0.6370
  355MPD2     N 5377   3.660   4.564  11.889 -0.3381  0.3856  0.0693
  355MPD2    H5 5378   3.662   4.543  11.988 -0.8317  1.6149  0.3416
  355MPD2    N1 5379   3.309   0.002  11.577  0.3110  0.1399  0.1081
  355MPD2    H7 5380   3.210   4.736  11.555  0.4948 -1.7898 -0.4152
  356TMC3    C1 5381   3.881   4.630  11.918 -0.0400  1.0594 -0.4086
  356TMC3    C2 5382   3.971   4.729  11.893  0.1593 -0.3657 -0.2377
  356TMC3    C3 5383   4.053   0.026  11.990 -0.6125 -0.4273 -0.6869
  356TMC3    C4 5384   3.872   4.572  12.042  0.5169 -0.5244 -0.3297
  356TMC3    C5 5385   3.958   4.619  12.144  0.2341  0.0451  0.0790
  356TMC3    C6 5386   4.055   4.714  12.117 -0.4235  0.2368 -0.3953
  356TMC3     C 5387   3.769   4.614  11.828  1.1286 -0.9936 -0.3860
  356TMC3     O 5388   3.789   4.658  11.715  0.1804  0.3819 -0.2170
  356TMC3     H 5389   3.970   0.039  11.795  3.4428 -0.5348 -0.3321
  356TMC3    H1 5390   3.808   4.488  12.067  0.0650  0.0630  0.4774
  356TMC3    H2 5391   4.137   0.006  12.182 -0.7959  0.0561  0.1522
  356TMC3    C7 5392   3.976   4.537  12.262  0.5324 -0.3006  0.5359
  356TMC3    C8 5393   4.159   0.122  11.939 -0.3611 -0.3069 -0.4102
  356TMC3    O1 5394   3.911   4.430  12.263 -0.1005  0.2496 -1.1023
  356TMC3    O2 5395   4.174   0.122  11.817  0.7769  0.0360  0.3204
  357MPD2     C 5396   3.754   4.154   1.765  0.0642  0.1174 -0.1453
  357MPD2    C1 5397   3.762   4.285   1.721  0.2627 -0.5545 -0.2786
  357MPD2    C2 5398   3.644   4.355   1.699 -0.4944 -0.4935 -0.7151
  357MPD2    C3 5399   3.523   4.290   1.724 -0.2458 -0.0385  0.2081
  357MPD2    C4 5400   3.516   4.168   1.787  0.2006  0.5242  0.2775
  357MPD2    C5 5401   3.637   4.101   1.811  0.1357  0.3835  0.7321
  357MPD2     H 5402   3.653   4.451   1.650 -1.1854  0.3262  0.7609
  357MPD2    H1 5403   3.421   4.123   1.815  1.2518 -0.9807  1.3978
  357MPD2    H2 5404   3.846   4.101   1.784 -0.4345 -0.7975 -0.2687
  357MPD2    H3 5405   3.628   4.002   1.853 -0.3678 -0.4264 -1.2919
  357MPD2     N 5406   3.395   4.338   1.679 -0.0401  0.2189  0.3995
  357MPD2    H5 5407   3.314   4.277   1.690  1.0664 -1.6621 -1.8202
  357MPD2    N1 5408   3.888   4.330   1.677 -0.2771 -0.1262 -0.9367
  357MPD2    H7 5409   3.969   4.273   1.698 -1.1316 -0.0571  2.5606
  358TMC3    C1 5410   4.041   4.440   1.539  1.3034 -0.0829 -0.5654
  358TMC3    C2 5411   4.023   4.454   1.406 -0.3169  0.3921  0.0135
  358TMC3    C3 5412   4.100   4.379   1.322  0.0417  0.3585  0.4586
  358TMC3    C4 5413   4.142   4.358   1.594  0.5066  0.5486  0.0650
  358TMC3    C5 5414   4.215   4.288   1.503  1.0090  0.4869 -0.2255
  358TMC3    C6 5415   4.198   4.294   1.367  0.2143  0.2653 -0.4383
  358TMC3     C 5416   3.916   4.446   1.604 -0.1110  0.6116  0.1882
  358TMC3     O 5417   3.841   4.535   1.569  0.2266 -0.2881  0.1102
  358TMC3     H 5418   3.929   4.501   1.378 -1.0937 -1.3704 -0.3866
  358TMC3    H1 5419   4.168   4.356   1.700  0.6156 -1.5846 -0.0083
  358TMC3    H2 5420   4.283   4.267   1.305 -0.8340  0.4783 -1.9782
  358TMC3    C7 5421   4.341   4.241   1.550  0.3544  0.4806 -0.4219
  358TMC3    C8 5422   4.040   4.362   1.198  0.2631  1.1962 -0.0227
  358TMC3    O1 5423   4.383   4.288   1.655 -0.0301 -0.1099 -0.3780
  358TMC3    O2 5424   3.956   4.447   1.157  0.6513 -0.4579  0.3219
  359MPD2     C 5425   4.090   2.927  12.321 -0.4399  0.3560 -0.0616
  359MPD2    C1 5426   4.014   3.012  12.240 -0.3358 -1.0731 -0.1854
  359MPD2    C2 5427   3.883   3.033  12.271 -0.4645 -0.1584 -0.1529
  359MPD2    C3 5428   3.820   2.957  12.372 -0.0448  0.2691 -0.2440
  359MPD2    C4 5429   3.896   2.876  12.454  0.4373  0.3338 -0.7896
  359MPD2    C5 5430   4.028   2.861  12.422  0.0205 -0.0177 -0.5273
  359MPD2     H 5431   3.822   3.091  12.202  1.7926  1.5188 -0.7125
  359MPD2    H1 5432   3.860   2.825  12.542  2.1658  1.9951  0.8773
  359MPD2    H2 5433   4.197   2.914  12.317 -0.4888 -0.3139  0.8062
  359MPD2    H3 5434   4.090   2.805  12.491  1.1765  1.1656 -0.6102
  359MPD2     N 5435   3.679   2.934  12.386 -0.0452 -0.4256  0.7294
  359MPD2    H5 5436   3.648   2.874  12.462 -2.9953 -1.1055 -1.0158
  359MPD2    N1 5437   4.064   3.070  12.120  0.4230  0.0234 -0.2903
  359MPD2    H7 5438   3.997   3.122  12.064 -0.3785 -0.1744  0.4882
  360TMC3    C1 5439   4.218   3.113  11.946 -0.2128 -0.5802 -0.2846
  360TMC3    C2 5440   4.332   3.176  11.911 -0.5695  0.8151  0.0008
  360TMC3    C3 5441   4.352   3.210  11.786 -0.7302 -0.1771 -0.2109
  360TMC3    C4 5442   4.124   3.086  11.852 -0.4574 -0.5149 -0.0017
  360TMC3    C5 5443   4.147   3.128  11.722  0.6364 -0.1436 -0.2072
  360TMC3    C6 5444   4.268   3.189  11.686 -0.2362  0.3313  0.6063
  360TMC3     C 5445   4.195   3.064  12.079 -0.3953 -0.4792 -0.1840
  360TMC3     O 5446   4.302   3.049  12.135 -0.2380 -0.3961  0.0754
  360TMC3     H 5447   4.411   3.184  11.984 -1.5874  1.7939  1.0125
  360TMC3    H1 5448   4.035   3.032  11.881 -2.6341  1.2854 -3.3934
  360TMC3    H2 5449   4.281   3.222  11.584 -0.5940  2.2601  1.1781
  360TMC3    C7 5450   4.060   3.098  11.609  0.3277  0.7838  0.9043
  360TMC3    C8 5451   4.475   3.277  11.765 -0.3536  0.7109  0.5463
  360TMC3    O1 5452   4.111   3.094  11.496 -0.2535 -0.0131  0.0298
  360TMC3    O2 5453   4.529   3.335  11.862  0.3456  0.1033  0.2646
  361MPD2     C 5454   1.095   1.698  16.752 -0.0015  0.1297 -0.6629
  361MPD2    C1 5455   1.088   1.799  16.848  1.0428 -0.6095 -0.3346
  361MPD2    C2 5456   1.174   1.803  16.956 -0.8054  0.6365  0.0789
  361MPD2    C3 5457   1.270   1.707  16.968  0.5633  0.1806  0.0073
  361MPD2    C4 5458   1.277   1.607  16.872 -0.1344 -0.4362  0.1536
  361MPD2    C5 5459   1.183   1.602  16.767  0.1867  0.1785  0.0642
  361MPD2     H 5460   1.172   1.888  17.024  0.6645  1.4747 -0.9256
  361MPD2    H1 5461   1.349   1.526  16.879  0.4786 -0.1178 -2.3863
  361MPD2    H2 5462   1.036   1.697  16.662  1.0232  0.4789 -1.3332
  361MPD2    H3 5463   1.184   1.528  16.688  1.9880  0.5143 -0.2456
  361MPD2     N 5464   1.364   1.692  17.070 -0.6761 -0.3687  0.2236
  361MPD2    H5 5465   1.431   1.618  17.053 -0.8886 -0.0318 -2.0797
  361MPD2    N1 5466   0.986   1.899  16.844  0.6506  0.1272 -0.1337
  361MPD2    H7 5467   0.974   1.959  16.925  0.8418  0.0066 -0.0158
  362TMC3    C1 5468   0.784   2.013  16.782 -0.1050 -0.0466 -0.3441
  362TMC3    C2 5469   0.791   2.100  16.885  0.2532  0.3667  0.5978
  362TMC3    C3 5470   0.691   2.190  16.894 -0.6721 -0.0286 -0.0129
  362TMC3    C4 5471   0.681   2.016  16.691 -0.3572  0.3664 -0.2241
  362TMC3    C5 5472   0.579   2.107  16.702  0.1582  0.3489  0.9739
  362TMC3    C6 5473   0.590   2.198  16.801  0.7453  0.4157  0.8844
  362TMC3     C 5474   0.887   1.916  16.751 -0.3641 -0.2614 -0.2912
  362TMC3     O 5475   0.873   1.850  16.645  0.3427 -0.1371 -0.6439
  362TMC3     H 5476   0.872   2.102  16.956 -0.7033 -2.1646  1.7617
  362TMC3    H1 5477   0.678   1.943  16.611  0.7363  1.2726 -1.0972
  362TMC3    H2 5478   0.511   2.270  16.820 -0.9437 -1.7246  1.9473
  362TMC3    C7 5479   0.503   2.146  16.589  0.1081 -0.5050 -0.7393
  362TMC3    C8 5480   0.728   2.313  16.976  0.4160  0.1243 -1.1689
  362TMC3    O1 5481   0.455   2.257  16.588  0.1483  0.1467  0.1716
  362TMC3    O2 5482   0.845   2.322  17.018 -0.4170 -0.2832 -0.1007
  363TMC3    C1 5483   3.568   4.566   8.960 -0.5902 -0.4252 -0.5140
  363TMC3    C2 5484   3.695   4.571   8.995 -0.2970 -0.0724 -0.1059
  363TMC3    C3 5485   3.734   4.659   9.093  0.0218 -0.0780 -0.8273
  363TMC3    C4 5486   3.488   4.677   8.992  0.2902 -0.2365 -0.2943
  363TMC3    C5 5487   3.534   0.035   9.078  0.1174  0.0244  0.7859
  363TMC3    C6 5488   3.659   0.025   9.138 -0.1849 -0.0538  0.1339
  363TMC3     C 5489   3.528   4.469   8.861  1.0724  0.3552  0.4661
  363TMC3     O 5490   3.609   4.387   8.823 -0.4726 -0.4476  0.4849
  363TMC3     H 5491   3.763   4.491   8.967 -1.8054 -0.6162 -2.1857
  363TMC3    H1 5492   3.385   4.693   8.962  0.5283 -0.6103 -1.2807
  363TMC3    H2 5493   3.693   0.077   9.226 -0.5848  2.5380 -1.2265
  363TMC3    C7 5494   3.434   0.111   9.156  0.1413  0.0430 -0.2119
  363TMC3    C8 5495   3.864   4.678   9.127  0.7588 -1.2294 -0.9507
  363TMC3    O1 5496   3.315   0.089   9.136  0.1646 -0.9272  0.5037
  363TMC3    O2 5497   3.909   0.052   9.138 -0.1917  0.2879 -0.2128
  364MPD2     C 5498   2.448   4.442  10.664 -0.3605 -0.3843  0.6262
  364MPD2    C1 5499   2.527   4.439  10.549 -0.3013 -1.1408 -0.3096
  364MPD2    C2 5500   2.615   4.332  10.528  0.5406  0.2303  0.1975
  364MPD2    C3 5501   2.627   4.232  10.625 -0.4525 -0.2298 -0.5321
  364MPD2    C4 5502   2.553   4.237  10.742 -0.1117 -0.1558  0.1345
  364MPD2    C5 5503   2.468   4.345  10.758 -0.8531  0.4103 -0.7564
  364MPD2     H 5504   2.665   4.336  10.432 -0.6736 -1.2609 -0.4977
  364MPD2    H1 5505   2.580   4.169  10.822  1.5393  0.4449  0.0917
  364MPD2    H2 5506   2.384   4.525  10.692  0.2917  0.0571  0.8065
  364MPD2    H3 5507   2.415   4.348  10.852 -0.1707  0.6343 -0.3777
  364MPD2     N 5508   2.711   4.125  10.596  0.4495 -0.3701 -0.6133
  364MPD2    H5 5509   2.708   4.040  10.652 -0.9505  0.5559  0.7180
  364MPD2    N1 5510   2.514   4.552  10.463  0.1915 -0.0835  0.6108
  364MPD2    H7 5511   2.465   4.635  10.496  1.6923  1.6503 -1.5290
  365TMC3    C1 5512   2.547   4.706  10.280  0.3115 -0.7805 -0.2589
  365TMC3    C2 5513   2.622   4.700  10.164  0.6142  0.2577  0.8522
  365TMC3    C3 5514   2.701   0.065  10.139 -0.0607  0.6915  0.3695
  365TMC3    C4 5515   2.562   0.068  10.376  0.3035 -0.1002  0.0219
  365TMC3    C5 5516   2.654   0.168  10.346 -0.2118 -1.0808  0.4946
  365TMC3    C6 5517   2.723   0.171  10.226 -0.4505  0.1439 -0.1644
  365TMC3     C 5518   2.560   4.570  10.334 -0.2758 -0.2010  0.1819
  365TMC3     O 5519   2.625   4.495  10.264 -0.3476 -0.3745  0.1535
  365TMC3     H 5520   2.605   4.621  10.092  0.5500 -0.3788  1.5747
  365TMC3    H1 5521   2.497   0.063  10.463 -0.0786  0.0579 -0.2562
  365TMC3    H2 5522   2.792   0.251  10.203  1.7651 -0.7993  3.3175
  365TMC3    C7 5523   2.718   0.235  10.452  0.5328  0.0679  0.2721
  365TMC3    C8 5524   2.803   0.039  10.036  0.1597  0.0282 -0.2438
  365TMC3    O1 5525   2.828   0.286  10.430  0.4564 -0.1368  0.4232
  365TMC3    O2 5526   2.873   0.134   9.995 -0.6012 -0.3915 -0.0292
  366MPD2     C 5527   1.073   0.048  15.399 -0.3945  1.2198 -0.0925
  366MPD2    C1 5528   1.180   0.135  15.409 -0.1857 -0.9585  0.0516
  366MPD2    C2 5529   1.307   0.080  15.393  0.0363 -0.2916 -0.0663
  366MPD2    C3 5530   1.322   4.685  15.360  0.0104  0.6848 -1.0464
  366MPD2    C4 5531   1.216   4.601  15.363  0.0802  0.1091 -0.1871
  366MPD2    C5 5532   1.088   4.646  15.381  0.3007  0.0240  0.7712
  366MPD2     H 5533   1.389   0.150  15.396 -0.1670 -0.1318  1.6751
  366MPD2    H1 5534   1.232   4.494  15.352 -2.9597 -0.2081 -1.3976
  366MPD2    H2 5535   0.974   0.093  15.398 -0.2137  1.6363  1.5296
  366MPD2    H3 5536   0.998   4.586  15.373  0.9611 -0.6422 -1.6260
  366MPD2     N 5537   1.449   4.633  15.331 -0.1113 -0.0705  0.5327
  366MPD2    H5 5538   1.523   4.698  15.356  2.5191 -2.2011 -1.7721
  366MPD2    N1 5539   1.178   0.274  15.419  0.5139  0.3404 -0.0278
  366MPD2    H7 5540   1.266   0.324  15.417 -0.5797  2.3100  2.4596
  367TMC3    C1 5541   1.119   0.492  15.385 -0.5728 -0.5731 -0.9584
  367TMC3    C2 5542   1.218   0.541  15.473  0.8727  0.3331 -0.4222
  367TMC3    C3 5543   1.254   0.668  15.443  0.0447  0.3254  0.7066
  367TMC3    C4 5544   1.058   0.563  15.287  0.5383 -0.2309  0.3648
  367TMC3    C5 5545   1.102   0.690  15.270 -0.5782 -0.0384 -0.0052
  367TMC3    C6 5546   1.200   0.745  15.347  0.0365 -0.7271 -0.7763
  367TMC3     C 5547   1.071   0.357  15.407  0.4593 -0.3806 -0.8263
  367TMC3     O 5548   0.952   0.328  15.396 -0.0735 -0.1810  0.5634
  367TMC3     H 5549   1.257   0.496  15.564  1.2338  0.1986 -0.6415
  367TMC3    H1 5550   0.987   0.517  15.218  2.2717 -0.8167 -1.0352
  367TMC3    H2 5551   1.228   0.849  15.330 -1.8420 -0.0854  0.0019
  367TMC3    C7 5552   1.021   0.793  15.197  0.4223  0.1060  0.0716
  367TMC3    C8 5553   1.361   0.729  15.532  0.5338 -0.0045  0.1383
  367TMC3    O1 5554   1.074   0.900  15.170  0.1083  0.0062  0.3617
  367TMC3    O2 5555   1.444   0.648  15.565  0.7547 -0.0708  0.7351
  368MPD2     C 5556   2.307   2.133  13.451  0.1635  0.4407 -0.7616
  368MPD2    C1 5557   2.268   2.140  13.321 -0.1069 -0.2635  0.1025
  368MPD2    C2 5558   2.360   2.158  13.225  0.2862  0.4677 -0.4789
  368MPD2    C3 5559   2.492   2.179  13.252 -0.3710 -0.0248 -0.2662
  368MPD2    C4 5560   2.529   2.172  13.381  0.5160 -0.3233 -0.0293
  368MPD2    C5 5561   2.439   2.152  13.481  0.1576 -0.4527 -0.0704
  368MPD2     H 5562   2.325   2.168  13.123 -1.0552  1.2863  0.0770
  368MPD2    H1 5563   2.629   2.204  13.407  0.0808  2.3406 -1.7081
  368MPD2    H2 5564   2.239   2.142  13.535 -1.0233  0.0194 -1.6799
  368MPD2    H3 5565   2.466   2.153  13.586 -1.5237  0.5457  0.3585
  368MPD2     N 5566   2.586   2.221  13.153  0.3895  0.4436  0.8931
  368MPD2    H5 5567   2.682   2.236  13.181  1.3510 -2.4818 -0.8238
  368MPD2    N1 5568   2.136   2.127  13.281  0.0033  0.2252  0.0445
  368MPD2    H7 5569   2.121   2.134  13.181  0.1705 -0.8401 -0.0535
  369TMC3    C1 5570   1.908   2.117  13.281  0.7296  0.0879 -0.5830
  369TMC3    C2 5571   1.909   2.104  13.141  1.1027 -0.1875 -0.7427
  369TMC3    C3 5572   1.797   2.125  13.068 -0.0729 -0.3497  0.2605
  369TMC3    C4 5573   1.792   2.128  13.340  0.0919 -0.7333  0.4929
  369TMC3    C5 5574   1.684   2.171  13.268 -0.7616  0.4290 -0.6750
  369TMC3    C6 5575   1.680   2.168  13.128  0.0793 -0.6477 -0.8338
  369TMC3     C 5576   2.024   2.112  13.363  0.0682  0.2265 -0.3542
  369TMC3     O 5577   2.014   2.117  13.486  0.0810  0.1432 -0.3265
  369TMC3     H 5578   1.997   2.063  13.092  1.0965 -0.0952 -0.8321
  369TMC3    H1 5579   1.794   2.130  13.448  1.0455  1.8538  0.4278
  369TMC3    H2 5580   1.598   2.186  13.060 -1.6773 -0.3384  1.3584
  369TMC3    C7 5581   1.551   2.170  13.338  0.2097  0.4329  0.1275
  369TMC3    C8 5582   1.816   2.174  12.932 -0.3422 -0.7323 -0.6827
  369TMC3    O1 5583   1.542   2.106  13.440  0.7176 -0.9872 -0.2068
  369TMC3    O2 5584   1.769   2.281  12.900  0.3477  0.3376 -0.2899
  370TMC3    C1 5585   2.049   2.860  16.217 -0.6422  0.3885 -0.0689
  370TMC3    C2 5586   1.994   2.796  16.325  0.1025 -0.5424 -0.6038
  370TMC3    C3 5587   1.965   2.665  16.309 -0.4586  1.0393 -0.3503
  370TMC3    C4 5588   2.079   2.793  16.101 -0.0777  1.1724 -0.6461
  370TMC3    C5 5589   2.063   2.658  16.094  0.0443 -0.7023 -0.0574
  370TMC3    C6 5590   2.002   2.588  16.196  0.7051 -0.5288  0.6721
  370TMC3     C 5591   2.138   2.971  16.251  0.1429  0.0025 -0.1139
  370TMC3     O 5592   2.158   2.995  16.372 -0.0337  0.3411 -0.4616
  370TMC3     H 5593   2.003   2.845  16.421  3.2654 -0.5019 -0.9367
  370TMC3    H1 5594   2.134   2.836  16.018 -0.5779  2.5583 -0.2629
  370TMC3    H2 5595   2.004   2.480  16.195  1.2704 -0.5053 -0.0480
  370TMC3    C7 5596   2.111   2.590  15.976 -0.2254  0.1776 -0.6483
  370TMC3    C8 5597   1.909   2.600  16.425  0.3207 -0.6619  0.8871
  370TMC3    O1 5598   2.091   2.645  15.868  0.0019 -0.1169 -0.3725
  370TMC3    O2 5599   1.927   2.479  16.432  0.1295  0.0489  0.1417
  371TMC3    C1 5600   3.083   1.081  15.213  0.4294 -0.3912  0.6645
  371TMC3    C2 5601   3.037   1.049  15.337 -0.0483 -0.1441  0.0711
  371TMC3    C3 5602   3.044   1.157  15.427 -0.2267  0.2173 -0.1544
  371TMC3    C4 5603   3.156   1.191  15.185  0.8988 -0.3246 -0.4601
  371TMC3    C5 5604   3.167   1.291  15.280  0.1354 -0.5579 -0.0533
  371TMC3    C6 5605   3.112   1.272  15.406  0.2947  0.4876 -0.2589
  371TMC3     C 5606   3.117   0.972  15.124  0.3914 -1.0840 -0.5233
  371TMC3     O 5607   3.160   0.996  15.013 -0.0584  0.3025  0.3815
  371TMC3     H 5608   2.971   0.965  15.359 -0.5110  0.0224 -0.6706
  371TMC3    H1 5609   3.189   1.205  15.083  1.6615 -0.2469 -0.2016
  371TMC3    H2 5610   3.107   1.360  15.468  0.2981  0.9976 -0.9780
  371TMC3    C7 5611   3.234   1.412  15.250  0.5410 -0.0253  0.5582
  371TMC3    C8 5612   3.020   1.133  15.571 -0.3699  0.2282  0.5332
  371TMC3    O1 5613   3.199   1.511  15.318 -0.5078  0.1068  0.1280
  371TMC3    O2 5614   3.041   1.028  15.621 -0.5483  0.3289 -0.2058
  372MPD2     C 5615   2.780   2.637  13.217  0.3551 -0.4091 -0.1384
  372MPD2    C1 5616   2.876   2.558  13.272  0.1085  0.1115  0.6023
  372MPD2    C2 5617   2.852   2.509  13.401  0.3611 -0.2785  0.4086
  372MPD2    C3 5618   2.725   2.515  13.459  0.4715  0.0696  0.4102
  372MPD2    C4 5619   2.630   2.588  13.397 -0.2089 -0.0392 -0.0791
  372MPD2    C5 5620   2.659   2.654  13.277 -1.0327  0.3535  0.3489
  372MPD2     H 5621   2.933   2.451  13.443  0.7826 -0.5410 -0.7706
  372MPD2    H1 5622   2.530   2.595  13.439  0.5066  0.2014  1.5670
  372MPD2    H2 5623   2.787   2.667  13.113  1.5184  1.4188  0.4643
  372MPD2    H3 5624   2.588   2.717  13.225 -0.0072  2.3791  1.3814
  372MPD2     N 5625   2.711   2.443  13.581 -0.1003 -0.1985  0.0509
  372MPD2    H5 5626   2.787   2.378  13.594  0.1154 -0.4906 -2.6976
  372MPD2    N1 5627   3.008   2.533  13.218  0.0911 -0.8140 -0.3275
  372MPD2    H7 5628   3.071   2.470  13.266 -0.4305 -0.1363  1.2901
  373TMC3    C1 5629   2.594   2.335  13.765  0.2609  0.1232 -0.4104
  373TMC3    C2 5630   2.534   2.365  13.881 -0.6485 -0.3483  0.0675
  373TMC3    C3 5631   2.538   2.272  13.979  0.0873  0.4310 -0.6331
  373TMC3    C4 5632   2.677   2.227  13.752  0.3161 -0.6013 -0.4851
  373TMC3    C5 5633   2.676   2.141  13.850 -0.1229 -0.1787 -0.1336
  373TMC3    C6 5634   2.601   2.154  13.963  0.3406  0.4666 -0.3851
  373TMC3     C 5635   2.596   2.445  13.664  0.2388 -0.3719  0.2535
  373TMC3     O 5636   2.503   2.524  13.666 -0.6290 -0.1717 -0.0941
  373TMC3     H 5637   2.487   2.462  13.898 -2.0996 -0.7924 -1.4866
  373TMC3    H1 5638   2.727   2.200  13.659  0.4157 -3.2117  0.3462
  373TMC3    H2 5639   2.601   2.082  14.044  0.5403  2.1517  1.1070
  373TMC3    C7 5640   2.788   2.045  13.843 -0.4364 -0.0170 -0.0181
  373TMC3    C8 5641   2.442   2.290  14.086 -0.1744  0.0124 -0.3964
  373TMC3    O1 5642   2.865   2.059  13.751  0.3645 -0.2943 -0.2497
  373TMC3    O2 5643   2.343   2.346  14.036  0.6197 -0.7529 -0.6704
  374TMC3    C1 5644   2.949   2.755   9.715 -0.4402 -0.3988 -0.1991
  374TMC3    C2 5645   3.054   2.835   9.757  0.2394 -0.6471 -0.3569
  374TMC3    C3 5646   3.093   2.940   9.675  0.6288  0.8398  0.1770
  374TMC3    C4 5647   2.881   2.788   9.597  0.2268 -0.5422 -0.4637
  374TMC3    C5 5648   2.917   2.899   9.523 -0.4995  0.1199  0.3644
  374TMC3    C6 5649   3.029   2.969   9.558  0.5495  0.7211 -0.0913
  374TMC3     C 5650   2.881   2.655   9.810 -0.2916  0.2301  0.9596
  374TMC3     O 5651   2.781   2.607   9.761 -0.4154  0.0071 -0.0602
  374TMC3     H 5652   3.101   2.830   9.854 -0.2838  0.3926 -0.0583
  374TMC3    H1 5653   2.789   2.738   9.569 -0.6276  1.7595 -1.8822
  374TMC3    H2 5654   3.048   3.064   9.508  0.7924  0.6897 -0.0611
  374TMC3    C7 5655   2.835   2.918   9.405  0.7817  0.0109 -0.0098
  374TMC3    C8 5656   3.177   3.047   9.730 -0.4535 -0.1495 -0.1820
  374TMC3    O1 5657   2.766   2.822   9.376  0.4102  0.4684  0.4509
  374TMC3    O2 5658   3.165   3.158   9.676  0.4416  0.5846  0.4607
  375MPD2     C 5659   3.159   3.178  17.345  0.2371  0.3806 -0.3587
  375MPD2    C1 5660   3.077   3.164  17.236  0.4909 -0.3259 -0.2290
  375MPD2    C2 5661   3.120   3.101  17.119 -0.4566  0.2310 -0.4417
  375MPD2    C3 5662   3.258   3.070  17.103  0.0619  0.6746  0.5506
  375MPD2    C4 5663   3.342   3.100  17.215 -0.4825 -0.2584 -0.0800
  375MPD2    C5 5664   3.292   3.144  17.334  0.4976 -0.1481  0.4186
  375MPD2     H 5665   3.049   3.076  17.041 -0.9792  1.6400 -0.4123
  375MPD2    H1 5666   3.446   3.070  17.206 -0.5180 -1.2262  2.9187
  375MPD2    H2 5667   3.121   3.217  17.439  0.3087  0.0584 -0.1966
  375MPD2    H3 5668   3.363   3.166  17.413 -0.1184 -0.3692  1.0378
  375MPD2     N 5669   3.312   3.020  16.979  0.5428  0.5094  0.2516
  375MPD2    H5 5670   3.413   3.016  16.982  0.5455  1.3199  1.3766
  375MPD2    N1 5671   2.941   3.198  17.244  0.0451 -0.0741  0.4652
  375MPD2    H7 5672   2.895   3.188  17.154  0.1500  2.4598  0.1271
  376TMC3    C1 5673   3.334   2.953  16.744  0.0391 -0.0267 -0.0054
  376TMC3    C2 5674   3.453   2.882  16.764 -0.3836  0.2376 -0.3244
  376TMC3    C3 5675   3.526   2.841  16.656 -0.4531 -0.1537  0.4404
  376TMC3    C4 5676   3.274   2.951  16.624 -0.3742 -0.6546  0.0654
  376TMC3    C5 5677   3.349   2.904  16.519 -0.1192 -0.9918  0.3964
  376TMC3    C6 5678   3.474   2.842  16.527 -0.2224 -0.5048 -0.6283
  376TMC3     C 5679   3.248   3.007  16.854 -0.1321 -0.4534 -0.1238
  376TMC3     O 5680   3.135   3.047  16.826  0.4971  0.2504  0.0457
  376TMC3     H 5681   3.508   2.882  16.857 -2.2381 -0.5237  0.7813
  376TMC3    H1 5682   3.182   3.005  16.602  0.6161  0.8805 -0.2857
  376TMC3    H2 5683   3.536   2.808  16.445  0.3415  1.8322 -1.1435
  376TMC3    C7 5684   3.317   2.961  16.391  0.2239  0.0677  0.2981
  376TMC3    C8 5685   3.673   2.843  16.655 -0.3262 -0.5585 -0.3831
  376TMC3    O1 5686   3.243   3.061  16.395 -0.0160  0.2670 -0.3871
  376TMC3    O2 5687   3.728   2.933  16.720  0.2800 -0.0036  0.7358
  377MPD2     C 5688   0.942   3.188  12.104 -0.5357 -0.0741 -0.1336
  377MPD2    C1 5689   1.025   3.109  12.191  0.1667  0.0939  0.7330
  377MPD2    C2 5690   0.962   3.061  12.303 -1.2703 -0.0341  0.4038
  377MPD2    C3 5691   0.833   3.091  12.335 -0.4273 -1.4715 -0.3493
  377MPD2    C4 5692   0.755   3.171  12.252 -0.4896 -0.3706  0.2674
  377MPD2    C5 5693   0.811   3.216  12.132  0.1074 -0.9983 -0.8559
  377MPD2     H 5694   1.022   3.013  12.378  0.6017  1.3478 -0.2015
  377MPD2    H1 5695   0.656   3.207  12.278 -0.3975 -0.0881  0.2209
  377MPD2    H2 5696   0.985   3.246  12.024  0.4041 -0.0882  0.3650
  377MPD2    H3 5697   0.763   3.295  12.076 -2.7221 -3.6551 -2.2091
  377MPD2     N 5698   0.777   3.049  12.460  0.5986 -0.2730  0.7449
  377MPD2    H5 5699   0.677   3.061  12.471  0.7541  0.5483  1.2200
  377MPD2    N1 5700   1.167   3.092  12.173  0.2819 -0.7643 -0.1151
  377MPD2    H7 5701   1.217   3.131  12.093 -0.7730  0.0452 -0.3811
  378TMC3    C1 5702   1.545   3.083  12.039 -0.1211 -0.3745 -0.2682
  378TMC3    C2 5703   1.430   3.105  12.106 -0.2566  0.5622  0.0334
  378TMC3    C3 5704   1.395   3.028  12.207  0.0328 -0.0273 -0.0087
  378TMC3    C4 5705   1.626   2.984  12.079 -0.2794  0.0787 -0.0359
  378TMC3    C5 5706   1.591   2.908  12.188 -0.0704 -0.1548 -1.2143
  378TMC3    C6 5707   1.474   2.929  12.256 -0.0641 -0.2326 -0.1241
  378TMC3     C 5708   1.573   3.179  11.933 -0.2126  0.1001 -0.3888
  378TMC3     O 5709   1.477   3.242  11.888  0.2949 -0.6516  0.6668
  378TMC3     H 5710   1.371   3.191  12.075 -0.9293 -0.5075 -1.6438
  378TMC3    H1 5711   1.714   2.965  12.019  0.5608 -0.4312  1.3659
  378TMC3    H2 5712   1.452   2.855  12.332 -1.3378  0.1212 -0.1501
  378TMC3    C7 5713   1.678   2.797  12.235 -0.5911  0.5063 -0.1356
  378TMC3    C8 5714   1.256   3.028  12.253 -0.1455  0.9995  0.2740
  378TMC3    O1 5715   1.638   2.729  12.331  0.2096 -0.4982 -0.0106
  378TMC3    O2 5716   1.239   2.948  12.345 -0.0462 -0.1341  0.0483
  379MPD2     C 5717   2.073   0.903  16.647 -0.4621 -0.3819  0.4930
  379MPD2    C1 5718   2.104   0.813  16.547  0.2212  0.2070 -0.2275
  379MPD2    C2 5719   2.221   0.739  16.552  0.3609  0.2066 -0.4832
  379MPD2    C3 5720   2.312   0.749  16.660  0.0812 -0.8157 -0.2316
  379MPD2    C4 5721   2.287   0.843  16.756  0.4122  0.3305  0.3374
  379MPD2    C5 5722   2.161   0.909  16.748  0.5291  0.7410 -0.1287
  379MPD2     H 5723   2.237   0.673  16.468 -0.0753 -0.5150 -0.0013
  379MPD2    H1 5724   2.358   0.856  16.837  1.1523 -1.7247  0.0337
  379MPD2    H2 5725   1.984   0.964  16.647 -2.2726 -3.0220 -2.3703
  379MPD2    H3 5726   2.129   0.973  16.829 -4.3521 -0.0300 -1.4240
  379MPD2     N 5727   2.432   0.672  16.669 -0.1987 -0.2741 -0.1245
  379MPD2    H5 5728   2.491   0.672  16.752  1.8916  0.5013 -1.6418
  379MPD2    N1 5729   2.016   0.817  16.436 -0.0799 -0.6436 -0.4659
  379MPD2    H7 5730   1.933   0.875  16.434  0.7269  0.5888  1.1277
  380TMC3    C1 5731   2.024   0.800  16.194 -0.1986 -0.0598 -0.0382
  380TMC3    C2 5732   2.108   0.754  16.093  1.0248 -0.0005 -0.2078
  380TMC3    C3 5733   2.076   0.780  15.962  0.9257  0.4753 -0.5102
  380TMC3    C4 5734   1.909   0.868  16.157  0.1233  0.4067  0.6296
  380TMC3    C5 5735   1.880   0.883  16.025 -0.1027  0.5187 -1.0407
  380TMC3    C6 5736   1.959   0.842  15.925  0.2954  0.3543 -0.0504
  380TMC3     C 5737   2.040   0.734  16.322  0.5813  0.4034  0.1126
  380TMC3     O 5738   2.104   0.628  16.308 -0.5297 -0.2400 -0.0312
  380TMC3     H 5739   2.211   0.732  16.121  1.1947  0.8019 -0.2130
  380TMC3    H1 5740   1.845   0.909  16.235 -1.2310  2.2596 -1.4676
  380TMC3    H2 5741   1.940   0.861  15.820 -0.1940 -0.3273 -0.0851
  380TMC3    C7 5742   1.761   0.963  15.992 -0.3158 -0.5693 -0.3281
  380TMC3    C8 5743   2.151   0.714  15.861 -0.3179 -0.4217  0.5916
  380TMC3    O1 5744   1.726   1.049  16.070  0.0452 -0.5975 -0.3001
  380TMC3    O2 5745   2.115   0.733  15.745  0.7450  0.9655  0.0246
  381TMC3    C1 5746   1.829   1.867  16.300 -0.2103  0.2617 -0.0330
  381TMC3    C2 5747   1.949   1.930  16.287  0.0006  0.3561 -0.0349
  381TMC3    C3 5748   1.958   2.056  16.336  0.4433  0.5947 -0.1987
  381TMC3    C4 5749   1.724   1.918  16.359  0.0175 -0.3500  0.2228
  381TMC3    C5 5750   1.738   2.042  16.404 -0.0554  0.2616  0.5511
  381TMC3    C6 5751   1.854   2.114  16.398 -0.0654  0.5063 -0.0826
  381TMC3     C 5752   1.829   1.737  16.235  0.3918  0.5754  0.0438
  381TMC3     O 5753   1.925   1.668  16.215 -0.4439  0.1305  0.1270
  381TMC3     H 5754   2.030   1.881  16.234 -1.1097 -2.5575  0.9595
  381TMC3    H1 5755   1.631   1.862  16.363  0.4014 -1.0215 -0.2108
  381TMC3    H2 5756   1.851   2.220  16.423 -2.2047  0.0390  1.6778
  381TMC3    C7 5757   1.616   2.103  16.438  0.0754  0.8555 -0.3067
  381TMC3    C8 5758   2.083   2.124  16.315 -1.0358 -0.0809  0.7089
  381TMC3    O1 5759   1.516   2.053  16.393  0.0583 -0.1354  0.3748
  381TMC3    O2 5760   2.159   2.088  16.224  0.3944 -0.4603  0.0733
  382MPD2     C 5761   1.121   4.309  16.490 -0.5641  0.1760 -0.6044
  382MPD2    C1 5762   1.171   4.298  16.620  0.4385 -0.3856  0.0714
  382MPD2    C2 5763   1.093   4.229  16.718  0.8647 -0.4613 -0.8030
  382MPD2    C3 5764   0.973   4.167  16.684  0.0949  0.1925 -0.0104
  382MPD2    C4 5765   0.925   4.180  16.558 -0.1926  0.1243  0.4101
  382MPD2    C5 5766   1.001   4.250  16.464 -0.4966 -0.2426 -0.1746
  382MPD2     H 5767   1.134   4.229  16.819 -1.1560  2.1178  0.0241
  382MPD2    H1 5768   0.830   4.144  16.521  0.3194  0.9134 -1.6262
  382MPD2    H2 5769   1.159   4.372  16.411  0.9547 -0.5749 -0.4614
  382MPD2    H3 5770   0.957   4.263  16.366  0.3774 -2.0701 -0.8200
  382MPD2     N 5771   0.898   4.091  16.774 -0.0778 -0.0686 -0.2257
  382MPD2    H5 5772   0.835   4.030  16.724  0.9003 -0.7230 -0.6598
  382MPD2    N1 5773   1.285   4.370  16.663  0.2280  0.1339 -0.5177
  382MPD2    H7 5774   1.303   4.373  16.763  0.4949  1.8763 -0.6165
  383TMC3    C1 5775   0.837   4.021  16.996 -0.0897 -0.8299  1.1554
  383TMC3    C2 5776   0.732   3.952  16.948 -0.4688 -0.2555  0.1856
  383TMC3    C3 5777   0.654   3.891  17.040  0.3066 -0.0009 -0.0049
  383TMC3    C4 5778   0.864   4.037  17.135  0.0249  0.2967 -0.5360
  383TMC3    C5 5779   0.783   3.971  17.228  0.0887  0.2486 -0.5484
  383TMC3    C6 5780   0.666   3.909  17.180  0.1336  1.0072 -0.4248
  383TMC3     C 5781   0.906   4.111  16.910  0.0284  0.0719 -0.0343
  383TMC3     O 5782   0.963   4.201  16.973  0.0053 -0.4948  0.6219
  383TMC3     H 5783   0.704   3.945  16.843  0.7082  3.0818 -0.3541
  383TMC3    H1 5784   0.951   4.094  17.164  1.0402 -0.8743 -1.3015
  383TMC3    H2 5785   0.600   3.862  17.252  0.0500  2.3571  0.3700
  383TMC3    C7 5786   0.773   4.062  17.341  0.0660 -0.0921 -0.0082
  383TMC3    C8 5787   0.538   3.824  16.985 -0.4054 -0.1357  0.2403
  383TMC3    O1 5788   0.655   4.097  17.371 -0.7440 -0.0392  0.0592
  383TMC3    O2 5789   0.494   3.845  16.871  0.1360  0.0139 -0.2270
  384MPD2     C 5790   1.910   0.948  11.933 -0.2324 -0.5761  0.4672
  384MPD2    C1 5791   1.959   0.848  12.024  0.5630 -0.3250  0.0480
  384MPD2    C2 5792   2.076   0.780  11.999 -0.1152 -0.1705 -0.3843
  384MPD2    C3 5793   2.147   0.810  11.885 -0.1631 -0.7541  0.7742
  384MPD2    C4 5794   2.099   0.899  11.797 -0.2067  0.2635 -0.3808
  384MPD2    C5 5795   1.976   0.966  11.812 -0.4261 -0.0350  0.0142
  384MPD2     H 5796   2.108   0.708  12.074  0.5784 -0.7704 -1.2575
  384MPD2    H1 5797   2.165   0.927  11.716 -0.5186 -2.3524 -1.5498
  384MPD2    H2 5798   1.815   0.998  11.947 -0.6202 -0.9656 -0.7334
  384MPD2    H3 5799   1.941   1.042  11.743 -1.8404 -3.3543 -2.9326
  384MPD2     N 5800   2.277   0.758  11.854 -0.0297  0.8133 -0.6192
  384MPD2    H5 5801   2.324   0.792  11.771 -0.5759 -0.6687 -1.5336
  384MPD2    N1 5802   1.890   0.835  12.142  0.2727 -0.0375 -0.3924
  384MPD2    H7 5803   1.816   0.903  12.154 -1.2933 -1.3788 -2.4892
  385TMC3    C1 5804   2.479   0.645  11.885  0.0838 -0.1833 -0.4315
  385TMC3    C2 5805   2.531   0.529  11.923  0.3308 -0.3556  0.1479
  385TMC3    C3 5806   2.660   0.525  11.964  0.5547  0.1992  0.5025
  385TMC3    C4 5807   2.553   0.756  11.912  0.1686  0.2647  0.6071
  385TMC3    C5 5808   2.673   0.760  11.976  0.9663 -0.0322 -0.1643
  385TMC3    C6 5809   2.732   0.636  11.996  0.0551 -0.2851 -0.2818
  385TMC3     C 5810   2.340   0.664  11.928 -0.2817  0.6584  0.7480
  385TMC3     O 5811   2.304   0.592  12.020 -0.1951 -0.1137 -0.3867
  385TMC3     H 5812   2.477   0.436  11.911 -0.4697  0.3987 -2.0962
  385TMC3    H1 5813   2.515   0.849  11.870  1.9021  0.8253  0.2827
  385TMC3    H2 5814   2.835   0.624  12.029  0.0051  0.3633  0.1065
  385TMC3    C7 5815   2.667   0.843  12.092  0.3115 -0.1806 -0.3211
  385TMC3    C8 5816   2.713   0.397  12.002  0.3899  0.4096 -0.9760
  385TMC3    O1 5817   2.769   0.876  12.144 -0.4108  0.2633 -0.1177
  385TMC3    O2 5818   2.810   0.404  12.076 -0.3592  0.1839 -0.1988
  386TMC3    C1 5819   3.163   3.125  11.825  0.0290 -0.9452  0.0790
  386TMC3    C2 5820   3.125   3.218  11.734 -0.1890  0.2690 -0.3525
  386TMC3    C3 5821   2.984   3.229  11.716  0.3696  0.3123  0.1503
  386TMC3    C4 5822   3.081   3.042  11.886 -0.2304  0.2560  0.4832
  386TMC3    C5 5823   2.944   3.060  11.869 -0.4493 -0.2346  0.2505
  386TMC3    C6 5824   2.893   3.158  11.784 -0.4248  0.2713 -0.3610
  386TMC3     C 5825   3.305   3.093  11.826  0.0621  0.0258 -0.5938
  386TMC3     O 5826   3.388   3.176  11.790  0.2844  0.1538  0.0044
  386TMC3     H 5827   3.195   3.288  11.692  0.1427 -1.2273 -2.2793
  386TMC3    H1 5828   3.121   2.990  11.972 -1.3313 -2.0651 -0.4315
  386TMC3    H2 5829   2.786   3.170  11.783 -0.5317 -0.6726 -0.4272
  386TMC3    C7 5830   2.850   2.974  11.943  0.8229 -0.3913  0.1510
  386TMC3    C8 5831   2.927   3.335  11.637  0.6741  0.0861 -0.1571
  386TMC3    O1 5832   2.747   3.032  11.970  0.1379 -0.1950 -0.2018
  386TMC3    O2 5833   2.814   3.370  11.669 -0.3169  0.6451 -0.3793
  387MPD2     C 5834   0.416   3.003   9.654 -0.3799 -0.5695  0.4325
  387MPD2    C1 5835   0.489   2.958   9.759  0.5713 -0.2590 -0.3409
  387MPD2    C2 5836   0.472   2.827   9.803 -0.2090  0.4736 -0.0106
  387MPD2    C3 5837   0.395   2.738   9.727 -0.3308 -0.6099 -0.4199
  387MPD2    C4 5838   0.313   2.787   9.625  0.0533  0.2509  0.1861
  387MPD2    C5 5839   0.315   2.920   9.606  0.1027  0.0044  0.0705
  387MPD2     H 5840   0.535   2.786   9.881  0.5632  0.6414 -0.5502
  387MPD2    H1 5841   0.236   2.728   9.577  1.3448 -1.6765  0.4985
  387MPD2    H2 5842   0.428   3.103   9.614 -0.3622 -0.9769 -0.5863
  387MPD2    H3 5843   0.253   2.951   9.523  0.7917  2.5912  0.5115
  387MPD2     N 5844   0.409   2.602   9.746 -0.1350 -1.0446  0.3750
  387MPD2    H5 5845   0.474   2.577   9.820  2.1663  1.4038 -0.7979
  387MPD2    N1 5846   0.590   3.029   9.831  0.1288 -0.7557  0.2995
  387MPD2    H7 5847   0.642   2.970   9.895  2.5747  0.3281 -0.7020
  388TMC3    C1 5848   0.756   3.161   9.890  0.3765  0.0845  0.0674
  388TMC3    C2 5849   0.771   3.284   9.953  0.2525  0.6088 -0.7302
  388TMC3    C3 5850   0.887   3.295  10.032  0.1501  0.2187  0.2066
  388TMC3    C4 5851   0.852   3.061   9.903 -0.1557 -0.2580  0.2587
  388TMC3    C5 5852   0.964   3.084   9.976 -0.0738 -0.2985  0.4259
  388TMC3    C6 5853   0.986   3.202  10.048  0.7171 -0.2479  0.2350
  388TMC3     C 5854   0.639   3.150   9.808  0.7098  0.8885  0.0697
  388TMC3     O 5855   0.595   3.245   9.745 -0.9823  0.9172  0.1415
  388TMC3     H 5856   0.685   3.350   9.960  1.8833  2.8248 -1.9294
  388TMC3    H1 5857   0.836   2.981   9.832 -1.4687  0.5486 -0.3561
  388TMC3    H2 5858   1.076   3.213  10.108  1.7947 -2.2474 -0.9940
  388TMC3    C7 5859   1.044   2.960   9.998 -0.4405  0.9224 -0.6333
  388TMC3    C8 5860   0.897   3.411  10.114  0.4594 -0.2023  0.2118
  388TMC3    O1 5861   1.164   2.964   9.987  0.2566 -0.1193  0.0398
  388TMC3    O2 5862   0.949   3.398  10.225 -0.1967 -0.1803  0.6079
  389MPD2     C 5863   0.094   1.149  11.539 -0.0646  0.1290 -0.4316
  389MPD2    C1 5864   4.702   1.167  11.495  0.2901 -0.0492 -0.2816
  389MPD2    C2 5865   4.606   1.115  11.581  0.7985  0.1712  0.5569
  389MPD2    C3 5866   4.641   1.034  11.685  0.2744 -0.0372  0.3763
  389MPD2    C4 5867   0.038   1.004  11.720  1.6148  0.5508  0.4096
  389MPD2    C5 5868   0.132   1.060  11.637 -0.1191 -0.7701  0.7126
  389MPD2     H 5869   4.500   1.125  11.561  0.3803  0.4255  2.9488
  389MPD2    H1 5870   0.076   0.936  11.796 -1.9866  0.1510  1.8781
  389MPD2    H2 5871   0.177   1.193  11.485 -0.7572  0.7067 -1.0339
  389MPD2    H3 5872   0.239   1.045  11.648  0.2146  0.1940 -1.2307
  389MPD2     N 5873   4.537   0.985  11.759  0.5307 -0.0289  0.5507
  389MPD2    H5 5874   4.442   1.001  11.727  0.1439 -1.3717  1.0151
  389MPD2    N1 5875   4.672   1.229  11.372 -0.7284  0.0845 -0.3451
  389MPD2    H7 5876   0.012   1.232  11.306 -1.0182  1.8288 -0.6004
  390TMC3    C1 5877   4.436   0.857  11.936 -0.1842 -0.3992 -0.6396
  390TMC3    C2 5878   4.413   0.731  11.980  0.2339 -0.1499 -0.0046
  390TMC3    C3 5879   4.309   0.702  12.065 -0.6789 -0.2296 -0.3885
  390TMC3    C4 5880   4.350   0.955  11.976  0.4392  0.1558 -0.6406
  390TMC3    C5 5881   4.247   0.928  12.065 -0.6942 -0.7840 -0.2009
  390TMC3    C6 5882   4.228   0.802  12.104 -0.0784 -0.7059 -0.5123
  390TMC3     C 5883   4.553   0.893  11.857 -0.4098 -0.3444  0.3603
  390TMC3     O 5884   4.641   0.812  11.869 -0.4666 -0.0461  0.0984
  390TMC3     H 5885   4.474   0.647  11.950 -1.0527  0.7710 -5.0636
  390TMC3    H1 5886   4.376   1.058  11.953  1.9636  0.5004  2.6395
  390TMC3    H2 5887   4.159   0.774  12.184 -1.2798  0.1959 -1.2460
  390TMC3    C7 5888   4.127   0.966  11.998 -0.0130 -0.1396  0.6038
  390TMC3    C8 5889   4.233   0.589  12.012  0.0178  0.0041 -0.3132
  390TMC3    O1 5890   4.126   1.068  11.931 -1.0619 -0.2380 -0.1817
  390TMC3    O2 5891   4.229   0.575  11.889  0.2655 -0.7266 -0.2237
  391MPD2     C 5892   4.045   2.551  10.973  0.5059 -0.5145 -0.1005
  391MPD2    C1 5893   4.135   2.646  10.933  0.3532 -1.1430  0.7134
  391MPD2    C2 5894   4.101   2.720  10.815 -0.4401 -0.2675 -0.7761
  391MPD2    C3 5895   3.982   2.685  10.748  0.0827  0.3202 -0.7774
  391MPD2    C4 5896   3.893   2.594  10.790 -0.3213 -1.1204 -0.6368
  391MPD2    C5 5897   3.927   2.521  10.904 -0.4336 -0.0904  0.5595
  391MPD2     H 5898   4.154   2.811  10.790 -1.1373 -0.2459 -2.2037
  391MPD2    H1 5899   3.804   2.556  10.741 -0.9831 -1.8186  1.0819
  391MPD2    H2 5900   4.066   2.513  11.072 -0.9021  0.3069  0.5155
  391MPD2    H3 5901   3.859   2.449  10.948  0.1065  0.6980  2.7288
  391MPD2     N 5902   3.964   2.763  10.632 -0.0894 -0.5909  0.3105
  391MPD2    H5 5903   4.038   2.831  10.613  1.2583 -1.8323  1.0747
  391MPD2    N1 5904   4.244   2.690  11.016  0.2633  0.0652  0.3136
  391MPD2    H7 5905   4.221   2.682  11.114 -2.2874  0.4237 -0.2531
  392TMC3    C1 5906   3.897   2.818  10.414 -0.1814  0.3064  0.1185
  392TMC3    C2 5907   3.790   2.812  10.325 -0.8361  0.4366 -0.0884
  392TMC3    C3 5908   3.799   2.891  10.216 -0.2107 -0.2904 -0.8409
  392TMC3    C4 5909   4.018   2.883  10.396 -0.3296  0.6717 -0.3701
  392TMC3    C5 5910   4.019   2.956  10.279 -0.3067 -0.2898  0.8604
  392TMC3    C6 5911   3.907   2.975  10.196 -0.4044  0.1817  0.0422
  392TMC3     C 5912   3.871   2.740  10.533 -0.2930 -0.2836  0.2096
  392TMC3     O 5913   3.779   2.663  10.536  0.1986 -0.7034  0.5068
  392TMC3     H 5914   3.692   2.777  10.354 -0.3257 -1.4452 -0.6518
  392TMC3    H1 5915   4.108   2.891  10.455 -1.4221 -0.8802  1.4783
  392TMC3    H2 5916   3.929   3.037  10.111  0.0934  0.7650  0.5938
  392TMC3    C7 5917   4.125   3.052  10.263  0.5131  0.3270 -0.0106
  392TMC3    C8 5918   3.684   2.887  10.124  0.3543  0.2160 -0.3756
  392TMC3    O1 5919   4.097   3.160  10.217 -0.4537 -0.6227  0.1163
  392TMC3    O2 5920   3.606   2.795  10.128  0.0542  0.0367 -0.0510
  393TMC3    C1 5921   2.330   0.801  10.759 -0.1691  0.2032 -0.0334
  393TMC3    C2 5922   2.236   0.725  10.707  0.1990 -0.3265  0.4349
  393TMC3    C3 5923   2.175   0.631  10.785  0.4859 -0.3957 -0.3576
  393TMC3    C4 5924   2.361   0.798  10.895  0.1972 -0.0920 -0.5409
  393TMC3    C5 5925   2.310   0.694  10.969  0.5843 -0.7760  0.1765
  393TMC3    C6 5926   2.215   0.609  10.917 -0.1412 -0.0996 -0.4623
  393TMC3     C 5927   2.371   0.904  10.672  0.2859 -0.1932  0.8480
  393TMC3     O 5928   2.294   0.926  10.577  0.8431  0.2915  0.1574
  393TMC3     H 5929   2.208   0.731  10.602  0.0365  2.6886  0.6403
  393TMC3    H1 5930   2.428   0.872  10.937  1.3083 -0.7235 -1.2112
  393TMC3    H2 5931   2.157   0.537  10.973  1.4310 -1.3067 -0.3957
  393TMC3    C7 5932   2.376   0.645  11.089  0.2617  0.5957 -0.1936
  393TMC3    C8 5933   2.084   0.535  10.738 -0.3336  0.0820  0.0410
  393TMC3    O1 5934   2.316   0.562  11.152 -0.4806  0.5487 -0.1377
  393TMC3    O2 5935   2.003   0.495  10.823  0.5578 -0.2163  0.1140
  394TMC3    C1 5936   4.534   1.311  11.191  0.0685 -0.3501 -0.0062
  394TMC3    C2 5937   4.402   1.339  11.145 -0.2214  0.8456  0.4217
  394TMC3    C3 5938   4.386   1.344  11.011  0.5140  0.2079 -0.0152
  394TMC3    C4 5939   4.641   1.295  11.106 -0.2894  0.1065 -0.4893
  394TMC3    C5 5940   4.610   1.301  10.974  0.1336 -0.1603  0.3846
  394TMC3    C6 5941   4.485   1.321  10.925 -0.3570 -0.4420 -0.6927
  394TMC3     C 5942   4.543   1.270  11.334 -0.5791  0.1913 -0.7306
  394TMC3     O 5943   4.441   1.286  11.399 -0.5958 -0.6584  0.1344
  394TMC3     H 5944   4.309   1.344  11.201 -0.5805  1.3176 -0.2169
  394TMC3    H1 5945   0.004   1.271  11.139 -0.6275  0.6002  0.9252
  394TMC3    H2 5946   4.465   1.323  10.819 -0.9341  1.2085 -0.5568
  394TMC3    C7 5947   4.714   1.308  10.875  0.2940 -0.0033  0.2838
  394TMC3    C8 5948   4.248   1.344  10.960  0.6774 -0.4854  0.6668
  394TMC3    O1 5949   4.682   1.360  10.768 -0.1657 -0.0979  0.2744
  394TMC3    O2 5950   4.153   1.317  11.031  0.3947 -0.7806  0.0626
  395TMC3    C1 5951   4.678   2.773  14.458 -0.4512 -0.4541 -0.1858
  395TMC3    C2 5952   4.553   2.828  14.441 -0.2653  0.5141 -0.2185
  395TMC3    C3 5953   4.520   2.958  14.477  0.6745  0.2935 -0.3608
  395TMC3    C4 5954   0.040   2.861  14.482  0.4055  0.1373 -0.0311
  395TMC3    C5 5955   0.012   2.996  14.485  0.9915 -0.1345  0.8614
  395TMC3    C6 5956   4.623   3.051  14.488 -0.0559  0.6674  0.2554
  395TMC3     C 5957   4.677   2.646  14.523  0.0698 -0.2112 -0.7851
  395TMC3     O 5958   4.688   2.555  14.449 -0.1521 -0.3563 -0.4986
  395TMC3     H 5959   4.475   2.759  14.409 -0.4419 -0.1422  1.6370
  395TMC3    H1 5960   0.141   2.826  14.504 -0.2812 -0.4371  2.1914
  395TMC3    H2 5961   4.597   3.154  14.510  1.4715  1.3117 -0.9593
  395TMC3    C7 5962   0.117   3.094  14.515 -0.5460  0.3909 -0.0975
  395TMC3    C8 5963   4.413   2.977  14.575 -0.2113  0.1958 -0.3427
  395TMC3    O1 5964   0.093   3.195  14.582 -0.2041 -0.0474 -0.7327
  395TMC3    O2 5965   4.425   3.082  14.635  0.0260 -0.3314  0.7108
  396MPD2     C 5966   3.707   3.846  16.677 -0.3849  0.5869  0.2629
  396MPD2    C1 5967   3.796   3.910  16.754 -0.1708 -0.3661  0.0655
  396MPD2    C2 5968   3.868   4.013  16.691  0.5676  0.2176  0.2951
  396MPD2    C3 5969   3.853   4.054  16.560  0.4168  0.4290  0.8575
  396MPD2    C4 5970   3.755   3.996  16.485  0.2162 -0.1266  0.2876
  396MPD2    C5 5971   3.690   3.888  16.544  0.2613 -0.4369 -0.2624
  396MPD2     H 5972   3.943   4.066  16.749  1.1647 -0.7792  0.4280
  396MPD2    H1 5973   3.718   4.027  16.388  1.0690  0.0289  0.0085
  396MPD2    H2 5974   3.656   3.757  16.714  0.3837 -0.3701 -0.9784
  396MPD2    H3 5975   3.614   3.851  16.476  1.3004 -0.2960 -1.4994
  396MPD2     N 5976   3.908   4.176  16.512 -0.3930 -0.0427  0.7748
  396MPD2    H5 5977   3.981   4.219  16.567  0.0059  1.1711 -0.7216
  396MPD2    N1 5978   3.823   3.851  16.885  0.4457  0.3839  0.6625
  396MPD2    H7 5979   3.786   3.759  16.904  0.8997  0.2049  0.6823
  397TMC3    C1 5980   3.965   3.824  17.071  0.0518  0.2903 -0.4643
  397TMC3    C2 5981   4.080   3.797  17.001  0.5893  0.2083 -0.0556
  397TMC3    C3 5982   4.107   3.669  16.951  0.0260  0.9895  0.5287
  397TMC3    C4 5983   3.884   3.715  17.104 -0.4847  0.5385  0.0949
  397TMC3    C5 5984   3.918   3.589  17.067 -0.3401 -0.1813 -0.7063
  397TMC3    C6 5985   4.025   3.562  16.985 -0.2743 -0.1113 -0.2720
  397TMC3     C 5986   3.897   3.912  16.982  0.5212  0.6029  0.4471
  397TMC3     O 5987   3.918   4.036  16.986  0.0737  0.1903  0.1936
  397TMC3     H 5988   4.113   3.880  16.939  0.0286  0.8700  0.5208
  397TMC3    H1 5989   3.801   3.737  17.170 -0.3012  0.5068  0.3355
  397TMC3    H2 5990   4.052   3.458  16.972 -0.0196 -0.0775 -0.0306
  397TMC3    C7 5991   3.867   3.472  17.134  0.5042  0.0011  0.2118
  397TMC3    C8 5992   4.143   3.665  16.813 -0.2544 -0.5545 -0.8108
  397TMC3    O1 5993   3.878   3.363  17.076 -0.6568 -0.1879 -0.0806
  397TMC3    O2 5994   4.083   3.591  16.738 -0.3673  0.0224  0.2518
  398MPD2     C 5995   2.683   0.825   0.029 -0.6245  0.0716  0.1762
  398MPD2    C1 5996   2.698   0.758   0.148  0.0088 -1.1387 -0.9046
  398MPD2    C2 5997   2.715   0.829   0.260 -0.4448  0.3599 -0.6715
  398MPD2    C3 5998   2.727   0.961   0.263 -0.1083  0.4994 -0.3499
  398MPD2    C4 5999   2.727   1.028   0.144 -0.1233  0.4619 -0.5708
  398MPD2    C5 6000   2.711   0.959   0.030  1.2409 -0.1841  0.1335
  398MPD2     H 6001   2.736   0.764   0.344  0.4519 -1.5784 -2.3955
  398MPD2    H1 6002   2.748   1.135   0.141  1.4048  0.1307 -1.4727
  398MPD2    H2 6003   2.662   0.782  17.680 -1.5618 -2.7887  1.6424
  398MPD2    H3 6004   2.693   1.011  17.686 -0.5157 -1.2015 -0.1027
  398MPD2     N 6005   2.766   1.020   0.386 -0.5536  0.1919  0.5917
  398MPD2    H5 6006   2.792   0.961   0.465 -1.2211 -0.3360  0.4162
  398MPD2    N1 6007   2.662   0.622   0.162  0.4023 -0.2966 -0.3142
  398MPD2    H7 6008   2.647   0.586   0.255  3.1009  0.1970  0.3233
  399TMC3    C1 6009   2.587   0.413   0.115  0.1587  0.6749 -0.8365
  399TMC3    C2 6010   2.636   0.374   0.242 -0.0531  0.2284  0.1372
  399TMC3    C3 6011   2.583   0.266   0.303 -0.5716  0.5097 -0.0068
  399TMC3    C4 6012   2.473   0.361   0.063 -0.1153  0.7016  0.1352
  399TMC3    C5 6013   2.412   0.270   0.138 -0.8956 -0.7570  0.2337
  399TMC3    C6 6014   2.462   0.217   0.251  0.3712 -0.3074 -0.2069
  399TMC3     C 6015   2.625   0.538   0.064 -0.5952 -0.6028  0.0147
  399TMC3     O 6016   2.611   0.563  17.696  0.2504  0.1180  0.3026
  399TMC3     H 6017   2.732   0.414   0.269  0.0414 -0.6129  1.0265
  399TMC3    H1 6018   2.437   0.404  17.719  0.7331  1.3196  0.0910
  399TMC3    H2 6019   2.401   0.140   0.299 -1.1162  2.0101  1.6321
  399TMC3    C7 6020   2.297   0.197   0.071 -0.3873 -0.0445 -0.1221
  399TMC3    C8 6021   2.635   0.226   0.430 -0.7053 -0.2196 -0.1369
  399TMC3    O1 6022   2.268   0.085   0.099 -0.0087 -0.1375 -0.2168
  399TMC3    O2 6023   2.732   0.295   0.469  0.1085 -0.5250 -0.0508
  400TMC3    C1 6024   0.438   3.484  16.755 -0.4796 -0.3034 -0.4241
  400TMC3    C2 6025   0.350   3.381  16.765 -0.3766  0.1592 -0.1206
  400TMC3    C3 6026   0.235   3.394  16.694 -0.2137  0.2408  0.1555
  400TMC3    C4 6027   0.428   3.591  16.676 -0.3862  0.2871  0.4554
  400TMC3    C5 6028   0.315   3.595  16.598 -0.7674  0.2457 -0.0336
  400TMC3    C6 6029   0.217   3.496  16.602  0.2435  0.0869 -0.2166
  400TMC3     C 6030   0.571   3.458  16.812 -0.0196 -0.5959 -0.1581
  400TMC3     O 6031   0.581   3.359  16.883  0.3006 -0.2303 -0.1003
  400TMC3     H 6032   0.357   3.305  16.842 -1.1903  0.6578  0.4363
  400TMC3    H1 6033   0.497   3.675  16.675  2.0907 -1.7485  1.1271
  400TMC3    H2 6034   0.123   3.499  16.546  1.3388 -1.4430 -2.1553
  400TMC3    C7 6035   0.276   3.714  16.517  0.3512 -0.4805  0.4709
  400TMC3    C8 6036   0.148   3.285  16.703  0.3873  0.2219  0.4583
  400TMC3    O1 6037   0.202   3.709  16.419  0.0802 -0.1358  0.5064
  400TMC3    O2 6038   0.142   3.232  16.807 -0.0059 -0.3273  0.2262
  401MPD2     C 6039   4.517   2.329   0.860 -0.1277  0.5579 -0.5895
  401MPD2    C1 6040   4.622   2.236   0.849 -0.1751  0.5750 -0.6598
  401MPD2    C2 6041   4.594   2.106   0.818  0.3090  0.6002  0.7562
  401MPD2    C3 6042   4.474   2.078   0.766 -0.3089  0.5982 -0.1308
  401MPD2    C4 6043   4.373   2.164   0.756 -0.5848  0.0882 -0.2601
  401MPD2    C5 6044   4.395   2.294   0.803  0.3475 -0.0986 -0.4697
  401MPD2     H 6045   4.672   2.032   0.826  0.0033  0.0981 -0.9421
  401MPD2    H1 6046   4.277   2.130   0.720 -0.3194 -0.7845 -0.1543
  401MPD2    H2 6047   4.520   2.430   0.898  0.4178 -0.0805  1.0542
  401MPD2    H3 6048   4.309   2.360   0.809 -0.0245 -0.6112 -0.1521
  401MPD2     N 6049   4.463   1.936   0.741  0.1240 -0.2598  0.0934
  401MPD2    H5 6050   4.536   1.871   0.768 -2.4076 -2.7850  0.9607
  401MPD2    N1 6051   0.024   2.260   0.885 -0.5371  0.5534 -0.0552
  401MPD2    H7 6052   0.081   2.177   0.870  1.3206  1.7847  0.2051
  402TMC3    C1 6053   4.368   1.736   0.684 -0.3276  0.1332  0.0119
  402TMC3    C2 6054   4.405   1.676   0.804  0.6534  0.0212 -0.6618
  402TMC3    C3 6055   4.424   1.538   0.801  0.0162 -0.1537 -0.1436
  402TMC3    C4 6056   4.349   1.661   0.566 -0.2291  0.2359  0.5147
  402TMC3    C5 6057   4.354   1.522   0.576  0.0574 -0.1435  0.3914
  402TMC3    C6 6058   4.390   1.462   0.692 -0.1280  0.4787  0.7251
  402TMC3     C 6059   4.363   1.882   0.667  0.0968 -0.0307  0.0234
  402TMC3     O 6060   4.280   1.935   0.590  0.2330 -0.7429  0.3543
  402TMC3     H 6061   4.423   1.741   0.888  0.2676 -0.7151 -0.0080
  402TMC3    H1 6062   4.324   1.716   0.477  0.8945  1.3083  0.8662
  402TMC3    H2 6063   4.429   1.361   0.693  1.0097  0.8492 -3.6267
  402TMC3    C7 6064   4.385   1.447   0.448 -0.8046 -0.7233 -0.1267
  402TMC3    C8 6065   4.484   1.466   0.913 -0.1349  0.0534  0.3149
  402TMC3    O1 6066   4.448   1.341   0.462  0.0311  0.3282  0.1217
  402TMC3    O2 6067   4.533   1.354   0.895 -0.1411  0.6307 -0.2170
  403MPD2     C 6068   2.402   0.174  13.094 -0.3031 -0.3657 -0.5372
  403MPD2    C1 6069   2.454   0.091  13.190  0.0040  0.6777  0.2029
  403MPD2    C2 6070   2.584   0.113  13.241 -0.1638 -0.1877  0.3300
  403MPD2    C3 6071   2.652   0.226  13.195  0.0190 -0.6157 -0.2842
  403MPD2    C4 6072   2.591   0.316  13.105 -0.0562 -0.0339  0.3132
  403MPD2    C5 6073   2.471   0.286  13.049  1.2231 -0.0992  0.3058
  403MPD2     H 6074   2.625   0.044  13.313  1.7270  1.3757  0.7453
  403MPD2    H1 6075   2.640   0.406  13.071  0.0103  0.0269  0.5657
  403MPD2    H2 6076   2.302   0.147  13.063 -1.4038  0.6550  2.1332
  403MPD2    H3 6077   2.426   0.359  12.983 -1.4309 -1.7683  0.3060
  403MPD2     N 6078   2.770   0.258  13.263  0.0466  0.0501  0.0372
  403MPD2    H5 6079   2.794   0.186  13.331  0.2638  0.7761  0.7362
  403MPD2    N1 6080   2.373   4.720  13.226 -0.0932 -0.1794  0.0731
  403MPD2    H7 6081   2.278   4.716  13.189  0.1140  2.3843 -0.7503
  404TMC3    C1 6082   2.302   4.526  13.351  0.0339  0.4994  0.7425
  404TMC3    C2 6083   2.347   4.427  13.443  0.3260 -0.8537  0.3812
  404TMC3    C3 6084   2.253   4.371  13.520  0.4672 -0.0374 -0.2610
  404TMC3    C4 6085   2.175   4.563  13.337 -0.0400  0.4997  0.4547
  404TMC3    C5 6086   2.080   4.494  13.417  0.2688  0.5369  0.0624
  404TMC3    C6 6087   2.118   4.399  13.507  0.0472  0.4203 -0.0778
  404TMC3     C 6088   2.409   4.616  13.306  0.1255  0.2236  0.3282
  404TMC3     O 6089   2.519   4.575  13.341 -0.2048 -0.0731 -0.3526
  404TMC3     H 6090   2.454   4.411  13.444  0.3967 -0.4396 -1.0303
  404TMC3    H1 6091   2.146   4.650  13.279  0.3310 -0.6212 -1.4028
  404TMC3    H2 6092   2.041   4.346  13.562 -0.8698  1.0049 -0.8116
  404TMC3    C7 6093   1.940   4.479  13.376 -0.0474 -0.1220  0.3030
  404TMC3    C8 6094   2.303   4.298  13.640  0.1755 -0.7834  0.7763
  404TMC3    O1 6095   1.867   4.418  13.451 -0.1539 -0.1334 -0.1086
  404TMC3    O2 6096   2.399   4.233  13.604 -0.2573  0.1729 -0.0225
  405MPD2     C 6097   2.711   0.845  14.477  0.1366 -0.0059 -0.9833
  405MPD2    C1 6098   2.760   0.745  14.396 -0.3335 -0.0554  0.4648
  405MPD2    C2 6099   2.793   0.787  14.267  0.1964 -0.0148 -0.3238
  405MPD2    C3 6100   2.794   0.918  14.222 -0.8809  0.9920 -0.2535
  405MPD2    C4 6101   2.754   1.012  14.308 -1.0200 -0.2427 -0.0183
  405MPD2    C5 6102   2.707   0.978  14.436  0.0835  0.6624 -0.2297
  405MPD2     H 6103   2.818   0.709  14.195 -1.3246 -0.3225 -0.5142
  405MPD2    H1 6104   2.739   1.116  14.280 -0.2573  0.1150  0.8846
  405MPD2    H2 6105   2.685   0.818  14.578  1.8135 -0.3072 -0.6308
  405MPD2    H3 6106   2.666   1.049  14.507  1.4962  0.2993  0.9442
  405MPD2     N 6107   2.818   0.930  14.082  0.5771 -0.0226 -0.1200
  405MPD2    H5 6108   2.816   0.839  14.037  2.2445 -0.2424  0.2417
  405MPD2    N1 6109   2.743   0.608  14.441  0.1338  0.3255 -0.3242
  405MPD2    H7 6110   2.699   0.581  14.528  3.5614 -1.7272  0.8013
  406TMC3    C1 6111   2.653   1.037  13.677  0.0853 -0.0239  0.1760
  406TMC3    C2 6112   2.696   0.915  13.628 -0.2567 -0.0672 -0.6554
  406TMC3    C3 6113   2.797   0.848  13.697 -0.1134 -0.2670 -0.5598
  406TMC3    C4 6114   2.690   1.085  13.798 -0.1625  0.2894 -1.0296
  406TMC3    C5 6115   2.781   1.009  13.871 -0.0665  0.0636 -0.1851
  406TMC3    C6 6116   2.835   0.891  13.825 -0.8627 -0.1563 -0.1438
  406TMC3     C 6117   2.549   1.106  13.607  0.1837 -0.6625  0.6103
  406TMC3     O 6118   2.559   1.120  13.484 -0.1151  0.4966  0.1374
  406TMC3     H 6119   2.660   0.893  13.529  1.8132 -0.9015 -1.2270
  406TMC3    H1 6120   2.636   1.166  13.846 -0.5229 -0.7199  0.2673
  406TMC3    H2 6121   2.924   0.852  13.873 -0.3882  0.2432 -0.6998
  406TMC3    C7 6122   2.797   1.043  14.011  0.1492  0.4369 -0.0489
  406TMC3    C8 6123   2.817   0.716  13.666 -0.2327 -0.8587 -0.0658
  406TMC3    O1 6124   2.771   1.158  14.053 -0.6175 -0.4286  0.5133
  406TMC3    O2 6125   2.791   0.686  13.551  0.0878 -0.1980  0.0450
  407MPD2     C 6126   0.105   2.418   9.949  1.1972 -0.0465 -0.2064
  407MPD2    C1 6127   0.078   2.514   9.852  1.0672  0.3635 -0.7179
  407MPD2    C2 6128   0.083   2.645   9.885 -0.7569  0.3338  0.0692
  407MPD2    C3 6129   0.110   2.676  10.013 -0.4795 -0.3172 -0.4512
  407MPD2    C4 6130   0.139   2.581  10.104  0.4575  0.8254  0.1493
  407MPD2    C5 6131   0.144   2.450  10.073 -0.1070  0.0504  0.1881
  407MPD2     H 6132   0.066   2.717   9.806  0.5889 -1.1242 -1.5601
  407MPD2    H1 6133   0.164   2.602  10.208 -0.2245  0.7935  0.3162
  407MPD2    H2 6134   0.103   2.311   9.931 -0.4161  0.0401 -0.5579
  407MPD2    H3 6135   0.177   2.375  10.144  0.6809 -0.2996 -0.5504
  407MPD2     N 6136   0.111   2.815  10.061 -0.1450 -0.3810  0.4157
  407MPD2    H5 6137   0.149   2.839  10.151 -1.2978 -4.1078  1.9048
  407MPD2    N1 6138   0.039   2.483   9.719 -0.2549 -0.2961  0.2646
  407MPD2    H7 6139   0.018   2.564   9.662 -1.1205  0.5821  1.8305
  408TMC3    C1 6140   0.055   2.380   9.512  0.1598 -0.9565 -0.4138
  408TMC3    C2 6141   0.115   2.287   9.432  0.2254 -0.5529 -0.6536
  408TMC3    C3 6142   0.098   2.285   9.297 -0.0309  0.2809  0.8591
  408TMC3    C4 6143   4.692   2.456   9.458 -0.3023  0.2325 -0.4413
  408TMC3    C5 6144   4.681   2.460   9.317 -0.6534  0.0420  0.0530
  408TMC3    C6 6145   0.020   2.383   9.241 -0.7824  0.5563 -0.2137
  408TMC3     C 6146   0.058   2.366   9.659 -0.4365  0.0728  0.0350
  408TMC3     O 6147   0.087   2.253   9.707 -0.2274  0.0039  0.0231
  408TMC3     H 6148   0.168   2.208   9.483  1.0079  1.4572  1.6191
  408TMC3    H1 6149   4.624   2.517   9.516 -1.9195 -3.9167  2.0268
  408TMC3    H2 6150   0.006   2.384   9.134 -1.5378 -1.8124 -0.1358
  408TMC3    C7 6151   4.609   2.565   9.254 -0.0024  0.3951 -0.2112
  408TMC3    C8 6152   0.222   2.252   9.220 -0.0677  0.2235  0.0532
  408TMC3    O1 6153   4.565   2.541   9.146 -0.5336 -0.1272 -0.3364
  408TMC3    O2 6154   0.203   2.214   9.108  0.1820  0.0390 -0.6750
  409MPD2     C 6155   4.386   2.889  16.823 -0.2821  1.0297  0.0319
  409MPD2    C1 6156   4.455   2.974  16.902 -0.6741 -0.7895 -0.1768
  409MPD2    C2 6157   4.459   3.110  16.877 -0.2549 -0.2673 -0.4580
  409MPD2    C3 6158   4.395   3.170  16.764  0.6004  0.0838 -0.0806
  409MPD2    C4 6159   4.326   3.080  16.672  0.3381  0.4919  0.7227
  409MPD2    C5 6160   4.324   2.947  16.712 -0.8101  0.9187 -0.2645
  409MPD2     H 6161   4.517   3.170  16.946  0.1474 -1.1081 -0.0619
  409MPD2    H1 6162   4.288   3.122  16.579 -1.4707 -1.8132  0.4224
  409MPD2    H2 6163   4.371   2.781  16.830  0.2551  0.8580 -1.3322
  409MPD2    H3 6164   4.259   2.891  16.646 -0.3593 -1.3923  1.2600
  409MPD2     N 6165   4.403   3.305  16.733  0.2552 -0.0021  0.0072
  409MPD2    H5 6166   4.348   3.330  16.652  0.8752 -1.1136 -0.7609
  409MPD2    N1 6167   4.535   2.931  17.014 -0.0187  0.3326 -0.6736
  409MPD2    H7 6168   4.591   3.002  17.061 -1.5062  0.9116  0.2441
  410TMC3    C1 6169   4.486   3.525  16.732 -0.4409 -1.0885  0.3206
  410TMC3    C2 6170   4.559   3.613  16.810  0.0524 -0.6090 -0.0145
  410TMC3    C3 6171   4.638   3.710  16.754 -0.7728  0.2311 -0.2731
  410TMC3    C4 6172   4.505   3.529  16.597  0.0918  0.6626  0.0518
  410TMC3    C5 6173   4.588   3.622  16.547 -0.0967 -0.1358  0.2865
  410TMC3    C6 6174   4.664   3.714  16.619 -0.8644 -0.0807 -0.5075
  410TMC3     C 6175   4.479   3.398  16.802  1.3928  0.1331 -1.0045
  410TMC3     O 6176   4.546   3.385  16.901  0.2430  0.2618 -0.2387
  410TMC3     H 6177   4.538   3.614  16.916  0.9417 -0.0648  0.1547
  410TMC3    H1 6178   4.456   3.456  16.533  0.0953  1.2609 -0.6386
  410TMC3    H2 6179   0.008   3.768  16.573  1.5579 -1.5623  1.9944
  410TMC3    C7 6180   4.622   3.617  16.404  0.1751  0.3809  0.7572
  410TMC3    C8 6181   0.016   3.749  16.829  0.1043  0.6573 -0.8148
  410TMC3    O1 6182   4.620   3.509  16.345  0.2171  0.3193 -0.7383
  410TMC3    O2 6183   0.091   3.839  16.790  0.1335  0.5056 -0.0933
  411MPD2     C 6184   0.253   3.511  14.294 -0.1748 -0.3455  0.4244
  411MPD2    C1 6185   0.193   3.591  14.390 -0.2633  0.3125  0.4785
  411MPD2    C2 6186   0.067   3.559  14.437  0.3129  0.1304  0.3326
  411MPD2    C3 6187   4.732   3.457  14.373 -0.7424 -0.4020 -0.5395
  411MPD2    C4 6188   0.056   3.377  14.283  0.4450  0.3304 -0.4065
  411MPD2    C5 6189   0.181   3.404  14.243  0.2247  0.5257  0.0542
  411MPD2     H 6190   0.019   3.623  14.511 -1.0665 -2.2868  1.5336
  411MPD2    H1 6191   4.735   3.302  14.230 -1.9869  0.7385  1.6823
  411MPD2    H2 6192   0.355   3.526  14.262 -0.8495  1.7965 -0.6830
  411MPD2    H3 6193   0.225   3.341  14.167 -2.1100 -0.9199 -0.0947
  411MPD2     N 6194   4.598   3.428  14.403 -0.5334  0.4300 -0.0127
  411MPD2    H5 6195   4.555   3.368  14.334  0.3281 -1.5654  1.1928
  411MPD2    N1 6196   0.258   3.708  14.439 -0.3362  0.5036 -0.5636
  411MPD2    H7 6197   0.338   3.744  14.388 -0.6172  0.7624 -0.8241
  412TMC3    C1 6198   4.387   3.421  14.507 -0.0892  0.0223 -0.1566
  412TMC3    C2 6199   4.291   3.457  14.413 -0.4219  0.5043  0.2586
  412TMC3    C3 6200   4.158   3.430  14.441  0.7023  0.3012  0.0228
  412TMC3    C4 6201   4.350   3.342  14.608  0.0267 -0.5848 -0.0223
  412TMC3    C5 6202   4.216   3.318  14.633  0.0920  0.1137 -0.4760
  412TMC3    C6 6203   4.114   3.374  14.561  0.0127  0.0850 -0.1641
  412TMC3     C 6204   4.522   3.473  14.510  0.5473 -0.7639  0.6998
  412TMC3     O 6205   4.561   3.540  14.604  0.1992  0.6591 -0.0786
  412TMC3     H 6206   4.312   3.523  14.329 -1.1090  0.9679  0.4501
  412TMC3    H1 6207   4.426   3.304  14.675  0.9956 -0.8838 -1.2689
  412TMC3    H2 6208   4.010   3.371  14.588  0.5271 -3.4857  1.4960
  412TMC3    C7 6209   4.191   3.243  14.753  0.3071  0.0544  0.2925
  412TMC3    C8 6210   4.064   3.440  14.327 -0.4436 -0.0294  0.1310
  412TMC3    O1 6211   4.252   3.294  14.847  0.4820  0.1187  0.1348
  412TMC3    O2 6212   4.108   3.493  14.226 -0.1219  0.0253  0.3171
  413MPD2     C 6213   1.860   2.440  15.438  0.2128 -0.1982  0.5655
  413MPD2    C1 6214   1.801   2.377  15.332 -0.2440 -0.0354  0.2795
  413MPD2    C2 6215   1.827   2.242  15.314  0.3925 -0.9520  0.5270
  413MPD2    C3 6216   1.900   2.165  15.402  0.3044  0.3433  0.5595
  413MPD2    C4 6217   1.951   2.223  15.515  0.9454  0.3120 -0.4744
  413MPD2    C5 6218   1.931   2.360  15.531  0.2016 -0.3158  0.3193
  413MPD2     H 6219   1.794   2.186  15.227 -1.0336  2.6802 -1.2768
  413MPD2    H1 6220   1.995   2.164  15.596 -2.3806 -0.1235  1.0068
  413MPD2    H2 6221   1.862   2.548  15.443 -0.4599 -0.1687  0.2671
  413MPD2    H3 6222   1.975   2.414  15.614  0.7569 -1.2061  0.6058
  413MPD2     N 6223   1.933   2.033  15.359  0.3458  0.0557 -0.0131
  413MPD2    H5 6224   1.890   2.009  15.271  2.5387 -0.0906 -1.0412
  413MPD2    N1 6225   1.714   2.452  15.251 -0.1149 -0.4235  0.0837
  413MPD2    H7 6226   1.715   2.551  15.274 -1.7412 -0.8976  2.1541
  414TMC3    C1 6227   2.051   1.832  15.344 -0.1359  0.2757  0.5506
  414TMC3    C2 6228   2.105   1.731  15.409 -0.3500 -0.5324  0.4312
  414TMC3    C3 6229   2.165   1.634  15.331 -0.9838  0.5914 -0.1444
  414TMC3    C4 6230   2.052   1.838  15.209  0.0718  0.6593 -0.0918
  414TMC3    C5 6231   2.119   1.748  15.135  0.1889  0.2531 -0.0686
  414TMC3    C6 6232   2.179   1.644  15.198 -0.9315  0.1441 -0.1512
  414TMC3     C 6233   2.016   1.948  15.424 -0.3930 -0.7458  0.0019
  414TMC3     O 6234   2.078   1.962  15.528  0.3820  0.2957  0.1019
  414TMC3     H 6235   2.096   1.731  15.517 -1.3662  0.7040  0.3568
  414TMC3    H1 6236   2.033   1.930  15.154 -0.7604 -0.4067 -1.5758
  414TMC3    H2 6237   2.245   1.572  15.151  0.4694  2.0618 -1.1333
  414TMC3    C7 6238   2.182   1.794  15.018  0.1427 -0.0496 -0.0637
  414TMC3    C8 6239   2.223   1.518  15.388 -0.6572 -0.9324  0.0274
  414TMC3    O1 6240   2.102   1.850  14.946 -0.6562  0.0094  0.2309
  414TMC3    O2 6241   2.228   1.425  15.310 -0.0489  0.0771  0.5119
  415TMC3    C1 6242   2.321   0.256  10.049 -1.1090  0.1962 -0.1464
  415TMC3    C2 6243   2.354   0.367   9.974  0.4469 -0.2828  0.1997
  415TMC3    C3 6244   2.329   0.352   9.838  0.9210  0.0991 -0.4879
  415TMC3    C4 6245   2.273   0.143   9.994 -0.7240  0.2605  0.6145
  415TMC3    C5 6246   2.243   0.136   9.861  0.0004 -0.4274  0.1045
  415TMC3    C6 6247   2.268   0.243   9.780 -0.5125 -0.1147 -0.3799
  415TMC3     C 6248   2.342   0.255  10.198  0.4163 -0.7320 -0.0625
  415TMC3     O 6249   2.301   0.160  10.261  0.2831 -0.9661  0.4540
  415TMC3     H 6250   2.399   0.455  10.019  0.6125  0.1469 -0.8178
  415TMC3    H1 6251   2.263   0.054  10.055  0.3214 -1.0580 -1.1364
  415TMC3    H2 6252   2.258   0.232   9.673  1.2948 -5.3296 -0.0050
  415TMC3    C7 6253   2.182   0.012   9.812 -0.1946  0.7246 -0.3405
  415TMC3    C8 6254   2.332   0.476   9.762  0.5393  0.8148 -0.4813
  415TMC3    O1 6255   2.187   4.729   9.691 -0.2139  0.1546 -0.5019
  415TMC3    O2 6256   2.260   0.471   9.661 -0.2826 -0.2195 -0.3863
  416MPD2     C 6257   4.126   4.129  11.080 -0.3994 -0.7839 -0.5416
  416MPD2    C1 6258   4.024   4.072  11.164 -0.1229 -0.5867 -0.2944
  416MPD2    C2 6259   3.979   3.942  11.128 -0.2414 -0.3651 -0.4546
  416MPD2    C3 6260   4.027   3.872  11.020 -0.1096  0.1466  0.4164
  416MPD2    C4 6261   4.110   3.938  10.928 -0.1190 -0.5053  0.5357
  416MPD2    C5 6262   4.165   4.061  10.970 -0.4781 -0.7914 -0.1774
  416MPD2     H 6263   3.901   3.896  11.187  1.3003 -0.3500  1.6125
  416MPD2    H1 6264   4.158   3.895  10.840 -1.4639  1.6065 -1.2395
  416MPD2    H2 6265   4.163   4.230  11.086  0.6625 -1.0845 -1.9387
  416MPD2    H3 6266   4.234   4.106  10.900  0.3746  2.2672  2.6109
  416MPD2     N 6267   3.982   3.743  10.982 -0.3567  0.0319 -0.3153
  416MPD2    H5 6268   4.030   3.695  10.907 -0.4481  1.6302 -1.3934
  416MPD2    N1 6269   3.985   4.139  11.282  0.1748  0.4048  0.1522
  416MPD2    H7 6270   4.020   4.233  11.298 -1.0738  1.1911 -1.6103
  417TMC3    C1 6271   3.882   4.182  11.484  0.0698  0.4664  0.0224
  417TMC3    C2 6272   3.864   4.133  11.608  0.7241  0.2460 -0.0564
  417TMC3    C3 6273   3.792   4.207  11.698 -0.4787  0.4516  0.1507
  417TMC3    C4 6274   3.816   4.285  11.432  0.2205  0.5130  0.3154
  417TMC3    C5 6275   3.736   4.351  11.522  0.1777 -0.2364 -1.3835
  417TMC3    C6 6276   3.720   4.312  11.656 -0.7242 -0.0232 -0.2394
  417TMC3     C 6277   3.909   4.090  11.387  0.1255 -0.2691 -0.5000
  417TMC3     O 6278   3.890   3.971  11.414 -0.1372 -0.2068 -0.1579
  417TMC3     H 6279   3.934   4.058  11.641 -1.1623 -0.6472  1.8969
  417TMC3    H1 6280   3.829   4.315  11.329  1.8380 -1.1168  0.0540
  417TMC3    H2 6281   3.645   4.355  11.721  0.1387 -0.2661  0.9215
  417TMC3    C7 6282   3.619   4.409  11.456 -0.1663  0.3144  0.0697
  417TMC3    C8 6283   3.762   4.165  11.832  0.6325 -0.3244  0.6241
  417TMC3    O1 6284   3.627   4.520  11.412  0.4137 -0.0977 -0.1869
  417TMC3    O2 6285   3.763   4.251  11.918  0.4199 -0.2490 -0.2297
  418TMC3    C1 6286   2.919   1.400   0.607 -0.1112 -0.2774  0.0975
  418TMC3    C2 6287   2.818   1.326   0.546 -0.4814  0.0972  0.1422
  418TMC3    C3 6288   2.840   1.194   0.518  0.5636 -0.5424 -0.9953
  418TMC3    C4 6289   3.043   1.345   0.629 -0.4253 -0.8276 -0.2610
  418TMC3    C5 6290   3.060   1.211   0.606 -0.2825 -1.0517  0.4853
  418TMC3    C6 6291   2.962   1.132   0.541 -0.2462 -0.2321 -0.0019
  418TMC3     C 6292   2.938   1.528   0.542  0.0536  0.2827 -0.2798
  418TMC3     O 6293   2.861   1.621   0.560 -0.8804 -1.0992 -0.6021
  418TMC3     H 6294   2.722   1.375   0.535 -0.1952  0.1778 -2.0187
  418TMC3    H1 6295   3.126   1.413   0.642 -0.1299 -1.2377 -0.0076
  418TMC3    H2 6296   2.987   1.035   0.499 -1.8803 -0.7796  0.2910
  418TMC3    C7 6297   3.184   1.138   0.604  0.0265  0.2289 -0.1412
  418TMC3    C8 6298   2.770   1.152   0.403  0.0821  0.2112 -0.4243
  418TMC3    O1 6299   3.185   1.013   0.596  0.3209  0.3067  0.1864
  418TMC3    O2 6300   2.703   1.238   0.351  0.2023 -0.5488  0.3847
  419MPD2     C 6301   0.231   4.071  12.179 -0.4605  0.3221  0.1633
  419MPD2    C1 6302   0.349   4.095  12.244 -0.1216  0.2888  0.4932
  419MPD2    C2 6303   0.342   4.125  12.377 -0.0381 -0.0126 -0.0425
  419MPD2    C3 6304   0.225   4.129  12.447  0.2902  0.4000  0.2610
  419MPD2    C4 6305   0.103   4.112  12.386 -1.0355 -0.1411  0.3157
  419MPD2    C5 6306   0.110   4.082  12.251 -0.4778 -0.3871  0.3166
  419MPD2     H 6307   0.429   4.144  12.439  0.7155 -0.7387 -0.8753
  419MPD2    H1 6308   0.016   4.088  12.445 -1.2046  0.6487  0.3937
  419MPD2    H2 6309   0.227   4.043  12.074  0.9552  1.1530 -0.1029
  419MPD2    H3 6310   0.019   4.056  12.198  0.3569  2.2581 -2.4294
  419MPD2     N 6311   0.229   4.174  12.581 -0.3402 -0.6873  0.7482
  419MPD2    H5 6312   0.323   4.162  12.618 -0.3512  1.9118  1.5613
  419MPD2    N1 6313   0.471   4.118  12.176 -0.1456 -0.1052  0.4231
  419MPD2    H7 6314   0.549   4.154  12.230 -0.4064 -1.3745  1.6520
  420TMC3    C1 6315   0.166   4.246  12.791  0.1016 -0.3786 -0.5129
  420TMC3    C2 6316   0.107   4.353  12.847 -0.0777  0.6753  0.2297
  420TMC3    C3 6317   0.167   4.415  12.955  0.2540 -0.5323 -0.6926
  420TMC3    C4 6318   0.288   4.197  12.838  0.1352  0.0437 -0.7544
  420TMC3    C5 6319   0.339   4.247  12.952 -0.4684  0.2610  1.5610
  420TMC3    C6 6320   0.281   4.363  13.007  0.1920 -0.1822 -0.1075
  420TMC3     C 6321   0.123   4.212  12.659 -0.1881 -0.2017 -0.2996
  420TMC3     O 6322   0.011   4.234  12.622  0.0554  0.5328 -0.1240
  420TMC3     H 6323   0.023   4.401  12.797 -0.1350 -1.4386 -1.7024
  420TMC3    H1 6324   0.345   4.120  12.788  1.2010  0.3121  0.0692
  420TMC3    H2 6325   0.318   4.408  13.098  0.0819  0.9055 -0.5972
  420TMC3    C7 6326   0.486   4.248  12.950  0.8275 -0.2332 -0.2626
  420TMC3    C8 6327   0.103   4.517  13.035 -0.0936  0.0375  0.4095
  420TMC3    O1 6328   0.544   4.276  12.847 -0.0048  0.5221 -0.6085
  420TMC3    O2 6329   0.166   4.593  13.108  1.0166 -0.4005  0.1349
  421TMC3    C1 6330   2.950   0.402  13.351  0.4800 -0.1480 -0.2077
  421TMC3    C2 6331   2.978   0.538  13.361 -0.0563 -0.3453 -0.6621
  421TMC3    C3 6332   3.086   0.570  13.436 -0.0800 -0.0949  0.0882
  421TMC3    C4 6333   3.009   0.303  13.430  0.2825  0.3150 -0.2221
  421TMC3    C5 6334   3.108   0.352  13.509 -0.4591 -0.2412  0.2442
  421TMC3    C6 6335   3.153   0.478  13.510  0.4695 -0.2885 -0.1830
  421TMC3     C 6336   2.840   0.373  13.254 -0.2840 -0.2872  0.1296
  421TMC3     O 6337   2.831   0.452  13.160  0.2926 -0.4801 -0.0035
  421TMC3     H 6338   2.914   0.612  13.315 -1.5924 -0.7081  0.8975
  421TMC3    H1 6339   2.997   0.199  13.405 -0.1137  0.1794  0.5555
  421TMC3    H2 6340   3.243   0.503  13.565  0.7499 -0.5379 -0.5350
  421TMC3    C7 6341   3.170   0.267  13.616 -0.2932 -0.9746 -0.0593
  421TMC3    C8 6342   3.105   0.701  13.501 -0.3960 -0.8912 -0.6797
  421TMC3    O1 6343   3.270   0.313  13.676 -0.1920  0.3101  0.1663
  421TMC3    O2 6344   3.142   0.690  13.617 -0.2362  0.3775 -0.3150
  422TMC3    C1 6345   0.298   1.967  12.483 -0.2799 -0.9285  0.4963
  422TMC3    C2 6346   0.273   2.104  12.502 -0.0326 -0.1009  0.6446
  422TMC3    C3 6347   0.146   2.141  12.522  0.0414  0.4543 -0.6710
  422TMC3    C4 6348   0.197   1.879  12.476 -0.6705  0.0182  0.4570
  422TMC3    C5 6349   0.071   1.923  12.500 -0.4365  0.4049 -0.8456
  422TMC3    C6 6350   0.042   2.051  12.534  0.4484 -0.1391 -0.5813
  422TMC3     C 6351   0.414   1.950  12.402 -0.3829 -0.5708 -0.7113
  422TMC3     O 6352   0.474   2.052  12.373 -0.0613  0.0256 -0.4775
  422TMC3     H 6353   0.355   2.175  12.513  0.4386 -0.2440 -2.1474
  422TMC3    H1 6354   0.206   1.771  12.474 -0.9224  0.0227 -1.4689
  422TMC3    H2 6355   4.678   2.090  12.539  0.7312  0.5370 -0.0544
  422TMC3    C7 6356   4.709   1.865  12.410 -0.1150 -0.1396 -0.3857
  422TMC3    C8 6357   0.105   2.276  12.499 -0.1879  0.1496  0.2982
  422TMC3    O1 6358   0.005   1.787  12.322 -0.5533  0.2366 -0.3918
  422TMC3    O2 6359   4.722   2.301  12.519  0.2852  0.2061  0.1020
  423MPD2     C 6360   1.434   3.113   0.545 -0.6155  0.1298  0.9760
  423MPD2    C1 6361   1.484   2.994   0.589 -1.1462 -0.5795 -0.0646
  423MPD2    C2 6362   1.594   2.945   0.530  0.6372  0.5065 -0.3391
  423MPD2    C3 6363   1.656   3.010   0.418 -0.5797 -0.1760  0.0596
  423MPD2    C4 6364   1.590   3.123   0.367 -0.1369  0.2383 -0.4741
  423MPD2    C5 6365   1.477   3.175   0.425 -0.0634  0.0090  0.5291
  423MPD2     H 6366   1.637   2.856   0.575 -2.7564 -1.6633 -1.3794
  423MPD2    H1 6367   1.637   3.185   0.291  1.6394  0.7017  0.9970
  423MPD2    H2 6368   1.341   3.142   0.592 -2.0099  0.2185 -1.8436
  423MPD2    H3 6369   1.430   3.268   0.396  2.2972  0.9065 -0.4595
  423MPD2     N 6370   1.758   2.954   0.345  0.1595 -0.1736  0.0856
  423MPD2    H5 6371   1.786   3.004   0.261 -0.8997 -0.6500 -0.5451
  423MPD2    N1 6372   1.425   2.922   0.696 -0.8314 -0.3776 -0.0628
  423MPD2    H7 6373   1.472   2.835   0.719 -1.2313 -0.4905  0.3235
  424TMC3    C1 6374   1.284   2.860   0.880 -0.2012 -0.3350 -0.1868
  424TMC3    C2 6375   1.390   2.794   0.934  0.3335 -0.0242 -0.1793
  424TMC3    C3 6376   1.371   2.729   1.060 -0.2376 -0.0992  0.0269
  424TMC3    C4 6377   1.168   2.869   0.946  0.4629  0.2588  0.1935
  424TMC3    C5 6378   1.149   2.799   1.065  0.3913  0.3380  0.1587
  424TMC3    C6 6379   1.252   2.729   1.127 -0.0413 -0.0751 -0.7624
  424TMC3     C 6380   1.304   2.948   0.760 -0.5392 -0.9905  0.1843
  424TMC3     O 6381   1.213   3.030   0.732  0.0371 -0.6963  0.3830
  424TMC3     H 6382   1.488   2.800   0.888 -0.1265  0.2825 -1.1121
  424TMC3    H1 6383   1.084   2.904   0.889 -0.9616  0.5438  2.4665
  424TMC3    H2 6384   1.243   2.665   1.214  2.8026  2.8710  1.7351
  424TMC3    C7 6385   1.014   2.786   1.125  0.5092  0.7049  0.7702
  424TMC3    C8 6386   1.464   2.617   1.076 -0.0365  0.1680 -0.4059
  424TMC3    O1 6387   1.007   2.710   1.220 -0.6531 -0.2437  0.3372
  424TMC3    O2 6388   1.522   2.567   0.979  0.5677  0.1897 -0.3198
  425MPD2     C 6389   0.692   2.036  17.272 -0.1666  0.4155 -0.0824
  425MPD2    C1 6390   0.616   1.982  17.171  0.1583 -0.0879  0.4499
  425MPD2    C2 6391   0.505   2.057  17.129  0.4981 -0.2020  0.0499
  425MPD2    C3 6392   0.466   2.166  17.199 -0.3938  0.0267 -0.8227
  425MPD2    C4 6393   0.538   2.219  17.301  0.3699  0.7278  0.6863
  425MPD2    C5 6394   0.657   2.155  17.334 -0.6121  0.1692 -0.1748
  425MPD2     H 6395   0.447   2.027  17.043 -0.0501 -1.6609  0.9401
  425MPD2    H1 6396   0.512   2.314  17.347  1.9495  1.7143 -0.4378
  425MPD2    H2 6397   0.778   1.985  17.313 -1.2447 -0.6826  0.8358
  425MPD2    H3 6398   0.711   2.185  17.423 -0.8634 -1.0872  0.3999
  425MPD2     N 6399   0.340   2.215  17.157 -0.2462 -0.3506 -0.3675
  425MPD2    H5 6400   0.288   2.160  17.089 -1.4732 -1.5255  1.5233
  425MPD2    N1 6401   0.673   1.872  17.107  0.0095  0.4846  0.4606
  425MPD2    H7 6402   0.756   1.833  17.150  1.4925  0.4370 -2.4963
  426TMC3    C1 6403   0.679   1.684  16.962  0.8689 -0.4105 -0.6396
  426TMC3    C2 6404   0.652   1.654  16.830 -0.4689  0.4888 -0.3089
  426TMC3    C3 6405   0.740   1.569  16.759 -0.7019 -0.0227 -0.2803
  426TMC3    C4 6406   0.778   1.623  17.036  0.5705 -0.6065  0.2448
  426TMC3    C5 6407   0.865   1.538  16.961  0.0586  0.8903 -0.0472
  426TMC3    C6 6408   0.846   1.515  16.826 -0.4460  0.3499 -0.2057
  426TMC3     C 6409   0.607   1.797  17.013  0.1967 -0.1609  0.3133
  426TMC3     O 6410   0.496   1.820  16.966  0.2840 -0.5814 -0.0543
  426TMC3     H 6411   0.570   1.698  16.775 -1.3435 -2.1331 -1.1163
  426TMC3    H1 6412   0.795   1.641  17.142  2.9743  0.0573 -0.2769
  426TMC3    H2 6413   0.906   1.442  16.773 -1.8704  1.2113 -2.9659
  426TMC3    C7 6414   0.933   1.433  17.039 -0.6219 -0.6168  0.0826
  426TMC3    C8 6415   0.681   1.486  16.653 -0.0463 -0.0760  0.3801
  426TMC3    O1 6416   1.037   1.392  16.987  0.2822  0.6930 -0.1776
  426TMC3    O2 6417   0.764   1.431  16.580 -0.3131 -0.0191 -0.2791
  427MPD2     C 6418   4.143   3.707  14.640  0.2760  0.9811 -0.4837
  427MPD2    C1 6419   4.080   3.711  14.761 -0.5997 -0.1588 -0.6325
  427MPD2    C2 6420   3.959   3.757  14.766 -0.9768  0.2060  0.1159
  427MPD2    C3 6421   3.874   3.780  14.662  0.9534  0.4228  0.1129
  427MPD2    C4 6422   3.935   3.759  14.536 -0.2665  0.6378 -0.6151
  427MPD2    C5 6423   4.074   3.732  14.527  0.7749 -0.3670  0.3748
  427MPD2     H 6424   3.917   3.766  14.866 -0.8147  0.8581  0.1291
  427MPD2    H1 6425   3.870   3.761  14.449  1.0672 -0.3428 -1.6242
  427MPD2    H2 6426   4.249   3.692  14.624 -0.2606  0.3101 -3.3168
  427MPD2    H3 6427   4.122   3.731  14.430  1.8184 -1.8731  0.9029
  427MPD2     N 6428   3.745   3.819  14.664  0.3380  0.1230 -0.1759
  427MPD2    H5 6429   3.695   3.839  14.578 -1.8630  1.8041  1.4978
  427MPD2    N1 6430   4.137   3.660  14.881  0.1501  0.1654 -0.5832
  427MPD2    H7 6431   4.079   3.664  14.964  1.2068 -1.3923  0.2278
  428TMC3    C1 6432   4.292   3.596  15.045  0.2468  0.3755  0.7648
  428TMC3    C2 6433   4.201   3.510  15.108 -0.0137 -0.2719  0.5405
  428TMC3    C3 6434   4.236   3.477  15.239  0.3412  0.5149  0.6847
  428TMC3    C4 6435   4.399   3.652  15.100 -0.4037  0.4013 -0.2317
  428TMC3    C5 6436   4.432   3.606  15.223  0.7049  0.6889  0.4067
  428TMC3    C6 6437   4.352   3.519  15.291 -0.6950 -0.8233  0.2669
  428TMC3     C 6438   4.266   3.624  14.904 -0.8488 -0.5960  0.5807
  428TMC3     O 6439   4.362   3.625  14.825 -0.2256 -0.4929  0.1216
  428TMC3     H 6440   4.124   3.450  15.062 -0.6679  0.4512  0.6753
  428TMC3    H1 6441   4.447   3.731  15.044  0.3143  0.8798  1.0544
  428TMC3    H2 6442   4.381   3.482  15.389 -0.4760  0.4426  0.6751
  428TMC3    C7 6443   4.533   3.675  15.297  0.1030  0.1606 -0.8409
  428TMC3    C8 6444   4.172   3.360  15.312 -0.6907  0.1609 -0.2861
  428TMC3    O1 6445   4.522   3.681  15.419 -0.8039  0.5665 -0.0468
  428TMC3    O2 6446   4.118   3.275  15.244 -0.2763  0.7579 -0.5620
  429MPD2     C 6447   0.219   4.313  17.367  0.8317  0.4249  0.2540
  429MPD2    C1 6448   0.337   4.252  17.340  0.4327 -0.6559  0.1071
  429MPD2    C2 6449   0.433   4.314  17.252 -0.1842 -0.0621 -0.0586
  429MPD2    C3 6450   0.402   4.427  17.182  0.0267 -0.1381 -0.2224
  429MPD2    C4 6451   0.289   4.493  17.223  0.0046 -0.2461 -0.1970
  429MPD2    C5 6452   0.198   4.439  17.315 -1.0975 -0.3764  0.4283
  429MPD2     H 6453   0.527   4.264  17.233 -1.0215 -1.3277 -0.8538
  429MPD2    H1 6454   0.268   4.593  17.188  1.3774  0.2489  0.3692
  429MPD2    H2 6455   0.134   4.278  17.425  1.5577  1.3811  1.8752
  429MPD2    H3 6456   0.102   4.486  17.335 -0.7505  1.9987 -3.4392
  429MPD2     N 6457   0.480   4.470  17.073  0.4010  0.6789  0.5235
  429MPD2    H5 6458   0.570   4.425  17.069  0.1890  0.1922  1.2805
  429MPD2    N1 6459   0.375   4.131  17.403  1.0750 -0.1071  0.0576
  429MPD2    H7 6460   0.466   4.091  17.384  0.2887 -1.7401 -0.2249
  430TMC3    C1 6461   0.547   4.534  16.850  0.6669  0.5980  0.2137
  430TMC3    C2 6462   0.548   4.624  16.744 -0.7707 -0.4882  0.6445
  430TMC3    C3 6463   0.612   4.579  16.628 -0.2987 -0.1608 -0.0044
  430TMC3    C4 6464   0.622   4.419  16.850  0.4445  0.4462 -0.4027
  430TMC3    C5 6465   0.673   4.378  16.732  0.0144 -0.2977 -0.4770
  430TMC3    C6 6466   0.667   4.453  16.617  0.8102  1.0315  0.5418
  430TMC3     C 6467   0.460   4.559  16.971  0.0895 -0.5916 -0.1206
  430TMC3     O 6468   0.368   4.640  16.968  0.7347  0.4301 -0.4261
  430TMC3     H 6469   0.470   4.698  16.737 -1.7162 -1.5746 -0.3610
  430TMC3    H1 6470   0.626   4.341  16.925 -1.1545  0.2989 -0.4740
  430TMC3    H2 6471   0.724   4.419  16.531 -0.3465  0.2003  0.1094
  430TMC3    C7 6472   0.614   4.248  16.692 -0.0485 -0.1057 -0.6654
  430TMC3    C8 6473   0.553   4.609  16.500  0.0354 -0.3916  0.3068
  430TMC3    O1 6474   0.611   4.159  16.779 -0.1786 -0.5491 -0.1646
  430TMC3    O2 6475   0.543   4.512  16.425 -0.1383 -1.1847  0.0108
  431MPD2     C 6476   1.090   4.380  12.634  0.8057 -0.5093  0.4208
  431MPD2    C1 6477   1.150   4.427  12.516  0.2431  0.3550  0.3136
  431MPD2    C2 6478   1.079   4.423  12.393  0.3201  0.2048 -0.6198
  431MPD2    C3 6479   0.949   4.359  12.393 -0.5417 -0.3739 -0.5833
  431MPD2    C4 6480   0.900   4.319  12.518 -0.5567 -0.1592  0.2734
  431MPD2    C5 6481   0.963   4.326  12.638  0.0800 -0.1883 -0.2316
  431MPD2     H 6482   1.129   4.445  12.299  1.3670 -0.0611 -0.1293
  431MPD2    H1 6483   0.797   4.285  12.517 -0.4220 -0.6288  2.1182
  431MPD2    H2 6484   1.149   4.382  12.724  0.6188  1.8644  0.4914
  431MPD2    H3 6485   0.920   4.286  12.729  1.4774  0.4488  0.7060
  431MPD2     N 6486   0.869   4.324  12.280 -0.3731 -0.5392  0.6916
  431MPD2    H5 6487   0.791   4.262  12.302  0.4379 -1.4354  1.0507
  431MPD2    N1 6488   1.278   4.489  12.532  0.5751  0.7436 -0.0819
  431MPD2    H7 6489   1.314   4.482  12.627 -0.4480  1.1760  0.3421
  432TMC3    C1 6490   0.810   4.279  12.049 -0.0397 -0.2135 -0.5680
  432TMC3    C2 6491   0.869   4.243  11.929 -0.9954 -0.8273  0.1176
  432TMC3    C3 6492   0.795   4.166  11.847 -0.0963 -1.3482 -0.3446
  432TMC3    C4 6493   0.681   4.250  12.088  0.0760 -0.9306  0.4503
  432TMC3    C5 6494   0.620   4.159  12.003  1.0688  0.3359  0.5671
  432TMC3    C6 6495   0.674   4.109  11.887 -0.1553 -0.2873 -1.0234
  432TMC3     C 6496   0.907   4.344  12.145  0.3588 -0.0926  0.0647
  432TMC3     O 6497   1.019   4.370  12.104 -0.4027  0.5575  0.0874
  432TMC3     H 6498   0.967   4.282  11.905 -0.4277 -2.3126  0.0320
  432TMC3    H1 6499   0.628   4.294  12.171 -2.0134  0.0636 -1.3994
  432TMC3    H2 6500   0.616   4.048  11.819  1.5209 -1.2362 -1.6180
  432TMC3    C7 6501   0.499   4.093  12.044  0.5478  0.2207  0.1936
  432TMC3    C8 6502   0.853   4.104  11.728 -0.2611  0.1509  0.7654
  432TMC3    O1 6503   0.442   4.027  11.957  0.4348  0.2187 -0.6608
  432TMC3    O2 6504   0.781   4.019  11.673  0.0652 -0.2552 -0.2584
  433MPD2     C 6505   0.013   2.551  10.446 -0.4219 -0.3218  0.2618
  433MPD2    C1 6506   0.143   2.541  10.492  0.2352 -0.3244 -0.0712
  433MPD2    C2 6507   0.185   2.630  10.583  0.0541  0.7549 -0.3454
  433MPD2    C3 6508   0.101   2.728  10.624  0.4196 -0.4640 -0.3626
  433MPD2    C4 6509   4.709   2.735  10.577  0.0946 -0.4498 -0.0728
  433MPD2    C5 6510   4.663   2.649  10.483  0.2037  0.3821 -0.1131
  433MPD2     H 6511   0.282   2.639  10.631  0.5130  2.2769 -1.5583
  433MPD2    H1 6512   4.631   2.803  10.610  0.4153  0.9311 -2.1863
  433MPD2    H2 6513   4.710   2.479  10.376  1.9514  0.9702 -2.4130
  433MPD2    H3 6514   4.560   2.649  10.451  0.7348  1.9489 -1.8274
  433MPD2     N 6515   0.162   2.808  10.725 -0.5546  0.2096  0.0947
  433MPD2    H5 6516   0.260   2.789  10.745 -0.7959  0.1931  1.2846
  433MPD2    N1 6517   0.234   2.440  10.440 -0.5132 -0.3810 -0.1357
  433MPD2    H7 6518   0.187   2.363  10.394  1.8594  0.0126 -3.1930
  434TMC3    C1 6519   0.435   2.316  10.429 -0.3435  0.5113  0.0333
  434TMC3    C2 6520   0.569   2.302  10.466  0.6415  0.0035 -0.3487
  434TMC3    C3 6521   0.622   2.178  10.459  0.4777  0.6454 -0.6909
  434TMC3    C4 6522   0.355   2.219  10.380  0.0297 -0.6162 -0.0270
  434TMC3    C5 6523   0.411   2.097  10.383  0.8030 -0.6725 -0.4823
  434TMC3    C6 6524   0.546   2.073  10.416 -0.1433  0.7038  0.7001
  434TMC3     C 6525   0.368   2.443  10.457  0.1641 -0.0601 -0.3749
  434TMC3     O 6526   0.432   2.540  10.490  0.1488  0.7894 -0.1165
  434TMC3     H 6527   0.611   2.380  10.528 -1.1597 -0.5926  1.6589
  434TMC3    H1 6528   0.250   2.232  10.358  0.4469  1.6297 -0.7323
  434TMC3    H2 6529   0.585   1.972  10.410 -1.1687  0.4840 -2.1810
  434TMC3    C7 6530   0.315   1.994  10.355 -0.5284  0.1102 -0.5751
  434TMC3    C8 6531   0.738   2.163  10.558 -0.7287  0.0057  0.0038
  434TMC3    O1 6532   0.224   2.024  10.279  0.0506  0.5926  0.0984
  434TMC3    O2 6533   0.803   2.267  10.578 -0.0344  0.5063 -0.0032
  435MPD2     C 6534   2.331   2.660  15.421 -0.0843 -0.0355  0.2343
  435MPD2    C1 6535   2.288   2.668  15.561 -0.5876  0.4842 -0.2184
  435MPD2    C2 6536   2.376   2.629  15.662  0.2864  0.7008 -0.5517
  435MPD2    C3 6537   2.503   2.580  15.633 -0.2707 -0.2068 -0.0197
  435MPD2    C4 6538   2.548   2.580  15.502  0.3127 -0.3719  0.4916
  435MPD2    C5 6539   2.460   2.609  15.401  0.9939 -1.1644  0.5159
  435MPD2     H 6540   2.333   2.641  15.761  3.9398  0.6495  1.0258
  435MPD2    H1 6541   2.647   2.558  15.465 -0.0811 -2.8690  0.9429
  435MPD2    H2 6542   2.272   2.697  15.339  1.1580  1.2869 -0.0564
  435MPD2    H3 6543   2.507   2.610  15.303  1.2256  0.4474  0.6389
  435MPD2     N 6544   2.577   2.527  15.743  0.6846  0.0776  0.3967
  435MPD2    H5 6545   2.530   2.549  15.830 -1.7763 -1.1113 -0.6201
  435MPD2    N1 6546   2.158   2.720  15.610 -0.3542  0.1889 -0.0117
  435MPD2    H7 6547   2.144   2.710  15.710 -2.6024 -3.8086 -0.7361
  436TMC3    C1 6548   1.830   2.899  15.787  0.5219 -0.4100 -0.3055
  436TMC3    C2 6549   1.944   2.860  15.721 -0.4125  1.1648 -0.3597
  436TMC3    C3 6550   1.931   2.815  15.590  0.7043  0.6828  0.0558
  436TMC3    C4 6551   1.711   2.908  15.727 -0.5280  0.4220 -0.3891
  436TMC3    C5 6552   1.699   2.858  15.595 -0.5666  0.1434  0.4597
  436TMC3    C6 6553   1.812   2.822  15.526 -0.4058 -0.1787  0.5642
  436TMC3     C 6554   1.862   2.990  15.900  0.3804 -0.0009 -0.2676
  436TMC3     O 6555   1.974   3.037  15.898 -0.0004 -0.1867 -0.2861
  436TMC3     H 6556   2.041   2.869  15.769  0.4404  1.3516 -2.1033
  436TMC3    H1 6557   1.620   2.910  15.785  0.2653  1.6643  0.8045
  436TMC3    H2 6558   1.804   2.806  15.419  0.7184  0.6645  0.3504
  436TMC3    C7 6559   1.573   2.806  15.537 -0.0861  0.2173  0.1227
  436TMC3    C8 6560   2.050   2.755  15.527  0.0981 -0.3721  0.2951
  436TMC3    O1 6561   1.593   2.705  15.471 -0.0718 -0.0784  0.3456
  436TMC3    O2 6562   2.026   2.719  15.413  0.1679  0.5493  0.3335
  437TMC3    C1 6563   0.351   0.107  13.479 -0.4329  0.2511  0.1804
  437TMC3    C2 6564   0.213   0.113  13.486 -0.3095 -0.2021 -0.2613
  437TMC3    C3 6565   0.156   0.235  13.450  0.2047 -0.2091 -0.2251
  437TMC3    C4 6566   0.427   0.201  13.427 -1.0707 -0.3879 -0.4446
  437TMC3    C5 6567   0.362   0.304  13.371  0.2494 -0.4052  0.4068
  437TMC3    C6 6568   0.230   0.321  13.388 -0.1285  0.1317 -0.1022
  437TMC3     C 6569   0.422   4.717  13.497 -0.2305  0.2968  0.0332
  437TMC3     O 6570   0.538   4.723  13.537 -0.1334 -0.8961 -0.3475
  437TMC3     H 6571   0.162   0.029  13.532  0.0179 -0.6234 -0.6797
  437TMC3    H1 6572   0.536   0.200  13.424 -1.0727 -2.9906 -0.1033
  437TMC3    H2 6573   0.186   0.412  13.350 -0.4727 -0.9329 -2.2204
  437TMC3    C7 6574   0.422   0.366  13.254 -0.1984 -0.7769 -0.4773
  437TMC3    C8 6575   0.016   0.270  13.473 -0.0596 -0.3305  0.4899
  437TMC3    O1 6576   0.356   0.453  13.194 -0.1754  0.0949 -0.2657
  437TMC3    O2 6577   4.733   0.390  13.453 -0.1136  0.2337 -0.3656
  438MPD2     C 6578   3.043   0.904  16.142  0.2295 -0.1376  1.0851
  438MPD2    C1 6579   3.135   0.871  16.238 -0.0109 -0.1615 -0.3240
  438MPD2    C2 6580   3.113   0.925  16.363 -0.5970  0.1847  0.1325
  438MPD2    C3 6581   3.001   1.007  16.393 -0.5396  0.8447  0.1012
  438MPD2    C4 6582   2.906   1.030  16.295 -0.0567  0.4230  0.4039
  438MPD2    C5 6583   2.934   0.981  16.168 -0.0368  0.1019  0.1994
  438MPD2     H 6584   3.188   0.895  16.436 -1.0812  0.3564  0.7002
  438MPD2    H1 6585   2.817   1.087  16.319  1.6124  3.3692 -0.3795
  438MPD2    H2 6586   3.045   0.870  16.039 -0.3879  1.0583  0.6745
  438MPD2    H3 6587   2.855   0.992  16.095  0.7591 -1.9702 -0.9702
  438MPD2     N 6588   2.966   1.055  16.527  0.2522 -1.0317  0.3578
  438MPD2    H5 6589   2.867   1.072  16.542  0.0294 -1.8115 -0.1939
  438MPD2    N1 6590   3.243   0.783  16.212  0.4941 -0.7332  0.2848
  438MPD2    H7 6591   3.312   0.780  16.287 -0.5031  0.6155  1.2593
  439TMC3    C1 6592   3.396   0.650  16.090 -0.1278  0.1748 -0.6500
  439TMC3    C2 6593   3.435   0.610  15.966  0.5469 -0.3338 -0.3584
  439TMC3    C3 6594   3.524   0.502  15.956  1.5455  0.5979 -0.0117
  439TMC3    C4 6595   3.466   0.620  16.202 -0.6625  0.5071  0.5762
  439TMC3    C5 6596   3.546   0.515  16.188 -0.5318  0.1351  0.0633
  439TMC3    C6 6597   3.569   0.451  16.071 -0.3051  0.0246  0.1103
  439TMC3     C 6598   3.273   0.728  16.090 -0.1097  0.5031 -0.3992
  439TMC3     O 6599   3.214   0.736  15.981  0.0086  0.1868  0.1687
  439TMC3     H 6600   3.380   0.644  15.879 -0.2187 -0.4864  0.0563
  439TMC3    H1 6601   3.448   0.660  16.301 -1.1622  1.3340  0.1501
  439TMC3    H2 6602   3.630   0.362  16.060 -0.9579  0.0523 -3.5364
  439TMC3    C7 6603   3.598   0.457  16.313 -0.1101 -0.2056  0.1405
  439TMC3    C8 6604   3.523   0.412  15.840  0.2239 -0.2334  0.6955
  439TMC3    O1 6605   3.617   0.537  16.403 -0.6345 -0.3279  0.0616
  439TMC3    O2 6606   3.556   0.292  15.858  0.0099 -0.2010 -0.8485
  440MPD2     C 6607   2.323   0.943  14.593  0.4313  0.3324  0.1099
  440MPD2    C1 6608   2.356   1.053  14.672  0.7858  0.3765  0.3363
  440MPD2    C2 6609   2.411   1.027  14.797 -0.1601  0.2355 -0.2821
  440MPD2    C3 6610   2.437   0.900  14.839 -0.2740 -0.0474  0.3213
  440MPD2    C4 6611   2.417   0.792  14.754  0.2733 -0.4902  0.2491
  440MPD2    C5 6612   2.349   0.813  14.634 -0.1586 -0.6162 -0.0823
  440MPD2     H 6613   2.433   1.118  14.852  3.2163 -1.8434  1.8375
  440MPD2    H1 6614   2.435   0.687  14.775  2.9382  0.4231  2.5023
  440MPD2    H2 6615   2.282   0.946  14.492  1.3106  2.3438 -0.1947
  440MPD2    H3 6616   2.322   0.728  14.573 -0.1588  0.7271 -1.9288
  440MPD2     N 6617   2.490   0.879  14.972 -0.5818  0.6363  0.5686
  440MPD2    H5 6618   2.492   0.782  15.002  1.9880  1.0370  1.6736
  440MPD2    N1 6619   2.325   1.183  14.643 -0.6235  0.5512  0.1975
  440MPD2    H7 6620   2.356   1.250  14.713 -0.3975  2.4775 -1.7632
  441TMC3    C1 6621   2.578   0.931  15.188  0.4832  0.3624 -0.0826
  441TMC3    C2 6622   2.642   1.019  15.267  0.4231  0.6283  0.4701
  441TMC3    C3 6623   2.688   0.965  15.381 -0.6406 -0.1835 -0.0986
  441TMC3    C4 6624   2.526   0.811  15.229  0.7253  0.1504 -0.1436
  441TMC3    C5 6625   2.579   0.766  15.348  0.2041 -0.0697 -0.4884
  441TMC3    C6 6626   2.671   0.842  15.426  0.1456 -1.6315 -0.5281
  441TMC3     C 6627   2.530   0.979  15.058 -0.3574  0.1148 -0.4428
  441TMC3     O 6628   2.557   1.094  15.039 -0.5947 -0.2352 -0.9232
  441TMC3     H 6629   2.687   1.111  15.230 -0.8649  0.3101 -1.9628
  441TMC3    H1 6630   2.438   0.763  15.188  1.8549 -0.2171 -2.1340
  441TMC3    H2 6631   2.711   0.811  15.521 -0.6484 -0.6178  0.1485
  441TMC3    C7 6632   2.482   0.696  15.431 -0.2575 -0.5945  0.2153
  441TMC3    C8 6633   2.671   1.058  15.493 -0.4084 -0.7215 -0.3411
  441TMC3    O1 6634   2.361   0.706  15.424 -0.4772 -0.4528  0.1898
  441TMC3    O2 6635   2.724   1.044  15.601 -0.2130 -0.4978 -0.1570
  442MPD2     C 6636   0.045   2.004  16.077  0.5823 -0.3271 -0.5007
  442MPD2    C1 6637   0.037   1.952  16.205  0.8703  0.7062 -0.9181
  442MPD2    C2 6638   0.060   1.817  16.226  0.2188  0.3193 -0.4925
  442MPD2    C3 6639   0.089   1.731  16.122  0.0227  0.2323  0.4646
  442MPD2    C4 6640   0.099   1.784  15.998 -0.6016  0.4869 -0.2268
  442MPD2    C5 6641   0.088   1.916  15.975  0.3266 -0.8391 -0.7095
  442MPD2     H 6642   0.044   1.787  16.329  1.6138  0.2523 -0.3072
  442MPD2    H1 6643   0.119   1.716  15.916  2.5015 -2.2085  2.7354
  442MPD2    H2 6644   0.026   2.106  16.046 -0.9559 -0.2538  0.6951
  442MPD2    H3 6645   0.104   1.936  15.870 -0.8664 -1.0148 -0.9353
  442MPD2     N 6646   0.103   1.585  16.138 -0.5738 -0.0734 -0.3642
  442MPD2    H5 6647   0.132   1.540  16.052  2.3844 -2.6592  2.0269
  442MPD2    N1 6648   4.735   2.030  16.313  0.0511 -0.8807 -0.6659
  442MPD2    H7 6649   0.012   1.991  16.406 -0.4216 -0.7713 -0.5438
  443TMC3    C1 6650   4.673   2.230  16.419  0.2033 -0.3874  0.2855
  443TMC3    C2 6651   4.621   2.358  16.412 -0.2104 -0.2021 -0.0793
  443TMC3    C3 6652   4.533   2.410  16.508 -0.1042 -0.6133  0.1646
  443TMC3    C4 6653   4.650   2.169  16.545 -0.6653  0.2126  0.3799
  443TMC3    C5 6654   4.579   2.226  16.648 -0.4144 -0.0353  0.0770
  443TMC3    C6 6655   4.506   2.345  16.620  0.0163  0.3110 -0.3270
  443TMC3     C 6656   4.708   2.168  16.297  1.1051 -0.3016 -0.2176
  443TMC3     O 6657   4.699   2.237  16.193 -0.0936 -0.0752 -0.2887
  443TMC3     H 6658   4.649   2.422  16.329  0.1159 -0.3794 -0.1065
  443TMC3    H1 6659   4.690   2.070  16.560  0.4698  0.6585  0.2918
  443TMC3    H2 6660   4.436   2.383  16.694 -0.6848 -2.1348  0.2572
  443TMC3    C7 6661   4.518   2.141  16.753  0.2270 -0.1987 -0.0247
  443TMC3    C8 6662   4.460   2.528  16.488  0.4059  0.1758  0.2669
  443TMC3    O1 6663   4.528   2.020  16.734  0.4237 -0.5655 -0.3476
  443TMC3    O2 6664   4.457   2.600  16.588  0.2006  0.5481  0.1752
  444MPD2     C 6665   0.483   1.190  16.997 -0.0264 -0.6774 -0.5532
  444MPD2    C1 6666   0.393   1.104  16.938 -0.0943 -0.4218  0.3336
  444MPD2    C2 6667   0.442   0.990  16.877 -0.0125 -0.5444  0.3886
  444MPD2    C3 6668   0.576   0.959  16.862  0.7833  0.3006 -0.3114
  444MPD2    C4 6669   0.663   1.056  16.904  0.0539 -0.2838 -0.2689
  444MPD2    C5 6670   0.617   1.168  16.973 -0.3476  0.3530 -0.0007
  444MPD2     H 6671   0.374   0.919  16.831 -0.0112 -2.0037  2.6908
  444MPD2    H1 6672   0.771   1.052  16.891  0.3380  1.1829  1.6627
  444MPD2    H2 6673   0.442   1.278  17.044  0.2987 -1.0632  0.4493
  444MPD2    H3 6674   0.688   1.244  17.002  0.0340  0.6345 -1.6727
  444MPD2     N 6675   0.614   0.828  16.821  0.1444 -0.2616 -0.1919
  444MPD2    H5 6676   0.536   0.773  16.786 -0.2966 -0.0877  0.5129
  444MPD2    N1 6677   0.252   1.127  16.947  0.4864 -0.0356 -0.3720
  444MPD2    H7 6678   0.193   1.060  16.899 -1.6638  2.1894 -0.8127
  445TMC3    C1 6679   0.738   0.630  16.774  0.9133  0.0604  0.6510
  445TMC3    C2 6680   0.630   0.551  16.788 -0.8901  0.3052  0.1982
  445TMC3    C3 6681   0.645   0.417  16.761  0.4131  0.6556  0.2682
  445TMC3    C4 6682   0.857   0.574  16.725 -0.1423 -0.7289 -0.0112
  445TMC3    C5 6683   0.871   0.442  16.711 -0.3659 -0.6911 -0.3075
  445TMC3    C6 6684   0.762   0.362  16.719  0.0618  0.4501 -0.1176
  445TMC3     C 6685   0.740   0.772  16.811  0.4431 -0.3634  0.8791
  445TMC3     O 6686   0.849   0.821  16.825 -0.1072  0.4592  0.8062
  445TMC3     H 6687   0.541   0.592  16.835 -0.6691  1.1857 -0.1422
  445TMC3    H1 6688   0.943   0.639  16.717  0.4944 -1.3980  1.4497
  445TMC3    H2 6689   0.768   0.260  16.683  0.1937 -0.2702  1.9494
  445TMC3    C7 6690   0.989   0.391  16.635 -0.0008  0.5406 -0.3769
  445TMC3    C8 6691   0.528   0.342  16.735  0.1185  0.0562  0.0162
  445TMC3    O1 6692   1.054   0.472  16.568  0.0314 -0.1057  0.3250
  445TMC3    O2 6693   0.546   0.231  16.686  0.1973 -0.3169  0.1602
  446MPD2     C 6694   0.132   1.982  10.806 -0.0857 -0.2667  0.0710
  446MPD2    C1 6695   0.085   2.106  10.808  0.2989 -0.6046 -0.0677
  446MPD2    C2 6696   0.169   2.219  10.802 -0.2581  0.2628  0.5251
  446MPD2    C3 6697   0.304   2.199  10.801  0.0111  0.7214 -0.2066
  446MPD2    C4 6698   0.356   2.071  10.786  0.2523  0.4637  0.1053
  446MPD2    C5 6699   0.271   1.971  10.798 -0.1930 -0.0989  0.0237
  446MPD2     H 6700   0.134   2.321  10.816 -1.9688 -0.5661  2.3029
  446MPD2    H1 6701   0.460   2.044  10.768 -0.1981 -1.2524  0.1139
  446MPD2    H2 6702   0.066   1.897  10.813 -0.2988 -0.2771 -1.9901
  446MPD2    H3 6703   0.311   1.870  10.797  0.7734  0.2890 -0.3822
  446MPD2     N 6704   0.397   2.312  10.802  0.0232  0.0513 -0.2615
  446MPD2    H5 6705   0.351   2.401  10.786  0.8291  0.7001  1.0342
  446MPD2    N1 6706   4.681   2.135  10.827  0.1809  0.4885  0.0692
  446MPD2    H7 6707   4.650   2.231  10.818 -0.3576  0.0508 -2.8692
  447TMC3    C1 6708   0.606   2.424  10.820 -0.8074 -0.0472 -0.1110
  447TMC3    C2 6709   0.555   2.546  10.780  0.3779 -0.4460  0.2444
  447TMC3    C3 6710   0.639   2.652  10.748 -0.2841  0.5134  0.0568
  447TMC3    C4 6711   0.742   2.412  10.827  0.4022 -0.0947 -0.3200
  447TMC3    C5 6712   0.820   2.524  10.806 -0.0269  0.0291  1.0022
  447TMC3    C6 6713   0.773   2.644  10.767  0.6042  0.8189  0.2142
  447TMC3     C 6714   0.529   2.303  10.832 -0.5920 -0.1942 -0.0424
  447TMC3     O 6715   0.586   2.200  10.868 -0.3312 -0.0570 -0.1162
  447TMC3     H 6716   0.448   2.563  10.783  0.3425 -0.4527 -1.0595
  447TMC3    H1 6717   0.789   2.318  10.853  2.9421  1.9863  2.5923
  447TMC3    H2 6718   0.845   2.723  10.749  1.7263 -0.4421 -0.7844
  447TMC3    C7 6719   0.945   2.518  10.875  0.2491 -0.0883  0.1102
  447TMC3    C8 6720   0.586   2.759  10.664 -0.4566  0.7469  0.5041
  447TMC3    O1 6721   1.006   2.410  10.878  0.1361 -0.1391 -0.3104
  447TMC3    O2 6722   0.475   2.808  10.674  0.9300  0.0023 -0.2241
  448TMC3    C1 6723   3.319   2.342  17.214 -0.1086  0.2740  0.4349
  448TMC3    C2 6724   3.323   2.309  17.082 -0.8799 -0.0052 -0.2192
  448TMC3    C3 6725   3.419   2.218  17.041  0.5091 -0.5210 -0.0976
  448TMC3    C4 6726   3.415   2.294  17.301 -0.8464  0.0428  0.5617
  448TMC3    C5 6727   3.510   2.211  17.260 -0.0078  1.1187  0.1351
  448TMC3    C6 6728   3.519   2.179  17.133 -0.1484 -0.0258 -0.3296
  448TMC3     C 6729   3.231   2.439  17.271 -0.1150 -0.0699 -0.5228
  448TMC3     O 6730   3.251   2.458  17.388  0.2903 -0.2565  0.2636
  448TMC3     H 6731   3.256   2.341  17.004 -0.0703  1.4009 -0.3396
  448TMC3    H1 6732   3.425   2.332  17.402  3.6503  2.1981 -0.6873
  448TMC3    H2 6733   3.597   2.111  17.102  0.2893 -1.0022  2.9360
  448TMC3    C7 6734   3.595   2.140  17.350 -0.2990  0.1896  0.0949
  448TMC3    C8 6735   3.393   2.131  16.927 -0.6715 -0.0987  1.4492
  448TMC3    O1 6736   3.714   2.134  17.329 -0.1061 -0.7888  0.5235
  448TMC3    O2 6737   3.469   2.033  16.912  0.4091 -0.2239  0.5630
  449MPD2     C 6738   4.712   1.054  14.177  0.0252  0.2274 -0.1015
  449MPD2    C1 6739   4.581   1.080  14.159  0.3943  0.3027 -1.0099
  449MPD2    C2 6740   4.497   0.969  14.164  0.2797  0.4638 -0.6383
  449MPD2    C3 6741   4.547   0.843  14.194  0.0425  0.6209  0.8751
  449MPD2    C4 6742   4.671   0.827  14.234 -0.7939 -0.4941 -0.4589
  449MPD2    C5 6743   0.021   0.929  14.214 -0.2121 -0.4923 -0.2436
  449MPD2     H 6744   4.392   0.985  14.139 -0.3652 -2.5386  0.1862
  449MPD2    H1 6745   4.711   0.731  14.266 -1.6077 -0.3642  0.9610
  449MPD2    H2 6746   0.054   1.125  14.154  0.9750 -0.6369  0.5022
  449MPD2    H3 6747   0.124   0.924  14.247  0.2405  0.9388 -1.4649
  449MPD2     N 6748   4.446   0.754  14.207  0.1120  0.0367 -0.0627
  449MPD2    H5 6749   4.359   0.785  14.166 -0.3140  0.6337  1.2953
  449MPD2    N1 6750   4.518   1.201  14.132 -0.5111  0.0691 -0.2467
  449MPD2    H7 6751   4.417   1.200  14.122 -0.4499 -0.7978 -0.7752
  450TMC3    C1 6752   4.497   1.396  14.018 -0.2288 -0.2212  0.1698
  450TMC3    C2 6753   4.528   1.407  13.880  0.0699  0.1984  0.8528
  450TMC3    C3 6754   4.419   1.430  13.802 -0.3507 -0.3409 -0.1178
  450TMC3    C4 6755   4.370   1.381  14.058 -0.1271 -0.3303 -0.3651
  450TMC3    C5 6756   4.265   1.390  13.968 -0.5170  0.4447 -0.1295
  450TMC3    C6 6757   4.290   1.414  13.835  1.1265 -0.4437  0.3236
  450TMC3     C 6758   4.585   1.315  14.097 -0.6458 -0.2604 -0.4031
  450TMC3     O 6759   4.705   1.338  14.101 -0.3913 -0.7438 -0.1945
  450TMC3     H 6760   4.630   1.404  13.844  1.2514 -1.9249  4.3339
  450TMC3    H1 6761   4.338   1.355  14.158 -2.6400 -1.5306 -1.4854
  450TMC3    H2 6762   4.208   1.422  13.764  1.3567  1.0571  0.2313
  450TMC3    C7 6763   4.184   1.264  13.980 -0.4293 -0.5097  0.2058
  450TMC3    C8 6764   4.433   1.418  13.656  0.1992 -0.3090  0.1759
  450TMC3    O1 6765   4.236   1.180  14.050 -0.2203  0.3386 -0.0719
  450TMC3    O2 6766   4.337   1.466  13.592  0.3306 -0.0791 -0.6203
  451MPD2     C 6767   1.508   3.831   0.975 -0.0097  0.7132 -0.5261
  451MPD2    C1 6768   1.511   3.918   0.871  0.6765  0.1867  0.0442
  451MPD2    C2 6769   1.595   3.887   0.772  0.0547 -0.5243 -0.3487
  451MPD2    C3 6770   1.672   3.772   0.768  0.5760  0.3054 -0.6716
  451MPD2    C4 6771   1.677   3.687   0.881 -0.6525  0.2845  0.3060
  451MPD2    C5 6772   1.589   3.723   0.986  0.6779  0.2239  0.1498
  451MPD2     H 6773   1.609   3.955   0.688  0.1446 -2.0368 -1.5557
  451MPD2    H1 6774   1.746   3.605   0.897  0.0451  0.1575 -3.1967
  451MPD2    H2 6775   1.444   3.853   1.060 -0.1586  1.6814 -0.8875
  451MPD2    H3 6776   1.574   3.646   1.061  0.3905  0.1737  0.0413
  451MPD2     N 6777   1.745   3.745   0.649  0.5382 -0.4951 -0.4448
  451MPD2    H5 6778   1.732   3.810   0.571  0.8629 -1.5472 -1.3646
  451MPD2    N1 6779   1.421   4.027   0.873  0.2740  0.0798 -0.3414
  451MPD2    H7 6780   1.376   4.044   0.963 -1.8112 -2.5210 -0.8775
  452TMC3    C1 6781   1.774   3.603   0.458  0.4774 -0.4073  0.0444
  452TMC3    C2 6782   1.669   3.530   0.421 -0.0375 -0.2554  0.2630
  452TMC3    C3 6783   1.588   3.554   0.310 -0.1294  0.3663 -0.3327
  452TMC3    C4 6784   1.821   3.701   0.375 -0.0946  0.3225  0.2292
  452TMC3    C5 6785   1.749   3.723   0.253 -0.8170 -0.0468  0.2539
  452TMC3    C6 6786   1.632   3.653   0.225  0.0330  0.6219  0.1263
  452TMC3     C 6787   1.782   3.619   0.604  0.2750 -0.0648 -1.1320
  452TMC3     O 6788   1.783   3.515   0.673 -0.2808  0.5509 -0.6667
  452TMC3     H 6789   1.645   3.444   0.483 -0.3476  1.3299  2.3326
  452TMC3    H1 6790   1.914   3.751   0.399  0.3163 -0.0521 -0.5767
  452TMC3    H2 6791   1.564   3.674   0.144  0.8005 -0.1608 -0.7154
  452TMC3    C7 6792   1.782   3.838   0.169  0.5243  0.0880  0.1390
  452TMC3    C8 6793   1.453   3.564   0.342 -0.0299 -0.2051  0.4788
  452TMC3    O1 6794   1.741   3.854   0.055  0.1999 -0.1520  0.3020
  452TMC3    O2 6795   1.413   3.615   0.444  0.1447 -0.2324 -0.3604
  453TMC3    C1 6796   2.475   1.555  11.631  0.0020  0.1143 -0.1994
  453TMC3    C2 6797   2.383   1.452  11.602 -0.1544 -0.5824  0.0038
  453TMC3    C3 6798   2.270   1.490  11.535  0.0487 -0.3111 -0.0238
  453TMC3    C4 6799   2.453   1.685  11.591  0.9248  0.5004 -0.1153
  453TMC3    C5 6800   2.325   1.715  11.544  0.1788 -0.2654 -0.3697
  453TMC3    C6 6801   2.233   1.623  11.517  0.0772 -0.5988 -0.4211
  453TMC3     C 6802   2.590   1.533  11.715 -0.3129 -0.1424  0.3250
  453TMC3     O 6803   2.683   1.608  11.706  0.2297  0.3962 -0.1770
  453TMC3     H 6804   2.391   1.353  11.646  2.5460  0.4060  1.7345
  453TMC3    H1 6805   2.526   1.758  11.625  0.3995  1.8721 -1.9806
  453TMC3    H2 6806   2.135   1.648  11.478  0.1553  2.9068  1.5816
  453TMC3    C7 6807   2.324   1.825  11.443 -0.2654 -0.2716 -0.0380
  453TMC3    C8 6808   2.150   1.408  11.558  0.1171 -0.3369  0.0232
  453TMC3    O1 6809   2.256   1.808  11.345 -0.1948 -0.5317  0.3273
  453TMC3    O2 6810   2.055   1.470  11.600  0.6659 -0.1926 -0.4837
  454MPD2     C 6811   1.280   0.644  16.051  0.4253  0.4237 -0.2187
  454MPD2    C1 6812   1.187   0.744  16.045  0.3626 -0.4194  0.2287
  454MPD2    C2 6813   1.114   0.767  16.164 -0.1901 -0.0663 -0.4958
  454MPD2    C3 6814   1.129   0.687  16.277 -0.3590  0.0075  0.0989
  454MPD2    C4 6815   1.234   0.597  16.285  0.3135  0.0950 -0.5232
  454MPD2    C5 6816   1.307   0.587  16.172  0.5056  0.3767  0.3009
  454MPD2     H 6817   1.030   0.836  16.159  2.2234  2.9773  0.7883
  454MPD2    H1 6818   1.247   0.532  16.371 -1.1419 -1.0247 -1.1567
  454MPD2    H2 6819   1.336   0.613  15.964 -2.0536 -1.5912 -1.1034
  454MPD2    H3 6820   1.397   0.528  16.190  0.9316  0.5486 -1.3048
  454MPD2     N 6821   1.029   0.687  16.374  0.1658  0.1764  0.2047
  454MPD2    H5 6822   1.045   0.614  16.443 -0.8500 -1.9083 -1.7768
  454MPD2    N1 6823   1.144   0.794  15.919  0.0636  0.1666 -0.5600
  454MPD2    H7 6824   1.080   0.873  15.922 -1.1586 -0.8362  0.0002
  455TMC3    C1 6825   0.797   0.748  16.433 -1.0009  0.1515 -0.3179
  455TMC3    C2 6826   0.707   0.847  16.411 -0.0355 -0.3466 -0.4362
  455TMC3    C3 6827   0.578   0.823  16.384  0.1727 -0.0960 -1.0505
  455TMC3    C4 6828   0.759   0.615  16.423 -0.6073  0.2312  0.2460
  455TMC3    C5 6829   0.635   0.594  16.371 -0.0606  0.0446 -0.4391
  455TMC3    C6 6830   0.538   0.691  16.356 -0.3305 -0.4784 -0.2518
  455TMC3     C 6831   0.934   0.788  16.397  0.1309 -0.7021  0.2453
  455TMC3     O 6832   0.954   0.905  16.363 -0.3997  0.5313  0.5153
  455TMC3     H 6833   0.741   0.944  16.446  2.1128 -1.2100 -0.1547
  455TMC3    H1 6834   0.833   0.539  16.444 -0.4582 -0.5591 -3.0461
  455TMC3    H2 6835   0.432   0.671  16.341  0.0187 -1.3209 -1.5366
  455TMC3    C7 6836   0.601   0.461  16.311  0.2369  0.7878  0.0692
  455TMC3    C8 6837   0.476   0.907  16.444  0.1545 -0.3762 -0.0570
  455TMC3    O1 6838   0.504   0.462  16.241  0.1857 -0.0193 -0.4127
  455TMC3    O2 6839   0.378   0.850  16.490 -0.2592 -0.4820  0.2334
  456MPD2     C 6840   3.402   1.053  16.075 -0.0320 -0.0602 -0.6600
  456MPD2    C1 6841   3.497   1.038  16.178 -0.3272  0.0971  0.1883
  456MPD2    C2 6842   3.474   1.098  16.303  0.3638 -0.5153 -0.7202
  456MPD2    C3 6843   3.358   1.175  16.324 -0.2688 -0.1599  0.1451
  456MPD2    C4 6844   3.278   1.194  16.218  0.3040 -0.4755  0.9281
  456MPD2    C5 6845   3.302   1.140  16.094  0.4722 -0.5327  0.7355
  456MPD2     H 6846   3.533   1.078  16.392  0.1924 -1.0760 -0.7334
  456MPD2    H1 6847   3.183   1.247  16.221 -0.2306 -1.4249  0.8625
  456MPD2    H2 6848   3.418   1.015  15.975  3.0745  2.1327 -1.0067
  456MPD2    H3 6849   3.236   1.162  16.011 -0.9400 -1.6109  1.5705
  456MPD2     N 6850   3.324   1.226  16.456  0.5869  0.3427  0.2749
  456MPD2    H5 6851   3.396   1.213  16.526  0.7334 -0.7470 -0.0644
  456MPD2    N1 6852   3.608   0.951  16.164  1.2321  0.3728 -0.1411
  456MPD2    H7 6853   3.640   0.927  16.071  1.1713 -1.0057  0.1919
  457TMC3    C1 6854   3.216   1.351  16.623 -0.3593  0.3518  0.5227
  457TMC3    C2 6855   3.165   1.475  16.651 -0.0745 -0.5465 -0.1644
  457TMC3    C3 6856   3.177   1.521  16.776 -0.4589 -0.2852  0.3447
  457TMC3    C4 6857   3.258   1.271  16.724  0.2760 -0.1067 -0.5392
  457TMC3    C5 6858   3.257   1.316  16.850 -0.5623  0.0068 -0.7765
  457TMC3    C6 6859   3.216   1.433  16.877 -0.1125  0.1393  0.4310
  457TMC3     C 6860   3.219   1.308  16.486  0.6363  0.1042  0.5729
  457TMC3     O 6861   3.145   1.370  16.407 -0.3046 -0.1031  0.1448
  457TMC3     H 6862   3.131   1.542  16.573 -1.0941 -0.0500  0.7035
  457TMC3    H1 6863   3.288   1.169  16.701  0.6860 -0.2792  0.7319
  457TMC3    H2 6864   3.221   1.481  16.975  1.5936  3.0720 -1.0874
  457TMC3    C7 6865   3.349   1.256  16.946  0.1309  0.1798 -0.3119
  457TMC3    C8 6866   3.202   1.669  16.793 -0.2434 -0.0673  0.4419
  457TMC3    O1 6867   3.377   1.140  16.911 -0.1566  0.0263  0.4597
  457TMC3    O2 6868   3.262   1.700  16.894  0.1438 -0.0065 -0.4590
  458MPD2     C 6869   0.845   0.482  12.963 -0.7355  0.1555  0.3413
  458MPD2    C1 6870   0.882   0.384  13.062  0.6684  0.3155  0.6823
  458MPD2    C2 6871   0.787   0.339  13.151  0.5254  0.3558  0.7205
  458MPD2    C3 6872   0.650   0.377  13.149 -0.4466  0.1191 -0.0956
  458MPD2    C4 6873   0.625   0.472  13.054  0.3252  0.6066 -0.2362
  458MPD2    C5 6874   0.717   0.523  12.963 -0.0493  0.1476 -1.2045
  458MPD2     H 6875   0.825   0.274  13.230  4.0544 -0.0364 -1.2973
  458MPD2    H1 6876   0.526   0.516  13.051 -0.3467 -0.8220  1.2232
  458MPD2    H2 6877   0.918   0.535  12.903  0.0963 -3.0606 -1.4725
  458MPD2    H3 6878   0.686   0.604  12.899 -1.7177  1.5253  1.3391
  458MPD2     N 6879   0.552   0.322  13.233 -0.3014  0.9205  0.3161
  458MPD2    H5 6880   0.602   0.257  13.293 -0.5930  1.4462  1.1244
  458MPD2    N1 6881   1.019   0.345  13.060  0.1310 -1.2048  0.7418
  458MPD2    H7 6882   1.070   0.386  12.982  0.3398 -1.4492  0.7489
  459TMC3    C1 6883   1.207   0.187  13.098 -0.1307 -0.1367  0.0255
  459TMC3    C2 6884   1.296   0.257  13.027 -0.2975  0.7705  0.4499
  459TMC3    C3 6885   1.432   0.213  13.022 -0.3197  0.4515 -0.3767
  459TMC3    C4 6886   1.249   0.072  13.159 -0.8019 -0.0105 -0.3271
  459TMC3    C5 6887   1.376   0.023  13.143 -0.6135  0.1812 -0.0966
  459TMC3    C6 6888   1.467   0.094  13.075 -0.8126  0.0524 -0.3930
  459TMC3     C 6889   1.071   0.230  13.129 -0.2889  0.2123 -0.5856
  459TMC3     O 6890   1.010   0.158  13.210 -0.2940 -0.0603  0.0582
  459TMC3     H 6891   1.272   0.359  12.997  0.9488  0.9388  0.0363
  459TMC3    H1 6892   1.183   0.019  13.227 -0.6032  1.3866  0.9721
  459TMC3    H2 6893   1.561   0.049  13.045 -0.6251  0.2977 -0.1780
  459TMC3    C7 6894   1.431   4.688  13.258 -0.0779 -0.2809  0.1801
  459TMC3    C8 6895   1.539   0.300  12.967  0.7140  0.2025  0.1737
  459TMC3    O1 6896   1.553   4.698  13.277 -0.3452 -0.2772 -0.0053
  459TMC3    O2 6897   1.498   0.389  12.895 -0.8087 -0.6822  0.5352
  460MPD2     C 6898   0.782   2.935  10.397  0.2733 -0.0456  0.0868
  460MPD2    C1 6899   0.668   2.907  10.476 -0.3390  0.0301  0.0023
  460MPD2    C2 6900   0.552   2.972  10.440 -0.5725  0.0517  0.7251
  460MPD2    C3 6901   0.551   3.068  10.340 -0.3114 -0.3706  0.6573
  460MPD2    C4 6902   0.670   3.106  10.277 -0.4669 -0.7121  0.5211
  460MPD2    C5 6903   0.787   3.040  10.309  0.5422 -0.4759 -0.0554
  460MPD2     H 6904   0.453   2.942  10.473 -0.8040  0.0629  0.0548
  460MPD2    H1 6905   0.681   3.190  10.209  0.3032 -0.7959  0.5416
  460MPD2    H2 6906   0.870   2.877  10.422 -0.3235 -0.2893  1.6203
  460MPD2    H3 6907   0.880   3.064  10.259  2.0488 -2.6643  1.6710
  460MPD2     N 6908   0.421   3.115  10.289  0.4711  0.2856  0.5556
  460MPD2    H5 6909   0.340   3.070  10.329  0.0924 -1.1452 -1.7939
  460MPD2    N1 6910   0.683   2.805  10.572  0.4594 -0.4546  0.2035
  460MPD2    H7 6911   0.774   2.762  10.581  1.6722  2.3247  1.3633
  461TMC3    C1 6912   0.270   3.193  10.138 -0.8417 -0.7163  0.3208
  461TMC3    C2 6913   0.218   3.068  10.119 -0.2322  0.6623  0.0686
  461TMC3    C3 6914   0.108   3.056  10.036 -0.0116 -0.7512 -0.6867
  461TMC3    C4 6915   0.221   3.302  10.077  0.1731 -0.0368  0.4976
  461TMC3    C5 6916   0.124   3.276   9.983  0.0088 -0.1427  0.3431
  461TMC3    C6 6917   0.059   3.159   9.966  0.3567  0.7090 -0.6535
  461TMC3     C 6918   0.401   3.210  10.200 -0.1727  0.7354  0.0400
  461TMC3     O 6919   0.482   3.269  10.127  0.9480  0.1132  0.1247
  461TMC3     H 6920   0.283   2.983  10.134 -1.6723 -0.7429 -1.5920
  461TMC3    H1 6921   0.258   3.402  10.095  1.3691  0.2114 -3.4392
  461TMC3    H2 6922   4.711   3.148   9.900 -0.0500 -2.9538  0.5093
  461TMC3    C7 6923   0.052   3.391   9.916 -0.6789 -0.4553 -0.3963
  461TMC3    C8 6924   0.055   2.923   9.989  0.2225  0.4151  0.5491
  461TMC3    O1 6925   4.673   3.376   9.885 -0.4254  0.2433 -0.4100
  461TMC3    O2 6926   4.720   2.912   9.887 -0.0657 -0.1639  0.1247
  462TMC3    C1 6927   0.651   4.200   0.173  0.4414 -0.3274  0.0334
  462TMC3    C2 6928   0.777   4.160   0.153  0.6108  0.4602 -0.0073
  462TMC3    C3 6929   0.789   4.042   0.087 -0.2803 -0.1810 -0.3121
  462TMC3    C4 6930   0.540   4.125   0.145 -0.4467 -0.5604 -0.0613
  462TMC3    C5 6931   0.568   4.006   0.083 -0.2715 -0.2585  0.1969
  462TMC3    C6 6932   0.686   3.961   0.041 -0.0047 -0.3993 -0.2840
  462TMC3     C 6933   0.629   4.321   0.254 -0.4306 -0.3099  0.2425
  462TMC3     O 6934   0.711   4.345   0.341  0.4843  0.0393  0.1866
  462TMC3     H 6935   0.855   4.233   0.172  0.0132  0.7621  1.2466
  462TMC3    H1 6936   0.440   4.141   0.185  0.4318  1.1967  1.3949
  462TMC3    H2 6937   0.709   3.856   0.023 -2.5826 -0.9487 -0.2961
  462TMC3    C7 6938   0.471   3.904   0.090  0.0608  0.2932  0.2120
  462TMC3    C8 6939   0.924   4.002   0.063 -0.3649 -0.5429 -0.5208
  462TMC3    O1 6940   0.514   3.789   0.073  0.5253 -0.0407  0.0888
  462TMC3    O2 6941   1.008   4.072   0.123  0.5894  0.5572 -0.0760
  463MPD2     C 6942   2.745   1.409   1.295  0.5900 -0.1084 -0.5571
  463MPD2    C1 6943   2.677   1.522   1.259 -0.4620 -0.4821  0.1285
  463MPD2    C2 6944   2.734   1.646   1.266 -0.0449 -0.1386  0.1611
  463MPD2    C3 6945   2.874   1.650   1.291 -0.3858 -0.0133 -0.4321
  463MPD2    C4 6946   2.944   1.532   1.320 -0.3575  0.3294  0.5496
  463MPD2    C5 6947   2.879   1.408   1.322 -0.9879  0.7223  0.1863
  463MPD2     H 6948   2.678   1.734   1.237 -0.4801 -0.4267  0.1084
  463MPD2    H1 6949   3.050   1.541   1.341 -0.6586  2.5920  1.0651
  463MPD2    H2 6950   2.702   1.310   1.306  2.9190 -0.9642  0.8431
  463MPD2    H3 6951   2.940   1.323   1.348  1.0817  1.8753 -0.8754
  463MPD2     N 6952   2.954   1.764   1.269  0.3741 -0.6707 -0.1818
  463MPD2    H5 6953   3.050   1.757   1.299  0.6953  1.5284 -0.6693
  463MPD2    N1 6954   2.541   1.506   1.224  0.2759  0.1191 -0.0449
  463MPD2    H7 6955   2.491   1.592   1.205 -0.4545 -0.2382  0.2554
  464TMC3    C1 6956   2.347   1.400   1.140 -0.1096  0.1338 -0.0881
  464TMC3    C2 6957   2.272   1.519   1.162 -0.5875  0.2445  0.0080
  464TMC3    C3 6958   2.141   1.517   1.129  0.5154 -0.4683 -0.3478
  464TMC3    C4 6959   2.294   1.288   1.083 -0.0083  0.2217 -0.3346
  464TMC3    C5 6960   2.162   1.291   1.059 -0.2311 -0.7499  0.0393
  464TMC3    C6 6961   2.085   1.403   1.080 -0.3495 -0.5085  0.3109
  464TMC3     C 6962   2.482   1.390   1.187 -0.5843 -0.5498 -0.2232
  464TMC3     O 6963   2.534   1.277   1.169  0.3568 -0.1330 -0.0663
  464TMC3     H 6964   2.328   1.598   1.210 -0.2490  0.2929 -0.4697
  464TMC3    H1 6965   2.356   1.203   1.056 -0.0372  0.1506 -0.1797
  464TMC3    H2 6966   1.982   1.406   1.047  0.4750  0.8338 -2.1977
  464TMC3    C7 6967   2.107   1.173   0.988  0.5320 -0.6521 -0.4399
  464TMC3    C8 6968   2.047   1.617   1.177 -0.5210  0.6833  0.6903
  464TMC3    O1 6969   2.192   1.106   0.935  0.1438  0.3068  0.4721
  464TMC3    O2 6970   1.937   1.618   1.132 -0.3324  0.0375  0.7261
  465MPD2     C 6971   2.492   0.921  15.813 -0.4607 -0.0895 -0.4253
  465MPD2    C1 6972   2.508   0.883  15.947  0.5313 -1.1285  0.3791
  465MPD2    C2 6973   2.424   0.942  16.041 -0.0279 -0.4617 -0.1630
  465MPD2    C3 6974   2.312   1.020  16.006  0.4176  0.2312  0.0477
  465MPD2    C4 6975   2.294   1.053  15.875 -0.3672 -0.3473  0.0836
  465MPD2    C5 6976   2.381   1.005  15.782 -0.5242  0.3053 -0.3759
  465MPD2     H 6977   2.453   0.931  16.145  0.8097 -1.2212 -0.4813
  465MPD2    H1 6978   2.211   1.111  15.834 -0.2855  0.5255  1.1410
  465MPD2    H2 6979   2.571   0.903  15.741  0.1150  0.0211  0.1808
  465MPD2    H3 6980   2.374   1.043  15.680  1.7528 -1.4556 -1.1924
  465MPD2     N 6981   2.229   1.077  16.108  0.0356 -0.1147  0.4284
  465MPD2    H5 6982   2.241   1.042  16.202 -0.6695  0.0122  0.5681
  465MPD2    N1 6983   2.615   0.795  15.979  0.5757 -0.2649 -0.1889
  465MPD2    H7 6984   2.682   0.779  15.905 -0.1010 -0.0682 -0.8370
  466TMC3    C1 6985   2.154   1.345  16.394 -0.4922  0.3164 -0.3678
  466TMC3    C2 6986   2.022   1.382  16.415 -0.4023 -0.5240 -0.2178
  466TMC3    C3 6987   1.927   1.316  16.340  0.6594  0.4206  0.6018
  466TMC3    C4 6988   2.189   1.263  16.288  0.1749 -0.4230  0.4563
  466TMC3    C5 6989   2.088   1.207  16.215  0.0708 -0.0706  0.0310
  466TMC3    C6 6990   1.956   1.239  16.228  0.2565 -0.3504  0.1456
  466TMC3     C 6991   2.248   1.375  16.496  0.7182  0.9807 -0.0873
  466TMC3     O 6992   2.215   1.478  16.557  0.5000  0.6225  0.1568
  466TMC3     H 6993   2.000   1.438  16.505 -2.3066 -0.9901 -0.3851
  466TMC3    H1 6994   2.293   1.245  16.265  0.0468 -0.2233 -0.2906
  466TMC3    H2 6995   1.882   1.189  16.166 -1.2610  0.2257  1.4919
  466TMC3    C7 6996   2.128   1.163  16.088 -0.0374  0.1294 -0.0511
  466TMC3    C8 6997   1.785   1.344  16.364 -0.7054 -0.4027 -0.3293
  466TMC3    O1 6998   2.061   1.195  15.993 -0.2748 -0.2235 -0.0397
  466TMC3    O2 6999   1.702   1.285  16.301 -0.0989  0.3690  0.1010
  467TMC3    C1 7000   3.484   4.219  13.670 -0.0455  0.0715 -0.1982
  467TMC3    C2 7001   3.464   4.341  13.604  0.0216  0.1745  0.5103
  467TMC3    C3 7002   3.350   4.358  13.538  0.1318  0.3022  0.0362
  467TMC3    C4 7003   3.385   4.116  13.667  0.1081 -0.5274 -0.1889
  467TMC3    C5 7004   3.277   4.146  13.590 -0.2491  0.0058 -0.3032
  467TMC3    C6 7005   3.262   4.257  13.516 -0.3443 -0.2748 -0.2860
  467TMC3     C 7006   3.618   4.205  13.733 -0.2734  0.2494 -0.4005
  467TMC3     O 7007   3.673   4.314  13.756 -0.1428  0.1015  0.1682
  467TMC3     H 7008   3.540   4.417  13.595  0.8871 -0.8290 -0.7445
  467TMC3    H1 7009   3.391   4.030  13.733 -2.2996 -0.8859 -0.4241
  467TMC3    H2 7010   3.169   4.280  13.464 -0.4530 -0.4005 -0.1484
  467TMC3    C7 7011   3.178   4.041  13.587 -0.3452 -0.1591  0.1833
  467TMC3    C8 7012   3.341   4.489  13.464  0.6760 -0.0301 -0.7496
  467TMC3    O1 7013   3.101   4.050  13.497 -0.2930 -0.1850  0.2841
  467TMC3    O2 7014   3.437   4.563  13.465 -0.0803 -0.1581  0.7872
  468MPD2     C 7015   1.940   3.289  11.071 -0.2653  0.9752  0.0893
  468MPD2    C1 7016   2.081   3.289  11.072  0.5249 -0.4820 -0.4634
  468MPD2    C2 7017   2.140   3.163  11.072  0.1880 -0.5877 -0.3667
  468MPD2    C3 7018   2.062   3.049  11.058 -0.2390 -0.0172  0.1333
  468MPD2    C4 7019   1.927   3.056  11.051  0.2101 -0.3873  0.6518
  468MPD2    C5 7020   1.862   3.175  11.058  0.1363  0.0956 -0.0896
  468MPD2     H 7021   2.244   3.154  11.101 -0.5613 -0.3204  2.4463
  468MPD2    H1 7022   1.871   2.964  11.040 -2.0748  1.2091 -1.1491
  468MPD2    H2 7023   1.881   3.380  11.080 -0.4526  1.1963 -3.2143
  468MPD2    H3 7024   1.754   3.172  11.065 -0.0369  0.1787 -2.4549
  468MPD2     N 7025   2.116   2.916  11.057  0.4127 -1.0649  0.7194
  468MPD2    H5 7026   2.054   2.836  11.059 -1.5364  0.4290 -0.0518
  468MPD2    N1 7027   2.163   3.407  11.076 -0.2897  0.0935 -0.3300
  468MPD2    H7 7028   2.264   3.397  11.075 -0.3297 -0.1514 -1.7504
  469TMC3    C1 7029   2.221   3.620  11.124  0.4415  0.1130 -0.3307
  469TMC3    C2 7030   2.352   3.578  11.106 -0.2745 -0.3319  0.2560
  469TMC3    C3 7031   2.457   3.637  11.171  0.2742  0.1402  0.5933
  469TMC3    C4 7032   2.198   3.696  11.236  0.3529 -0.0820 -0.2189
  469TMC3    C5 7033   2.312   3.751  11.300 -1.0576  0.4419  0.6638
  469TMC3    C6 7034   2.440   3.730  11.273 -0.3270 -0.5489 -0.2749
  469TMC3     C 7035   2.112   3.531  11.088  0.2768 -0.5309  0.2468
  469TMC3     O 7036   1.999   3.565  11.116  0.4509 -0.5077 -0.2267
  469TMC3     H 7037   2.390   3.509  11.032 -3.0385 -2.3886  0.7526
  469TMC3    H1 7038   2.096   3.726  11.256  0.9983  2.1496 -0.3038
  469TMC3    H2 7039   2.524   3.755  11.336  0.6259 -0.7352 -1.4609
  469TMC3    C7 7040   2.296   3.829  11.423  0.0650  0.2063 -0.2592
  469TMC3    C8 7041   2.582   3.575  11.148  0.3222  0.3953  0.0413
  469TMC3    O1 7042   2.396   3.897  11.444 -0.3566  0.4140 -0.6914
  469TMC3    O2 7043   2.621   3.565  11.034 -0.3279  0.6009  0.4331
  470TMC3    C1 7044   4.460   3.852   0.257  0.5674 -0.6023  0.0180
  470TMC3    C2 7045   4.536   3.942   0.333 -0.4862  0.0276 -0.4586
  470TMC3    C3 7046   4.582   3.892   0.447  0.1520 -0.3469 -0.4320
  470TMC3    C4 7047   4.438   3.719   0.285 -1.4179 -0.3010  0.2950
  470TMC3    C5 7048   4.476   3.688   0.412 -0.0139  0.4319  0.3426
  470TMC3    C6 7049   4.552   3.771   0.492 -0.1897 -0.2058 -0.4591
  470TMC3     C 7050   4.425   3.903   0.123  0.4514 -0.4730 -0.3367
  470TMC3     O 7051   4.477   4.006   0.079 -0.0659 -0.2579  0.1048
  470TMC3     H 7052   4.543   4.045   0.301  0.9746  0.0697  0.0079
  470TMC3    H1 7053   4.385   3.645   0.227 -0.2521 -0.3206 -0.7416
  470TMC3    H2 7054   4.592   3.729   0.584  0.4502  1.5907  0.0743
  470TMC3    C7 7055   4.421   3.567   0.474 -0.6200 -0.3929  0.6204
  470TMC3    C8 7056   4.646   3.988   0.537 -0.0252 -0.1727  0.6017
  470TMC3    O1 7057   4.347   3.499   0.400  0.3782  0.7150  0.1053
  470TMC3    O2 7058   4.638   4.110   0.509  0.1012  0.6349  0.0708
  471MPD2     C 7059   0.245   0.112  16.178  0.0933 -0.0179  0.0420
  471MPD2    C1 7060   0.270   4.717  16.187  0.1202  0.1756 -0.2669
  471MPD2    C2 7061   0.350   4.668  16.290 -0.5029  0.2252 -0.0131
  471MPD2    C3 7062   0.401   0.021  16.382  0.1926 -0.6130  0.1363
  471MPD2    C4 7063   0.366   0.156  16.373 -0.2208  0.0663 -0.6076
  471MPD2    C5 7064   0.287   0.197  16.270  0.1828  0.3661  0.9693
  471MPD2     H 7065   0.364   4.561  16.300 -1.9305 -0.2070 -2.5881
  471MPD2    H1 7066   0.394   0.228  16.449  0.6100 -0.2410 -0.6227
  471MPD2    H2 7067   0.181   0.148  16.098  1.4102  1.5464 -0.3008
  471MPD2    H3 7068   0.261   0.302  16.263 -0.9795 -0.0873 -1.5468
  471MPD2     N 7069   0.482   4.729  16.489  0.1360  0.5095  0.5794
  471MPD2    H5 7070   0.499   0.071  16.551  1.8696 -0.2091  1.0272
  471MPD2    N1 7071   0.215   4.616  16.100 -0.0297 -0.3402  0.0945
  471MPD2    H7 7072   0.257   4.524  16.110  4.4597  1.7356  0.4099
  472TMC3    C1 7073   0.057   4.507  15.960 -0.3561 -0.7072  0.2340
  472TMC3    C2 7074   4.706   4.517  15.856 -0.2244 -0.3276 -0.1021
  472TMC3    C3 7075   4.644   4.407  15.810 -0.0554  0.2615 -0.2155
  472TMC3    C4 7076   0.075   4.391  16.024 -0.5203 -0.6396  0.5318
  472TMC3    C5 7077   0.008   4.280  15.986  0.4237 -0.9714 -0.0921
  472TMC3    C6 7078   4.661   4.283  15.878 -0.1880 -0.3360 -0.2145
  472TMC3     C 7079   0.116   4.636  16.008 -0.7530  0.0271 -0.0642
  472TMC3     O 7080   0.052   4.736  15.974 -0.2751 -0.1414  0.0319
  472TMC3     H 7081   4.684   4.614  15.812  0.4638 -0.0698  0.1200
  472TMC3    H1 7082   0.124   4.392  16.121  0.1364  0.5094  0.1860
  472TMC3    H2 7083   4.604   4.197  15.845 -1.4026 -0.3543  1.9037
  472TMC3    C7 7084   0.018   4.160  16.072  0.0441  1.0387  0.3478
  472TMC3    C8 7085   4.528   4.424  15.729 -0.4439 -0.0491  0.5124
  472TMC3    O1 7086   0.016   4.175  16.189 -0.8415 -0.4896  0.5723
  472TMC3    O2 7087   4.546   4.477  15.618 -0.0527 -0.4249  0.1039
  473MPD2     C 7088   0.419   1.853  14.021 -0.5716  0.8060 -0.4365
  473MPD2    C1 7089   0.329   1.951  13.971 -0.1609  0.0959  0.2727
  473MPD2    C2 7090   0.280   2.046  14.055 -0.2976 -0.4455  0.3014
  473MPD2    C3 7091   0.334   2.068  14.180 -0.4877  0.6173  0.3316
  473MPD2    C4 7092   0.418   1.977  14.233 -0.2701  0.5448  0.5931
  473MPD2    C5 7093   0.460   1.869  14.152  0.0292 -0.1844  0.0599
  473MPD2     H 7094   0.228   2.126  14.004 -0.8916 -0.8106  0.3369
  473MPD2    H1 7095   0.464   1.989  14.331 -1.5626  0.8197  1.1719
  473MPD2    H2 7096   0.470   1.769  13.974 -1.0018  0.4456 -0.2582
  473MPD2    H3 7097   0.527   1.795  14.194  0.2194 -0.9999 -1.6495
  473MPD2     N 7098   0.305   2.184  14.252  0.1787  0.2111 -0.0063
  473MPD2    H5 7099   0.367   2.200  14.331  0.5367  2.7522 -0.7905
  473MPD2    N1 7100   0.286   1.968  13.838  0.5063 -0.8634  0.1083
  473MPD2    H7 7101   0.219   2.041  13.817  1.1783 -1.0690 -2.7833
  474TMC3    C1 7102   0.268   2.416  14.273 -0.2447 -0.7258  0.2304
  474TMC3    C2 7103   0.207   2.531  14.222  0.1868 -0.1959  0.5923
  474TMC3    C3 7104   0.242   2.650  14.280  0.3350 -0.7660  0.0759
  474TMC3    C4 7105   0.358   2.421  14.380 -0.4413  0.5999  0.0656
  474TMC3    C5 7106   0.389   2.546  14.436 -0.2335 -0.3757  0.1210
  474TMC3    C6 7107   0.328   2.659  14.385 -0.3535  0.1945  0.7783
  474TMC3     C 7108   0.231   2.294  14.207 -0.0779 -0.8706 -0.2434
  474TMC3     O 7109   0.141   2.295  14.126 -0.7192  0.3417  0.4010
  474TMC3     H 7110   0.152   2.530  14.129 -1.3017  0.3725  1.4547
  474TMC3    H1 7111   0.413   2.332  14.410  1.1530  1.8286  0.7462
  474TMC3    H2 7112   0.368   2.753  14.422 -2.2812  1.2250  0.1891
  474TMC3    C7 7113   0.531   2.573  14.462  0.6380 -0.7601 -0.2513
  474TMC3    C8 7114   0.214   2.771  14.207 -0.9937  0.0661 -0.2147
  474TMC3    O1 7115   0.600   2.511  14.382 -0.3126 -0.6694 -0.3301
  474TMC3    O2 7116   0.265   2.870  14.255  0.1422  0.4677 -0.0905
  475MPD2     C 7117   2.822   0.506  11.318 -0.3539  0.2270  0.4702
  475MPD2    C1 7118   2.849   0.604  11.229  0.1115 -0.0603  0.6826
  475MPD2    C2 7119   2.737   0.657  11.156 -0.4390  0.5186 -0.4443
  475MPD2    C3 7120   2.610   0.610  11.165  0.4406  1.0871 -0.0479
  475MPD2    C4 7121   2.586   0.507  11.257 -0.2696  0.1454 -0.2555
  475MPD2    C5 7122   2.693   0.454  11.327 -0.8114 -0.2377 -0.2327
  475MPD2     H 7123   2.764   0.739  11.090  0.6590  0.2248 -0.3722
  475MPD2    H1 7124   2.485   0.474  11.276  0.1680 -0.3359  1.2642
  475MPD2    H2 7125   2.892   0.461  11.387  0.1687  1.5237  0.7767
  475MPD2    H3 7126   2.668   0.373  11.394 -0.5146 -1.0099 -1.0481
  475MPD2     N 7127   2.513   0.678  11.087 -0.4902 -0.6197  0.1896
  475MPD2    H5 7128   2.555   0.735  11.014 -1.3223 -1.4264 -0.9226
  475MPD2    N1 7129   2.980   0.662  11.220 -0.1547  0.4863  0.3821
  475MPD2    H7 7130   3.040   0.638  11.298  1.6517 -2.0159 -1.7554
  476TMC3    C1 7131   3.139   0.809  11.142 -0.6798 -0.2921 -0.9523
  476TMC3    C2 7132   3.182   0.888  11.032  0.6246 -0.7797 -0.9597
  476TMC3    C3 7133   3.257   0.999  11.049  0.1066  0.0960  0.1151
  476TMC3    C4 7134   3.164   0.852  11.273  0.3749  0.1235  0.0027
  476TMC3    C5 7135   3.230   0.974  11.284  0.5576 -0.1106 -0.1620
  476TMC3    C6 7136   3.275   1.053  11.181 -0.0431 -0.3727  0.0942
  476TMC3     C 7137   3.022   0.735  11.113 -0.4984  0.4924 -0.1490
  476TMC3     O 7138   2.967   0.744  11.003 -0.1282  0.0650 -0.1093
  476TMC3     H 7139   3.150   0.860  10.932  1.1417  0.3901 -1.4552
  476TMC3    H1 7140   3.119   0.809  11.362 -1.2864  2.4134  0.2741
  476TMC3    H2 7141   3.308   1.155  11.193 -0.1261 -0.5262  1.5938
  476TMC3    C7 7142   3.303   1.013  11.400 -0.0984 -0.3724 -0.2088
  476TMC3    C8 7143   3.260   1.096  10.936 -0.7379 -0.5911  0.0979
  476TMC3    O1 7144   3.339   0.915  11.468  0.0431 -0.0290 -0.0349
  476TMC3    O2 7145   3.254   1.212  10.971  0.1517 -0.6308 -0.0936
  477MPD2     C 7146   1.135   2.469  11.871  0.2072 -0.3429  0.7934
  477MPD2    C1 7147   1.153   2.351  11.792 -0.2796  0.6708  0.6303
  477MPD2    C2 7148   1.196   2.233  11.860  0.4653  0.0272  0.5316
  477MPD2    C3 7149   1.202   2.221  11.996 -0.1619  0.0311  0.2859
  477MPD2    C4 7150   1.176   2.339  12.069  0.1494 -0.5325 -0.8655
  477MPD2    C5 7151   1.154   2.456  12.007  0.3904 -0.0664 -0.5110
  477MPD2     H 7152   1.205   2.148  11.793 -0.6725 -0.8550  1.5028
  477MPD2    H1 7153   1.182   2.339  12.177 -1.4439 -1.9221 -0.7682
  477MPD2    H2 7154   1.100   2.562  11.828 -2.1938 -2.0296 -0.8645
  477MPD2    H3 7155   1.146   2.540  12.076 -1.2692 -0.6563  0.0252
  477MPD2     N 7156   1.222   2.095  12.059  0.5659  0.3938  0.0501
  477MPD2    H5 7157   1.242   2.021  11.993 -0.6914  1.3871 -1.4617
  477MPD2    N1 7158   1.126   2.366  11.652 -0.5670 -0.0791  0.5446
  477MPD2    H7 7159   1.091   2.455  11.620  1.6476  0.8606  0.7626
  478TMC3    C1 7160   1.096   2.306  11.423  0.9432 -0.0340 -0.8102
  478TMC3    C2 7161   0.998   2.400  11.400 -0.2729 -0.4192 -0.8461
  478TMC3    C3 7162   0.940   2.404  11.276  0.4624 -0.4649  0.5715
  478TMC3    C4 7163   1.109   2.202  11.331  0.2563  0.1831 -0.4641
  478TMC3    C5 7164   1.052   2.211  11.204  0.4986  1.0812  0.7047
  478TMC3    C6 7165   0.968   2.316  11.178  0.2660 -0.0438  0.2436
  478TMC3     C 7166   1.141   2.267  11.554 -0.7240 -0.1229  0.1653
  478TMC3     O 7167   1.187   2.154  11.574 -0.4408 -0.3021  0.1846
  478TMC3     H 7168   0.972   2.472  11.476 -0.3644  1.0003 -2.2186
  478TMC3    H1 7169   1.150   2.105  11.358 -0.3892 -0.0764 -0.3950
  478TMC3    H2 7170   0.907   2.317  11.088 -0.8747  2.6129  1.0471
  478TMC3    C7 7171   1.046   2.096  11.123 -0.1602  0.3301 -0.7566
  478TMC3    C8 7172   0.857   2.521  11.234 -0.3685 -0.2629 -0.3539
  478TMC3    O1 7173   1.066   1.990  11.171 -0.2694  0.3487  0.1538
  478TMC3    O2 7174   0.757   2.502  11.161 -0.4393 -0.4904  0.1647
  479MPD2     C 7175   0.063   3.860  15.136 -0.9770  0.3137  0.0854
  479MPD2    C1 7176   4.732   3.816  15.240 -0.4374  1.2096  0.2693
  479MPD2    C2 7177   0.020   3.862  15.366 -0.1743 -0.0145  0.5562
  479MPD2    C3 7178   0.117   3.962  15.390  0.0180 -0.1771 -0.0450
  479MPD2    C4 7179   0.192   4.008  15.279  0.1802  0.1847 -0.2682
  479MPD2    C5 7180   0.165   3.954  15.153 -0.5560  0.1244 -0.9812
  479MPD2     H 7181   4.712   3.814  15.451 -2.0152  0.8468  0.0448
  479MPD2    H1 7182   0.265   4.088  15.291  0.9984 -0.3273 -1.9667
  479MPD2    H2 7183   0.027   3.834  15.037  2.1266  1.4241 -1.3488
  479MPD2    H3 7184   0.223   3.991  15.069  1.1282 -1.6954 -0.6220
  479MPD2     N 7185   0.155   4.015  15.517  0.5599 -0.1678 -0.5135
  479MPD2    H5 7186   0.246   4.059  15.524  1.1380 -1.3227 -0.8862
  479MPD2    N1 7187   4.622   3.730  15.209 -0.2656 -0.5548 -0.2037
  479MPD2    H7 7188   4.618   3.708  15.110 -1.6495  1.7129 -0.6465
  480TMC3    C1 7189   4.436   3.943  15.665  0.0184  0.1141  0.3951
  480TMC3    C2 7190   4.376   3.992  15.552  0.2442 -0.6477  0.1427
  480TMC3    C3 7191   4.453   4.055  15.458  0.3558  0.1956  0.0610
  480TMC3    C4 7192   4.572   3.952  15.690 -0.0272  0.0903  0.1291
  480TMC3    C5 7193   4.646   4.010  15.588 -0.3105 -0.3011 -0.0345
  480TMC3    C6 7194   4.588   4.067  15.477  0.5235 -0.1892 -0.3581
  480TMC3     C 7195   4.362   3.851  15.750  0.5146  0.6037  0.0374
  480TMC3     O 7196   4.397   3.854  15.866 -0.0636  0.2289  0.4479
  480TMC3     H 7197   4.268   3.990  15.549  0.2696 -1.2154 -0.6101
  480TMC3    H1 7198   4.610   3.911  15.783 -1.7822 -2.6353 -0.3462
  480TMC3    H2 7199   4.638   4.147  15.425 -1.8138  0.9038 -0.9071
  480TMC3    C7 7200   0.055   4.023  15.615  0.2835  0.3890  0.4549
  480TMC3    C8 7201   4.389   4.065  15.326 -0.5864  0.2126  0.4457
  480TMC3    O1 7202   0.081   4.027  15.732 -0.3945 -0.4798  0.2846
  480TMC3    O2 7203   4.269   4.040  15.328  0.4466 -0.2260 -0.4822
  481MPD2     C 7204   1.539   3.591  13.779 -0.5058  1.2841  0.6373
  481MPD2    C1 7205   1.422   3.586  13.853  0.6656 -0.0647  0.4481
  481MPD2    C2 7206   1.425   3.533  13.981  0.0778 -0.0843 -0.2421
  481MPD2    C3 7207   1.546   3.485  14.039  0.1883  0.2718 -0.6406
  481MPD2    C4 7208   1.663   3.503  13.970  0.3510  0.3077 -0.1326
  481MPD2    C5 7209   1.657   3.549  13.844 -0.0152  0.5942  0.4296
  481MPD2     H 7210   1.334   3.521  14.039  0.7728  0.7622  1.0369
  481MPD2    H1 7211   1.753   3.463  14.016  3.0580  2.0693 -3.8509
  481MPD2    H2 7212   1.544   3.643  13.684 -1.0970  0.3480  0.0967
  481MPD2    H3 7213   1.752   3.569  13.795  1.3192 -4.0666  1.1397
  481MPD2     N 7214   1.556   3.426  14.164 -0.2349 -0.1905  0.6007
  481MPD2    H5 7215   1.650   3.425  14.202  0.8694 -0.1142 -2.1637
  481MPD2    N1 7216   1.297   3.637  13.808 -0.4078  0.3014  0.3505
  481MPD2    H7 7217   1.219   3.653  13.871 -0.2319  0.3764  0.5506
  482TMC3    C1 7218   1.135   3.710  13.648  1.0407 -0.5066 -0.6936
  482TMC3    C2 7219   1.029   3.658  13.716  0.0478  0.3090  0.5713
  482TMC3    C3 7220   0.907   3.699  13.673  0.0553 -0.0485  0.4350
  482TMC3    C4 7221   1.124   3.785  13.535  0.2238  0.3692  0.4819
  482TMC3    C5 7222   1.003   3.835  13.499  0.5806 -0.8032 -0.4719
  482TMC3    C6 7223   0.889   3.794  13.570  0.6112  0.6666  0.1726
  482TMC3     C 7224   1.275   3.674  13.677  0.6843 -0.0051  0.6667
  482TMC3     O 7225   1.349   3.666  13.577 -0.3153 -0.2443 -0.0156
  482TMC3     H 7226   1.047   3.596  13.802  2.4244 -0.5213 -0.5458
  482TMC3    H1 7227   1.218   3.819  13.495 -0.0931 -1.9573 -2.2027
  482TMC3    H2 7228   0.789   3.831  13.554  0.8866  0.3764 -2.3441
  482TMC3    C7 7229   0.995   3.918  13.386  0.2764 -0.2822 -0.0836
  482TMC3    C8 7230   0.818   3.584  13.676 -0.1490 -0.3252 -0.4596
  482TMC3    O1 7231   1.104   3.935  13.328  0.6732  0.3477 -0.2180
  482TMC3    O2 7232   0.859   3.482  13.731  0.1818  0.2576 -0.0991
  483TMC3    C1 7233   0.222   2.376   0.942  0.2244  0.0608  0.0704
  483TMC3    C2 7234   0.275   2.499   0.950  0.0776 -0.3219 -0.5007
  483TMC3    C3 7235   0.389   2.531   0.894 -0.4150 -0.7936  0.0913
  483TMC3    C4 7236   0.296   2.273   0.893 -0.4375  0.7727 -0.0012
  483TMC3    C5 7237   0.425   2.301   0.852  0.4833  1.0908  0.1763
  483TMC3    C6 7238   0.475   2.428   0.855  0.4946 -0.1003  0.1751
  483TMC3     C 7239   0.076   2.374   0.936  0.2073  0.3726 -0.0992
  483TMC3     O 7240   0.011   2.476   0.969  0.5167  0.3477 -0.2442
  483TMC3     H 7241   0.211   2.583   0.975  2.6585  1.9225 -1.4020
  483TMC3    H1 7242   0.251   2.176   0.876  0.3905  0.7160 -1.9255
  483TMC3    H2 7243   0.569   2.450   0.806  0.0112  0.5831 -0.4439
  483TMC3    C7 7244   0.496   2.200   0.776  0.0281 -0.6795  0.6214
  483TMC3    C8 7245   0.378   2.625   0.788  0.0481  0.5456 -0.0762
  483TMC3    O1 7246   0.441   2.113   0.702  0.5455 -0.3004  0.3396
  483TMC3    O2 7247   0.268   2.663   0.756  0.5944 -0.0078 -0.6215
  484MPD2     C 7248   1.878   0.356  13.080 -0.0767  1.1464  0.2511
  484MPD2    C1 7249   1.772   0.349  12.994  0.7051  0.1371  0.9859
  484MPD2    C2 7250   1.783   0.437  12.884  0.3249  0.1159 -0.2675
  484MPD2    C3 7251   1.879   0.544  12.883 -1.2676 -0.2517  0.1490
  484MPD2    C4 7252   1.982   0.544  12.980  0.1916  0.5341  0.3214
  484MPD2    C5 7253   1.976   0.453  13.082 -0.2947  0.3044  1.3589
  484MPD2     H 7254   1.719   0.425  12.797  1.1007 -1.2743 -0.6465
  484MPD2    H1 7255   2.062   0.617  12.975 -0.4302  1.3148  1.6077
  484MPD2    H2 7256   1.868   0.286  13.162 -0.8071  0.9820  0.0228
  484MPD2    H3 7257   2.059   0.452  13.152  0.4254  0.4123  0.5023
  484MPD2     N 7258   1.894   0.646  12.786 -0.2219  0.0476 -0.5665
  484MPD2    H5 7259   1.977   0.705  12.783 -1.5966  1.8851 -2.0992
  484MPD2    N1 7260   1.661   0.269  13.020  0.6226 -0.4249  0.2671
  484MPD2    H7 7261   1.675   0.198  13.091 -0.6807  0.1448  1.0786
  485TMC3    C1 7262   1.859   0.760  12.581  0.1136 -0.7071 -0.5674
  485TMC3    C2 7263   1.934   0.862  12.616 -0.2307 -0.3350 -0.1254
  485TMC3    C3 7264   1.962   0.952  12.523  0.2813 -0.2451  0.4066
  485TMC3    C4 7265   1.816   0.728  12.450  0.3905  0.2345 -0.2995
  485TMC3    C5 7266   1.859   0.813  12.353  0.2654 -0.4178  0.1846
  485TMC3    C6 7267   1.924   0.922  12.398  0.3598 -0.0452  0.2477
  485TMC3     C 7268   1.812   0.667  12.682  0.1488 -0.2492  0.2590
  485TMC3     O 7269   1.696   0.623  12.669  0.3489  0.1805  0.1276
  485TMC3     H 7270   1.960   0.894  12.716  1.8746 -1.1648 -0.4137
  485TMC3    H1 7271   1.781   0.631  12.418 -0.8274  1.0549 -1.5027
  485TMC3    H2 7272   1.960   0.993  12.325  1.6500 -2.9556 -1.9153
  485TMC3    C7 7273   1.927   0.759  12.244  0.0246  0.6901 -0.2845
  485TMC3    C8 7274   2.098   0.998  12.530  0.5171 -0.5715 -0.4150
  485TMC3    O1 7275   2.013   0.671  12.264  0.5525 -0.2177 -0.2272
  485TMC3    O2 7276   2.121   1.076  12.626  0.1517  0.2710 -0.0108
  486MPD2     C 7277   4.244   4.184  13.245  0.8412  0.4077  0.5568
  486MPD2    C1 7278   4.170   4.119  13.152  0.6303  0.0331  0.2733
  486MPD2    C2 7279   4.069   4.189  13.092 -0.4399 -0.3202 -0.2519
  486MPD2    C3 7280   4.053   4.328  13.112  0.4995 -0.1703  0.6123
  486MPD2    C4 7281   4.124   4.388  13.213 -0.6329 -0.0328  0.2134
  486MPD2    C5 7282   4.211   4.315  13.288 -0.4328 -0.1912 -0.0237
  486MPD2     H 7283   4.007   4.142  13.016  2.2911 -2.6235 -1.0226
  486MPD2    H1 7284   4.116   4.491  13.243 -1.6536 -0.1851  0.4341
  486MPD2    H2 7285   4.326   4.132  13.294 -0.8378 -0.8036  2.0351
  486MPD2    H3 7286   4.269   4.366  13.364  1.4564 -2.6670  0.1769
  486MPD2     N 7287   3.947   4.400  13.048  0.6346 -0.1613 -0.1201
  486MPD2    H5 7288   3.898   4.345  12.979  1.6640 -2.6186  1.0859
  486MPD2    N1 7289   4.201   3.988  13.134 -0.0904  0.7603  0.3463
  486MPD2    H7 7290   4.265   3.947  13.201  0.6891  0.8189 -0.3610
  487TMC3    C1 7291   4.223   3.778  13.031  0.4528 -0.6160 -0.0833
  487TMC3    C2 7292   4.206   3.703  12.922 -0.2270 -0.1115  0.0260
  487TMC3    C3 7293   4.253   3.577  12.923  0.0698  0.5189 -0.4812
  487TMC3    C4 7294   4.305   3.737  13.134  0.4837  0.2295 -0.5784
  487TMC3    C5 7295   4.347   3.606  13.127 -0.0720  0.7503  0.2786
  487TMC3    C6 7296   4.331   3.522  13.021  0.1676 -0.4114  0.5476
  487TMC3     C 7297   4.161   3.909  13.024  0.3968  0.3001  0.0451
  487TMC3     O 7298   4.079   3.937  12.934  0.1726  0.3707 -0.1988
  487TMC3     H 7299   4.149   3.738  12.837 -2.0480 -0.9347  0.9007
  487TMC3    H1 7300   4.313   3.786  13.230 -3.3551 -0.1350 -0.0892
  487TMC3    H2 7301   4.347   3.418  13.047  1.2941 -0.5643 -0.7317
  487TMC3    C7 7302   4.348   3.538  13.256  0.4340 -0.2726 -0.1946
  487TMC3    C8 7303   4.186   3.477  12.829 -0.2830  0.4848 -0.0489
  487TMC3    O1 7304   4.246   3.471  13.288  0.3533  0.1022  0.4327
  487TMC3    O2 7305   4.258   3.393  12.774  0.6262 -0.4098 -0.6498
  488MPD2     C 7306   4.394   1.338  16.437 -0.1712  0.1517 -0.6214
  488MPD2    C1 7307   4.381   1.474  16.460  1.1279  0.2066  0.2813
  488MPD2    C2 7308   4.334   1.502  16.588  0.5210 -0.3286  0.1548
  488MPD2    C3 7309   4.292   1.415  16.684  0.0185 -0.7631  0.3996
  488MPD2    C4 7310   4.298   1.279  16.652  0.2916  0.7005 -0.1094
  488MPD2    C5 7311   4.348   1.246  16.525 -0.2023 -0.1159  0.3163
  488MPD2     H 7312   4.332   1.604  16.627  2.1837 -1.4293  3.1324
  488MPD2    H1 7313   4.266   1.196  16.715 -3.1611  0.5679 -2.0435
  488MPD2    H2 7314   4.437   1.305  16.343 -0.3828 -1.5014 -0.1371
  488MPD2    H3 7315   4.347   1.140  16.507  0.2795  0.1065 -0.9848
  488MPD2     N 7316   4.237   1.461  16.809 -0.6563 -0.7008  0.5088
  488MPD2    H5 7317   4.248   1.561  16.826 -0.9214 -0.5097 -0.4458
  488MPD2    N1 7318   4.409   1.581  16.362  0.5582 -0.5302  0.4514
  488MPD2    H7 7319   4.402   1.677  16.396  0.6632 -0.5701  0.5861
  489TMC3    C1 7320   4.131   1.467  17.013  0.9047 -1.1251  0.8228
  489TMC3    C2 7321   4.142   1.607  17.003 -0.1323  0.2165  0.5495
  489TMC3    C3 7322   4.115   1.678  17.117  0.0313  0.3203  0.4712
  489TMC3    C4 7323   4.098   1.398  17.132 -0.3203 -0.5706 -0.5111
  489TMC3    C5 7324   4.064   1.477  17.238 -0.2828 -0.1106  0.7486
  489TMC3    C6 7325   4.076   1.612  17.228 -0.5950 -1.3201  0.0645
  489TMC3     C 7326   4.178   1.383  16.908 -0.3862 -0.0591  1.0744
  489TMC3     O 7327   4.176   1.259  16.920  0.5892 -0.1613 -0.1443
  489TMC3     H 7328   4.181   1.660  16.917  1.2325 -1.4836  0.1395
  489TMC3    H1 7329   4.096   1.290  17.138 -2.0058 -0.5306 -0.4141
  489TMC3    H2 7330   4.063   1.673  17.317 -0.3030 -0.6825 -0.3288
  489TMC3    C7 7331   4.076   1.426  17.376  0.3483  0.3239  0.9448
  489TMC3    C8 7332   4.116   1.817  17.137 -0.1864  0.2540  0.1436
  489TMC3    O1 7333   4.105   1.506  17.467 -0.2149 -0.0065  0.8022
  489TMC3    O2 7334   4.030   1.864  17.210  0.2766  0.7253  0.1599
  490MPD2     C 7335   0.238   0.658  17.034 -0.1346  0.9424 -0.2900
  490MPD2    C1 7336   0.272   0.528  17.035  0.2413 -0.2684  0.7826
  490MPD2    C2 7337   0.406   0.496  17.060 -0.3778  0.0153 -0.3606
  490MPD2    C3 7338   0.494   0.594  17.098 -0.5796  0.1850 -0.0246
  490MPD2    C4 7339   0.453   0.722  17.106  0.1160 -0.1211 -0.5523
  490MPD2    C5 7340   0.327   0.758  17.069 -0.2672 -0.0190  0.0606
  490MPD2     H 7341   0.432   0.392  17.069 -2.2209 -0.5294 -1.4030
  490MPD2    H1 7342   0.522   0.798  17.140 -1.9108  0.9495  1.1484
  490MPD2    H2 7343   0.140   0.699  17.013 -0.4187  0.2192 -0.3855
  490MPD2    H3 7344   0.301   0.863  17.063  1.6065  0.4370 -0.0829
  490MPD2     N 7345   0.623   0.562  17.149  0.0734  0.1029  0.3402
  490MPD2    H5 7346   0.676   0.635  17.197 -1.2330  0.7533  0.7855
  490MPD2    N1 7347   0.186   0.421  17.011  0.2471 -0.6404  0.4319
  490MPD2    H7 7348   0.225   0.330  17.032  2.0617  0.2489  0.8958
  491TMC3    C1 7349   4.727   0.309  16.967  0.2546 -0.5167 -0.0166
  491TMC3    C2 7350   0.004   0.221  17.073 -0.0163  0.3513 -0.3987
  491TMC3    C3 7351   4.651   0.122  17.087 -0.5803  0.5661  0.5034
  491TMC3    C4 7352   4.612   0.300  16.889  0.2711  0.3051  0.0470
  491TMC3    C5 7353   4.512   0.210  16.920 -0.0272  0.7137  0.1162
  491TMC3    C6 7354   4.532   0.120  17.019  0.0250  0.8355 -0.2358
  491TMC3     C 7355   0.057   0.437  16.965 -0.4861 -0.0399 -0.2062
  491TMC3     O 7356   4.733   0.529  16.920  0.2298  0.4385 -1.1362
  491TMC3     H 7357   0.093   0.227  17.135  0.1741  0.7678 -0.7115
  491TMC3    H1 7358   4.607   0.367  16.804  0.0687  1.6032  1.0819
  491TMC3    H2 7359   4.458   0.044  17.042  0.1420  0.2888 -1.6778
  491TMC3    C7 7360   4.407   0.172  16.824 -0.5035  0.5693  0.2642
  491TMC3    C8 7361   4.647   0.057  17.212  0.0794 -0.2087  0.3485
  491TMC3    O1 7362   4.368   0.057  16.825 -0.0441 -0.1286  0.0520
  491TMC3    O2 7363   4.546   0.004  17.251  0.0606 -0.0978 -0.5509
  492MPD2     C 7364   0.557   0.461  11.177 -0.2170  0.7693  0.2766
  492MPD2    C1 7365   0.434   0.449  11.113  0.8529  0.1245 -0.3798
  492MPD2    C2 7366   0.319   0.387  11.168  0.3578 -0.3891  0.7958
  492MPD2    C3 7367   0.325   0.354  11.301 -0.4500  0.3368 -0.3024
  492MPD2    C4 7368   0.444   0.373  11.369  0.4800 -0.0129  0.5753
  492MPD2    C5 7369   0.562   0.410  11.304  0.3916  0.3246  0.1724
  492MPD2     H 7370   0.228   0.377  11.110 -0.4703 -0.2303  2.0759
  492MPD2    H1 7371   0.455   0.348  11.474 -0.2987  0.1622  0.7000
  492MPD2    H2 7372   0.648   0.506  11.140  0.7493  0.5940  2.4171
  492MPD2    H3 7373   0.655   0.430  11.358  1.5932 -1.6795 -1.1428
  492MPD2     N 7374   0.214   0.311  11.383 -1.0537 -0.1033  0.6260
  492MPD2    H5 7375   0.223   0.301  11.483 -0.5710 -0.5967  0.5310
  492MPD2    N1 7376   0.432   0.513  10.983 -0.4279 -0.3079  0.5318
  492MPD2    H7 7377   0.521   0.553  10.957 -1.1848  1.0291  0.0146
  493TMC3    C1 7378   0.349   0.600  10.778  0.1835 -0.6237  0.3462
  493TMC3    C2 7379   0.481   0.611  10.733 -0.1261 -0.5389 -0.1560
  493TMC3    C3 7380   0.514   0.719  10.650 -0.2859 -0.3938  1.0391
  493TMC3    C4 7381   0.246   0.684  10.734  0.6045 -0.1458 -0.3095
  493TMC3    C5 7382   0.286   0.786  10.654 -0.4254  0.2987 -0.6614
  493TMC3    C6 7383   0.415   0.812  10.619  0.1026  0.3937 -0.0972
  493TMC3     C 7384   0.321   0.525  10.900  0.4250  0.4703 -0.3226
  493TMC3     O 7385   0.203   0.493  10.918  0.3985  0.2146  0.3724
  493TMC3     H 7386   0.559   0.546  10.770  0.0033 -0.2821  0.0195
  493TMC3    H1 7387   0.141   0.677  10.758  0.6862 -3.1668 -0.7714
  493TMC3    H2 7388   0.435   0.898  10.556  1.5447 -1.0736 -1.6501
  493TMC3    C7 7389   0.196   0.895  10.642  0.0480 -0.4499 -0.4063
  493TMC3    C8 7390   0.656   0.751  10.632  0.6061  0.3775  0.7151
  493TMC3    O1 7391   0.186   0.944  10.528 -0.2321 -0.0400  0.3346
  493TMC3    O2 7392   0.742   0.679  10.685 -0.1747 -0.0327  0.5808
  494TMC3    C1 7393   1.502   2.317   0.467 -0.7328 -0.4354 -0.2171
  494TMC3    C2 7394   1.520   2.189   0.432  0.2908  0.3224 -0.0622
  494TMC3    C3 7395   1.513   2.153   0.300  0.2050  0.5252 -0.1022
  494TMC3    C4 7396   1.481   2.420   0.379  0.2877  0.6378 -0.3974
  494TMC3    C5 7397   1.495   2.385   0.243 -0.2864 -0.2777  0.0705
  494TMC3    C6 7398   1.502   2.249   0.203 -0.4044  0.3501  0.3088
  494TMC3     C 7399   1.446   2.319   0.595  0.9000  0.0279 -0.8378
  494TMC3     O 7400   1.516   2.254   0.670  0.4592 -0.2703  0.2738
  494TMC3     H 7401   1.526   2.110   0.506  1.2866 -0.3967 -0.9143
  494TMC3    H1 7402   1.478   2.522   0.418 -1.3220 -0.1365  1.4606
  494TMC3    H2 7403   1.519   2.221   0.100 -1.3392 -0.4152  0.3701
  494TMC3    C7 7404   1.489   2.479   0.138  0.1205  0.8544 -0.4012
  494TMC3    C8 7405   1.465   2.016   0.275 -0.0557 -0.1220  0.0077
  494TMC3    O1 7406   1.478   2.426   0.026 -1.1542  0.0606  0.1073
  494TMC3    O2 7407   1.459   1.929   0.358 -0.2237  0.1360  0.1783
  495TMC3    C1 7408   0.243   3.916  14.534  0.4103  0.3811 -0.1521
  495TMC3    C2 7409   0.179   3.951  14.413 -0.3778  0.0905  0.3708
  495TMC3    C3 7410   0.067   4.033  14.419 -0.0819  0.1997 -1.0595
  495TMC3    C4 7411   0.214   3.973  14.650 -0.4355  0.3631 -0.2801
  495TMC3    C5 7412   0.109   4.065  14.657 -0.5000 -0.2897  0.0231
  495TMC3    C6 7413   0.027   4.076  14.546  0.3987  0.1203  0.5682
  495TMC3     C 7414   0.228   3.770  14.547 -0.4197  0.4068 -0.3297
  495TMC3     O 7415   0.165   3.737  14.648 -0.0073  0.2697  0.4712
  495TMC3     H 7416   0.213   3.917  14.316 -0.3275  1.0497  0.0570
  495TMC3    H1 7417   0.244   3.932  14.746  1.7232 -1.6154 -1.8193
  495TMC3    H2 7418   4.680   4.143  14.559 -0.7940 -0.5021 -3.9712
  495TMC3    C7 7419   0.029   4.066  14.784 -0.4884 -0.7674  0.4243
  495TMC3    C8 7420   4.693   3.985  14.344 -1.0183 -0.7802 -0.2890
  495TMC3    O1 7421   0.079   4.075  14.892 -0.8421 -0.7012 -0.0944
  495TMC3    O2 7422   4.596   4.055  14.342  0.4172  0.0294  0.5249
  496MPD2     C 7423   1.798   4.348  14.993 -0.1739  0.3633 -0.1866
  496MPD2    C1 7424   1.838   4.237  15.064  0.2254 -0.6508  0.4332
  496MPD2    C2 7425   1.753   4.142  15.120 -0.3370  0.2330  0.5307
  496MPD2    C3 7426   1.613   4.161  15.115 -0.2977 -0.2107 -0.4907
  496MPD2    C4 7427   1.572   4.267  15.035 -0.4735  0.0239  0.3231
  496MPD2    C5 7428   1.665   4.353  14.968 -0.3173  0.9340 -0.5941
  496MPD2     H 7429   1.792   4.053  15.167  0.2164 -0.1621 -0.6959
  496MPD2    H1 7430   1.467   4.295  15.036 -0.2614  0.8221  0.9766
  496MPD2    H2 7431   1.869   4.410  14.938  2.3697 -1.1588  1.4223
  496MPD2    H3 7432   1.631   4.435  14.905  1.6618  2.0525 -0.1906
  496MPD2     N 7433   1.517   4.088  15.189 -0.2518  0.1159 -0.5088
  496MPD2    H5 7434   1.427   4.135  15.190 -1.1008 -1.5084 -1.2926
  496MPD2    N1 7435   1.981   4.247  15.090 -0.0009 -0.4152 -0.2463
  496MPD2    H7 7436   2.030   4.324  15.046  1.4657 -0.9033  0.5546
  497TMC3    C1 7437   1.425   3.935  15.351  0.3403 -0.8226  0.2667
  497TMC3    C2 7438   1.298   3.951  15.301 -0.5058  0.3207 -0.4319
  497TMC3    C3 7439   1.197   3.912  15.377  0.4997 -0.2142  0.3625
  497TMC3    C4 7440   1.448   3.894  15.475  0.3418 -0.2763 -0.3871
  497TMC3    C5 7441   1.340   3.864  15.554 -0.1189  0.0489  0.2641
  497TMC3    C6 7442   1.216   3.878  15.510  0.1574 -0.2512  0.0605
  497TMC3     C 7443   1.546   3.985  15.283  0.0597 -0.0818  0.5710
  497TMC3     O 7444   1.656   3.953  15.328  0.0004  0.3663  0.4334
  497TMC3     H 7445   1.288   3.979  15.197  1.1809 -0.7972 -0.8952
  497TMC3    H1 7446   1.548   3.883  15.516 -1.2902 -1.4608  3.3068
  497TMC3    H2 7447   1.130   3.856  15.573  0.8449 -0.6312  0.8536
  497TMC3    C7 7448   1.360   3.895  15.691  0.4151  0.4779 -0.1374
  497TMC3    C8 7449   1.064   3.921  15.318  0.2473 -0.0125 -0.3079
  497TMC3    O1 7450   1.303   3.830  15.776  0.0675  0.2141  0.0890
  497TMC3    O2 7451   1.059   3.921  15.196  0.3180 -0.3016 -0.1657
  498MPD2     C 7452   2.393   0.974   9.694  0.0721  0.5900  0.1038
  498MPD2    C1 7453   2.496   0.944   9.776  0.2489  0.5817 -0.0521
  498MPD2    C2 7454   2.498   0.809   9.809  0.2584  0.1906  0.2714
  498MPD2    C3 7455   2.396   0.718   9.773  0.2879 -0.5736 -0.1302
  498MPD2    C4 7456   2.296   0.758   9.688  0.5922 -0.3192  0.4145
  498MPD2    C5 7457   2.294   0.886   9.649  0.3321 -0.2043 -0.9157
  498MPD2     H 7458   2.577   0.774   9.875  0.7404 -1.3096 -1.1214
  498MPD2    H1 7459   2.222   0.691   9.645  2.1708 -0.5020 -2.0556
  498MPD2    H2 7460   2.392   1.077   9.659 -1.5159  0.7182  0.5294
  498MPD2    H3 7461   2.217   0.927   9.585 -1.8839 -1.3943  1.0044
  498MPD2     N 7462   2.407   0.585   9.815 -0.0872  0.2209 -0.2015
  498MPD2    H5 7463   2.477   0.563   9.885 -1.0195 -0.2335  0.5966
  498MPD2    N1 7464   2.609   1.033   9.794  0.0245 -0.1681 -0.0833
  498MPD2    H7 7465   2.691   0.987   9.833 -0.6922 -1.5881 -0.2794
  499TMC3    C1 7466   2.756   1.219   9.748  0.2033 -0.1065 -0.8716
  499TMC3    C2 7467   2.867   1.143   9.784  0.5710 -0.3864 -0.4582
  499TMC3    C3 7468   2.977   1.216   9.825  0.2148  0.0343  1.1532
  499TMC3    C4 7469   2.760   1.353   9.735 -0.1606  0.2030  0.1988
  499TMC3    C5 7470   2.867   1.417   9.790  0.3774 -0.5393 -0.6451
  499TMC3    C6 7471   2.978   1.351   9.834 -0.2472  0.0240 -0.9022
  499TMC3     C 7472   2.619   1.168   9.746 -1.2463 -0.0529  0.3003
  499TMC3     O 7473   2.533   1.241   9.713  0.9476  0.2869 -0.1704
  499TMC3     H 7474   2.859   1.036   9.768  1.2808 -0.7577  1.7403
  499TMC3    H1 7475   2.672   1.411   9.709  0.6043  0.1316 -2.5595
  499TMC3    H2 7476   3.076   1.395   9.848 -0.9783  0.8585  1.5727
  499TMC3    C7 7477   2.904   1.549   9.734 -0.0457 -0.1450 -1.0855
  499TMC3    C8 7478   3.107   1.161   9.813  1.2088 -0.8050  0.3508
  499TMC3    O1 7479   3.016   1.587   9.772 -0.3305 -0.4118 -0.3122
  499TMC3    O2 7480   3.192   1.220   9.878  0.2341 -0.7364  0.8645
  500MPD2     C 7481   4.229   1.680  11.124 -0.0548  0.7523 -0.2870
  500MPD2    C1 7482   4.308   1.700  11.015  0.8083  0.8453 -0.2285
  500MPD2    C2 7483   4.243   1.741  10.902  0.1740  0.0203  0.3623
  500MPD2    C3 7484   4.109   1.737  10.888  0.2326 -0.3880  0.4340
  500MPD2    C4 7485   4.032   1.709  10.997  0.7319 -0.4220 -0.1610
  500MPD2    C5 7486   4.092   1.691  11.115  0.2384 -0.4763  0.4628
  500MPD2     H 7487   4.297   1.765  10.811 -0.0623 -1.2803 -0.1108
  500MPD2    H1 7488   3.924   1.716  11.000  0.7592  0.2534 -0.8242
  500MPD2    H2 7489   4.271   1.660  11.222  1.3448  4.7496 -0.0602
  500MPD2    H3 7490   4.028   1.683  11.202 -0.2015  0.2668  0.2121
  500MPD2     N 7491   4.028   1.764  10.768 -0.2774  0.0571 -0.5001
  500MPD2    H5 7492   3.928   1.754  10.780 -0.0099 -3.5058 -1.4830
  500MPD2    N1 7493   4.449   1.694  11.015  0.6797  0.3312 -0.8408
  500MPD2    H7 7494   4.490   1.706  10.923  0.6621  2.4814 -0.5901
  501TMC3    C1 7495   4.670   1.651  11.096 -0.7871  0.1444  0.2520
  501TMC3    C2 7496   4.718   1.654  10.966 -0.5384 -0.1526  0.1719
  501TMC3    C3 7497   0.099   1.586  10.952  0.0275  0.2206  0.2167
  501TMC3    C4 7498   0.016   1.613  11.202 -0.0009 -0.0633 -0.2971
  501TMC3    C5 7499   0.141   1.570  11.177 -0.2666  0.0776  0.0616
  501TMC3    C6 7500   0.180   1.541  11.050 -1.1905 -0.3555 -0.0180
  501TMC3     C 7501   4.528   1.676  11.127  0.0834  0.1132 -0.7772
  501TMC3     O 7502   4.493   1.687  11.243  0.2782 -0.0706 -0.2271
  501TMC3     H 7503   4.656   1.681  10.882  1.0197  0.6733 -0.7099
  501TMC3    H1 7504   4.718   1.636  11.302 -1.9170 -0.4127 -0.8971
  501TMC3    H2 7505   0.271   1.484  11.035  0.4631  2.2785 -0.0136
  501TMC3    C7 7506   0.209   1.512  11.288 -0.1021  1.0244 -0.1187
  501TMC3    C8 7507   0.172   1.599  10.837 -0.1141  0.4575 -0.1206
  501TMC3    O1 7508   0.279   1.418  11.267 -0.1287  0.5933  0.3691
  501TMC3    O2 7509   0.291   1.635  10.846  0.0979  0.5041  0.0744
  502TMC3    C1 7510   3.822   4.593  14.389  0.3036  0.9565 -0.1319
  502TMC3    C2 7511   3.868   4.722  14.363 -0.2128 -0.0511 -0.1584
  502TMC3    C3 7512   3.806   0.093  14.422  0.6093 -0.0404 -0.1387
  502TMC3    C4 7513   3.702   4.586  14.446  0.7031 -0.1620 -0.6768
  502TMC3    C5 7514   3.634   4.692  14.497 -0.1879  0.6579  0.4815
  502TMC3    C6 7515   3.692   0.083  14.492 -0.5885 -0.1835  0.2598
  502TMC3     C 7516   3.923   4.519  14.452  0.1400 -0.5728  0.2062
  502TMC3     O 7517   4.022   4.509  14.386 -0.7450  0.0488  0.4067
  502TMC3     H 7518   3.958   4.731  14.303  0.4913 -1.5279  0.6936
  502TMC3    H1 7519   3.659   4.490  14.472  0.7230 -0.4248 -1.6418
  502TMC3    H2 7520   3.655   0.160  14.560 -0.8877 -0.2189  0.1355
  502TMC3    C7 7521   3.576   4.664  14.628  0.2349  0.3710  0.1133
  502TMC3    C8 7522   3.895   0.192  14.476 -0.6845  0.2897  1.0216
  502TMC3    O1 7523   3.652   4.600  14.698  0.2821  0.5698 -0.5300
  502TMC3    O2 7524   3.845   0.293  14.521  0.8318 -0.0372 -0.2211
  503MPD2     C 7525   2.057   1.421  17.103  0.2840  0.6092  0.0454
  503MPD2    C1 7526   2.033   1.428  17.236 -0.4284 -0.4533 -0.7021
  503MPD2    C2 7527   2.122   1.377  17.327 -0.6135  0.1613 -0.4616
  503MPD2    C3 7528   2.226   1.301  17.268 -0.4115  0.3380 -0.5175
  503MPD2    C4 7529   2.240   1.283  17.131  0.1700  0.0670 -0.0792
  503MPD2    C5 7530   2.164   1.359  17.048 -0.5490  0.8166 -0.1844
  503MPD2     H 7531   2.108   1.387  17.435  0.6036  1.0709 -0.3899
  503MPD2    H1 7532   2.323   1.229  17.086  0.3392  0.3122 -0.0607
  503MPD2    H2 7533   1.991   1.465  17.028 -2.5222 -1.1379  1.4584
  503MPD2    H3 7534   2.175   1.365  16.940 -0.0425  1.5516 -0.0886
  503MPD2     N 7535   2.304   1.224  17.358  0.1250 -0.1958 -0.1692
  503MPD2    H5 7536   2.283   1.239  17.456 -0.8646  0.5824 -0.4902
  503MPD2    N1 7537   1.914   1.496  17.292 -0.2301 -0.1629  0.0768
  503MPD2    H7 7538   1.919   1.511  17.392  2.7082  2.8948 -0.5341
  504TMC3    C1 7539   2.437   1.051  17.434  0.4173 -0.2907  0.1428
  504TMC3    C2 7540   2.331   0.993  17.509 -0.1367 -0.4254 -0.2731
  504TMC3    C3 7541   2.346   0.861  17.554  0.1333  0.4139  0.1377
  504TMC3    C4 7542   2.546   0.978  17.408  0.4563 -0.3673  0.2701
  504TMC3    C5 7543   2.563   0.854  17.456  0.4235  0.3781  0.0575
  504TMC3    C6 7544   2.460   0.792  17.527  0.2405  0.5695  0.1021
  504TMC3     C 7545   2.419   1.155  17.333 -0.4370 -0.4393  0.3089
  504TMC3     O 7546   2.485   1.161  17.230 -0.3624  0.5061 -0.6332
  504TMC3     H 7547   2.236   1.041  17.529 -1.1619 -1.5922 -2.3039
  504TMC3    H1 7548   2.626   1.023  17.351 -0.9824  0.8842 -0.7531
  504TMC3    H2 7549   2.476   0.695  17.574  0.0279 -0.8685 -2.8027
  504TMC3    C7 7550   2.647   0.763  17.384 -0.5703 -0.2478  0.0077
  504TMC3    C8 7551   2.252   0.819  17.661 -0.2795 -0.4966 -0.0664
  504TMC3    O1 7552   2.689   0.815  17.277  0.3417  0.0532 -0.1628
  504TMC3    O2 7553   2.142   0.873  17.662 -0.0760  0.4403  0.3302
  505MPD2     C 7554   1.508   4.528  10.860 -1.0099  0.2777 -0.5281
  505MPD2    C1 7555   1.611   4.538  10.777  0.9575  0.0101 -0.2217
  505MPD2    C2 7556   1.719   4.621  10.805 -0.2973 -0.0445  0.2505
  505MPD2    C3 7557   1.717   4.698  10.927  0.6201  0.3291  0.1675
  505MPD2    C4 7558   1.614   4.685  11.016 -0.6526  0.7967 -0.5701
  505MPD2    C5 7559   1.508   4.606  10.971 -0.4297 -0.4342 -0.2869
  505MPD2     H 7560   1.801   4.615  10.735 -0.2864  2.0405  0.0849
  505MPD2    H1 7561   1.618   0.007  11.106  0.8283  1.4094 -1.0577
  505MPD2    H2 7562   1.421   4.468  10.833 -0.5305 -0.1864 -1.0721
  505MPD2    H3 7563   1.418   4.593  11.031 -0.1816 -1.4064 -0.1258
  505MPD2     N 7564   1.830   0.027  10.972  0.4726 -0.5628 -0.0932
  505MPD2    H5 7565   1.839   0.033  11.073 -2.1552  2.1465 -0.0467
  505MPD2    N1 7566   1.613   4.441  10.675 -0.3509  0.3247 -0.1832
  505MPD2    H7 7567   1.532   4.381  10.666  1.5722 -2.0789 -1.4354
  506TMC3    C1 7568   1.701   4.314  10.494  0.3855 -0.2073  0.1648
  506TMC3    C2 7569   1.740   4.318  10.365 -0.2183  0.2043  1.0835
  506TMC3    C3 7570   1.801   4.206  10.319 -0.3176  0.6207  0.0119
  506TMC3    C4 7571   1.711   4.199  10.567  0.0377 -0.4996  0.2041
  506TMC3    C5 7572   1.755   4.078  10.515 -0.2332  0.3817  0.0239
  506TMC3    C6 7573   1.810   4.088  10.386 -0.4495  0.4674  0.0060
  506TMC3     C 7574   1.705   4.441  10.573  0.0337 -0.5456 -0.6555
  506TMC3     O 7575   1.756   4.540  10.522  0.0428  0.2373  0.5136
  506TMC3     H 7576   1.728   4.410  10.309  0.2282 -1.8552 -2.4226
  506TMC3    H1 7577   1.664   4.194  10.665 -1.0869 -0.3131 -0.3268
  506TMC3    H2 7578   1.866   4.003  10.350 -1.4646  0.1192 -0.7287
  506TMC3    C7 7579   1.847   4.028  10.611 -0.3190  0.4366  0.4069
  506TMC3    C8 7580   1.858   4.207  10.182  0.1533  0.0137  0.6407
  506TMC3    O1 7581   1.786   3.976  10.705 -0.2079  0.1372  0.5857
  506TMC3    O2 7582   1.882   4.100  10.127 -0.4077  0.1357  0.0479
  507TMC3    C1 7583   2.528   0.273  14.362 -0.2054 -0.1963  0.6256
  507TMC3    C2 7584   2.576   0.174  14.282  0.0621  0.1815 -0.1737
  507TMC3    C3 7585   2.711   0.180  14.255 -0.3307 -0.0171  0.7629
  507TMC3    C4 7586   2.606   0.377  14.416  1.0750 -0.2679  0.7811
  507TMC3    C5 7587   2.741   0.380  14.391  0.2022 -0.5715  0.1364
  507TMC3    C6 7588   2.793   0.274  14.317 -0.2085 -0.1534 -0.3693
  507TMC3     C 7589   2.385   0.298  14.356 -0.2087 -0.4161 -0.2157
  507TMC3     O 7590   2.333   0.333  14.462  0.6326  0.2129  0.0063
  507TMC3     H 7591   2.516   0.101  14.229  2.0538 -2.0367  0.6782
  507TMC3    H1 7592   2.552   0.450  14.475 -0.2056 -1.1212  0.6673
  507TMC3    H2 7593   2.900   0.276  14.305 -0.1898 -0.6510 -0.3057
  507TMC3    C7 7594   2.795   0.506  14.363 -0.3297  0.6904 -0.4598
  507TMC3    C8 7595   2.743   0.151  14.121 -0.2958 -0.3327 -0.9334
  507TMC3    O1 7596   2.871   0.511  14.267 -0.4474 -0.2640  0.3676
  507TMC3    O2 7597   2.688   0.069  14.054 -0.6941  0.0238 -0.0841
  508MPD2     C 7598   3.380   2.806  16.065  0.0245  0.1745 -0.8284
  508MPD2    C1 7599   3.354   2.908  16.155 -0.5869  0.0443  0.2457
  508MPD2    C2 7600   3.309   3.028  16.106  1.1082  0.2410  0.3385
  508MPD2    C3 7601   3.298   3.052  15.972  0.2108 -0.1759  0.4541
  508MPD2    C4 7602   3.317   2.938  15.887  0.2316 -0.1403  0.3563
  508MPD2    C5 7603   3.369   2.825  15.933 -0.2230 -0.6514 -0.0977
  508MPD2     H 7604   3.291   3.110  16.175  2.0713 -0.7093  1.7027
  508MPD2    H1 7605   3.308   2.933  15.779  0.8961 -1.4429  0.3613
  508MPD2    H2 7606   3.419   2.707  16.086 -1.7398 -0.5143 -0.8786
  508MPD2    H3 7607   3.393   2.747  15.862  1.5997  0.9339 -1.2255
  508MPD2     N 7608   3.252   3.178  15.933 -0.0644 -0.0430 -0.2370
  508MPD2    H5 7609   3.242   3.245  16.008  0.0254  1.7902 -1.8712
  508MPD2    N1 7610   3.372   2.887  16.290  0.2697  0.9970  0.2656
  508MPD2    H7 7611   3.417   2.802  16.323  0.9259  0.5836 -1.6907
  509TMC3    C1 7612   3.141   3.452  15.571 -0.6706 -0.0306  0.0897
  509TMC3    C2 7613   3.257   3.522  15.575 -0.7243  0.7240  0.3001
  509TMC3    C3 7614   3.346   3.500  15.672  0.4228 -0.2650 -1.0241
  509TMC3    C4 7615   3.109   3.366  15.678 -0.2318  0.3237 -0.6677
  509TMC3    C5 7616   3.193   3.348  15.781 -0.3968  0.1721 -0.2606
  509TMC3    C6 7617   3.319   3.409  15.774  0.4501  0.5930 -0.3819
  509TMC3     C 7618   3.097   3.420  15.433  0.3552  0.0740 -0.1233
  509TMC3     O 7619   3.058   3.305  15.418  0.4870  0.1733  0.7357
  509TMC3     H 7620   3.298   3.575  15.490 -1.4079  0.6548 -0.0717
  509TMC3    H1 7621   3.031   3.293  15.659 -0.8781  1.1327 -1.1517
  509TMC3    H2 7622   3.400   3.378  15.838 -2.2437 -3.0850  1.2316
  509TMC3    C7 7623   3.215   3.204  15.805  0.2541  0.2236 -0.3652
  509TMC3    C8 7624   3.493   3.502  15.640 -1.0890 -0.1317 -0.0132
  509TMC3    O1 7625   3.234   3.146  15.703  0.0453 -0.6906 -0.3110
  509TMC3    O2 7626   3.555   3.402  15.682  0.0987 -0.2021  0.0501
  510MPD2     C 7627   1.377   4.577  14.744  0.1341 -0.5015  0.2172
  510MPD2    C1 7628   1.370   4.440  14.734 -0.2086 -0.7967 -0.3958
  510MPD2    C2 7629   1.480   4.370  14.682 -0.7974 -0.1751 -0.2141
  510MPD2    C3 7630   1.587   4.438  14.626  0.0654  0.8662  0.1681
  510MPD2    C4 7631   1.584   4.579  14.625 -0.0500 -0.1929  0.2292
  510MPD2    C5 7632   1.484   4.644  14.684 -0.3483  0.0464 -1.2365
  510MPD2     H 7633   1.489   4.262  14.683 -0.2275 -0.1274  0.6822
  510MPD2    H1 7634   1.657   4.644  14.578 -1.1911  2.0035  1.4458
  510MPD2    H2 7635   1.294   4.632  14.788 -1.0573 -1.2431 -1.1291
  510MPD2    H3 7636   1.476   0.013  14.665 -0.0969  0.3657  0.4174
  510MPD2     N 7637   1.710   4.368  14.610 -0.2098  0.4355  0.7111
  510MPD2    H5 7638   1.707   4.270  14.636  1.9195 -0.3786 -2.1526
  510MPD2    N1 7639   1.260   4.371  14.793  0.0022  0.1989  0.2427
  510MPD2    H7 7640   1.188   4.429  14.835 -1.3644 -2.1397  1.1557
  511TMC3    C1 7641   1.143   4.180  14.898  0.1650 -0.1088 -0.3176
  511TMC3    C2 7642   1.040   4.263  14.944  0.0902 -0.1719 -0.1333
  511TMC3    C3 7643   0.920   4.202  14.983  0.3637 -0.0898 -0.4512
  511TMC3    C4 7644   1.137   4.045  14.903  0.7133 -0.0936 -0.6657
  511TMC3    C5 7645   1.014   3.986  14.928  0.4234 -0.2421 -0.3971
  511TMC3    C6 7646   0.898   4.063  14.967  0.1271 -0.1801 -0.8375
  511TMC3     C 7647   1.239   4.233  14.801 -0.0842 -0.7746 -0.0984
  511TMC3     O 7648   1.292   4.147  14.734 -0.3905 -0.2945 -0.3699
  511TMC3     H 7649   1.054   4.370  14.954 -0.8266 -0.3202  2.6522
  511TMC3    H1 7650   1.214   3.984  14.857  0.5966 -0.7788  0.0292
  511TMC3    H2 7651   0.808   4.010  14.994 -0.0586  0.6723  0.2096
  511TMC3    C7 7652   0.993   3.854  14.883  0.3026  0.2166 -0.0459
  511TMC3    C8 7653   0.813   4.287  15.045 -0.1848 -0.6134 -0.0054
  511TMC3    O1 7654   1.064   3.818  14.789  0.0344  0.3463 -0.3473
  511TMC3    O2 7655   0.842   4.394  15.101  0.5541 -0.1200  0.2938
  512TMC3    C1 7656   4.606   4.009  13.557 -0.1886  0.2564  0.2735
  512TMC3    C2 7657   4.725   3.958  13.612  0.5113 -0.0517 -0.9261
  512TMC3    C3 7658   0.078   3.884  13.526 -0.2617 -0.0430 -0.2625
  512TMC3    C4 7659   4.590   3.999  13.423 -0.3295  0.4865  0.0242
  512TMC3    C5 7660   4.672   3.923  13.348  0.6813 -0.1283  0.1267
  512TMC3    C6 7661   0.050   3.864  13.392 -0.7381 -1.0103  0.2904
  512TMC3     C 7662   4.562   4.135  13.608 -0.2546  0.3454 -0.5993
  512TMC3     O 7663   4.644   4.204  13.656  0.2330  0.8143 -0.0106
  512TMC3     H 7664   4.731   3.964  13.720  1.6026  1.5630 -1.0841
  512TMC3    H1 7665   4.506   4.052  13.381 -2.2302 -2.5228 -0.0090
  512TMC3    H2 7666   0.120   3.818  13.323  0.3114  0.3889  0.4219
  512TMC3    C7 7667   4.629   3.895  13.215  0.2962  0.0908  0.5586
  512TMC3    C8 7668   0.210   3.924  13.554 -0.3710 -0.4867 -0.7202
  512TMC3    O1 7669   4.536   3.962  13.185 -0.9634  0.6350 -0.0048
  512TMC3    O2 7670   0.304   3.870  13.495 -0.0144  0.4361  0.0422
  513MPD2     C 7671   1.350   4.103  13.225 -0.7519 -0.2103 -0.2952
  513MPD2    C1 7672   1.370   3.999  13.144 -0.2951  1.2051  0.6810
  513MPD2    C2 7673   1.453   3.890  13.168  0.8174  0.0177  0.2051
  513MPD2    C3 7674   1.535   3.899  13.283  0.7254  0.2767 -0.1940
  513MPD2    C4 7675   1.508   3.997  13.377 -0.1386 -0.1362 -0.3199
  513MPD2    C5 7676   1.419   4.094  13.344 -0.5932 -0.0084 -0.0384
  513MPD2     H 7677   1.468   3.809  13.097  0.7027  1.0538 -0.9988
  513MPD2    H1 7678   1.553   3.999  13.476 -1.1259 -1.1004  0.1478
  513MPD2    H2 7679   1.289   4.192  13.212 -1.2465 -0.2771  1.4252
  513MPD2    H3 7680   1.405   4.178  13.411  0.5220  0.8076 -0.8166
  513MPD2     N 7681   1.629   3.796  13.297  0.0086  0.3520 -0.2413
  513MPD2    H5 7682   1.641   3.724  13.226  3.1158  0.0527  0.6174
  513MPD2    N1 7683   1.322   4.004  13.009 -0.0465 -0.1252  0.1476
  513MPD2    H7 7684   1.349   3.925  12.951 -0.1942 -0.7703  0.9633
  514TMC3    C1 7685   1.305   4.104  12.798 -0.3864  0.0804 -0.4029
  514TMC3    C2 7686   1.383   4.197  12.739  0.0977 -0.0168  0.0371
  514TMC3    C3 7687   1.464   4.157  12.645 -0.4906  0.9371  0.0403
  514TMC3    C4 7688   1.302   3.979  12.747  0.6821 -0.2261 -1.1138
  514TMC3    C5 7689   1.383   3.937  12.651  0.4569  0.5835  0.6965
  514TMC3    C6 7690   1.468   4.025  12.592 -0.5493  0.0471 -0.3572
  514TMC3     C 7691   1.276   4.119  12.943  0.5686 -0.0542  1.5815
  514TMC3     O 7692   1.271   4.231  12.981 -0.4097 -0.3699 -0.3574
  514TMC3     H 7693   1.397   4.295  12.782 -0.7201  0.4754 -0.8319
  514TMC3    H1 7694   1.229   3.907  12.783 -0.2416  1.5211  0.5791
  514TMC3    H2 7695   1.539   3.989  12.518 -0.6814 -0.5884 -0.1727
  514TMC3    C7 7696   1.435   3.818  12.700 -0.2428 -0.3620 -0.2909
  514TMC3    C8 7697   1.579   4.236  12.599 -0.8655  0.4601  0.3038
  514TMC3    O1 7698   1.434   3.809  12.825  0.5890 -0.1860 -0.5992
  514TMC3    O2 7699   1.617   4.326  12.678  0.2887  0.3746 -0.2604
  515MPD2     C 7700   0.232   0.941  15.118 -0.5351  0.4452 -0.2576
  515MPD2    C1 7701   0.226   0.995  14.994  0.3368  1.3087 -0.0270
  515MPD2    C2 7702   0.277   1.125  14.968 -0.4073 -0.2526  0.1515
  515MPD2    C3 7703   0.344   1.193  15.068  0.1490  0.4716 -0.1431
  515MPD2    C4 7704   0.336   1.136  15.191 -0.4967  0.1908 -0.2525
  515MPD2    C5 7705   0.281   1.011  15.219  0.9202 -0.2517 -0.6374
  515MPD2     H 7706   0.276   1.162  14.866 -1.6457  0.8599  0.5815
  515MPD2    H1 7707   0.379   1.184  15.278 -3.7749  0.1319  1.3756
  515MPD2    H2 7708   0.186   0.844  15.137 -1.6743  0.5910 -2.2579
  515MPD2    H3 7709   0.281   0.967  15.318 -1.1345 -0.8511 -0.9208
  515MPD2     N 7710   0.413   1.317  15.060  0.2877  0.2409 -0.4162
  515MPD2    H5 7711   0.442   1.368  15.143  0.1802 -1.0300  0.4129
  515MPD2    N1 7712   0.179   0.917  14.885 -0.2203 -0.1096  0.2563
  515MPD2    H7 7713   0.162   0.972  14.801  0.9198  0.2233  0.2363
  516TMC3    C1 7714   0.074   0.746  14.756 -0.2319  0.0249 -0.1744
  516TMC3    C2 7715   4.717   0.831  14.707  0.1791  0.1905  0.0708
  516TMC3    C3 7716   4.612   0.785  14.625 -0.1413  0.2012  0.1421
  516TMC3    C4 7717   0.056   0.612  14.729 -0.9442 -0.4788 -0.1319
  516TMC3    C5 7718   4.692   0.571  14.645 -0.5903 -0.2981 -0.3114
  516TMC3    C6 7719   4.598   0.654  14.587 -0.0455  0.0815 -0.2458
  516TMC3     C 7720   0.146   0.784  14.875 -0.7424 -0.4468  0.4229
  516TMC3     O 7721   0.156   0.699  14.956  0.4040 -0.0131 -0.6324
  516TMC3     H 7722   4.720   0.934  14.740 -1.1687 -0.3808  1.9252
  516TMC3    H1 7723   0.120   0.544  14.785  1.9160  3.1971  1.0437
  516TMC3    H2 7724   4.518   0.618  14.523 -0.2560 -0.1736  0.1624
  516TMC3    C7 7725   4.680   0.428  14.633  0.5354 -0.6148  0.1580
  516TMC3    C8 7726   4.514   0.875  14.569  0.4756 -0.5599  0.3929
  516TMC3    O1 7727   0.007   0.357  14.704  0.0569 -0.0144 -0.0472
  516TMC3    O2 7728   4.411   0.827  14.528  0.4918 -0.1945 -0.1754
  517MPD2     C 7729   4.431   2.728  17.413 -0.2606  0.5273 -0.1117
  517MPD2    C1 7730   4.546   2.668  17.471  0.3197 -0.7559 -0.5593
  517MPD2    C2 7731   4.621   2.738  17.562  0.0944  0.5167  0.6448
  517MPD2    C3 7732   4.574   2.866  17.607  0.3644 -0.7255  0.0509
  517MPD2    C4 7733   4.454   2.916  17.562 -0.0775 -0.9493 -0.1957
  517MPD2    C5 7734   4.383   2.843  17.470 -0.0400  0.4515 -0.1281
  517MPD2     H 7735   4.720   2.700  17.582 -0.1826 -0.2468  0.5560
  517MPD2    H1 7736   4.419   3.011  17.602 -0.7551 -1.8703  1.3756
  517MPD2    H2 7737   4.379   2.686  17.328 -0.0304 -1.3705  0.6798
  517MPD2    H3 7738   4.290   2.879  17.429 -0.8167 -1.2617  0.1125
  517MPD2     N 7739   4.653   2.948  17.695 -0.6387 -0.0054  0.9113
  517MPD2    H5 7740   4.615   3.040  17.713  0.5581  0.8401 -0.9012
  517MPD2    N1 7741   4.608   2.547  17.418  0.3749  0.4297 -0.3216
  517MPD2    H7 7742   4.699   2.522  17.454  1.0481  1.0846 -1.5868
  518TMC3    C1 7743   4.652   2.366  17.276 -0.5816  0.3728  0.0668
  518TMC3    C2 7744   4.589   2.262  17.211 -0.6665  0.3936 -0.1422
  518TMC3    C3 7745   4.668   2.174  17.139  0.0610  0.4554 -0.2173
  518TMC3    C4 7746   0.051   2.395  17.259 -0.3963  0.6098  0.0868
  518TMC3    C5 7747   0.125   2.311  17.176  0.2723  0.5759  0.6964
  518TMC3    C6 7748   0.067   2.194  17.130 -0.2087  0.2638  0.5077
  518TMC3     C 7749   4.557   2.465  17.317 -0.4968 -0.0277  0.2974
  518TMC3     O 7750   4.442   2.471  17.275  0.0519  0.1339  1.1539
  518TMC3     H 7751   4.483   2.242  17.222 -0.8009  1.7468  1.0210
  518TMC3    H1 7752   0.102   2.482  17.298 -2.5061  2.3386 -1.0100
  518TMC3    H2 7753   0.132   2.132  17.069 -0.1539  0.6001  0.2250
  518TMC3    C7 7754   0.265   2.319  17.209  0.6618  0.1099  0.4422
  518TMC3    C8 7755   4.624   2.043  17.113  0.2259  0.0671 -0.0358
  518TMC3    O1 7756   0.292   2.386  17.309  0.2357  0.1063  0.5538
  518TMC3    O2 7757   4.676   1.988  17.021 -0.2333  0.1930 -0.1737
  519MPD2     C 7758   1.642   0.246  14.569  0.0113 -0.7268  0.5086
  519MPD2    C1 7759   1.558   0.300  14.468  0.3638 -0.3452 -0.3149
  519MPD2    C2 7760   1.580   0.261  14.340 -0.0006 -0.6428 -0.7490
  519MPD2    C3 7761   1.693   0.192  14.307 -0.9400  0.5066 -0.9010
  519MPD2    C4 7762   1.788   0.148  14.405 -0.3323  0.2435  0.0871
  519MPD2    C5 7763   1.751   0.171  14.536  0.4191  0.1610 -0.3550
  519MPD2     H 7764   1.499   0.288  14.273 -0.1703  2.8222  0.8119
  519MPD2    H1 7765   1.886   0.108  14.378 -0.7530 -1.3944  0.9823
  519MPD2    H2 7766   1.623   0.274  14.672  1.5848 -2.8553  1.3771
  519MPD2    H3 7767   1.822   0.148  14.614  0.6533  3.3163  0.3315
  519MPD2     N 7768   1.725   0.172  14.176 -0.3587  0.1838 -0.3430
  519MPD2    H5 7769   1.803   0.113  14.151 -0.2391 -0.2934  1.1673
  519MPD2    N1 7770   1.447   0.375  14.502  0.2024  0.3292 -0.3754
  519MPD2    H7 7771   1.387   0.389  14.421  0.9113 -1.8335 -1.2787
  520TMC3    C1 7772   1.704   0.179  13.933  0.4948 -0.2598  0.2179
  520TMC3    C2 7773   1.640   0.229  13.825  0.1009  0.3478  0.1516
  520TMC3    C3 7774   1.688   0.197  13.698 -0.0593 -0.0439  0.0446
  520TMC3    C4 7775   1.814   0.096  13.919  0.1178  0.2870  0.9644
  520TMC3    C5 7776   1.860   0.076  13.795 -0.2601  0.4840  0.8922
  520TMC3    C6 7777   1.799   0.123  13.683  0.2747  0.0974 -0.0389
  520TMC3     C 7778   1.647   0.213  14.063  0.1412 -0.2819  1.0356
  520TMC3     O 7779   1.566   0.305  14.060  0.3839 -0.2059 -0.1875
  520TMC3     H 7780   1.556   0.292  13.851  0.1910  0.5783 -0.1049
  520TMC3    H1 7781   1.880   0.057  13.995  1.5659  0.9699  0.0498
  520TMC3    H2 7782   1.847   0.101  13.588 -0.8499 -1.7922 -0.1831
  520TMC3    C7 7783   1.995   0.028  13.789  0.2631 -0.8619 -0.0173
  520TMC3    C8 7784   1.636   0.285  13.585 -0.4427 -0.0877 -0.0957
  520TMC3    O1 7785   2.019   4.673  13.863 -0.8145  0.1618 -0.5293
  520TMC3    O2 7786   1.696   0.267  13.479  0.1670 -0.5161  0.2935
  521MPD2     C 7787   2.167   3.925  17.524 -0.2770 -0.3027 -0.3325
  521MPD2    C1 7788   2.095   3.817  17.472  0.0754 -0.8033 -0.7906
  521MPD2    C2 7789   2.167   3.699  17.437 -0.1456  0.8382 -0.6426
  521MPD2    C3 7790   2.301   3.689  17.456 -0.1568 -0.6253 -0.0479
  521MPD2    C4 7791   2.372   3.795  17.510  0.8570 -0.4041 -0.3910
  521MPD2    C5 7792   2.307   3.910  17.537  0.8473 -0.2011  0.5912
  521MPD2     H 7793   2.117   3.612  17.397 -0.7160  1.3433 -1.0244
  521MPD2    H1 7794   2.480   3.789  17.518  0.8682 -2.4657 -2.0391
  521MPD2    H2 7795   2.116   4.015  17.559  0.5640 -0.1336  0.4580
  521MPD2    H3 7796   2.365   3.987  17.587  1.6504  0.2147 -0.9717
  521MPD2     N 7797   2.367   3.569  17.420  0.2084  1.3425 -0.0168
  521MPD2    H5 7798   2.312   3.502  17.368  1.8284 -0.7817  0.9986
  521MPD2    N1 7799   1.957   3.820  17.471  0.3860  0.0942  0.7700
  521MPD2    H7 7800   1.928   3.917  17.480  1.7151  0.3132  2.7176
  522TMC3    C1 7801   2.561   3.441  17.369  0.0550  0.0305  0.1031
  522TMC3    C2 7802   2.682   3.392  17.413 -0.0001  0.3267 -0.0246
  522TMC3    C3 7803   2.731   3.290  17.335  0.5889  0.1686 -0.9312
  522TMC3    C4 7804   2.497   3.407  17.252  0.9681 -0.9241  0.2591
  522TMC3    C5 7805   2.552   3.302  17.175 -0.3244  0.9303  0.7544
  522TMC3    C6 7806   2.662   3.239  17.225 -0.1344  0.0929 -0.3291
  522TMC3     C 7807   2.504   3.546  17.447 -0.4982  0.7386 -0.6299
  522TMC3     O 7808   2.582   3.605  17.523  0.0857  0.0378 -0.0306
  522TMC3     H 7809   2.724   3.425  17.507 -0.9049 -0.3155  0.6140
  522TMC3    H1 7810   2.405   3.452  17.217  1.0161 -1.2604 -0.2931
  522TMC3    H2 7811   2.711   3.164  17.163 -0.1156 -0.4557  0.3489
  522TMC3    C7 7812   2.497   3.268  17.044  0.2025 -0.2488 -0.0881
  522TMC3    C8 7813   2.877   3.270  17.345  0.5617 -0.2565  0.0343
  522TMC3    O1 7814   2.492   3.144  17.015  0.2673  0.4321 -0.1164
  522TMC3    O2 7815   2.917   3.314  17.454 -0.2023  0.0719 -0.0151
  523MPD2     C 7816   0.167   3.741   9.895  0.4656  0.1622  0.1918
  523MPD2    C1 7817   0.083   3.636   9.870  0.9651  1.0225  0.1513
  523MPD2    C2 7818   4.701   3.669   9.806  0.5263 -0.2715  0.5538
  523MPD2    C3 7819   4.672   3.798   9.771  0.0959  0.3869  0.1969
  523MPD2    C4 7820   0.016   3.895   9.816 -0.0186  0.8969  0.3015
  523MPD2    C5 7821   0.134   3.873   9.872  0.1123 -0.4070  0.0070
  523MPD2     H 7822   4.633   3.593   9.768 -1.1980  0.9328  1.2474
  523MPD2    H1 7823   4.731   3.998   9.793 -1.0703  0.9133  1.4339
  523MPD2    H2 7824   0.268   3.730   9.933  0.5747 -0.1174 -0.1788
  523MPD2    H3 7825   0.199   3.955   9.900  2.2296 -2.5949  1.3924
  523MPD2     N 7826   4.556   3.845   9.707  0.2301  0.7108 -0.0238
  523MPD2    H5 7827   4.562   3.944   9.686  0.6568  0.8800  0.9088
  523MPD2    N1 7828   0.128   3.506   9.911  0.2782  0.2158  0.1418
  523MPD2    H7 7829   0.229   3.500   9.922  0.1931 -0.0566  0.7537
  524TMC3    C1 7830   4.371   3.838   9.559  0.6389  0.0464  0.2329
  524TMC3    C2 7831   4.302   3.763   9.462  0.4806  0.3310 -0.2738
  524TMC3    C3 7832   4.242   3.836   9.361  0.1405 -0.9135 -1.0942
  524TMC3    C4 7833   4.354   3.973   9.566 -0.2957  0.1485 -0.4682
  524TMC3    C5 7834   4.288   4.037   9.460  0.1623 -0.8032 -0.4767
  524TMC3    C6 7835   4.232   3.970   9.359  0.1049 -0.0611  0.5860
  524TMC3     C 7836   4.470   3.771   9.643 -0.1220  0.5810 -0.2366
  524TMC3     O 7837   4.465   3.650   9.637 -0.0280 -0.0148  0.3012
  524TMC3     H 7838   4.297   3.655   9.469  0.0537  0.2962 -1.1544
  524TMC3    H1 7839   4.393   4.026   9.652  1.5900 -0.1038 -1.1870
  524TMC3    H2 7840   4.184   4.016   9.274  0.4746  0.7572  0.8210
  524TMC3    C7 7841   4.312   4.180   9.444  0.0293 -0.4564  0.5412
  524TMC3    C8 7842   4.158   3.759   9.271  0.3402  0.5635  0.9569
  524TMC3    O1 7843   4.407   4.225   9.509 -0.1919 -0.1325  0.3133
  524TMC3    O2 7844   4.069   3.824   9.210 -0.3075 -0.1027  0.1346
  525MPD2     C 7845   3.054   4.614  14.208  0.0108  0.0743 -0.2321
  525MPD2    C1 7846   3.139   4.636  14.314  0.0441 -0.1115 -0.5137
  525MPD2    C2 7847   3.213   0.017  14.309  0.3299 -0.9963  0.2851
  525MPD2    C3 7848   3.190   0.120  14.215 -0.0453  0.3039  0.5907
  525MPD2    C4 7849   3.105   0.089  14.110 -0.6743 -0.4220  0.0256
  525MPD2    C5 7850   3.048   4.703  14.103  0.3980  0.5366 -0.1906
  525MPD2     H 7851   3.269   0.048  14.396  1.6793  1.6072 -1.5232
  525MPD2    H1 7852   3.084   0.167  14.037  0.1440  1.7084  2.0564
  525MPD2    H2 7853   3.007   4.516  14.205  1.2817 -0.5892  1.4370
  525MPD2    H3 7854   2.972   4.682  14.029  0.8787  2.6375 -1.2617
  525MPD2     N 7855   3.233   0.256  14.231  0.7718  0.1157 -0.1231
  525MPD2    H5 7856   3.183   0.326  14.177  0.7008 -1.0847 -1.6040
  525MPD2    N1 7857   3.147   4.559  14.429 -0.3503 -0.6848  0.7609
  525MPD2    H7 7858   3.208   4.590  14.505  0.6218 -0.1042 -0.2531
  526TMC3    C1 7859   3.112   4.414  14.604 -0.0023 -0.6487 -0.9681
  526TMC3    C2 7860   3.014   4.397  14.694 -0.3477 -0.6462  0.0373
  526TMC3    C3 7861   3.038   4.332  14.809 -0.3376  0.2495 -0.7929
  526TMC3    C4 7862   3.247   4.375  14.617  0.4583  0.4227  0.0726
  526TMC3    C5 7863   3.276   4.325  14.745 -0.0884  0.2293  0.6825
  526TMC3    C6 7864   3.172   4.305  14.835  0.2701 -0.2100 -0.5209
  526TMC3     C 7865   3.073   4.451  14.474  0.6200  0.2248 -0.0203
  526TMC3     O 7866   2.975   4.406  14.424 -0.0289  0.4201  0.6110
  526TMC3     H 7867   2.915   4.424  14.659 -1.1195 -2.8448  0.4934
  526TMC3    H1 7868   3.325   4.404  14.548 -0.5309 -1.1090 -1.6922
  526TMC3    H2 7869   3.206   4.266  14.930 -1.0928  2.2381  0.9810
  526TMC3    C7 7870   3.411   4.282  14.781 -0.2116 -0.7277 -0.2393
  526TMC3    C8 7871   2.969   4.391  14.927  0.0671 -0.2640 -0.4140
  526TMC3    O1 7872   3.439   4.292  14.896 -0.4997  0.2356 -0.2357
  526TMC3    O2 7873   3.031   4.395  15.035 -0.7421 -0.2373 -0.5307
  527MPD2     C 7874   0.504   2.815   1.145  0.6411  0.1419  0.3103
  527MPD2    C1 7875   0.549   2.911   1.057  0.0667 -0.2600  0.2538
  527MPD2    C2 7876   0.687   2.939   1.042 -0.2744 -0.3480  0.0271
  527MPD2    C3 7877   0.776   2.845   1.103 -0.8896 -0.2649  0.0257
  527MPD2    C4 7878   0.727   2.739   1.186 -0.3027 -0.4549  1.1418
  527MPD2    C5 7879   0.590   2.724   1.201 -0.0735 -0.5291  0.6391
  527MPD2     H 7880   0.718   3.026   0.986  1.6044  0.0448  1.6621
  527MPD2    H1 7881   0.792   2.661   1.224  0.1252 -0.6619 -0.0273
  527MPD2    H2 7882   0.398   2.799   1.156  0.6967  0.0993  0.8018
  527MPD2    H3 7883   0.552   2.640   1.259  1.9471 -1.3274  0.8082
  527MPD2     N 7884   0.916   2.861   1.073 -0.7736 -0.2047 -0.4884
  527MPD2    H5 7885   0.938   2.947   1.023 -1.3792  1.7979  2.7068
  527MPD2    N1 7886   0.459   2.993   0.979  0.5384  0.3531 -0.4662
  527MPD2    H7 7887   0.499   3.071   0.929 -0.1882  1.1542  0.2055
  528TMC3    C1 7888   0.263   3.021   0.850  0.6491  0.1045  0.1472
  528TMC3    C2 7889   0.327   3.130   0.794  0.0103 -0.3742 -0.8318
  528TMC3    C3 7890   0.275   3.181   0.676  0.3510  0.5032 -0.3599
  528TMC3    C4 7891   0.156   2.962   0.790  0.9121  0.2106  0.1714
  528TMC3    C5 7892   0.120   3.007   0.670  0.6689 -0.0808  0.9533
  528TMC3    C6 7893   0.175   3.119   0.607 -0.4154  0.0965  0.7710
  528TMC3     C 7894   0.320   2.963   0.969  0.2441 -0.0682 -0.1470
  528TMC3     O 7895   0.256   2.873   1.017 -0.1515 -0.1452  0.2489
  528TMC3     H 7896   0.394   3.194   0.851 -0.7238  0.5428 -1.0006
  528TMC3    H1 7897   0.105   2.878   0.836 -0.2898 -1.0943 -3.5627
  528TMC3    H2 7898   0.136   3.156   0.513 -3.8708 -1.9135  1.4199
  528TMC3    C7 7899   0.051   2.919   0.568  1.1230 -0.5813  0.6293
  528TMC3    C8 7900   0.328   3.305   0.622 -0.2785 -0.3622  0.1110
  528TMC3    O1 7901   0.002   2.965   0.464  0.2748 -0.5154 -0.0565
  528TMC3    O2 7902   0.440   3.335   0.656  0.6834  0.2433  0.2880
  529MPD2     C 7903   3.089   1.430   1.019  0.3628  0.2081  0.0505
  529MPD2    C1 7904   3.211   1.422   0.954  0.1898 -0.4398  0.3731
  529MPD2    C2 7905   3.245   1.525   0.867  0.0326  0.0209  0.2517
  529MPD2    C3 7906   3.163   1.628   0.831 -0.3324 -0.7183 -0.1562
  529MPD2    C4 7907   3.037   1.625   0.887  0.2548 -0.4868  0.5416
  529MPD2    C5 7908   3.002   1.528   0.980 -0.1011 -0.3404 -0.8254
  529MPD2     H 7909   3.343   1.518   0.822 -1.4829 -0.2544 -3.0745
  529MPD2    H1 7910   2.965   1.703   0.865  1.8277  1.3439  1.9261
  529MPD2    H2 7911   3.065   1.363   1.101 -0.2545  0.6986  0.2749
  529MPD2    H3 7912   2.901   1.532   1.020 -1.3605 -1.0632 -3.8618
  529MPD2     N 7913   3.188   1.734   0.745 -0.4288  0.7043  0.0641
  529MPD2    H5 7914   3.104   1.785   0.720  0.3927  1.7518 -0.5634
  529MPD2    N1 7915   3.306   1.316   0.982  0.1716 -0.0448 -0.1572
  529MPD2    H7 7916   3.401   1.332   0.949 -0.7698  2.0183 -1.8456
  530TMC3    C1 7917   3.393   1.108   1.055 -0.2353  0.6468 -0.0456
  530TMC3    C2 7918   3.514   1.133   0.989 -0.3847 -0.1331 -0.1041
  530TMC3    C3 7919   3.618   1.046   1.001 -0.0622  0.2181  0.0157
  530TMC3    C4 7920   3.371   0.991   1.123 -0.1761 -0.6713 -0.2718
  530TMC3    C5 7921   3.481   0.914   1.135 -0.1759 -1.0352  0.2270
  530TMC3    C6 7922   3.605   0.934   1.072 -0.1017 -0.0449  0.3023
  530TMC3     C 7923   3.282   1.197   1.057  0.1415  0.2396 -0.0747
  530TMC3     O 7924   3.172   1.160   1.101  0.3882 -0.2399  0.2111
  530TMC3     H 7925   3.523   1.218   0.923 -0.4867 -1.4926 -1.8917
  530TMC3    H1 7926   3.284   0.970   1.185  0.0791  1.9287  0.9503
  530TMC3    H2 7927   3.689   0.867   1.087 -0.1482 -0.1582  0.0574
  530TMC3    C7 7928   3.485   0.797   1.217  0.6849  0.0554  0.4248
  530TMC3    C8 7929   3.744   1.109   0.983  0.4311 -0.5555  0.1654
  530TMC3    O1 7930   3.593   0.743   1.229 -0.1521 -0.3699  0.1407
  530TMC3    O2 7931   3.740   1.228   1.006  0.2853 -0.4855  0.0857
  531MPD2     C 7932   1.819   3.482  12.699 -0.2138  0.0255  0.1997
  531MPD2    C1 7933   1.758   3.543  12.806 -0.1802  0.6358 -0.4526
  531MPD2    C2 7934   1.659   3.645  12.778 -0.0421 -0.0404  0.2122
  531MPD2    C3 7935   1.625   3.675  12.643  0.3471 -0.4856  1.3425
  531MPD2    C4 7936   1.687   3.608  12.545 -0.5022 -0.3958  0.8253
  531MPD2    C5 7937   1.785   3.519  12.572  0.2008  0.0874  0.2055
  531MPD2     H 7938   1.616   3.690  12.866 -0.2383 -1.7861  1.0240
  531MPD2    H1 7939   1.677   3.632  12.440 -2.0350  1.0291  1.3037
  531MPD2    H2 7940   1.887   3.399  12.714  0.3167  0.5937  0.9664
  531MPD2    H3 7941   1.839   3.472  12.490  0.9856  2.6374 -0.7445
  531MPD2     N 7942   1.521   3.766  12.610  0.1193  0.6715 -0.2242
  531MPD2    H5 7943   1.503   3.786  12.512 -0.0591 -1.1325 -0.5669
  531MPD2    N1 7944   1.793   3.513  12.939  0.2179 -0.1101 -0.5010
  531MPD2    H7 7945   1.875   3.455  12.952 -0.5939 -1.0892  0.1926
  532TMC3    C1 7946   1.802   3.541  13.178 -0.7738  0.7246 -0.4770
  532TMC3    C2 7947   1.718   3.574  13.286  0.3166  0.0102 -0.1450
  532TMC3    C3 7948   1.774   3.644  13.388  0.2892  0.2182  0.0073
  532TMC3    C4 7949   1.931   3.578  13.176 -0.0179  0.6164 -0.3797
  532TMC3    C5 7950   1.985   3.636  13.294 -0.7218  0.3941 -0.0536
  532TMC3    C6 7951   1.907   3.676  13.398  0.1233  0.3769 -0.4968
  532TMC3     C 7952   1.732   3.560  13.050  0.1163  0.1568  0.1847
  532TMC3     O 7953   1.625   3.619  13.066  0.5647  0.2311  0.5610
  532TMC3     H 7954   1.621   3.527  13.284 -0.1082  0.9371 -1.4519
  532TMC3    H1 7955   1.985   3.568  13.083  3.1935 -0.4856  1.6122
  532TMC3    H2 7956   1.952   3.740  13.474  1.1899 -2.2629  1.0823
  532TMC3    C7 7957   2.131   3.631  13.320 -0.8795 -0.2532  0.2254
  532TMC3    C8 7958   1.694   3.766  13.412  0.6233  0.3896  0.0134
  532TMC3    O1 7959   2.185   3.699  13.410 -0.3451 -0.2540  0.0315
  532TMC3    O2 7960   1.716   3.835  13.514 -0.3812 -0.1894  0.0079
  533TMC3    C1 7961   3.305   0.441  14.353 -0.2617 -0.1124 -0.1373
  533TMC3    C2 7962   3.420   0.507  14.389  0.1690 -1.2274 -1.0175
  533TMC3    C3 7963   3.400   0.634  14.425  0.8085 -0.2574  0.7984
  533TMC3    C4 7964   3.176   0.488  14.381 -0.0658  0.3704  0.0131
  533TMC3    C5 7965   3.163   0.612  14.438 -0.1257  0.1079 -0.5098
  533TMC3    C6 7966   3.274   0.687  14.442 -0.4218 -0.3938 -0.1610
  533TMC3     C 7967   3.301   0.297  14.346  0.0422 -0.1620 -0.5469
  533TMC3     O 7968   3.359   0.231  14.432 -0.6603 -0.2545  0.2049
  533TMC3     H 7969   3.511   0.449  14.397  0.5494 -0.4903 -0.1242
  533TMC3    H1 7970   3.082   0.435  14.367  0.3149 -0.5206  0.8019
  533TMC3    H2 7971   3.273   0.794  14.460  2.9418 -0.4715  0.6162
  533TMC3    C7 7972   3.076   0.606  14.556  1.0814 -0.0657 -0.1432
  533TMC3    C8 7973   3.514   0.705  14.473  0.3623  0.0673 -0.5345
  533TMC3    O1 7974   3.034   0.490  14.576 -0.7344 -0.1424  0.6547
  533TMC3    O2 7975   3.618   0.638  14.490 -0.3287  0.0992 -0.4591
  534MPD2     C 7976   1.932   0.984   0.831  0.4348  0.3437 -0.2053
  534MPD2    C1 7977   1.889   1.062   0.933  0.6075  0.3019 -0.2998
  534MPD2    C2 7978   1.756   1.078   0.954 -0.5902  0.1698  0.5683
  534MPD2    C3 7979   1.669   1.009   0.866  0.4586  0.2437  0.1689
  534MPD2    C4 7980   1.716   0.948   0.756  0.1124  0.4203 -0.4181
  534MPD2    C5 7981   1.846   0.928   0.747 -0.0397  0.0815 -0.3147
  534MPD2     H 7982   1.720   1.134   1.039  1.8267 -1.1717  2.4699
  534MPD2    H1 7983   1.648   0.909   0.682 -2.3069  1.1015  1.4677
  534MPD2    H2 7984   2.038   0.976   0.806  0.5183 -0.8947  0.5362
  534MPD2    H3 7985   1.887   0.879   0.659 -0.7474 -0.4228 -0.3631
  534MPD2     N 7986   1.529   1.019   0.865 -0.2358  0.3711 -0.6002
  534MPD2    H5 7987   1.473   0.975   0.793  0.4496 -0.4899 -0.6093
  534MPD2    N1 7988   1.970   1.154   1.004  0.0798 -0.0898 -0.5725
  534MPD2    H7 7989   1.919   1.217   1.065  0.2926 -1.6411  1.2296
  535TMC3    C1 7990   1.323   1.050   0.962 -0.3442 -0.0944  0.5733
  535TMC3    C2 7991   1.262   1.082   1.075 -0.1712  0.0716 -0.2474
  535TMC3    C3 7992   1.151   1.167   1.070 -0.1329 -0.2167 -0.6672
  535TMC3    C4 7993   1.288   1.112   0.840 -0.4619  0.4069  0.0933
  535TMC3    C5 7994   1.187   1.202   0.837 -0.4259  0.1104  0.1891
  535TMC3    C6 7995   1.115   1.231   0.956 -0.2649  0.0630 -0.1922
  535TMC3     C 7996   1.461   1.054   0.980  0.3800 -0.1535 -0.7507
  535TMC3     O 7997   1.502   1.089   1.089  0.2040  0.8366 -0.9449
  535TMC3     H 7998   1.285   1.038   1.172 -0.2813 -2.3659 -1.3447
  535TMC3    H1 7999   1.345   1.111   0.747  0.7603  0.1676  0.8534
  535TMC3    H2 8000   1.029   1.297   0.964 -1.4417 -1.2291 -2.2424
  535TMC3    C7 8001   1.133   1.252   0.710  0.1539 -0.3054  0.0922
  535TMC3    C8 8002   1.036   1.141   1.160  0.3813 -0.2108 -0.7427
  535TMC3    O1 8003   1.166   1.182   0.611  0.1183  0.2478  0.2863
  535TMC3    O2 8004   0.925   1.153   1.106 -0.6159  0.0481  0.2206
  536MPD2     C 8005   4.326   4.697  15.881 -0.4401 -0.7871 -0.3562
  536MPD2    C1 8006   4.218   4.611  15.887  0.1834  0.3868  0.0200
  536MPD2    C2 8007   4.146   4.586  15.775 -0.0907 -0.0243  0.2594
  536MPD2    C3 8008   4.183   4.647  15.654 -0.1489 -0.0964  0.5204
  536MPD2    C4 8009   4.294   4.729  15.646 -0.1525  0.3977 -0.7793
  536MPD2    C5 8010   4.358   0.024  15.766  0.0157 -0.3158 -0.4853
  536MPD2     H 8011   4.065   4.515  15.783  0.1054 -0.1877  0.7806
  536MPD2    H1 8012   4.318   0.045  15.555 -0.0959  0.6091 -0.6418
  536MPD2    H2 8013   4.385   4.727  15.967  1.3139  3.8020 -3.1361
  536MPD2    H3 8014   4.428   0.107  15.771  2.3164 -2.2381 -0.6845
  536MPD2     N 8015   4.106   4.641  15.535 -0.1011 -0.2398 -0.0061
  536MPD2    H5 8016   4.132   4.706  15.462 -1.4081  2.1449  1.6426
  536MPD2    N1 8017   4.181   4.577  16.019 -0.1640  0.0927 -0.3096
  536MPD2    H7 8018   4.244   4.600  16.095  0.2669 -0.9027 -0.3595
  537TMC3    C1 8019   4.071   4.481  16.197  0.2010  0.9468 -0.1867
  537TMC3    C2 8020   4.066   4.593  16.273  0.1520  0.1494  0.6778
  537TMC3    C3 8021   4.009   4.578  16.399  0.1516  0.0931 -0.6521
  537TMC3    C4 8022   4.023   4.354  16.232  0.3423 -0.2485 -0.4867
  537TMC3    C5 8023   3.976   4.348  16.359  0.0231  0.3557  0.6564
  537TMC3    C6 8024   3.967   4.456  16.444  0.2858  0.6443  0.0724
  537TMC3     C 8025   4.080   4.494  16.054 -0.0553  0.0829 -0.2670
  537TMC3     O 8026   3.998   4.435  15.992 -0.9285 -0.3685  0.2798
  537TMC3     H 8027   4.107   4.687  16.239 -0.3481  0.2805  0.4276
  537TMC3    H1 8028   4.028   4.270  16.163 -0.4483 -0.5295 -0.2003
  537TMC3    H2 8029   3.951   4.440  16.549  0.4357  1.1876  0.1773
  537TMC3    C7 8030   3.905   4.224  16.384 -0.2079  0.6606 -0.1126
  537TMC3    C8 8031   4.063   4.676  16.489  0.0045 -0.7512  0.6254
  537TMC3    O1 8032   3.866   4.172  16.281  0.4291  0.5792 -0.0560
  537TMC3    O2 8033   4.086   4.637  16.604  0.6886 -0.3816  0.0603
  538TMC3    C1 8034   0.671   3.167  10.938  0.6861  0.0251  0.0556
  538TMC3    C2 8035   0.795   3.132  10.894  0.7040 -0.4584 -0.0099
  538TMC3    C3 8036   0.809   3.131  10.763  0.5877 -0.8391  0.1434
  538TMC3    C4 8037   0.565   3.210  10.861 -0.6282 -0.1849 -0.5238
  538TMC3    C5 8038   0.585   3.203  10.726  0.4180 -0.0258 -0.1778
  538TMC3    C6 8039   0.708   3.168  10.676 -0.1766 -0.8799 -0.4863
  538TMC3     C 8040   0.663   3.233  11.075 -0.1256  0.4985 -0.1820
  538TMC3     O 8041   0.553   3.255  11.121  0.2067 -0.4207  0.0395
  538TMC3     H 8042   0.873   3.094  10.959 -0.3638  0.3305  1.7391
  538TMC3    H1 8043   0.475   3.250  10.906  0.5075  0.9911  0.7303
  538TMC3    H2 8044   0.721   3.154  10.569  1.0577  0.7535 -0.5477
  538TMC3    C7 8045   0.494   3.281  10.647  0.1230  0.5969 -0.2836
  538TMC3    C8 8046   0.919   3.051  10.713  0.1372 -0.1827 -0.5235
  538TMC3    O1 8047   0.377   3.287  10.680  0.2496  0.0983 -0.8590
  538TMC3    O2 8048   0.955   2.954  10.781 -0.0651  0.4544 -0.4274
  539MPD2     C 8049   0.918   2.860  11.358 -0.4789 -0.0625  0.3540
  539MPD2    C1 8050   0.855   2.763  11.283 -0.5537  0.1449  0.5240
  539MPD2    C2 8051   0.732   2.793  11.233  0.0012 -0.0605 -0.2143
  539MPD2    C3 8052   0.683   2.919  11.242  0.0712 -0.4347 -0.3550
  539MPD2    C4 8053   0.739   3.019  11.317  0.2114 -0.3376  0.0729
  539MPD2    C5 8054   0.857   2.986  11.375 -0.0882 -0.1727 -0.5087
  539MPD2     H 8055   0.680   2.724  11.167 -1.0988  0.0678  0.5358
  539MPD2    H1 8056   0.693   3.114  11.343 -2.5246 -1.5214 -0.3796
  539MPD2    H2 8057   1.015   2.847  11.404 -0.0279  0.7630 -0.3503
  539MPD2    H3 8058   0.904   3.059  11.440  0.7146 -0.7087 -0.4945
  539MPD2     N 8059   0.559   2.953  11.188  0.2873  0.6012  0.2654
  539MPD2    H5 8060   0.543   3.052  11.205  0.0553  1.0034 -2.2366
  539MPD2    N1 8061   0.907   2.632  11.287  0.0192  0.0325 -0.4932
  539MPD2    H7 8062   0.994   2.622  11.337 -0.4971 -0.7604  0.2489
  540TMC3    C1 8063   0.365   2.948  11.049 -0.1806  0.0640  0.6482
  540TMC3    C2 8064   0.302   2.904  10.933  0.3784  0.3782  0.2112
  540TMC3    C3 8065   0.175   2.949  10.915  0.1956 -0.3158 -0.2437
  540TMC3    C4 8066   0.301   3.031  11.138 -0.3307  0.2375  0.2185
  540TMC3    C5 8067   0.170   3.067  11.118 -0.1023  0.3881 -0.0886
  540TMC3    C6 8068   0.109   3.030  10.999  0.6203 -0.1303  0.2420
  540TMC3     C 8069   0.486   2.884  11.088  0.4695  0.1589  0.0574
  540TMC3     O 8070   0.516   2.779  11.036  0.1034 -0.1115  0.0693
  540TMC3     H 8071   0.342   2.825  10.869  1.8242  2.4759 -1.4852
  540TMC3    H1 8072   0.344   3.060  11.233  0.6567  2.0061 -0.7688
  540TMC3    H2 8073   0.014   3.075  10.973  0.3445 -1.0992 -0.4356
  540TMC3    C7 8074   0.087   3.098  11.232  0.0354 -0.3597  0.5189
  540TMC3    C8 8075   0.093   2.897  10.807  0.0967  0.3514 -0.2751
  540TMC3    O1 8076   4.734   3.019  11.256 -0.1622 -0.1772  0.4232
  540TMC3    O2 8077   4.710   2.918  10.803  0.3000  0.0528 -0.0113
  541MPD2     C 8078   3.232   3.939  13.172 -0.2440 -0.2368 -0.2372
  541MPD2    C1 8079   3.261   3.882  13.051  0.1346 -1.4235  0.1175
  541MPD2    C2 8080   3.292   3.958  12.943  0.0169  0.1840  0.1684
  541MPD2    C3 8081   3.290   4.091  12.954  0.1204  0.3325 -0.1978
  541MPD2    C4 8082   3.243   4.145  13.064  0.2812  0.0573 -0.4766
  541MPD2    C5 8083   3.217   4.073  13.177 -0.8342  0.0666 -0.4154
  541MPD2     H 8084   3.311   3.919  12.843  1.2935  0.3057  0.3565
  541MPD2    H1 8085   3.247   4.254  13.071 -2.6437  0.2225 -1.1760
  541MPD2    H2 8086   3.194   3.879  13.254  1.2138  0.2702  0.8064
  541MPD2    H3 8087   3.175   4.124  13.263  1.1085 -1.9143  1.7155
  541MPD2     N 8088   3.320   4.178  12.841  0.3775  0.1627  0.1019
  541MPD2    H5 8089   3.258   4.259  12.841  2.8951  2.0970 -1.7053
  541MPD2    N1 8090   3.266   3.741  13.057 -0.4283  0.3867  0.1849
  541MPD2    H7 8091   3.264   3.706  13.152 -1.2639  0.2347  0.1159
  542TMC3    C1 8092   3.411   4.234  12.629  0.1442  0.1791  0.2027
  542TMC3    C2 8093   3.443   4.167  12.516 -0.2207  0.0458 -0.4089
  542TMC3    C3 8094   3.427   4.236  12.400  0.1910 -0.4070 -0.0597
  542TMC3    C4 8095   3.358   4.364  12.634 -0.6159 -0.6294  0.6192
  542TMC3    C5 8096   3.368   4.428  12.516 -0.4536 -0.4690 -0.2196
  542TMC3    C6 8097   3.391   4.364  12.403 -0.0302  0.3981  0.7150
  542TMC3     C 8098   3.409   4.145  12.742 -0.8124 -0.2468 -0.4145
  542TMC3     O 8099   3.497   4.058  12.741 -0.0685 -0.3048 -0.4992
  542TMC3     H 8100   3.452   4.059  12.517  0.3769  0.0812 -1.3298
  542TMC3    H1 8101   3.353   4.427  12.723 -0.2000 -0.7459  0.7259
  542TMC3    H2 8102   3.413   4.428  12.318 -1.0529  0.0778  0.2106
  542TMC3    C7 8103   3.304   4.556  12.509 -0.2872  0.6107 -0.3662
  542TMC3    C8 8104   3.489   4.192  12.276 -0.3264  0.4579  0.2427
  542TMC3    O1 8105   3.324   4.623  12.612 -0.2062 -0.5653 -0.0884
  542TMC3    O2 8106   3.527   4.282  12.200  0.0090 -0.0192  0.1092
  543TMC3    C1 8107   2.970   1.077  16.750  0.1983 -0.9096 -0.1452
  543TMC3    C2 8108   2.998   1.009  16.869 -0.4721 -0.0175  0.6207
  543TMC3    C3 8109   2.989   1.073  16.991  0.0358 -0.2936 -0.0838
  543TMC3    C4 8110   2.922   1.206  16.748  0.2746 -0.6275 -0.2114
  543TMC3    C5 8111   2.913   1.262  16.867 -0.0635 -0.7460  0.5715
  543TMC3    C6 8112   2.940   1.198  16.989  0.3437 -0.3673  0.7845
  543TMC3     C 8113   3.042   1.035  16.641  0.5030 -0.4907  0.2963
  543TMC3     O 8114   3.149   0.978  16.655  0.0052 -0.1194 -0.1001
  543TMC3     H 8115   3.058   0.921  16.853  0.9800  1.0809  0.0522
  543TMC3    H1 8116   2.908   1.262  16.656 -0.8521 -1.4906 -0.5675
  543TMC3    H2 8117   2.939   1.248  17.086 -2.1332 -0.1721  0.6665
  543TMC3    C7 8118   2.856   1.392  16.872 -0.3073 -0.3771  0.1568
  543TMC3    C8 8119   3.001   0.987  17.106  0.6639  0.2705  0.2070
  543TMC3    O1 8120   2.808   1.437  16.769  0.1005  0.1500  0.1976
  543TMC3    O2 8121   3.072   0.890  17.092 -0.1218  0.9063 -0.2732
  544MPD2     C 8122   2.987   0.914  17.599 -0.8289 -0.6998  0.4637
  544MPD2    C1 8123   2.986   0.821  17.502 -0.3708 -0.6090  0.7003
  544MPD2    C2 8124   2.969   0.867  17.374 -0.7597 -0.3313  0.3789
  544MPD2    C3 8125   2.967   1.002  17.351 -0.5147 -0.6387 -0.1732
  544MPD2    C4 8126   2.961   1.098  17.449 -0.0568 -0.3495 -0.5265
  544MPD2    C5 8127   2.967   1.051  17.578 -0.7866  0.1241  0.0375
  544MPD2     H 8128   2.967   0.796  17.291 -0.6980  0.9674 -0.7395
  544MPD2    H1 8129   2.960   1.203  17.422 -3.2263 -0.5777 -1.3399
  544MPD2    H2 8130   2.999   0.872  17.699  1.3199 -1.2647 -0.0410
  544MPD2    H3 8131   2.972   1.113  17.667  0.7318  0.9901 -0.6591
  544MPD2     N 8132   2.964   1.054  17.220  0.1338  0.1727 -0.1083
  544MPD2    H5 8133   2.924   1.147  17.213  0.4210  0.2080 -1.4000
  544MPD2    N1 8134   2.990   0.692  17.551 -0.6845 -0.5264  0.0268
  544MPD2    H7 8135   2.962   0.680  17.648  0.7427 -1.7397  0.2809
  545TMC3    C1 8136   3.021   0.450  17.521  0.9212  1.0081  0.5482
  545TMC3    C2 8137   3.047   0.345  17.436 -0.2013 -0.2528  0.5642
  545TMC3    C3 8138   3.075   0.218  17.479  0.2257 -0.0905  0.2285
  545TMC3    C4 8139   3.009   0.425  17.653 -0.5592 -0.1059  0.1289
  545TMC3    C5 8140   3.047   0.300  17.698  0.2192  0.1251  0.3674
  545TMC3    C6 8141   3.078   0.194  17.620  0.5878  0.3517 -0.0669
  545TMC3     C 8142   3.020   0.586  17.463  0.1048  0.1630  0.1419
  545TMC3     O 8143   3.056   0.591  17.346 -0.2773  0.2934 -0.3109
  545TMC3     H 8144   3.065   0.375  17.334 -1.8368 -2.6399 -0.4376
  545TMC3    H1 8145   2.993   0.500  17.730 -1.7001  0.3611 -0.5612
  545TMC3    H2 8146   3.094   0.100  17.672  1.0115  0.2583 -0.3618
  545TMC3    C7 8147   3.043   0.279   0.097  0.1005  0.3615 -0.0836
  545TMC3    C8 8148   3.075   0.100  17.392  0.0783 -0.8514  0.3273
  545TMC3    O1 8149   2.977   0.361   0.159 -0.2413  0.0719 -0.4096
  545TMC3    O2 8150   3.058   4.729  17.447 -0.4567 -0.1947  0.0624
  546MPD2     C 8151   4.539   0.479  17.268 -0.0648  0.6704  0.2001
  546MPD2    C1 8152   4.438   0.550  17.204 -0.2679  0.0305  0.8134
  546MPD2    C2 8153   4.468   0.672  17.146  0.5490  0.2913  0.1672
  546MPD2    C3 8154   4.591   0.726  17.163  0.5231 -0.4708 -0.5135
  546MPD2    C4 8155   4.685   0.662  17.238  0.0271  0.2009 -0.2406
  546MPD2    C5 8156   4.660   0.536  17.285 -0.1458  0.2798  0.0310
  546MPD2     H 8157   4.385   0.731  17.108 -0.5536 -0.1132  1.9852
  546MPD2    H1 8158   0.047   0.695  17.265  0.0580  0.1772 -0.3270
  546MPD2    H2 8159   4.532   0.376  17.300 -1.8272  0.7392  0.0496
  546MPD2    H3 8160   4.733   0.480  17.343  0.3121  2.8819  1.9943
  546MPD2     N 8161   4.618   0.861  17.120  0.1740  0.5860  0.8502
  546MPD2    H5 8162   4.714   0.887  17.144 -0.4762  0.5763  3.5283
  546MPD2    N1 8163   4.317   0.478  17.173 -0.2875 -0.4015 -0.0966
  546MPD2    H7 8164   4.307   0.387  17.216  1.9507 -0.1790  0.9047
  547TMC3    C1 8165   4.123   0.413  17.044 -0.4906  0.0921  0.1723
  547TMC3    C2 8166   4.054   0.426  16.924  0.4134 -0.4677  0.2629
  547TMC3    C3 8167   3.965   0.328  16.898  0.2556  1.3928  0.4561
  547TMC3    C4 8168   4.102   0.310  17.137 -0.7834  0.7877  0.1773
  547TMC3    C5 8169   4.007   0.215  17.100 -0.0666  0.3958  0.0845
  547TMC3    C6 8170   3.940   0.220  16.980  0.2916 -0.5566  0.3505
  547TMC3     C 8171   4.227   0.512  17.074  0.4658  0.4014  0.1756
  547TMC3     O 8172   4.235   0.611  17.001 -0.0985 -0.2813 -0.4951
  547TMC3     H 8173   4.085   0.498  16.849 -0.1463  0.5786  1.0402
  547TMC3    H1 8174   4.126   0.328  17.241 -1.8033 -0.3818  0.6065
  547TMC3    H2 8175   3.863   0.147  16.959 -0.8300  1.2207 -1.7378
  547TMC3    C7 8176   3.977   0.104  17.190 -0.7979  0.0286 -0.9519
  547TMC3    C8 8177   3.897   0.342  16.776  1.8062 -0.2826 -0.3540
  547TMC3    O1 8178   4.004   0.129  17.308  0.1434 -0.0947  0.5359
  547TMC3    O2 8179   3.895   0.448  16.718 -0.2739 -0.0979 -0.0570
  548MPD2     C 8180   4.287   0.907  12.740  0.0858  0.1913  0.0518
  548MPD2    C1 8181   4.191   0.803  12.743  0.0680  0.8061  0.3548
  548MPD2    C2 8182   4.248   0.677  12.740  0.7294 -0.3582  0.1022
  548MPD2    C3 8183   4.379   0.652  12.774  0.3269 -1.1445  0.4946
  548MPD2    C4 8184   4.473   0.759  12.775  0.1395  0.4343 -0.8629
  548MPD2    C5 8185   4.419   0.881  12.754 -0.0129 -0.1316 -0.1291
  548MPD2     H 8186   4.185   0.589  12.740  1.0962 -0.6214 -3.8630
  548MPD2    H1 8187   4.578   0.746  12.796 -0.0411  1.2308  0.5041
  548MPD2    H2 8188   4.261   1.010  12.715  1.6251  0.9340  1.5070
  548MPD2    H3 8189   4.481   0.970  12.751 -1.8359  1.1152 -1.3944
  548MPD2     N 8190   4.412   0.519  12.798  0.0073 -0.0925 -0.0283
  548MPD2    H5 8191   4.339   0.449  12.805 -0.5328  0.5238  0.4376
  548MPD2    N1 8192   4.053   0.834  12.744  0.5033  0.0512 -0.2493
  548MPD2    H7 8193   4.030   0.933  12.749 -2.2303 -0.4963 -1.9133
  549TMC3    C1 8194   3.818   0.790  12.717  0.0868 -0.0723 -0.0023
  549TMC3    C2 8195   3.790   0.925  12.686 -0.2721 -0.5054 -0.0220
  549TMC3    C3 8196   3.664   0.957  12.648 -0.2036 -0.1594  0.3182
  549TMC3    C4 8197   3.717   0.697  12.708  0.0657  0.0582  0.2132
  549TMC3    C5 8198   3.596   0.735  12.651  0.6472  0.6105 -0.6728
  549TMC3    C6 8199   3.568   0.865  12.628  0.7304  0.0154 -0.2427
  549TMC3     C 8200   3.955   0.737  12.731 -0.0464 -0.8273  0.2530
  549TMC3     O 8201   3.970   0.621  12.705  0.2613 -0.3153  0.0571
  549TMC3     H 8202   3.869   0.999  12.684  0.2577 -1.1045 -1.3041
  549TMC3    H1 8203   3.755   0.596  12.715 -2.1539 -0.7422  0.6266
  549TMC3    H2 8204   3.472   0.902  12.593 -1.3863 -2.4901  2.9168
  549TMC3    C7 8205   3.481   0.665  12.682  0.2380  0.0685  0.4202
  549TMC3    C8 8206   3.636   1.094  12.601  0.0573 -1.2821  0.3688
  549TMC3    O1 8207   3.377   0.699  12.624  0.1926  0.6153  0.1307
  549TMC3    O2 8208   3.520   1.112  12.562  0.5417  0.2501  0.7344
  550TMC3    C1 8209   2.667   4.460  12.188 -0.3443 -0.8504 -0.1324
  550TMC3    C2 8210   2.582   4.487  12.286 -0.3612 -0.3626  0.0000
  550TMC3    C3 8211   2.491   4.584  12.259 -1.0347  0.1557  0.3659
  550TMC3    C4 8212   2.653   4.513  12.059 -0.5408  0.4971 -0.5683
  550TMC3    C5 8213   2.544   4.590  12.035  0.1779 -0.3688 -0.2280
  550TMC3    C6 8214   2.468   4.636  12.132  0.0481 -0.0366 -0.6251
  550TMC3     C 8215   2.773   4.356  12.208 -0.6471 -0.3428 -0.4217
  550TMC3     O 8216   2.867   4.352  12.129 -1.2738  0.0427 -0.0857
  550TMC3     H 8217   2.600   4.462  12.390  1.0429  1.4124  0.1941
  550TMC3    H1 8218   2.722   4.479  11.982  1.0006  2.7560 -0.1728
  550TMC3    H2 8219   2.378   4.692  12.109 -0.0093  0.3636  0.5337
  550TMC3    C7 8220   2.479   4.559  11.905  0.0598  0.1432  0.1692
  550TMC3    C8 8221   2.390   4.616  12.364 -0.7608  0.8164  0.2500
  550TMC3    O1 8222   2.382   4.632  11.877  0.3976  0.3145  0.7961
  550TMC3    O2 8223   2.328   4.716  12.343 -0.5975 -0.3709 -0.6757
  551TMC3    C1 8224   0.527   2.032  13.202 -0.2428  0.9873  0.1318
  551TMC3    C2 8225   0.633   2.014  13.123  0.4495 -0.2081  0.5819
  551TMC3    C3 8226   0.763   2.005  13.176 -0.1357 -0.3529 -0.1340
  551TMC3    C4 8227   0.540   2.048  13.341 -0.4502  0.0812  0.2670
  551TMC3    C5 8228   0.670   2.041  13.390 -0.0649 -1.1594 -0.1898
  551TMC3    C6 8229   0.782   2.030  13.305  0.4009  0.4128 -0.9169
  551TMC3     C 8230   0.395   2.049  13.148  0.1440 -0.0914 -0.0701
  551TMC3     O 8231   0.314   2.116  13.211  0.2624 -0.3603  0.6102
  551TMC3     H 8232   0.623   2.001  13.016  1.6157  1.1166  0.3089
  551TMC3    H1 8233   0.451   2.046  13.404 -0.2415  2.3095  0.6520
  551TMC3    H2 8234   0.875   2.027  13.362 -1.6749  0.7818  2.4875
  551TMC3    C7 8235   0.694   2.064  13.530  0.4427 -0.2182 -0.0706
  551TMC3    C8 8236   0.865   2.055  13.095 -0.5510  0.2639 -0.4728
  551TMC3    O1 8237   0.779   1.992  13.584  0.1591  0.4783 -0.1979
  551TMC3    O2 8238   0.948   1.981  13.043  0.0744 -0.0388 -0.3612
  552MPD2     C 8239   2.497   3.361  13.543 -0.3662  0.2014  0.3487
  552MPD2    C1 8240   2.465   3.264  13.631  0.1020  0.4166 -0.0207
  552MPD2    C2 8241   2.566   3.225  13.715  0.8805 -0.2233 -0.5078
  552MPD2    C3 8242   2.686   3.290  13.719 -0.6211  0.2301 -0.2600
  552MPD2    C4 8243   2.709   3.393  13.632 -0.1251 -0.0431 -0.2054
  552MPD2    C5 8244   2.619   3.426  13.538  0.5668  0.7468 -0.0608
  552MPD2     H 8245   2.556   3.150  13.794 -0.3078  1.0877  0.5794
  552MPD2    H1 8246   2.804   3.445  13.629  0.9390 -2.0689 -1.6165
  552MPD2    H2 8247   2.425   3.398  13.471 -1.7121 -1.4730  0.8420
  552MPD2    H3 8248   2.635   3.510  13.472 -0.2400 -1.0929 -2.6347
  552MPD2     N 8249   2.785   3.274  13.817 -0.7897 -0.3713 -0.0919
  552MPD2    H5 8250   2.864   3.337  13.811 -0.1071 -1.3247 -1.0866
  552MPD2    N1 8251   2.334   3.201  13.638 -0.2883  0.5490  0.0032
  552MPD2    H7 8252   2.312   3.110  13.677 -1.2093 -0.2076 -2.2768
  553TMC3    C1 8253   2.116   3.180  13.539 -0.5237  0.3874  0.0135
  553TMC3    C2 8254   2.045   3.244  13.443 -0.0195  0.7764 -0.6679
  553TMC3    C3 8255   1.961   3.173  13.363 -0.4605  0.1930 -0.5085
  553TMC3    C4 8256   2.112   3.047  13.557  0.0972 -0.1278 -0.2833
  553TMC3    C5 8257   2.042   2.971  13.465 -0.0404  0.4593  0.2658
  553TMC3    C6 8258   1.963   3.028  13.368  0.0526 -0.2454 -0.0532
  553TMC3     C 8259   2.225   3.266  13.586  0.7600  0.8954 -0.2194
  553TMC3     O 8260   2.212   3.382  13.558  0.1330  0.2061 -0.2159
  553TMC3     H 8261   2.047   3.349  13.419 -0.3962  0.4044 -2.3590
  553TMC3    H1 8262   2.182   3.005  13.629 -1.1487 -0.2846  0.8299
  553TMC3    H2 8263   1.911   2.965  13.296  1.9861  0.8702 -2.4294
  553TMC3    C7 8264   2.061   2.824  13.466 -0.1433  0.3843  0.6184
  553TMC3    C8 8265   1.952   3.226  13.229 -0.0113  0.2533 -0.4987
  553TMC3    O1 8266   1.960   2.762  13.492 -0.1723  0.5013 -0.2439
  553TMC3    O2 8267   2.051   3.287  13.198 -0.0912 -0.2947  0.2231
  554TMC3    C1 8268   4.389   2.938  11.284 -0.2747 -0.2580  0.2010
  554TMC3    C2 8269   4.388   2.833  11.201 -0.3396  0.2852 -1.2011
  554TMC3    C3 8270   4.417   2.848  11.066 -0.0874 -0.4876 -0.8940
  554TMC3    C4 8271   4.412   3.066  11.240 -0.3399  0.5161  0.1345
  554TMC3    C5 8272   4.456   3.076  11.104  0.6157 -0.1919  0.5033
  554TMC3    C6 8273   4.457   2.970  11.017  0.1823  0.7046 -0.0091
  554TMC3     C 8274   4.424   2.913  11.423 -0.1625  0.0648 -0.4825
  554TMC3     O 8275   4.429   3.001  11.504 -0.3846 -0.0157 -0.3368
  554TMC3     H 8276   4.351   2.735  11.229  2.0773 -0.8161 -1.8617
  554TMC3    H1 8277   4.422   3.147  11.311  0.0670 -0.8424  1.6230
  554TMC3    H2 8278   4.492   2.972  10.914  2.4431  2.7871  0.7940
  554TMC3    C7 8279   4.460   3.202  11.038 -0.8824 -1.2627 -0.1565
  554TMC3    C8 8280   4.353   2.759  10.966 -0.1351  0.4091  0.1542
  554TMC3    O1 8281   4.466   3.192  10.913 -0.6200 -0.5963  0.1536
  554TMC3    O2 8282   4.391   2.767  10.849  0.6100  0.0008  0.6310
  555TMC3    C1 8283   3.507   2.244  15.056 -0.4762 -0.1176 -0.0849
  555TMC3    C2 8284   3.573   2.317  15.159  0.6157 -0.5030  0.3674
  555TMC3    C3 8285   3.557   2.257  15.282 -0.2399 -0.0331  0.1312
  555TMC3    C4 8286   3.441   2.127  15.072  1.0864  0.3796 -0.3220
  555TMC3    C5 8287   3.446   2.069  15.195 -0.2087  0.7842 -0.1284
  555TMC3    C6 8288   3.498   2.135  15.302  0.0766 -0.0561 -0.0574
  555TMC3     C 8289   3.497   2.310  14.930  0.1908  0.3048 -0.2741
  555TMC3     O 8290   3.586   2.390  14.901 -0.1774 -0.2123 -0.2269
  555TMC3     H 8291   3.626   2.411  15.146 -0.9897  0.5069  1.2038
  555TMC3    H1 8292   3.410   2.080  14.980 -0.7413  0.7091  0.1253
  555TMC3    H2 8293   3.508   2.081  15.396  1.7184  1.4290  0.6250
  555TMC3    C7 8294   3.421   1.922  15.203 -0.2199 -0.7934 -0.6765
  555TMC3    C8 8295   3.583   2.342  15.397 -0.3551  0.0756  0.0620
  555TMC3    O1 8296   3.386   1.869  15.308  0.6206 -0.7087 -0.1172
  555TMC3    O2 8297   3.619   2.457  15.373  0.0384  0.1629  0.3597
  556MPD2     C 8298   1.419   4.139  10.392 -0.1244  0.7745  0.2307
  556MPD2    C1 8299   1.406   4.019  10.469  0.0565 -0.5749 -0.0761
  556MPD2    C2 8300   1.380   3.903  10.402 -0.1431  0.0697 -0.5282
  556MPD2    C3 8301   1.364   3.894  10.268  0.5842 -0.3695  0.2504
  556MPD2    C4 8302   1.374   4.013  10.192 -0.2753 -0.1319  0.5701
  556MPD2    C5 8303   1.406   4.130  10.259  0.0245 -0.0721 -0.0309
  556MPD2     H 8304   1.352   3.818  10.463  0.5838  0.0144 -0.2777
  556MPD2    H1 8305   1.359   4.029  10.086 -0.7057  1.3254  0.8557
  556MPD2    H2 8306   1.431   4.238  10.433 -0.2831  0.9347 -0.1106
  556MPD2    H3 8307   1.418   4.216  10.194 -2.5080 -0.7695 -1.4471
  556MPD2     N 8308   1.339   3.768  10.209  0.6370  0.2530  0.4561
  556MPD2    H5 8309   1.323   3.694  10.277  1.2390  1.2773  1.7215
  556MPD2    N1 8310   1.418   4.018  10.605 -0.4370  0.1994 -0.4523
  556MPD2    H7 8311   1.418   3.925  10.647 -0.9361  0.4854  0.1780
  557TMC3    C1 8312   1.333   3.595  10.051 -0.9149  0.1869 -0.0683
  557TMC3    C2 8313   1.292   3.553   9.923  0.0823 -0.0832  0.0470
  557TMC3    C3 8314   1.267   3.424   9.908 -0.1952 -0.6663  0.4637
  557TMC3    C4 8315   1.354   3.509  10.154 -0.0050 -0.4374  0.3901
  557TMC3    C5 8316   1.342   3.376  10.125  0.4281  0.4636 -0.0099
  557TMC3    C6 8317   1.298   3.330  10.004  0.6004  0.3352  0.1177
  557TMC3     C 8318   1.333   3.738  10.074 -0.5571  0.5710  0.2862
  557TMC3     O 8319   1.323   3.808   9.972  0.6241 -0.3568  0.0845
  557TMC3     H 8320   1.274   3.626   9.846  0.2578 -2.0174 -1.8149
  557TMC3    H1 8321   1.393   3.541  10.249 -3.6223  0.3852  1.6190
  557TMC3    H2 8322   1.271   3.227   9.982  0.7716  0.3332 -0.0771
  557TMC3    C7 8323   1.293   3.323  10.249  0.0395 -0.0995  0.3555
  557TMC3    C8 8324   1.182   3.396   9.794 -0.7940 -0.0401  0.3140
  557TMC3    O1 8325   1.247   3.399  10.335 -0.4590 -0.3386  0.4514
  557TMC3    O2 8326   1.109   3.490   9.758 -0.0028  0.7475  0.0948
  558TMC3    C1 8327   3.972   1.827  10.556 -0.5665 -1.1421 -0.6204
  558TMC3    C2 8328   3.851   1.876  10.599 -0.0909 -0.2066 -0.7133
  558TMC3    C3 8329   3.768   1.928  10.503  0.0187 -0.0997 -0.3196
  558TMC3    C4 8330   4.019   1.831  10.426  0.2989  0.3451 -0.5597
  558TMC3    C5 8331   3.929   1.881  10.331  0.5540  0.8090  0.5159
  558TMC3    C6 8332   3.802   1.927  10.367  0.1878 -0.4488 -0.6221
  558TMC3     C 8333   4.080   1.794  10.647  0.1653 -0.3104 -0.3696
  558TMC3     O 8334   4.195   1.810  10.612  0.2111 -0.1994 -0.1038
  558TMC3     H 8335   3.839   1.899  10.704  1.1692 -2.8188 -0.0098
  558TMC3    H1 8336   4.116   1.791  10.402 -0.8920 -0.5651 -3.8945
  558TMC3    H2 8337   3.747   1.981  10.291 -0.4527  0.1031  0.2221
  558TMC3    C7 8338   3.966   1.872  10.189  0.1842  0.1872 -0.1431
  558TMC3    C8 8339   3.643   1.985  10.547  0.1992  0.0875 -0.2933
  558TMC3    O1 8340   4.074   1.822  10.163 -0.2287  0.2927 -0.8530
  558TMC3    O2 8341   3.576   2.041  10.463 -0.2097  0.3927 -0.3425
  559MPD2     C 8342   3.805   2.325  10.374  0.7255 -0.2284  0.1736
  559MPD2    C1 8343   3.763   2.339  10.503 -0.4446 -0.0811 -0.3304
  559MPD2    C2 8344   3.854   2.292  10.599 -0.5135 -0.2467 -0.6287
  559MPD2    C3 8345   3.985   2.257  10.569 -0.0262 -0.0270 -0.2660
  559MPD2    C4 8346   4.017   2.228  10.441 -0.5081  0.0582 -0.1823
  559MPD2    C5 8347   3.922   2.259  10.348  0.4431 -0.0565  0.6766
  559MPD2     H 8348   3.830   2.300  10.704 -0.0872 -3.2278 -0.2801
  559MPD2    H1 8349   4.112   2.184  10.412  0.2290  0.9679  0.8251
  559MPD2    H2 8350   3.738   2.339  10.290  0.3057 -0.1072  0.5230
  559MPD2    H3 8351   3.952   2.244  10.245 -1.5774  2.6732 -0.2987
  559MPD2     N 8352   4.074   2.235  10.679  0.0671 -0.0975  0.4346
  559MPD2    H5 8353   4.035   2.249  10.772  1.6440 -0.0363  1.0977
  559MPD2    N1 8354   3.635   2.391  10.532 -0.0174  0.0460  0.3795
  559MPD2    H7 8355   3.577   2.415  10.453  1.0668 -1.2440 -0.8193
  560TMC3    C1 8356   4.279   2.212  10.805  0.3247 -0.4594  0.9894
  560TMC3    C2 8357   4.202   2.186  10.914 -0.3934  0.5131 -0.8099
  560TMC3    C3 8358   4.265   2.117  11.015  0.2164  0.4717  0.1356
  560TMC3    C4 8359   4.410   2.171  10.790 -0.0308 -0.5853 -0.4757
  560TMC3    C5 8360   4.462   2.098  10.893  0.2207 -0.1583 -0.1012
  560TMC3    C6 8361   4.392   2.066  11.007  0.7248 -0.2383 -0.3220
  560TMC3     C 8362   4.212   2.220  10.672  0.1403 -0.2445 -0.3911
  560TMC3     O 8363   4.289   2.223  10.579 -0.2031 -0.2835  0.3728
  560TMC3     H 8364   4.105   2.235  10.922  0.2360  1.5564  0.3025
  560TMC3    H1 8365   4.469   2.201  10.705  0.3309 -2.5214 -0.9171
  560TMC3    H2 8366   4.441   2.004  11.082  1.2314 -0.0703 -0.5142
  560TMC3    C7 8367   4.592   2.042  10.878 -0.2406  0.0234  0.2132
  560TMC3    C8 8368   4.194   2.093  11.139 -0.3371  0.3242  0.0457
  560TMC3    O1 8369   4.610   1.938  10.940 -0.1475  0.1592  0.9472
  560TMC3    O2 8370   4.099   2.164  11.157  0.5580 -0.6388 -0.0980
  561TMC3    C1 8371   1.946   1.598  11.294  0.0151 -0.0752  0.6866
  561TMC3    C2 8372   1.845   1.523  11.352  0.0381  0.4164  0.0903
  561TMC3    C3 8373   1.780   1.586  11.456 -0.1272 -0.7283  0.0500
  561TMC3    C4 8374   1.956   1.735  11.313 -0.0505  0.6628  0.3229
  561TMC3    C5 8375   1.875   1.798  11.398  0.3181  0.2321  0.0814
  561TMC3    C6 8376   1.788   1.722  11.475  0.0236 -0.5069  0.1028
  561TMC3     C 8377   2.035   1.507  11.218 -0.7942  0.6327  0.0694
  561TMC3     O 8378   1.987   1.398  11.194 -0.2758  0.0544  0.3591
  561TMC3     H 8379   1.811   1.423  11.328 -0.0880  0.9125 -1.7755
  561TMC3    H1 8380   2.038   1.792  11.269 -0.4222  1.0647  0.1523
  561TMC3    H2 8381   1.710   1.772  11.532 -0.3535  0.1869 -1.0137
  561TMC3    C7 8382   1.892   1.929  11.455  0.5019 -0.2775  0.1903
  561TMC3    C8 8383   1.681   1.498  11.527  0.7989 -0.5336 -0.1375
  561TMC3    O1 8384   1.824   1.959  11.551 -0.2142  0.0639 -0.2725
  561TMC3    O2 8385   1.658   1.389  11.476  0.3483  0.2217  0.7570
  562TMC3    C1 8386   3.024   2.719  16.097  0.4145  0.6768 -0.4649
  562TMC3    C2 8387   2.917   2.804  16.067  0.1930 -0.0525 -0.3018
  562TMC3    C3 8388   2.863   2.788  15.942 -0.6498  0.1859  0.2011
  562TMC3    C4 8389   3.071   2.623  16.009  0.6404  0.2918  0.1008
  562TMC3    C5 8390   3.010   2.613  15.887  0.3345 -0.4506  0.1681
  562TMC3    C6 8391   2.900   2.689  15.857  0.4275 -0.1358  0.2788
  562TMC3     C 8392   3.063   2.717  16.239 -0.1516  0.5143 -0.7848
  562TMC3     O 8393   3.025   2.809  16.313 -1.1295 -0.2992  0.2500
  562TMC3     H 8394   2.876   2.869  16.143 -1.3575  1.2153 -2.2295
  562TMC3    H1 8395   3.151   2.555  16.034  1.4712  0.9724 -0.6952
  562TMC3    H2 8396   2.849   2.673  15.763  0.5370 -1.6885  0.4911
  562TMC3    C7 8397   3.059   2.521  15.784  0.4422 -0.0268 -0.0404
  562TMC3    C8 8398   2.730   2.849  15.921  0.7414 -0.8793  0.4212
  562TMC3    O1 8399   3.032   2.556  15.669 -0.1180 -0.0461  0.4054
  562TMC3    O2 8400   2.672   2.887  16.022  0.6788 -0.0409  1.2811
  563MPD2     C 8401   0.734   3.654  15.490  0.3307 -0.3536 -0.1555
  563MPD2    C1 8402   0.748   3.670  15.631  0.4081 -0.3261 -0.2407
  563MPD2    C2 8403   0.863   3.635  15.694  0.4850  0.3728  0.2227
  563MPD2    C3 8404   0.976   3.596  15.625  0.1007  0.3205  0.2220
  563MPD2    C4 8405   0.968   3.593  15.487  0.2805 -0.3927  0.5819
  563MPD2    C5 8406   0.849   3.629  15.425  0.2479 -0.2749  0.0173
  563MPD2     H 8407   0.877   3.636  15.802 -2.1153 -1.4772  0.5737
  563MPD2    H1 8408   1.042   3.549  15.422 -1.4056 -1.3774 -0.6643
  563MPD2    H2 8409   0.641   3.675  15.439  0.3634 -0.5491 -0.2970
  563MPD2    H3 8410   0.838   3.616  15.318 -1.2525  0.9392  0.0195
  563MPD2     N 8411   1.087   3.556  15.706 -1.0125  0.0186 -0.2447
  563MPD2    H5 8412   1.078   3.569  15.806 -1.2519 -0.9823 -0.1393
  563MPD2    N1 8413   0.627   3.695  15.700 -0.3124  0.7771 -0.8090
  563MPD2    H7 8414   0.542   3.680  15.647 -0.9949 -0.8584  0.7271
  564TMC3    C1 8415   0.486   3.730  15.900 -0.0938  0.1147 -0.1068
  564TMC3    C2 8416   0.400   3.628  15.869 -0.5257  0.6751 -0.2253
  564TMC3    C3 8417   0.318   3.576  15.961 -0.2584 -0.6831  0.5941
  564TMC3    C4 8418   0.493   3.771  16.029  0.0291 -0.4761 -0.2344
  564TMC3    C5 8419   0.419   3.710  16.123 -0.7731  0.1494 -0.9143
  564TMC3    C6 8420   0.326   3.614  16.091 -0.0256 -0.0414 -0.2525
  564TMC3     C 8421   0.616   3.736  15.834  0.5096  0.2453  0.8072
  564TMC3     O 8422   0.712   3.768  15.902 -0.7526 -0.7586 -0.2981
  564TMC3     H 8423   0.410   3.577  15.774 -0.0979 -0.3568  0.3647
  564TMC3    H1 8424   0.571   3.842  16.055  1.7122 -2.0877 -0.9018
  564TMC3    H2 8425   0.257   3.576  16.166  1.0081 -3.5255 -1.0878
  564TMC3    C7 8426   0.496   3.684  16.244 -0.4344 -0.0128 -0.2595
  564TMC3    C8 8427   0.266   3.440  15.951 -0.3773 -0.5801  0.3979
  564TMC3    O1 8428   0.592   3.755  16.258  0.3058 -0.8717  0.1682
  564TMC3    O2 8429   0.243   3.371  16.048 -0.1221 -0.2626  0.4979
  565TMC3    C1 8430   1.461   0.913  10.216  0.1797 -0.3675 -0.0816
  565TMC3    C2 8431   1.430   0.893  10.345 -0.5935 -0.0971  0.6996
  565TMC3    C3 8432   1.333   0.795  10.377 -0.0826  0.0525 -0.7091
  565TMC3    C4 8433   1.419   0.823  10.122  0.6459 -0.1869  0.2360
  565TMC3    C5 8434   1.335   0.720  10.151  0.1580  0.0974  0.5859
  565TMC3    C6 8435   1.288   0.707  10.279  0.2146 -0.3645  0.1557
  565TMC3     C 8436   1.549   1.014  10.165  0.3734  0.2398 -0.5488
  565TMC3     O 8437   1.547   1.031  10.039 -0.7567 -0.3940 -0.0168
  565TMC3     H 8438   1.457   0.968  10.418  1.3653  1.6873 -1.8356
  565TMC3    H1 8439   1.444   0.845  10.019 -0.6776 -2.2194 -0.5309
  565TMC3    H2 8440   1.215   0.632  10.307  0.3489 -0.2986  0.6944
  565TMC3    C7 8441   1.300   0.632  10.045  0.2898 -0.4309  0.5379
  565TMC3    C8 8442   1.294   0.770  10.512  0.1550  0.1784 -0.1532
  565TMC3    O1 8443   1.353   0.656   9.940 -0.1665  0.4955  0.4620
  565TMC3    O2 8444   1.215   0.679  10.528  0.3688 -0.2146  0.1124
  566MPD2     C 8445   2.786   2.069  14.422 -0.0801  0.3092 -0.8759
  566MPD2    C1 8446   2.811   2.154  14.312  0.1158 -0.2610  0.3051
  566MPD2    C2 8447   2.704   2.211  14.247 -0.0019  0.0308 -0.3639
  566MPD2    C3 8448   2.573   2.181  14.279 -0.1803  0.2508 -0.4955
  566MPD2    C4 8449   2.553   2.101  14.386  0.0596  0.0328 -0.9752
  566MPD2    C5 8450   2.660   2.049  14.461 -0.3443 -0.1951 -0.7623
  566MPD2     H 8451   2.726   2.293  14.180  0.7369  1.0811  1.1530
  566MPD2    H1 8452   2.456   2.073  14.425  1.7210 -2.2114  1.5916
  566MPD2    H2 8453   2.864   2.007  14.465 -1.3231 -1.9211 -1.7862
  566MPD2    H3 8454   2.633   1.988  14.546 -1.0574 -1.6384 -2.0215
  566MPD2     N 8455   2.453   2.220  14.209  0.0555  0.1753 -0.0007
  566MPD2    H5 8456   2.363   2.205  14.252  0.9398  0.1714  1.8442
  566MPD2    N1 8457   2.945   2.152  14.260  0.0225 -0.1492 -0.1624
  566MPD2    H7 8458   3.019   2.115  14.318 -0.4163  0.9705  1.1105
  567TMC3    C1 8459   3.112   2.142  14.096 -0.8589  0.1151 -0.7804
  567TMC3    C2 8460   3.132   2.158  13.966 -0.1051  0.0317  0.0259
  567TMC3    C3 8461   3.241   2.103  13.902 -0.2607 -1.0423  0.3390
  567TMC3    C4 8462   3.190   2.059  14.172  0.1218  0.4733  0.0138
  567TMC3    C5 8463   3.297   2.006  14.110  0.3677  0.2734  0.0216
  567TMC3    C6 8464   3.327   2.017  13.973  0.7682  0.2316 -0.0676
  567TMC3     C 8465   2.988   2.196  14.142 -0.3260  0.0614 -0.1211
  567TMC3     O 8466   2.924   2.278  14.075 -0.2872  0.1613  0.2403
  567TMC3     H 8467   3.053   2.199  13.903 -0.1591 -0.5237 -0.2652
  567TMC3    H1 8468   3.163   2.034  14.274 -2.9046  0.4323 -0.7976
  567TMC3    H2 8469   3.411   1.972  13.923  0.4253  0.4831 -0.8763
  567TMC3    C7 8470   3.378   1.908  14.178  0.6189  0.2179  0.6292
  567TMC3    C8 8471   3.235   2.113  13.755 -0.1181  0.5624  0.5040
  567TMC3    O1 8472   3.448   1.842  14.102 -0.1094 -0.2658 -0.8513
  567TMC3    O2 8473   3.173   2.207  13.707 -0.1362  0.5264  0.2888
  568MPD2     C 8474   0.446   1.966  16.280 -0.2963  0.1360 -0.4693
  568MPD2    C1 8475   0.448   2.071  16.364  0.1425 -0.6457 -0.1678
  568MPD2    C2 8476   0.383   2.184  16.323 -0.0434 -0.2604 -0.3532
  568MPD2    C3 8477   0.334   2.196  16.195 -0.1294 -0.0146  0.1984
  568MPD2    C4 8478   0.347   2.094  16.100  0.6896  0.2221 -0.0786
  568MPD2    C5 8479   0.399   1.972  16.146 -0.3687  0.0856 -0.6047
  568MPD2     H 8480   0.355   2.270  16.382  0.2302  1.2537 -2.4270
  568MPD2    H1 8481   0.294   2.093  16.006  0.8403 -0.0182 -0.1604
  568MPD2    H2 8482   0.493   1.872  16.305 -1.7222 -0.3453  0.3658
  568MPD2    H3 8483   0.401   1.884  16.083 -1.4769 -0.9058  0.7243
  568MPD2     N 8484   0.266   2.313  16.160 -0.1989  0.4030  0.3887
  568MPD2    H5 8485   0.237   2.384  16.226  0.5991  1.1692 -0.0945
  568MPD2    N1 8486   0.506   2.052  16.494  0.4159  0.8917  0.1330
  568MPD2    H7 8487   0.543   1.960  16.513 -0.6499  0.9221  2.3569
  569TMC3    C1 8488   0.170   2.486  16.031 -0.5236  0.3035 -0.7255
  569TMC3    C2 8489   0.123   2.536  16.147 -0.0248  0.6819  0.1324
  569TMC3    C3 8490   0.106   2.673  16.165  0.2745  0.1894  0.0048
  569TMC3    C4 8491   0.205   2.567  15.925 -0.4730 -0.1742  0.1346
  569TMC3    C5 8492   0.198   2.702  15.944  0.0244  0.2190 -0.0389
  569TMC3    C6 8493   0.143   2.758  16.064  0.0822 -0.8656  0.3560
  569TMC3     C 8494   0.217   2.352  16.033  0.2122 -0.5481 -0.2727
  569TMC3     O 8495   0.237   2.303  15.922  0.1359 -0.7266  0.5632
  569TMC3     H 8496   0.079   2.475  16.225  0.7529 -2.0288 -1.5469
  569TMC3    H1 8497   0.247   2.523  15.835  0.4817 -0.5646  0.7726
  569TMC3    H2 8498   0.128   2.864  16.078 -3.3021 -1.2455 -0.2284
  569TMC3    C7 8499   0.227   2.791  15.827  0.8948  0.1658  0.7012
  569TMC3    C8 8500   0.048   2.718  16.294  0.2879  0.3818  0.5561
  569TMC3    O1 8501   0.213   2.744  15.717 -0.2997 -0.4327 -0.1260
  569TMC3    O2 8502   0.007   2.634  16.372 -0.0021 -0.0677  0.0940
  570TMC3    C1 8503   4.456   1.697  16.152 -0.4919 -0.4302 -0.1113
  570TMC3    C2 8504   4.487   1.688  16.020 -0.2874 -0.3336  0.3425
  570TMC3    C3 8505   4.476   1.796  15.941  0.0974  0.1304  0.3333
  570TMC3    C4 8506   4.418   1.815  16.209 -0.5498 -1.1200  0.0382
  570TMC3    C5 8507   4.412   1.922  16.130  0.5896  0.0154  0.1403
  570TMC3    C6 8508   4.447   1.922  15.994 -0.2107 -0.6515 -0.3110
  570TMC3     C 8509   4.445   1.568  16.227  0.0265 -0.8271 -0.2174
  570TMC3     O 8510   4.440   1.465  16.164 -0.3113  0.2331  0.7712
  570TMC3     H 8511   4.535   1.599  15.981  0.2683  1.0052 -2.0332
  570TMC3    H1 8512   4.412   1.822  16.317 -0.0515  1.4941 -0.1032
  570TMC3    H2 8513   4.457   2.006  15.927 -0.3285 -2.1417 -2.2093
  570TMC3    C7 8514   4.390   2.046  16.192  0.3132 -0.2581 -0.1859
  570TMC3    C8 8515   4.546   1.809  15.821 -0.3508  0.1689 -0.4628
  570TMC3    O1 8516   4.415   2.054  16.312  0.1288 -0.4625 -0.0087
  570TMC3    O2 8517   4.593   1.917  15.794  0.3461 -0.3893 -0.1740
  571MPD2     C 8518   2.078   3.592   0.119  0.1617 -0.3781 -0.0363
  571MPD2    C1 8519   2.120   3.572   0.249 -0.1068  0.3512  0.5885
  571MPD2    C2 8520   2.199   3.659   0.320 -0.0246  0.2715  0.1353
  571MPD2    C3 8521   2.247   3.766   0.248  0.6129  0.5501  0.0401
  571MPD2    C4 8522   2.212   3.788   0.117  0.0878  0.8518 -0.3207
  571MPD2    C5 8523   2.125   3.703   0.055 -0.4971 -0.8403  0.2551
  571MPD2     H 8524   2.241   3.637   0.418  0.7786  0.3645 -0.1896
  571MPD2    H1 8525   2.233   3.873   0.053  2.3428 -0.0395 -0.7805
  571MPD2    H2 8526   2.014   3.521   0.068  1.2341 -0.5139 -1.1782
  571MPD2    H3 8527   2.096   3.722  17.701 -0.1316 -1.1374  0.0995
  571MPD2     N 8528   2.337   3.860   0.304  0.2429 -0.0376 -0.8796
  571MPD2    H5 8529   2.377   3.927   0.239  2.0301  0.3764  0.6584
  571MPD2    N1 8530   2.078   3.453   0.318  0.1310  0.2679  0.4225
  571MPD2    H7 8531   2.042   3.378   0.260  2.9454  0.0170 -1.0157
  572TMC3    C1 8532   2.495   3.956   0.459 -0.1528  0.0286 -0.4632
  572TMC3    C2 8533   2.604   3.920   0.522  0.1801 -0.2894 -0.4019
  572TMC3    C3 8534   2.718   4.006   0.524 -0.1889  0.0875 -0.9981
  572TMC3    C4 8535   2.472   4.087   0.426  0.1719  0.1208 -0.0353
  572TMC3    C5 8536   2.579   4.173   0.442 -0.1009 -0.1088  0.0387
  572TMC3    C6 8537   2.704   4.134   0.487  0.4328 -0.2096  0.0123
  572TMC3     C 8538   2.393   3.855   0.435  0.7997 -0.2721 -1.1367
  572TMC3     O 8539   2.361   3.777   0.527  0.2577 -0.8524  0.3789
  572TMC3     H 8540   2.628   3.816   0.539  0.2285  0.1134  1.8797
  572TMC3    H1 8541   2.375   4.114   0.384 -0.2831 -0.4646  0.6545
  572TMC3    H2 8542   2.785   4.205   0.499  0.1718  0.3254 -1.4236
  572TMC3    C7 8543   2.567   4.298   0.360  0.0924 -0.4266  0.0987
  572TMC3    C8 8544   2.851   3.951   0.503  0.5757 -0.4732  0.6057
  572TMC3    O1 8545   2.468   4.316   0.287 -0.2505 -0.4169 -0.2453
  572TMC3    O2 8546   2.926   4.025   0.438 -0.2103 -0.2083  0.5305
  573MPD2     C 8547   4.092   4.091   0.971  0.0802 -0.2212 -0.0408
  573MPD2    C1 8548   4.051   4.215   1.006 -1.0329  0.6710 -0.3781
  573MPD2    C2 8549   3.978   4.292   0.919 -0.6910 -0.1371 -0.2008
  573MPD2    C3 8550   3.948   4.243   0.798  0.3317 -0.1499  1.0428
  573MPD2    C4 8551   3.988   4.116   0.765 -0.4746 -0.4710 -1.0760
  573MPD2    C5 8552   4.066   4.043   0.846 -0.3232 -0.1888 -0.5006
  573MPD2     H 8553   3.953   4.395   0.941  0.6333 -0.1341  1.2844
  573MPD2    H1 8554   3.972   4.075   0.666  0.1303 -2.0839 -0.5014
  573MPD2    H2 8555   4.150   4.039   1.045  2.9791  2.2348 -0.5856
  573MPD2    H3 8556   4.096   3.946   0.807  2.0918 -0.6962  2.6179
  573MPD2     N 8557   3.866   4.314   0.704  0.0567 -0.3284  0.4669
  573MPD2    H5 8558   3.851   4.260   0.619  0.5509  1.5067 -0.8049
  573MPD2    N1 8559   4.080   4.252   1.139  0.6332  0.0642  0.7090
  573MPD2    H7 8560   4.143   4.186   1.183  1.4911  0.4926  0.1237
  574TMC3    C1 8561   3.716   4.465   0.616  0.1954 -0.7844 -0.1715
  574TMC3    C2 8562   3.597   4.527   0.654  0.1875 -0.8544 -0.0319
  574TMC3    C3 8563   3.481   4.496   0.590  0.0867  0.1795 -0.7793
  574TMC3    C4 8564   3.714   4.365   0.517 -0.6797  0.0583  0.0463
  574TMC3    C5 8565   3.599   4.354   0.448  0.5494  0.5426 -0.8834
  574TMC3    C6 8566   3.479   4.408   0.489  0.1436 -0.2743 -0.0829
  574TMC3     C 8567   3.791   4.423   0.734 -0.7142  0.1731 -0.3047
  574TMC3     O 8568   3.772   4.476   0.841  0.0303 -0.7027 -0.4109
  574TMC3     H 8569   3.600   4.589   0.742 -0.2990 -1.2388  0.2542
  574TMC3    H1 8570   3.800   4.319   0.472  0.1994 -0.6666  2.4661
  574TMC3    H2 8571   3.387   4.384   0.438  0.7090 -3.8668  0.6180
  574TMC3    C7 8572   3.598   4.264   0.326 -0.6788  0.2823 -0.2325
  574TMC3    C8 8573   3.372   4.593   0.612  0.4302 -0.9836  0.5232
  574TMC3    O1 8574   3.699   4.271   0.254  0.4008 -0.1225  0.5596
  574TMC3    O2 8575   3.375   4.654   0.715  0.2542 -0.2964  0.3070
  575TMC3    C1 8576   0.991   0.463  11.320  0.5093  0.2777 -0.7652
  575TMC3    C2 8577   0.917   0.350  11.296 -0.2168 -0.3100 -0.8132
  575TMC3    C3 8578   0.924   0.302  11.165 -0.0007 -0.3196  0.3160
  575TMC3    C4 8579   1.075   0.519  11.226 -0.6242  0.4362 -0.4378
  575TMC3    C5 8580   1.079   0.466  11.099  0.2137 -0.1043  0.4021
  575TMC3    C6 8581   1.005   0.361  11.067  0.0039  0.2800  0.1428
  575TMC3     C 8582   0.990   0.517  11.459  0.3341 -0.1098  0.1183
  575TMC3     O 8583   1.040   0.630  11.464 -0.1378 -0.3327  0.0433
  575TMC3     H 8584   0.844   0.315  11.368 -0.7514  1.2442 -0.5948
  575TMC3    H1 8585   1.120   0.612  11.259  1.3094 -0.3937 -0.6827
  575TMC3    H2 8586   1.005   0.332  10.963  2.2916 -0.1662  0.2680
  575TMC3    C7 8587   1.137   0.550  10.993 -0.8268 -0.5116  0.3583
  575TMC3    C8 8588   0.889   0.155  11.150 -0.4769  0.3358 -0.2151
  575TMC3    O1 8589   1.146   0.491  10.885  0.1332  0.4601 -0.2620
  575TMC3    O2 8590   0.846   0.107  11.257  0.0680 -0.2859 -0.2880
  576MPD2     C 8591   0.735   1.807  12.642 -0.4950 -0.9897  0.2379
  576MPD2    C1 8592   0.800   1.904  12.572  0.5114  0.6531  0.0723
  576MPD2    C2 8593   0.751   2.035  12.571 -0.9805  1.1773 -0.6541
  576MPD2    C3 8594   0.639   2.068  12.638  0.4498  0.4372 -0.0907
  576MPD2    C4 8595   0.563   1.969  12.706  0.2696  0.4364  0.1698
  576MPD2    C5 8596   0.620   1.846  12.706 -0.3624 -0.0708  0.3226
  576MPD2     H 8597   0.807   2.114  12.520  0.4612 -1.0461 -2.5417
  576MPD2    H1 8598   0.471   1.989  12.761  0.7416 -0.4533  1.2841
  576MPD2    H2 8599   0.774   1.706  12.644  2.4315  0.1932  2.5160
  576MPD2    H3 8600   0.559   1.773  12.757 -1.0387  0.8895  0.8779
  576MPD2     N 8601   0.605   2.208  12.639  0.0313 -1.0181 -0.2852
  576MPD2    H5 8602   0.674   2.273  12.603  0.8704 -1.7840 -0.0737
  576MPD2    N1 8603   0.923   1.882  12.490  0.4938  0.4934  0.2457
  576MPD2    H7 8604   0.948   1.964  12.436 -2.4133  0.9379 -0.4779
  577TMC3    C1 8605   1.088   1.784  12.364 -0.2672  0.0614  0.4952
  577TMC3    C2 8606   1.117   1.683  12.284 -0.2095 -0.6315 -0.2103
  577TMC3    C3 8607   1.198   1.706  12.180  0.1268 -0.3969  0.8354
  577TMC3    C4 8608   1.131   1.912  12.343  0.2528  0.2526 -0.0280
  577TMC3    C5 8609   1.197   1.933  12.227 -0.2460  0.0746 -0.2664
  577TMC3    C6 8610   1.240   1.831  12.145 -0.1235 -0.7160 -0.6854
  577TMC3     C 8611   0.983   1.762  12.464 -0.1046  0.1189 -0.3968
  577TMC3     O 8612   0.966   1.645  12.500  0.1064  0.0007  0.1487
  577TMC3     H 8613   1.096   1.582  12.318 -0.3675 -0.7232 -0.5893
  577TMC3    H1 8614   1.110   1.996  12.408 -1.9547 -0.7148  0.5217
  577TMC3    H2 8615   1.312   1.849  12.066  1.3455 -1.7937  0.4057
  577TMC3    C7 8616   1.232   2.070  12.193 -0.9390 -0.5438 -0.2146
  577TMC3    C8 8617   1.224   1.590  12.092 -0.0358  0.8058  0.3891
  577TMC3    O1 8618   1.224   2.151  12.282  0.1076  0.2517 -0.1671
  577TMC3    O2 8619   1.153   1.492  12.104  0.8095 -0.0176  0.4964
  578MPD2     C 8620   4.470   1.547   1.276 -0.1196  0.1045 -0.5041
  578MPD2    C1 8621   4.498   1.473   1.162  0.2535 -0.3871  0.1305
  578MPD2    C2 8622   4.584   1.360   1.175 -0.6947  0.2434 -0.3207
  578MPD2    C3 8623   4.637   1.322   1.300 -0.3728  0.1721  0.3995
  578MPD2    C4 8624   4.601   1.403   1.408  0.6602  0.2766  0.0818
  578MPD2    C5 8625   4.525   1.517   1.396  0.2448 -0.6560  0.3495
  578MPD2     H 8626   4.607   1.299   1.089 -0.3467 -1.4950  0.9862
  578MPD2    H1 8627   4.642   1.385   1.507  2.0222 -0.0589 -0.5518
  578MPD2    H2 8628   4.409   1.637   1.270 -1.4612 -0.6699  1.6641
  578MPD2    H3 8629   4.519   1.581   1.483 -2.2468 -0.2560 -0.1410
  578MPD2     N 8630   4.724   1.208   1.312  0.3593 -0.5247  0.0143
  578MPD2    H5 8631   4.728   1.148   1.229 -0.0986 -0.4861 -0.0377
  578MPD2    N1 8632   4.452   1.524   1.034  0.5355  0.0474  0.1826
  578MPD2    H7 8633   4.400   1.611   1.040 -0.2420 -0.4468  0.6459
  579TMC3    C1 8634   0.149   1.078   1.389 -0.2152  0.3237 -0.0578
  579TMC3    C2 8635   0.267   1.077   1.458  0.3204  0.0092  0.5457
  579TMC3    C3 8636   0.377   1.006   1.411 -0.5905 -0.3383  0.0419
  579TMC3    C4 8637   0.142   1.007   1.267  0.1304 -0.1966  0.0641
  579TMC3    C5 8638   0.251   0.941   1.222  0.0023  0.2134  0.3841
  579TMC3    C6 8639   0.374   0.939   1.294 -0.0133  0.5435 -0.1203
  579TMC3     C 8640   0.058   1.179   1.423 -0.1788 -0.3754  0.1525
  579TMC3     O 8641   0.060   1.223   1.539 -0.0001  0.1637  0.2897
  579TMC3     H 8642   0.287   1.138   1.545  1.0126 -0.0869  0.4537
  579TMC3    H1 8643   0.044   0.985   1.225  0.5396  0.8472 -1.4320
  579TMC3    H2 8644   0.463   0.890   1.258 -0.7062 -0.9472  0.1764
  579TMC3    C7 8645   0.246   0.844   1.117  0.2412 -0.7993  0.9103
  579TMC3    C8 8646   0.498   1.024   1.490 -0.4495 -0.2535  0.1520
  579TMC3    O1 8647   0.329   0.753   1.112 -0.4105 -0.5069 -0.3361
  579TMC3    O2 8648   0.486   1.029   1.613  0.0096 -0.1300 -0.5334
  580TMC3    C1 8649   3.491   0.698  12.212 -0.8007 -0.0438 -0.2685
  580TMC3    C2 8650   3.446   0.683  12.082  0.4378 -0.4902 -0.4083
  580TMC3    C3 8651   3.469   0.566  12.019  0.6616 -0.2854 -0.0373
  580TMC3    C4 8652   3.533   0.596  12.286 -0.3148  0.2628 -0.3054
  580TMC3    C5 8653   3.543   0.475  12.225  0.2984  0.1244  0.7000
  580TMC3    C6 8654   3.517   0.459  12.091  0.8233  0.0201  0.3847
  580TMC3     C 8655   3.556   0.822  12.248 -0.0055 -0.3826  0.2507
  580TMC3     O 8656   3.509   0.919  12.190 -0.2040 -0.1407  0.2588
  580TMC3     H 8657   3.429   0.774  12.026  1.9430  0.7790  1.1899
  580TMC3    H1 8658   3.537   0.601  12.395 -0.4784 -0.0843 -0.2842
  580TMC3    H2 8659   3.536   0.367  12.037  0.8259 -0.1349  0.6502
  580TMC3    C7 8660   3.565   0.356  12.308 -0.5159  0.7591 -0.1659
  580TMC3    C8 8661   3.520   0.603  11.888  0.4251  0.2182  0.2329
  580TMC3    O1 8662   3.612   0.387  12.417  0.3495 -0.1460 -0.0036
  580TMC3    O2 8663   3.448   0.664  11.807  0.4408  0.4510  0.5716
  581MPD2     C 8664   1.150   0.083  15.065 -0.7040  0.1145 -0.3258
  581MPD2    C1 8665   1.245   0.163  15.010 -0.3151  0.1442  0.1066
  581MPD2    C2 8666   1.212   0.295  14.973 -0.6315 -0.1809  0.2544
  581MPD2    C3 8667   1.083   0.337  14.979 -1.1485 -0.3449  0.0404
  581MPD2    C4 8668   0.989   0.253  15.026 -0.6298 -0.2460  0.0617
  581MPD2    C5 8669   1.021   0.128  15.072  0.0282 -0.9733 -0.1519
  581MPD2     H 8670   1.285   0.358  14.923 -0.3153 -0.6806  0.0780
  581MPD2    H1 8671   0.881   0.266  15.033 -0.5160  0.3796  0.5854
  581MPD2    H2 8672   1.183   4.726  15.107  0.7634  1.3663  1.3390
  581MPD2    H3 8673   0.940   0.073  15.117 -0.7593  0.2719 -0.0854
  581MPD2     N 8674   1.047   0.469  14.937 -0.4983  0.2145  0.6856
  581MPD2    H5 8675   1.125   0.528  14.912 -0.3974 -0.2618 -0.1140
  581MPD2    N1 8676   1.375   0.107  15.011  0.3479 -0.1329  0.1965
  581MPD2    H7 8677   1.380   0.014  15.051  1.2036  0.6057  1.8166
  582TMC3    C1 8678   1.592   0.088  15.060  0.5187 -0.0954 -0.7768
  582TMC3    C2 8679   1.684   0.140  15.151 -0.1495 -0.1907  0.1676
  582TMC3    C3 8680   1.729   0.054  15.248 -0.0824  0.5361 -0.1953
  582TMC3    C4 8681   1.546   4.695  15.067  0.5146  0.1660 -0.4505
  582TMC3    C5 8682   1.588   4.608  15.166 -0.0660  0.1511  0.5114
  582TMC3    C6 8683   1.681   4.664  15.255  0.8250  0.2559 -0.2027
  582TMC3     C 8684   1.489   0.182  15.014 -0.5181  0.7545  0.0895
  582TMC3     O 8685   1.507   0.303  15.004  0.3381  0.0922 -0.2552
  582TMC3     H 8686   1.720   0.240  15.131 -0.0259 -0.3989 -0.6649
  582TMC3    H1 8687   1.486   4.646  14.991  0.9166 -0.0928 -0.5984
  582TMC3    H2 8688   1.720   4.595  15.330 -0.3779 -1.2878 -1.0056
  582TMC3    C7 8689   1.469   4.553  15.226 -0.6641 -0.3338  0.9087
  582TMC3    C8 8690   1.768   0.120  15.374  0.8849 -0.0692  0.4566
  582TMC3    O1 8691   1.384   4.504  15.151  0.3716 -0.0494  0.4723
  582TMC3    O2 8692   1.710   0.072  15.473 -0.5788  0.2050  0.1188
  583MPD2     C 8693   1.388   2.274  16.495  0.1553  0.1117  0.1279
  583MPD2    C1 8694   1.500   2.274  16.573 -0.0697 -0.6317  0.5913
  583MPD2    C2 8695   1.511   2.352  16.691  0.4051 -0.2760 -0.7031
  583MPD2    C3 8696   1.403   2.434  16.727  0.6718 -0.0212 -0.1981
  583MPD2    C4 8697   1.301   2.443  16.637 -0.1591  0.2647  0.1651
  583MPD2    C5 8698   1.284   2.364  16.532  0.1316  0.4111 -0.2946
  583MPD2     H 8699   1.604   2.363  16.746 -0.6150 -0.7574  1.1062
  583MPD2    H1 8700   1.210   2.500  16.655 -0.0989  1.3093 -2.9156
  583MPD2    H2 8701   1.381   2.218  16.403  1.1685 -2.1134  1.4007
  583MPD2    H3 8702   1.193   2.365  16.474  1.0269 -1.5714 -1.7833
  583MPD2     N 8703   1.395   2.519  16.840  0.2404 -0.6158  0.6137
  583MPD2    H5 8704   1.328   2.595  16.844  1.4498  0.6620 -3.0470
  583MPD2    N1 8705   1.617   2.204  16.529  0.1872 -0.0427  0.0979
  583MPD2    H7 8706   1.703   2.219  16.580  0.4752 -0.2467 -0.3311
  584TMC3    C1 8707   1.480   2.628  17.034  0.1835  0.0078 -0.1624
  584TMC3    C2 8708   1.429   2.745  16.985 -0.9488 -0.1588 -0.3081
  584TMC3    C3 8709   1.419   2.850  17.068 -0.4398 -0.1934  0.8049
  584TMC3    C4 8710   1.526   2.614  17.162  0.4161 -0.5616 -0.0240
  584TMC3    C5 8711   1.519   2.724  17.244  0.0746  0.1368  0.7675
  584TMC3    C6 8712   1.458   2.839  17.200 -0.5470 -0.6495 -0.3700
  584TMC3     C 8713   1.486   2.508  16.946 -0.3723  0.2878  0.3938
  584TMC3     O 8714   1.561   2.421  16.980 -0.4195 -0.2405  0.2197
  584TMC3     H 8715   1.410   2.757  16.879 -2.0999  1.0376  0.0405
  584TMC3    H1 8716   1.557   2.520  17.206 -1.2375 -0.5578  1.1704
  584TMC3    H2 8717   1.412   2.902  17.275  2.0606 -0.3511  1.0061
  584TMC3    C7 8718   1.524   2.695  17.387 -0.2966  0.0297 -0.2204
  584TMC3    C8 8719   1.377   2.978  17.003  0.0716 -0.0200 -0.4209
  584TMC3    O1 8720   1.530   2.576  17.419  0.6494 -0.0923 -0.5616
  584TMC3    O2 8721   1.336   2.980  16.886 -0.0567  0.2325 -0.1302
  585MPD2     C 8722   0.617   0.830   0.119  0.2044 -0.5366  0.2818
  585MPD2    C1 8723   0.721   0.866   0.035 -0.2590 -0.0256 -0.6219
  585MPD2    C2 8724   0.773   0.774  17.700 -0.3768  0.6402 -0.6369
  585MPD2    C3 8725   0.726   0.645  17.699  0.1044  0.8104  0.1106
  585MPD2    C4 8726   0.621   0.606   0.037 -0.4765  0.0238 -0.2291
  585MPD2    C5 8727   0.563   0.701   0.109 -0.8051 -0.8607  0.4622
  585MPD2     H 8728   0.840   0.794  17.616 -1.2646  1.2055 -1.2175
  585MPD2    H1 8729   0.575   0.509   0.024  2.5502 -1.6308  1.3573
  585MPD2    H2 8730   0.573   0.905   0.183 -1.5680 -2.3512  1.1868
  585MPD2    H3 8731   0.474   0.671   0.162 -0.2497 -0.7089  1.4909
  585MPD2     N 8732   0.779   0.544  17.609  0.4384 -0.2481  0.5775
  585MPD2    H5 8733   0.718   0.462  17.604  0.1126  0.0094  0.3595
  585MPD2    N1 8734   0.757   1.005   0.032 -0.0263  0.0453  0.0237
  585MPD2    H7 8735   0.716   1.072   0.097  2.9878  1.7038  0.2005
  586TMC3    C1 8736   0.892   0.462  17.429  0.1763 -0.3828  0.2220
  586TMC3    C2 8737   1.016   0.435  17.387 -0.2289 -1.4864  0.2884
  586TMC3    C3 8738   1.020   0.390  17.260 -0.1906 -0.2624 -0.4334
  586TMC3    C4 8739   0.781   0.463  17.353 -1.0445 -0.1555  0.5677
  586TMC3    C5 8740   0.793   0.418  17.222  0.4151 -0.1381 -0.2132
  586TMC3    C6 8741   0.915   0.373  17.174 -0.4885 -0.6577 -0.0974
  586TMC3     C 8742   0.885   0.557  17.533 -0.3481 -0.4879 -1.0929
  586TMC3     O 8743   0.979   0.637  17.543 -0.3531 -0.5303 -0.6293
  586TMC3     H 8744   1.102   0.460  17.448 -0.8366  3.4004 -0.8254
  586TMC3    H1 8745   0.686   0.504  17.384 -0.1903 -0.1731  3.1934
  586TMC3    H2 8746   0.925   0.332  17.074 -1.6665  0.1148 -0.5479
  586TMC3    C7 8747   0.685   0.441  17.127  0.6084 -0.6419  0.7448
  586TMC3    C8 8748   1.152   0.374  17.201 -0.0219 -0.8985  0.0104
  586TMC3    O1 8749   0.678   0.366  17.031 -0.5959  0.3774  0.2428
  586TMC3    O2 8750   1.245   0.327  17.265  1.3316  0.1353 -0.1120
  587TMC3    C1 8751   2.915   4.331  16.015  0.0709 -0.9221 -0.1214
  587TMC3    C2 8752   2.971   4.423  16.096 -0.9138 -0.2840  0.2764
  587TMC3    C3 8753   3.109   4.425  16.110 -0.5751  1.0967  0.0599
  587TMC3    C4 8754   2.989   4.245  15.938  0.0282  0.6481 -0.0875
  587TMC3    C5 8755   3.126   4.251  15.962  0.2676  1.0542 -0.0286
  587TMC3    C6 8756   3.183   4.335  16.046  0.3550  0.0275 -0.3507
  587TMC3     C 8757   2.783   4.363  15.975 -0.0305 -1.0852  0.0410
  587TMC3     O 8758   2.705   4.394  16.061 -0.6179 -0.4358  0.1130
  587TMC3     H 8759   2.908   4.490  16.154  0.8777  1.6751 -0.0547
  587TMC3    H1 8760   2.943   4.175  15.871 -1.6403  0.4703  1.2419
  587TMC3    H2 8761   3.290   4.321  16.059 -0.2260 -2.6801  1.4394
  587TMC3    C7 8762   3.193   4.143  15.896 -0.2489 -0.0296 -0.3369
  587TMC3    C8 8763   3.172   4.530  16.186  1.2083 -0.4268  0.4175
  587TMC3    O1 8764   3.120   4.064  15.837 -0.0907 -0.2242  0.0662
  587TMC3    O2 8765   3.293   4.543  16.182 -0.9638 -0.2804 -0.3485
  588TMC3    C1 8766   0.460   2.377   9.699 -0.2877 -0.3178  0.3206
  588TMC3    C2 8767   0.423   2.256   9.648 -0.2934  0.2482 -0.2890
  588TMC3    C3 8768   0.510   2.149   9.636 -0.3592  0.0784  0.0518
  588TMC3    C4 8769   0.588   2.399   9.724  0.4523 -0.4465 -0.1311
  588TMC3    C5 8770   0.679   2.296   9.716 -0.5025 -0.1582  1.4102
  588TMC3    C6 8771   0.643   2.171   9.678 -0.3672  0.0553 -0.1818
  588TMC3     C 8772   0.385   2.501   9.664 -0.9712  0.3684  0.2493
  588TMC3     O 8773   0.328   2.500   9.555 -0.1769  0.1776  0.1395
  588TMC3     H 8774   0.319   2.227   9.637 -0.4516  0.3157  1.0212
  588TMC3    H1 8775   0.631   2.499   9.727 -1.2538  0.3104 -0.7785
  588TMC3    H2 8776   0.725   2.099   9.678  0.8476  1.4333  1.3293
  588TMC3    C7 8777   0.805   2.319   9.782 -0.0240 -0.3046  0.2660
  588TMC3    C8 8778   0.451   2.017   9.648  0.3871 -0.1562  0.0050
  588TMC3    O1 8779   0.901   2.264   9.732 -0.0291 -0.2576  0.0454
  588TMC3    O2 8780   0.331   2.003   9.619  0.3598  0.3019  0.7198
  589TMC3    C1 8781   0.025   4.692   1.090  0.3225  0.1811  0.3008
  589TMC3    C2 8782   0.147   4.711   1.139  0.5581  0.2954  0.3677
  589TMC3    C3 8783   0.255   4.640   1.090 -0.0034 -0.0081  0.3270
  589TMC3    C4 8784   0.007   4.596   0.996  0.1053 -0.5311  0.0942
  589TMC3    C5 8785   0.108   4.524   0.953  0.4211 -0.3294 -0.0293
  589TMC3    C6 8786   0.237   4.551   0.995  0.3102  0.3530  0.1227
  589TMC3     C 8787   4.651   0.053   1.113 -0.2184 -0.3167  0.0203
  589TMC3     O 8788   4.552   0.047   1.040 -1.2730  0.0901 -0.0849
  589TMC3     H 8789   0.157   0.064   1.197 -0.7402 -0.7734  2.2611
  589TMC3    H1 8790   4.644   4.577   0.961  1.0097 -1.9034 -1.7838
  589TMC3    H2 8791   0.319   4.499   0.947 -1.2625 -1.5300 -0.5272
  589TMC3    C7 8792   0.081   4.399   0.882 -0.4103  0.0860 -0.0472
  589TMC3    C8 8793   0.380   4.633   1.164  0.0745  0.3000 -0.4835
  589TMC3    O1 8794   4.704   4.386   0.837 -0.5849 -0.4380  0.2819
  589TMC3    O2 8795   0.374   4.665   1.281  0.0549  0.2473  0.3133
  590MPD2     C 8796   3.882   2.632  16.445  0.3213 -0.1376  0.0979
  590MPD2    C1 8797   3.843   2.741  16.507  0.1138  0.1561 -0.9516
  590MPD2    C2 8798   3.919   2.859  16.485 -0.4376  0.5226 -0.2483
  590MPD2    C3 8799   4.033   2.856  16.410  0.0465  0.0932  0.4131
  590MPD2    C4 8800   4.080   2.734  16.366 -0.0829  0.3644 -0.0402
  590MPD2    C5 8801   4.009   2.621  16.384 -0.1905 -0.4661 -0.4665
  590MPD2     H 8802   3.893   2.954  16.530  0.3307  1.5658 -2.0223
  590MPD2    H1 8803   4.180   2.728  16.325 -1.5434 -1.4913 -3.3578
  590MPD2    H2 8804   3.812   2.549  16.450 -1.4753  1.3653 -0.1338
  590MPD2    H3 8805   4.047   2.526  16.347 -3.9030 -1.7084 -1.1099
  590MPD2     N 8806   4.097   2.982  16.405  0.3454 -0.2856 -0.0356
  590MPD2    H5 8807   4.060   3.058  16.461 -0.8367 -0.0132 -1.1929
  590MPD2    N1 8808   3.721   2.737  16.582 -0.5588 -0.6438  0.1135
  590MPD2    H7 8809   3.651   2.668  16.555 -1.7399  0.8894 -0.7760
  591TMC3    C1 8810   4.224   3.159  16.313  0.0453  0.3137  0.0444
  591TMC3    C2 8811   4.352   3.186  16.284  0.2244 -0.4599 -0.6856
  591TMC3    C3 8812   4.395   3.309  16.241  0.1759 -0.4953  0.1057
  591TMC3    C4 8813   4.125   3.249  16.280  0.2527  0.1827 -0.2753
  591TMC3    C5 8814   4.168   3.371  16.238  0.1072 -0.6749 -0.5782
  591TMC3    C6 8815   4.301   3.406  16.231  0.4142 -0.4564  0.4206
  591TMC3     C 8816   4.197   3.017  16.319 -0.2237  0.0129  0.4148
  591TMC3     O 8817   4.271   2.939  16.261  0.0443  0.3456 -0.4332
  591TMC3     H 8818   4.417   3.100  16.291 -1.2957 -1.4613  1.3388
  591TMC3    H1 8819   4.022   3.220  16.298  0.0112 -0.5975 -2.8200
  591TMC3    H2 8820   4.329   3.510  16.231 -2.5527  0.3330  0.0779
  591TMC3    C7 8821   4.081   3.417  16.129  0.0130  0.0219  0.3239
  591TMC3    C8 8822   4.502   3.312  16.147 -0.0384  0.1671 -0.2637
  591TMC3    O1 8823   3.980   3.351  16.112  1.0289  0.3528 -0.0007
  591TMC3    O2 8824   4.556   3.208  16.112  0.1118  0.3206  0.1540
  592MPD2     C 8825   4.579   0.419  11.995  0.4881  0.4090  0.0908
  592MPD2    C1 8826   4.534   0.379  12.117  0.2504 -0.1383  0.2003
  592MPD2    C2 8827   4.425   0.299  12.125  0.5969  0.4996  0.0705
  592MPD2    C3 8828   4.352   0.257  12.015 -0.0329  0.2082  0.4515
  592MPD2    C4 8829   4.390   0.308  11.891 -0.5308  0.4494  0.2650
  592MPD2    C5 8830   4.509   0.378  11.882 -0.2978  0.2946  0.1306
  592MPD2     H 8831   4.381   0.267  12.218 -1.1591 -0.5182 -1.0972
  592MPD2    H1 8832   4.339   0.285  11.798 -0.7454  0.9225  0.2661
  592MPD2    H2 8833   4.676   0.468  11.992  0.8665 -0.3014  0.8998
  592MPD2    H3 8834   4.544   0.420  11.788 -0.1346 -0.1389 -0.0029
  592MPD2     N 8835   4.240   0.179  12.039 -0.6042  0.7245  0.5049
  592MPD2    H5 8836   4.229   0.165  12.139 -0.0760  0.1738  0.4862
  592MPD2    N1 8837   4.605   0.422  12.236  0.5679  0.5280 -0.0276
  592MPD2    H7 8838   4.671   0.499  12.227  0.7378  0.0873 -2.5708
  593TMC3    C1 8839   4.648   0.453  12.454 -0.8113 -0.2836  0.5679
  593TMC3    C2 8840   4.613   0.584  12.453  0.4954 -0.0417 -0.1652
  593TMC3    C3 8841   4.705   0.684  12.469 -0.1357  0.2046  0.3855
  593TMC3    C4 8842   0.038   0.420  12.489  0.5306 -0.5985  0.4919
  593TMC3    C5 8843   0.122   0.521  12.525  0.2354 -1.0663  0.1401
  593TMC3    C6 8844   0.091   0.655  12.510 -0.2997  0.0490 -1.0915
  593TMC3     C 8845   4.580   0.372  12.362  0.0550 -0.7094  0.5105
  593TMC3     O 8846   4.505   0.280  12.395 -0.0377  0.1835 -0.5962
  593TMC3     H 8847   4.518   0.611  12.408 -0.2068 -0.0321  1.3053
  593TMC3    H1 8848   0.076   0.319  12.476  0.5584 -0.4922 -0.2638
  593TMC3    H2 8849   0.153   0.740  12.535 -1.0325  0.8970 -2.1485
  593TMC3    C7 8850   0.257   0.493  12.502  0.4302 -0.2222 -0.4108
  593TMC3    C8 8851   4.687   0.792  12.371 -0.7311 -0.2409 -0.3812
  593TMC3    O1 8852   0.302   0.383  12.532 -0.2751 -0.9134  0.7748
  593TMC3    O2 8853   4.584   0.795  12.306  0.2899 -0.2739  0.2764
  594MPD2     C 8854   3.375   3.475  13.781 -0.2322  0.0197 -0.0636
  594MPD2    C1 8855   3.352   3.472  13.912  0.2996  0.5947 -0.3612
  594MPD2    C2 8856   3.451   3.525  13.995  0.3412 -0.3158  0.1531
  594MPD2    C3 8857   3.573   3.566  13.942  0.7165  0.2213 -0.8199
  594MPD2    C4 8858   3.596   3.553  13.806 -0.2663 -0.4077 -0.1567
  594MPD2    C5 8859   3.498   3.498  13.730  0.0072  0.3199  0.1701
  594MPD2     H 8860   3.431   3.526  14.102  0.9525  0.5213  0.2618
  594MPD2    H1 8861   3.690   3.590  13.766 -1.2622  0.4998 -1.6414
  594MPD2    H2 8862   3.301   3.420  13.724 -1.3671  1.4477  0.0509
  594MPD2    H3 8863   3.516   3.478  13.625 -2.3853  1.3975 -0.4615
  594MPD2     N 8864   3.659   3.628  14.035 -0.1373  0.2231 -0.0845
  594MPD2    H5 8865   3.621   3.641  14.128 -0.9371  0.6380 -0.4698
  594MPD2    N1 8866   3.228   3.421  13.956 -0.3701  0.1619  0.0000
  594MPD2    H7 8867   3.167   3.383  13.885  1.5249  3.7491 -3.5887
  595TMC3    C1 8868   4.042   3.866  14.162 -0.3146  0.0162 -0.2249
  595TMC3    C2 8869   3.987   3.768  14.089 -0.0115 -0.2321  0.2351
  595TMC3    C3 8870   3.851   3.753  14.107  0.3471 -0.2338 -0.5061
  595TMC3    C4 8871   3.969   3.952  14.242 -0.8310  0.4754 -0.0068
  595TMC3    C5 8872   3.831   3.951  14.229  0.3099  0.3804 -0.2096
  595TMC3    C6 8873   3.766   3.847  14.165 -0.0476 -0.2885 -0.5003
  595TMC3     C 8874   4.184   3.871  14.165  0.0775  0.4925 -0.4033
  595TMC3     O 8875   4.231   3.982  14.180 -0.2567 -0.1132  0.8500
  595TMC3     H 8876   4.049   3.713  14.019 -0.2417 -0.0125 -0.1391
  595TMC3    H1 8877   4.027   4.028  14.293 -3.1589  0.6385  2.4095
  595TMC3    H2 8878   3.658   3.846  14.154 -0.1286  0.9017  0.2461
  595TMC3    C7 8879   3.762   4.020  14.337  0.1263 -0.6017 -0.0736
  595TMC3    C8 8880   3.792   3.652  14.015 -0.0758 -0.4100 -0.2588
  595TMC3    O1 8881   3.657   3.967  14.366  0.1063 -0.3167  0.0243
  595TMC3    O2 8882   3.867   3.611  13.924  0.1892 -0.3654  0.2905
  596MPD2     C 8883   2.109   1.895  16.720 -0.7256 -0.4877  1.1980
  596MPD2    C1 8884   2.237   1.944  16.701  0.7937  0.6859 -0.5645
  596MPD2    C2 8885   2.316   1.901  16.591  0.1658  0.4877 -0.1337
  596MPD2    C3 8886   2.264   1.825  16.485  0.3103  0.0134 -0.0675
  596MPD2    C4 8887   2.126   1.791  16.499 -0.0087  0.0228  0.6815
  596MPD2    C5 8888   2.052   1.819  16.614  0.1025 -0.0127 -0.5636
  596MPD2     H 8889   2.419   1.935  16.581  0.9321 -1.6359  0.4663
  596MPD2    H1 8890   2.085   1.721  16.426  3.6967 -1.6829  0.2463
  596MPD2    H2 8891   2.046   1.916  16.806  0.7286  1.3488  1.8111
  596MPD2    H3 8892   1.951   1.779  16.610 -0.4382  1.2829  0.3282
  596MPD2     N 8893   2.343   1.801  16.368 -0.0648 -0.2499  0.4402
  596MPD2    H5 8894   2.292   1.756  16.293 -0.1302 -0.1373  0.4167
  596MPD2    N1 8895   2.295   2.040  16.783 -0.4958 -0.5482  0.1253
  596MPD2    H7 8896   2.390   2.063  16.753 -0.8224 -0.4275 -0.8199
  597TMC3    C1 8897   2.293   2.229  16.924 -0.2877 -0.0934 -0.2321
  597TMC3    C2 8898   2.361   2.303  16.829 -0.7120 -0.2572 -1.1725
  597TMC3    C3 8899   2.371   2.437  16.853 -0.1928  0.3989  1.0444
  597TMC3    C4 8900   2.216   2.286  17.027 -0.0030 -0.3938 -0.1656
  597TMC3    C5 8901   2.221   2.418  17.042  0.7086 -0.1584  0.6186
  597TMC3    C6 8902   2.312   2.493  16.965  0.4817 -0.3457 -0.4105
  597TMC3     C 8903   2.235   2.101  16.889 -0.0192 -0.3095 -0.1843
  597TMC3     O 8904   2.136   2.062  16.950 -0.0891  0.4564 -0.5747
  597TMC3     H 8905   2.411   2.253  16.748 -0.1747  0.3243 -1.2003
  597TMC3    H1 8906   2.155   2.223  17.091  2.4947  0.1663  2.7538
  597TMC3    H2 8907   2.331   2.599  16.976  0.7567 -0.2818 -1.4905
  597TMC3    C7 8908   2.118   2.477  17.120  0.5772 -0.0323  0.0217
  597TMC3    C8 8909   2.463   2.508  16.767  0.1354  0.9834  0.5106
  597TMC3    O1 8910   2.058   2.404  17.196  0.4857 -0.3838  0.4972
  597TMC3    O2 8911   2.558   2.436  16.732 -0.1188 -0.0707 -0.2177
  598TMC3    C1 8912   0.525   3.237  15.456  0.7350 -0.1217  0.6400
  598TMC3    C2 8913   0.463   3.117  15.451  0.8723 -0.5071 -0.3843
  598TMC3    C3 8914   0.406   3.079  15.334  0.1373 -0.3964 -0.2445
  598TMC3    C4 8915   0.545   3.320  15.348 -0.2092 -0.6714  0.6231
  598TMC3    C5 8916   0.501   3.266  15.226 -0.2504 -0.3892 -0.0074
  598TMC3    C6 8917   0.430   3.147  15.216  0.4535 -0.3209  0.4815
  598TMC3     C 8918   0.565   3.298  15.581 -0.5754  0.0092 -0.0825
  598TMC3     O 8919   0.550   3.421  15.588 -0.4480  0.1207  0.3560
  598TMC3     H 8920   0.450   3.059  15.542  0.5529 -0.5004 -0.4274
  598TMC3    H1 8921   0.617   3.401  15.346 -4.8584  3.4688  2.6672
  598TMC3    H2 8922   0.388   3.114  15.122  0.6104  1.3390 -0.1842
  598TMC3    C7 8923   0.558   3.306  15.098  0.1766 -0.6976 -0.4457
  598TMC3    C8 8924   0.364   2.942  15.321 -0.2638  0.7971  0.0914
  598TMC3    O1 8925   0.556   3.218  15.013 -0.4041 -0.1396  0.0127
  598TMC3    O2 8926   0.396   2.852  15.395  0.9094  0.2156  0.1578
  599MPD2     C 8927   0.806   1.069  16.156 -0.4006 -0.0687 -0.1418
  599MPD2    C1 8928   0.716   1.003  16.069 -0.6763  0.5042 -0.0446
  599MPD2    C2 8929   0.588   1.046  16.065 -0.3835 -0.0933 -0.6999
  599MPD2    C3 8930   0.544   1.155  16.147 -0.4394 -0.3499  0.2877
  599MPD2    C4 8931   0.634   1.215  16.230 -0.7782 -0.2793  0.2826
  599MPD2    C5 8932   0.764   1.181  16.230  0.0720 -0.5341 -1.2876
  599MPD2     H 8933   0.522   1.006  15.989 -0.5938  0.3061 -0.7299
  599MPD2    H1 8934   0.607   1.304  16.286  0.5758 -0.3001  0.9670
  599MPD2    H2 8935   0.912   1.052  16.149 -0.4380  0.3943 -1.6788
  599MPD2    H3 8936   0.832   1.230  16.300 -0.1576  0.3147 -1.6523
  599MPD2     N 8937   0.403   1.199  16.164 -0.5747  0.0822  0.5271
  599MPD2    H5 8938   0.384   1.286  16.212 -0.0964  0.4698  0.0141
  599MPD2    N1 8939   0.781   0.923  15.972  0.2605 -0.6444  0.1366
  599MPD2    H7 8940   0.882   0.916  15.968  0.1935 -0.2324 -2.1409
  600TMC3    C1 8941   0.173   1.170  16.152 -0.2354 -0.2295  1.2052
  600TMC3    C2 8942   0.095   1.099  16.241  0.0811 -0.3633 -0.5138
  600TMC3    C3 8943   0.018   1.170  16.332  0.1524 -0.3288  0.2617
  600TMC3    C4 8944   0.160   1.314  16.144  0.4510  0.2142 -0.1897
  600TMC3    C5 8945   0.090   1.373  16.241 -0.2492  0.3448 -1.0350
  600TMC3    C6 8946   0.024   1.306  16.336 -0.2291  0.0860  0.1411
  600TMC3     C 8947   0.302   1.119  16.119  0.4557  0.4650 -0.3140
  600TMC3     O 8948   0.300   1.000  16.090  0.1711 -0.0165  0.2190
  600TMC3     H 8949   0.107   0.993  16.259 -1.6475 -0.4875 -0.1316
  600TMC3    H1 8950   0.212   1.369  16.067 -1.7822  2.1939 -0.2644
  600TMC3    H2 8951   4.705   1.365  16.408 -1.4235  0.6322 -1.2536
  600TMC3    C7 8952   0.069   1.516  16.250 -0.4544 -0.2546 -0.1786
  600TMC3    C8 8953   4.683   1.099  16.438  1.1770 -0.1080  0.5979
  600TMC3    O1 8954   0.025   1.565  16.351  0.0140 -0.7966 -0.0507
  600TMC3    O2 8955   4.688   1.149  16.551  0.4543  0.2439 -0.2984
  601MPD2     C 8956   2.772   4.724   0.155 -0.2524  0.0094 -0.4070
  601MPD2    C1 8957   2.664   4.651   0.121  0.2359  0.2971 -0.0056
  601MPD2    C2 8958   2.612   4.553   0.203 -0.0130  0.2139 -0.3828
  601MPD2    C3 8959   2.683   4.513   0.319  0.1865 -0.5235 -0.6859
  601MPD2    C4 8960   2.786   4.599   0.360 -0.1680  0.0241  0.0429
  601MPD2    C5 8961   2.832   4.699   0.279  0.5817  0.0286  0.3914
  601MPD2     H 8962   2.532   4.488   0.168 -0.5806 -0.1622  1.6107
  601MPD2    H1 8963   2.850   4.575   0.444  0.5889  1.1732 -0.1959
  601MPD2    H2 8964   2.825   0.059   0.094 -0.6532  2.2754  1.9115
  601MPD2    H3 8965   2.922   0.015   0.307 -1.3861  3.2934  0.4583
  601MPD2     N 8966   2.663   4.395   0.393  0.4271 -0.7686 -0.7619
  601MPD2    H5 8967   2.723   4.385   0.474  1.6748  0.6717 -1.5163
  601MPD2    N1 8968   2.589   4.678  17.749 -0.3865  0.8965 -0.0968
  601MPD2    H7 8969   2.501   4.629  17.740  0.3204 -0.2692 -0.6318
  602TMC3    C1 8970   2.507   0.067  17.562 -0.6848  0.0217 -0.5994
  602TMC3    C2 8971   2.479   0.198  17.527 -0.1500 -0.5571  0.5485
  602TMC3    C3 8972   2.402   0.216  17.415  0.5623 -0.0941  0.2926
  602TMC3    C4 8973   2.439   4.701  17.503  0.3614  0.4830 -0.4449
  602TMC3    C5 8974   2.354   4.727  17.400 -0.1983  0.1728 -0.7412
  602TMC3    C6 8975   2.342   0.114  17.339 -0.1199  0.0620 -0.1528
  602TMC3     C 8976   2.614   0.047  17.658  0.0919  0.7887  0.1725
  602TMC3     O 8977   2.699   0.133  17.670 -0.4083 -0.0269  0.7672
  602TMC3     H 8978   2.528   0.284  17.571 -3.9717  1.3686  0.9811
  602TMC3    H1 8979   2.458   4.599  17.534  2.0148  0.4700 -1.4854
  602TMC3    H2 8980   2.256   0.138  17.277 -1.5935 -0.2460  1.7640
  602TMC3    C7 8981   2.307   4.611  17.322 -0.4299  0.6777  0.2720
  602TMC3    C8 8982   2.379   0.354  17.371  0.0321  0.7276 -0.5359
  602TMC3    O1 8983   2.271   4.515  17.389  0.2267  0.4092 -0.2074
  602TMC3    O2 8984   2.375   0.441  17.464  0.6483  0.0462  0.2530
  603TMC3    C1 8985   0.576   4.696  10.577  0.4441  0.4828  0.2713
  603TMC3    C2 8986   0.547   4.669  10.711 -1.1735 -0.2598 -0.5414
  603TMC3    C3 8987   0.471   0.024  10.777 -0.5291  0.4472 -0.4978
  603TMC3    C4 8988   0.535   0.076  10.523 -0.3729  0.4035 -0.0440
  603TMC3    C5 8989   0.451   0.159  10.588 -0.4739 -0.1832  0.4835
  603TMC3    C6 8990   0.408   0.131  10.717  0.7342 -0.5830 -0.1577
  603TMC3     C 8991   0.560   4.584  10.483  0.4016 -0.0054 -0.4557
  603TMC3     O 8992   0.493   4.602  10.381  0.5314 -0.7961  0.4443
  603TMC3     H 8993   0.588   4.587  10.769 -0.8206  0.4269  0.1913
  603TMC3    H1 8994   0.564   0.094  10.420  0.1313 -0.0041  0.0296
  603TMC3    H2 8995   0.365   0.206  10.783  0.4281 -0.0451 -0.9804
  603TMC3    C7 8996   0.434   0.292  10.532  0.5530 -0.7341 -0.5066
  603TMC3    C8 8997   0.496   0.057  10.916  0.4900  0.3431 -1.1206
  603TMC3    O1 8998   0.509   0.330  10.445  0.7097  0.3122 -0.7648
  603TMC3    O2 8999   0.519   0.171  10.950 -0.1968 -0.0535 -0.1860
  604MPD2     C 9000   1.740   3.351  16.242  0.7682  0.7162  0.4502
  604MPD2    C1 9001   1.628   3.272  16.225  0.1677 -0.2899  0.2242
  604MPD2    C2 9002   1.632   3.172  16.132  0.6047 -0.0033 -0.3307
  604MPD2    C3 9003   1.748   3.141  16.065 -0.0647  0.1705  0.2554
  604MPD2    C4 9004   1.864   3.226  16.076 -0.2534  0.6075  1.6870
  604MPD2    C5 9005   1.853   3.323  16.172 -0.3618  0.3073  0.1391
  604MPD2     H 9006   1.543   3.112  16.116  0.4592 -0.2126  1.1992
  604MPD2    H1 9007   1.954   3.218  16.016 -1.8492  4.3394 -1.2044
  604MPD2    H2 9008   1.742   3.429  16.316 -1.1255  2.8802 -1.7489
  604MPD2    H3 9009   1.930   3.398  16.185 -1.1766  1.1597  0.0904
  604MPD2     N 9010   1.752   3.028  15.976  0.1140 -0.1969  0.2505
  604MPD2    H5 9011   1.668   2.972  15.973 -0.8455  1.0810  3.1901
  604MPD2    N1 9012   1.516   3.307  16.300 -0.1238  0.6181  0.4480
  604MPD2    H7 9013   1.523   3.386  16.363  0.2775  0.0134  1.1588
  605TMC3    C1 9014   1.297   3.318  16.398  0.0228  0.0523 -0.3563
  605TMC3    C2 9015   1.366   3.391  16.498 -0.6374 -0.0434  0.1574
  605TMC3    C3 9016   1.310   3.494  16.566  0.4139 -0.0179 -0.0807
  605TMC3    C4 9017   1.163   3.360  16.369 -0.1975  0.7183  0.4193
  605TMC3    C5 9018   1.119   3.475  16.433 -0.7485 -0.3084  0.4319
  605TMC3    C6 9019   1.190   3.542  16.528  0.1115 -0.0735 -0.6081
  605TMC3     C 9020   1.385   3.253  16.300  0.0437  0.1045  0.2430
  605TMC3     O 9021   1.343   3.163  16.233 -0.7987  0.1032 -0.5416
  605TMC3     H 9022   1.464   3.352  16.522 -0.5162 -0.9805 -1.8852
  605TMC3    H1 9023   1.101   3.322  16.289 -1.8921  1.4264  1.3955
  605TMC3    H2 9024   1.134   3.618  16.582  1.7964  1.7342 -1.4053
  605TMC3    C7 9025   0.981   3.512  16.424  1.2305 -0.0135 -0.8372
  605TMC3    C8 9026   1.410   3.587  16.617 -0.0174  0.6574  0.4162
  605TMC3    O1 9027   0.942   3.629  16.425 -0.5409 -0.0719 -0.1028
  605TMC3    O2 9028   1.527   3.552  16.602 -0.0778 -0.3657  0.3612
  606TMC3    C1 9029   2.606   2.797   0.134  0.5285  0.1391  0.1290
  606TMC3    C2 9030   2.642   2.698   0.224 -0.1315 -0.6465  0.1709
  606TMC3    C3 9031   2.647   2.568   0.175 -0.0999 -0.5009 -0.6111
  606TMC3    C4 9032   2.569   2.758   0.002  0.5417  0.2298  0.0111
  606TMC3    C5 9033   2.565   2.629  17.712 -0.6456 -0.4097  0.4597
  606TMC3    C6 9034   2.610   2.531   0.046 -0.7178  0.0741 -0.6600
  606TMC3     C 9035   2.574   2.931   0.163  0.0932 -0.0858 -0.1239
  606TMC3     O 9036   2.586   3.013   0.073 -0.7779  0.5119 -0.1566
  606TMC3     H 9037   2.689   2.738   0.313  1.4950  1.2913 -1.5518
  606TMC3    H1 9038   2.524   2.831  17.685 -0.9296 -0.1172  0.6224
  606TMC3    H2 9039   2.632   2.432   0.007 -0.6228 -0.4893  0.8034
  606TMC3    C7 9040   2.557   2.612  17.573  0.0458 -0.2676 -0.1288
  606TMC3    C8 9041   2.706   2.472   0.261 -0.1898  0.5532  0.3960
  606TMC3    O1 9042   2.559   2.710  17.500 -0.0406 -0.3696 -0.4223
  606TMC3    O2 9043   2.749   2.364   0.216  0.6822 -0.0252  0.9433
  607MPD2     C 9044   4.179   4.619  11.505  0.0752 -0.6722  0.2402
  607MPD2    C1 9045   4.278   4.639  11.599  0.5738  0.1528  0.0790
  607MPD2    C2 9046   4.277   4.565  11.714 -0.9256  0.0700  1.2184
  607MPD2    C3 9047   4.182   4.469  11.741 -0.4401  0.1127 -0.8647
  607MPD2    C4 9048   4.086   4.451  11.647  0.3591 -0.2880  0.3121
  607MPD2    C5 9049   4.084   4.528  11.535 -0.2860  0.9976 -0.4465
  607MPD2     H 9050   4.351   4.584  11.791 -1.7414 -0.4011  2.1110
  607MPD2    H1 9051   4.005   4.381  11.662 -0.7633  1.1092  0.8203
  607MPD2    H2 9052   4.178   4.665  11.406 -1.0281  1.3689  1.1986
  607MPD2    H3 9053   4.002   4.513  11.465 -0.0365 -2.0976 -0.0659
  607MPD2     N 9054   4.186   4.398  11.861  0.6180 -0.2425 -0.1112
  607MPD2    H5 9055   4.251   4.425  11.934  3.5844  1.0083 -3.2007
  607MPD2    N1 9056   4.384   4.731  11.585 -0.4434 -0.3038  0.9253
  607MPD2    H7 9057   4.451   4.720  11.660 -0.2028  3.0816  1.2126
  608TMC3    C1 9058   4.535   0.158  11.506 -0.6132 -0.0551  0.4038
  608TMC3    C2 9059   4.566   0.168  11.634 -0.2565  0.2721  0.4856
  608TMC3    C3 9060   4.690   0.210  11.669  0.4398  0.2986  0.0918
  608TMC3    C4 9061   4.617   0.180  11.404 -0.6610  0.3734  0.5263
  608TMC3    C5 9062   0.009   0.217  11.441 -0.3381  0.5327 -0.0708
  608TMC3    C6 9063   0.046   0.240  11.570  0.3002 -0.6850 -0.2024
  608TMC3     C 9064   4.410   0.084  11.483  0.7672  0.0535 -0.7686
  608TMC3     O 9065   4.369   0.092  11.370 -0.0668 -0.0119  0.3807
  608TMC3     H 9066   4.484   0.163  11.704 -0.5551  0.0986  0.1193
  608TMC3    H1 9067   4.590   0.184  11.300 -1.6017 -0.8851  0.7172
  608TMC3    H2 9068   0.146   0.257  11.607  0.2485  0.2217 -0.4873
  608TMC3    C7 9069   0.089   0.278  11.333 -0.0285  0.4595 -0.2277
  608TMC3    C8 9070   0.010   0.182  11.800  0.2809  0.7438 -0.5887
  608TMC3    O1 9071   0.044   0.273  11.220  0.4094 -0.6098  0.0927
  608TMC3    O2 9072   0.111   0.239  11.832  0.3774 -0.5965 -0.2204
  609TMC3    C1 9073   2.834   4.238   9.317 -0.5361  0.0443  0.6084
  609TMC3    C2 9074   2.765   4.266   9.198 -0.2070  0.0834  0.5232
  609TMC3    C3 9075   2.799   4.193   9.089  0.2664 -0.0732  0.1836
  609TMC3    C4 9076   2.933   4.143   9.321  0.1874  0.4106 -0.0790
  609TMC3    C5 9077   2.956   4.068   9.207  0.1774  0.0922 -0.3019
  609TMC3    C6 9078   2.892   4.090   9.086 -0.4991 -0.2375  0.0171
  609TMC3     C 9079   2.781   4.278   9.446 -0.1227  0.7907 -0.4114
  609TMC3     O 9080   2.788   4.191   9.530  0.0128 -0.2191  0.1248
  609TMC3     H 9081   2.674   4.324   9.204 -1.1300 -1.3403  0.2588
  609TMC3    H1 9082   2.967   4.117   9.420 -0.1515  2.3107  0.5353
  609TMC3    H2 9083   2.916   4.036   8.995 -2.4015 -0.3648 -0.3944
  609TMC3    C7 9084   3.076   3.980   9.217 -0.3925 -0.7298  0.0387
  609TMC3    C8 9085   2.738   4.230   8.962  0.6513 -0.0151  0.4417
  609TMC3    O1 9086   3.156   4.005   9.306 -0.0675  0.6737 -0.0683
  609TMC3    O2 9087   2.783   4.175   8.862 -0.6365 -0.3135  0.0182
  610TMC3    C1 9088   4.592   0.628  13.223 -0.1546  0.2772 -0.1468
  610TMC3    C2 9089   4.697   0.695  13.170  0.5548 -0.5123  0.0210
  610TMC3    C3 9090   0.049   0.626  13.097 -0.4122  0.3058 -0.4725
  610TMC3    C4 9091   4.591   0.490  13.229  0.8595 -0.7468 -0.1393
  610TMC3    C5 9092   4.683   0.427  13.159 -0.4525  0.2130 -0.1638
  610TMC3    C6 9093   0.050   0.490  13.093 -0.0100 -0.2634 -0.5881
  610TMC3     C 9094   4.499   0.676  13.321 -0.2493  0.1198 -0.1611
  610TMC3     O 9095   4.458   0.604  13.411 -0.6352  0.4970 -0.1822
  610TMC3     H 9096   4.709   0.802  13.183 -1.1742 -0.3117  0.0049
  610TMC3    H1 9097   4.509   0.433  13.272 -0.9328  1.0547 -1.2229
  610TMC3    H2 9098   0.111   0.429  13.027  2.4950  2.4199 -0.8048
  610TMC3    C7 9099   4.684   0.283  13.147 -1.0628 -0.4845 -0.2216
  610TMC3    C8 9100   0.136   0.698  13.004 -0.6562 -0.7456 -0.5938
  610TMC3    O1 9101   0.052   0.231  13.127 -0.2700 -0.0308 -0.4587
  610TMC3    O2 9102   0.116   0.820  13.004  0.4416  0.0065 -0.5093
  611MPD2     C 9103   3.606   0.466  10.622 -0.5479  0.7249  0.4894
  611MPD2    C1 9104   3.685   0.473  10.507 -0.2680  0.2351  0.2604
  611MPD2    C2 9105   3.817   0.516  10.521 -0.0458 -0.3126  0.6435
  611MPD2    C3 9106   3.858   0.562  10.644 -0.0741  0.5458 -0.6950
  611MPD2    C4 9107   3.779   0.554  10.761 -0.3345 -0.2257 -0.3737
  611MPD2    C5 9108   3.649   0.502  10.749 -0.6017  0.9352 -0.3022
  611MPD2     H 9109   3.883   0.510  10.436  1.1624 -0.4837  1.5837
  611MPD2    H1 9110   3.818   0.573  10.861  1.5441  0.1649 -1.1663
  611MPD2    H2 9111   3.505   0.427  10.625 -0.8749  1.5213 -0.1777
  611MPD2    H3 9112   3.576   0.499  10.830  0.0265  2.1086  0.3171
  611MPD2     N 9113   3.981   0.621  10.667  0.4908  0.1101  0.8352
  611MPD2    H5 9114   4.009   0.644  10.762 -0.0287  2.6291  0.3767
  611MPD2    N1 9115   3.636   0.423  10.384 -1.0496  0.5114  0.1887
  611MPD2    H7 9116   3.541   0.386  10.379 -1.3547  1.1973  0.9712
  612TMC3    C1 9117   4.216   0.684  10.640  0.2039  0.3029  0.3907
  612TMC3    C2 9118   4.318   0.705  10.556  0.0823  0.1556 -0.9034
  612TMC3    C3 9119   4.449   0.712  10.607 -0.0365 -0.2193  0.3588
  612TMC3    C4 9120   4.234   0.657  10.772  0.5114  0.0386 -0.7716
  612TMC3    C5 9121   4.356   0.653  10.821  0.2367  0.2642 -0.1694
  612TMC3    C6 9122   4.461   0.691  10.747 -0.0842 -0.3275 -0.8412
  612TMC3     C 9123   4.085   0.634  10.584 -0.8017 -0.1396  0.1328
  612TMC3     O 9124   4.083   0.617  10.461 -0.3125 -0.0377  0.3051
  612TMC3     H 9125   4.306   0.702  10.449  1.7761  0.8554 -1.1285
  612TMC3    H1 9126   4.147   0.637  10.835 -0.9833 -0.0647 -2.8685
  612TMC3    H2 9127   4.562   0.697  10.786 -0.0344  0.1211 -1.0398
  612TMC3    C7 9128   4.376   0.660  10.967 -0.1647 -0.4964 -0.6273
  612TMC3    C8 9129   4.564   0.702  10.517  0.5527  0.5239 -0.2697
  612TMC3    O1 9130   4.281   0.707  11.026  0.5014  0.8876 -0.0055
  612TMC3    O2 9131   4.546   0.754  10.407 -0.6905 -0.2305  0.8422
  613MPD2     C 9132   3.565   1.742  16.696  0.5819 -0.3081 -0.4582
  613MPD2    C1 9133   3.522   1.849  16.613  0.0060 -0.1189 -0.1647
  613MPD2    C2 9134   3.468   1.824  16.486  0.6140 -0.4896 -0.3427
  613MPD2    C3 9135   3.446   1.694  16.444  0.0055  0.2586 -0.4188
  613MPD2    C4 9136   3.477   1.592  16.540 -0.3779  0.3593  0.6008
  613MPD2    C5 9137   3.544   1.611  16.660  0.6648 -0.0499 -0.2187
  613MPD2     H 9138   3.430   1.903  16.423 -0.7474 -0.8774 -0.0139
  613MPD2    H1 9139   3.460   1.488  16.515  0.1088  0.1864  0.9941
  613MPD2    H2 9140   3.600   1.753  16.798 -1.1260 -1.5599  0.2534
  613MPD2    H3 9141   3.570   1.529  16.725 -0.0930 -1.1749 -1.3368
  613MPD2     N 9142   3.397   1.655  16.314 -0.0107  0.1139 -0.6839
  613MPD2    H5 9143   3.403   1.556  16.292 -0.4932  0.4071 -2.0937
  613MPD2    N1 9144   3.543   1.979  16.654  0.6168  0.3320  0.0275
  613MPD2    H7 9145   3.537   1.992  16.755 -1.2519 -0.7131  0.0603
  614TMC3    C1 9146   3.619   2.070  16.443 -0.0153 -0.4680 -0.0118
  614TMC3    C2 9147   3.724   1.986  16.423  0.0652  0.4253  1.3463
  614TMC3    C3 9148   3.773   1.987  16.295 -0.5517  0.6135  0.0578
  614TMC3    C4 9149   3.593   2.175  16.360 -0.9142  0.5226  0.0630
  614TMC3    C5 9150   3.639   2.169  16.233 -0.5787 -0.2615  0.4180
  614TMC3    C6 9151   3.728   2.076  16.196 -0.0362  0.1009  0.6006
  614TMC3     C 9152   3.575   2.089  16.578  0.6583 -0.3090  0.3182
  614TMC3     O 9153   3.587   2.208  16.612  0.3133  0.4701 -0.6088
  614TMC3     H 9154   3.755   1.924  16.505  1.8189 -0.2094  0.2006
  614TMC3    H1 9155   3.529   2.259  16.385 -2.5808 -0.8086  0.2217
  614TMC3    H2 9156   3.766   2.088  16.095 -1.0203  0.2421  0.2404
  614TMC3    C7 9157   3.599   2.272  16.143  0.0452 -0.4121  0.9815
  614TMC3    C8 9158   3.778   1.854  16.241  0.1215 -0.0904  0.1814
  614TMC3    O1 9159   3.599   2.387  16.193 -0.1569 -0.1867  0.5593
  614TMC3    O2 9160   3.777   1.854  16.115 -0.1590 -0.2014  0.1545
  615MPD2     C 9161   2.882   3.288  16.141 -1.0615  0.6226 -0.3774
  615MPD2    C1 9162   2.834   3.404  16.081  0.7386  0.3195 -0.6316
  615MPD2    C2 9163   2.801   3.403  15.947 -0.0367 -0.0697 -0.7367
  615MPD2    C3 9164   2.819   3.283  15.875  0.5022  0.3348  0.2130
  615MPD2    C4 9165   2.875   3.181  15.934  0.2049  0.4492 -1.3792
  615MPD2    C5 9166   2.912   3.179  16.070  0.2553  0.5039 -0.1341
  615MPD2     H 9167   2.766   3.494  15.900 -0.1286 -0.7702 -2.0097
  615MPD2    H1 9168   2.904   3.087  15.887 -2.1149 -0.5227 -0.8603
  615MPD2    H2 9169   2.909   3.284  16.246 -2.1070 -0.7136 -0.1628
  615MPD2    H3 9170   2.961   3.092  16.113 -1.1000  0.2426  0.9219
  615MPD2     N 9171   2.757   3.265  15.750 -0.2782 -0.2727  0.2729
  615MPD2    H5 9172   2.719   3.349  15.709  1.2714  0.2168 -0.1796
  615MPD2    N1 9173   2.839   3.532  16.156  0.3613  0.0850  0.5764
  615MPD2    H7 9174   2.845   3.510  16.255  0.5409 -3.5859 -0.2404
  616TMC3    C1 9175   2.824   3.759  16.212 -0.2867  0.7298 -0.0204
  616TMC3    C2 9176   2.913   3.863  16.196 -0.2368 -0.4644 -0.2631
  616TMC3    C3 9177   2.899   3.974  16.279 -0.0900  0.0767 -0.6393
  616TMC3    C4 9178   2.729   3.756  16.315 -0.4222  0.9182 -0.2967
  616TMC3    C5 9179   2.723   3.873  16.381  0.2198  0.3355  0.6092
  616TMC3    C6 9180   2.804   3.977  16.375  1.2579  0.5832 -0.4774
  616TMC3     C 9181   2.817   3.664  16.101 -0.4136  0.4358 -0.4621
  616TMC3     O 9182   2.846   3.700  15.988  0.1112 -0.5248 -0.0898
  616TMC3     H 9183   2.982   3.859  16.112  1.2816  0.5879  0.9497
  616TMC3    H1 9184   2.653   3.678  16.327  0.3991 -0.0260 -1.2288
  616TMC3    H2 9185   2.779   4.055  16.446  1.7561 -2.5541  3.1423
  616TMC3    C7 9186   2.599   3.901  16.459  0.6494 -0.6429  0.4885
  616TMC3    C8 9187   2.999   4.070  16.291 -0.4054 -0.0153 -0.2477
  616TMC3    O1 9188   2.580   3.817  16.541 -0.2789 -0.0604 -0.6637
  616TMC3    O2 9189   2.964   4.171  16.354  0.0538 -0.0732 -0.2906
  617MPD2     C 9190   1.151   1.845  13.429 -0.5216 -0.1928 -0.2355
  617MPD2    C1 9191   1.194   1.848  13.555  0.5574 -0.8118 -0.4322
  617MPD2    C2 9192   1.118   1.803  13.653 -0.6309 -0.1998 -0.9225
  617MPD2    C3 9193   0.993   1.746  13.625 -0.4593 -0.0454 -0.2734
  617MPD2    C4 9194   0.955   1.732  13.493 -0.0689 -0.0372  1.0845
  617MPD2    C5 9195   1.035   1.782  13.396  0.0073  0.6918  1.2637
  617MPD2     H 9196   1.142   1.808  13.759  2.7493 -1.0617 -1.6431
  617MPD2    H1 9197   0.857   1.695  13.464  0.1928  0.4232 -0.3573
  617MPD2    H2 9198   1.208   1.880  13.343  1.5486  0.5592  1.4461
  617MPD2    H3 9199   1.005   1.774  13.292  1.7152 -1.0969  0.9167
  617MPD2     N 9200   0.917   1.677  13.723 -0.0491 -0.5466  0.8215
  617MPD2    H5 9201   0.820   1.656  13.701 -0.5180  2.6707 -0.3162
  617MPD2    N1 9202   1.321   1.907  13.574 -0.6384 -0.0730 -0.0694
  617MPD2    H7 9203   1.372   1.923  13.488 -0.2620  0.4305  0.2423
  618TMC3    C1 9204   1.532   1.912  13.672 -0.3874  0.4338 -0.3883
  618TMC3    C2 9205   1.618   1.963  13.764 -0.4332 -0.2986  0.5998
  618TMC3    C3 9206   1.748   1.960  13.739 -0.3711 -0.0590 -0.7006
  618TMC3    C4 9207   1.577   1.831  13.568  0.0712 -0.3679  0.0881
  618TMC3    C5 9208   1.710   1.838  13.539 -0.3585 -0.0846 -0.0965
  618TMC3    C6 9209   1.799   1.904  13.625  0.8857 -0.3391  0.1461
  618TMC3     C 9210   1.392   1.920  13.692 -0.5518 -0.5771 -0.1075
  618TMC3     O 9211   1.353   1.927  13.806  0.4680 -0.4777 -0.3680
  618TMC3     H 9212   1.582   1.994  13.861  0.3457  1.5807  0.2821
  618TMC3    H1 9213   1.511   1.769  13.510  0.1678  0.8387 -1.3177
  618TMC3    H2 9214   1.905   1.899  13.601  1.0684  3.3064  0.2286
  618TMC3    C7 9215   1.763   1.732  13.446  0.3335 -0.4055  0.6899
  618TMC3    C8 9216   1.840   1.993  13.846 -0.1318  0.4037  0.0005
  618TMC3    O1 9217   1.875   1.757  13.405  0.5862 -0.4137  0.3741
  618TMC3    O2 9218   1.781   2.017  13.950 -0.2640 -0.2896 -0.5619
  619MPD2     C 9219   2.353   2.572  13.132  0.4790 -0.4955 -1.0194
  619MPD2    C1 9220   2.272   2.651  13.060  0.5497  0.1830 -0.2012
  619MPD2    C2 9221   2.136   2.661  13.090  0.2631  0.2061 -0.0432
  619MPD2    C3 9222   2.084   2.594  13.198 -1.0238  0.1772 -0.4570
  619MPD2    C4 9223   2.168   2.511  13.279  0.6825 -0.0970 -0.2278
  619MPD2    C5 9224   2.306   2.501  13.243 -0.3980  0.1904 -0.2153
  619MPD2     H 9225   2.069   2.713  13.023  0.0513  1.3338  1.0353
  619MPD2    H1 9226   2.130   2.458  13.365 -0.7825  0.3304 -0.6099
  619MPD2    H2 9227   2.456   2.576  13.098  0.3177  0.3847 -1.4241
  619MPD2    H3 9228   2.368   2.434  13.302  2.0675  2.2542 -0.4706
  619MPD2     N 9229   1.948   2.603  13.240 -0.5115 -0.6353 -0.7548
  619MPD2    H5 9230   1.919   2.557  13.325  0.1070  0.1206 -0.1417
  619MPD2    N1 9231   2.334   2.736  12.957 -0.5171 -0.2767 -0.0071
  619MPD2    H7 9232   2.435   2.742  12.955 -0.6067  1.8377  1.3673
  620TMC3    C1 9233   2.357   2.905  12.799 -0.3685 -0.2590  0.1641
  620TMC3    C2 9234   2.285   2.974  12.704  0.2057  0.4690 -0.7182
  620TMC3    C3 9235   2.296   3.111  12.686  0.8203 -0.1169  0.4495
  620TMC3    C4 9236   2.450   2.970  12.870 -0.0262 -0.0372 -0.5091
  620TMC3    C5 9237   2.485   3.094  12.828  0.3891 -0.2709  0.1978
  620TMC3    C6 9238   2.413   3.163  12.738 -0.3661  0.0602  0.2388
  620TMC3     C 9239   2.271   2.812  12.863 -0.5676  0.3916 -0.4467
  620TMC3     O 9240   2.150   2.811  12.839 -0.0266  0.0003 -0.4319
  620TMC3     H 9241   2.207   2.922  12.649 -0.4159  0.1822  0.4439
  620TMC3    H1 9242   2.509   2.927  12.950 -2.5335  1.3912  2.1319
  620TMC3    H2 9243   2.451   3.262  12.717 -1.9048  0.6685  0.2914
  620TMC3    C7 9244   2.545   3.183  12.926 -0.1295 -0.1837 -0.3166
  620TMC3    C8 9245   2.184   3.184  12.750  0.5007  0.3675 -0.3150
  620TMC3    O1 9246   2.653   3.152  12.980 -0.2289 -0.3497  0.0774
  620TMC3    O2 9247   2.213   3.271  12.835 -0.5851  0.7349 -0.2887
  621MPD2     C 9248   2.511   3.277  10.137 -0.5398  0.0582  0.2895
  621MPD2    C1 9249   2.620   3.250  10.058  0.2042  0.5004  0.2722
  621MPD2    C2 9250   2.684   3.353   9.993  0.2350  0.0591 -0.6106
  621MPD2    C3 9251   2.646   3.486  10.020  0.1729  0.1724  0.4995
  621MPD2    C4 9252   2.529   3.511  10.095 -0.4469  0.5983  0.6484
  621MPD2    C5 9253   2.468   3.402  10.153 -0.0513 -0.2056 -0.5397
  621MPD2     H 9254   2.764   3.326   9.926 -0.2113  0.2461 -1.2131
  621MPD2    H1 9255   2.495   3.605  10.137  3.0271  1.1874  2.1572
  621MPD2    H2 9256   2.459   3.200  10.194  0.5891 -0.8903  0.0486
  621MPD2    H3 9257   2.382   3.424  10.215 -0.2181 -2.5070  0.0533
  621MPD2     N 9258   2.725   3.592   9.979 -0.2801 -0.5356 -0.0429
  621MPD2    H5 9259   2.808   3.579   9.922  0.8897  0.5725  1.3829
  621MPD2    N1 9260   2.675   3.120  10.048  0.0094  0.2510  0.3718
  621MPD2    H7 9261   2.753   3.108   9.984  0.0556 -0.4835  0.5711
  622TMC3    C1 9262   2.664   2.891  10.061  0.2928 -0.7756  0.2800
  622TMC3    C2 9263   2.657   2.787  10.152 -0.1535  0.2795 -0.0762
  622TMC3    C3 9264   2.588   2.673  10.118  0.0970  0.2494 -0.2805
  622TMC3    C4 9265   2.622   2.882   9.928  0.3063  0.3346 -0.8805
  622TMC3    C5 9266   2.552   2.767   9.898  0.2354  0.6091  0.2066
  622TMC3    C6 9267   2.535   2.658   9.985  0.2248 -0.1237 -0.2229
  622TMC3     C 9268   2.627   3.012  10.121  0.3341 -0.1681 -0.1588
  622TMC3     O 9269   2.553   3.012  10.215  0.1091 -0.0093 -0.8878
  622TMC3     H 9270   2.696   2.809  10.251 -0.6757 -1.4663  0.5125
  622TMC3    H1 9271   2.628   2.966   9.860  2.7693  0.5768 -0.3418
  622TMC3    H2 9272   2.467   2.577   9.963 -1.2497  0.3725  2.4743
  622TMC3    C7 9273   2.501   2.741   9.769  0.1076  0.0925  0.2779
  622TMC3    C8 9274   2.506   2.613  10.223  0.2076  0.0576 -0.1796
  622TMC3    O1 9275   2.451   2.631   9.752  0.1566  0.1351  0.1029
  622TMC3    O2 9276   2.466   2.496  10.218  0.1936  0.7018  0.0436
  623MPD2     C 9277   1.927   3.564  15.845  0.6177 -0.5238 -0.6567
  623MPD2    C1 9278   1.841   3.568  15.952  0.5394  0.2187 -0.0942
  623MPD2    C2 9279   1.877   3.630  16.067  0.0301  0.4545  0.1373
  623MPD2    C3 9280   1.986   3.711  16.070  0.4196  0.7558  0.3916
  623MPD2    C4 9281   2.069   3.712  15.961 -1.1062 -0.1825 -0.7907
  623MPD2    C5 9282   2.043   3.644  15.849  0.8459  0.2019  0.0868
  623MPD2     H 9283   1.814   3.620  16.154 -0.3104 -1.7960 -0.3542
  623MPD2    H1 9284   2.152   3.782  15.968 -0.6344 -0.7588 -0.5935
  623MPD2    H2 9285   1.906   3.525  15.746  1.1316  0.6569 -1.2259
  623MPD2    H3 9286   2.111   3.658  15.766  1.3482 -0.8652  0.3252
  623MPD2     N 9287   2.010   3.788  16.187 -0.5759 -0.3686 -0.4879
  623MPD2    H5 9288   1.941   3.800  16.260  1.7868 -1.4699  1.9153
  623MPD2    N1 9289   1.715   3.522  15.951  0.4303  0.5072  0.2933
  623MPD2    H7 9290   1.668   3.528  16.041  2.4822  0.5431  1.3592
  624TMC3    C1 9291   2.156   3.835  16.572  0.7084  0.4308 -0.0494
  624TMC3    C2 9292   2.035   3.882  16.607  0.5128  0.0544 -0.3985
  624TMC3    C3 9293   1.959   3.947  16.509  0.3186  0.2141  0.4338
  624TMC3    C4 9294   2.213   3.843  16.441  0.1082 -0.0430  0.0242
  624TMC3    C5 9295   2.124   3.903  16.350  0.3724  0.3774  0.1606
  624TMC3    C6 9296   2.000   3.958  16.380  0.0117 -0.2553 -0.3801
  624TMC3     C 9297   2.221   3.741  16.667  0.2305  0.3573  0.1723
  624TMC3     O 9298   2.225   3.773  16.786 -0.0462  0.2671  0.0148
  624TMC3     H 9299   1.994   3.860  16.705  0.2571  1.3993 -0.2042
  624TMC3    H1 9300   2.308   3.801  16.409 -0.4140 -0.1707 -1.3508
  624TMC3    H2 9301   1.924   3.986  16.308 -0.3676  3.1672  1.3579
  624TMC3    C7 9302   2.135   3.842  16.222 -0.6694  0.2402  0.0467
  624TMC3    C8 9303   1.817   3.919  16.518 -0.0410 -0.0916 -0.3557
  624TMC3    O1 9304   2.245   3.834  16.168 -0.3103 -0.1402 -0.5686
  624TMC3    O2 9305   1.765   3.859  16.425 -0.5375  0.5826 -0.4207
  625MPD2     C 9306   2.884   0.292   0.965 -0.4177  0.0729 -0.8119
  625MPD2    C1 9307   2.859   0.387   0.865 -0.0815 -0.1717 -1.0393
  625MPD2    C2 9308   2.957   0.448   0.792 -0.0937 -0.0973  0.3043
  625MPD2    C3 9309   3.090   0.399   0.812  0.3420 -0.0248  0.5277
  625MPD2    C4 9310   3.109   0.307   0.914  0.6540 -0.2368  0.3012
  625MPD2    C5 9311   3.009   0.248   0.986 -0.5212  1.0440 -0.1962
  625MPD2     H 9312   2.943   0.505   0.701 -1.5071 -2.2917 -0.8620
  625MPD2    H1 9313   3.208   0.269   0.933 -0.0092 -1.5794  1.0941
  625MPD2    H2 9314   2.805   0.244   1.021 -1.5955  2.5596 -0.3244
  625MPD2    H3 9315   3.020   0.166   1.057  0.4804  1.4897  0.1515
  625MPD2     N 9316   3.193   0.447   0.733  0.0226 -0.5371 -0.3045
  625MPD2    H5 9317   3.175   0.508   0.654  0.4386 -1.3012 -0.9927
  625MPD2    N1 9318   2.728   0.417   0.831  0.0288  0.2764  0.5948
  625MPD2    H7 9319   2.713   0.472   0.746 -0.4755 -0.2834  0.3280
  626TMC3    C1 9320   2.507   0.457   0.849 -0.3067 -0.4670  0.7530
  626TMC3    C2 9321   2.488   0.452   0.712 -0.0968  0.7650 -1.1055
  626TMC3    C3 9322   2.373   0.489   0.642  0.1755 -0.3841  0.7979
  626TMC3    C4 9323   2.402   0.488   0.926 -0.1384 -0.0578  0.3175
  626TMC3    C5 9324   2.289   0.531   0.861  0.7030  0.2887 -0.0914
  626TMC3    C6 9325   2.274   0.545   0.721 -0.0050 -0.3915  0.1752
  626TMC3     C 9326   2.621   0.398   0.909 -0.0066 -0.1300  0.2680
  626TMC3     O 9327   2.618   0.383   1.032  0.4301  0.0588 -0.3440
  626TMC3     H 9328   2.565   0.400   0.656  1.1287  1.2251  0.1499
  626TMC3    H1 9329   2.395   0.471   1.032 -0.2792  0.6022  0.4100
  626TMC3    H2 9330   2.191   0.588   0.667  0.1735  1.0459  1.0303
  626TMC3    C7 9331   2.182   0.584   0.950 -0.4848  0.1851  0.0320
  626TMC3    C8 9332   2.376   0.521   0.500 -0.8895 -0.1453 -0.4098
  626TMC3    O1 9333   2.207   0.595   1.067  0.3687  0.0187  0.7668
  626TMC3    O2 9334   2.482   0.548   0.448  0.1201 -0.2279 -0.2289
  627MPD2     C 9335   0.346   0.508  14.547  0.1386  0.0408 -0.4681
  627MPD2    C1 9336   0.475   0.458  14.578 -1.0596  0.0418  0.5262
  627MPD2    C2 9337   0.504   0.323  14.547 -0.3325 -0.3949 -0.3485
  627MPD2    C3 9338   0.416   0.241  14.481 -0.0170 -0.0698 -0.7616
  627MPD2    C4 9339   0.290   0.294  14.453  0.2461 -0.4512 -0.2860
  627MPD2    C5 9340   0.259   0.423  14.483  0.1255  0.5090  0.7165
  627MPD2     H 9341   0.601   0.287  14.579  0.2433  1.6534  0.2040
  627MPD2    H1 9342   0.216   0.230  14.405 -0.5053  1.3646 -1.5427
  627MPD2    H2 9343   0.311   0.607  14.573  3.4228  0.9052  0.6196
  627MPD2    H3 9344   0.161   0.458  14.454 -0.9632 -0.0980  3.7007
  627MPD2     N 9345   0.454   0.114  14.440  0.0893 -0.0544  0.7308
  627MPD2    H5 9346   0.546   0.089  14.475  0.2724 -1.8812 -1.0658
  627MPD2    N1 9347   0.582   0.531  14.637  0.7203  0.5327 -0.4919
  627MPD2    H7 9348   0.665   0.481  14.668  0.8022  0.7983 -0.2865
  628TMC3    C1 9349   0.709   0.712  14.721  0.2678 -0.1797  0.3515
  628TMC3    C2 9350   0.760   0.613  14.795  0.6703 -0.5323 -0.0194
  628TMC3    C3 9351   0.892   0.611  14.827 -0.0608 -0.0857  0.4479
  628TMC3    C4 9352   0.782   0.821  14.676 -0.6981  0.3344 -0.5200
  628TMC3    C5 9353   0.914   0.805  14.707 -0.3674 -0.4078  0.4733
  628TMC3    C6 9354   0.976   0.713  14.782 -0.0712 -0.0212 -0.0471
  628TMC3     C 9355   0.586   0.669  14.657  0.2436 -0.3337  0.5699
  628TMC3     O 9356   0.500   0.752  14.633  0.2411  1.0046  0.0610
  628TMC3     H 9357   0.687   0.549  14.842 -0.1737  0.6872  0.3272
  628TMC3    H1 9358   0.745   0.910  14.626 -1.8030 -0.2112 -0.6664
  628TMC3    H2 9359   1.081   0.709  14.808 -0.3436 -2.1169  0.6813
  628TMC3    C7 9360   1.007   0.913  14.681 -0.0824  0.2681  0.5054
  628TMC3    C8 9361   0.921   0.518  14.927 -0.2097 -0.3190  0.2258
  628TMC3    O1 9362   1.115   0.914  14.739 -0.7917  0.2994  0.4476
  628TMC3    O2 9363   0.830   0.481  15.002 -0.1632  0.1048 -0.2752
  629MPD2     C 9364   3.492   4.214  16.264  0.4660 -0.4907 -0.0901
  629MPD2    C1 9365   3.479   4.088  16.201 -0.5325  0.1667  0.2834
  629MPD2    C2 9366   3.357   4.016  16.204 -0.0839  0.7003  0.2281
  629MPD2    C3 9367   3.242   4.082  16.261  0.6656 -0.4451 -0.2474
  629MPD2    C4 9368   3.262   4.201  16.332  0.1053 -0.3155  0.2737
  629MPD2    C5 9369   3.387   4.261  16.332 -0.6570  0.1823  0.2002
  629MPD2     H 9370   3.355   3.916  16.164  1.7248  0.3532  1.0077
  629MPD2    H1 9371   3.181   4.257  16.378  0.2371  0.5409 -0.5540
  629MPD2    H2 9372   3.582   4.274  16.259 -0.7298  1.1755 -1.8725
  629MPD2    H3 9373   3.389   4.355  16.385  2.3461 -0.7045  1.6651
  629MPD2     N 9374   3.116   4.020  16.248 -0.6454 -0.1814 -0.6716
  629MPD2    H5 9375   3.115   3.923  16.217 -3.1280  0.5553 -2.8010
  629MPD2    N1 9376   3.602   4.035  16.163 -0.4516  0.0343  0.0484
  629MPD2    H7 9377   3.686   4.091  16.173 -0.3578 -0.2268  0.7364
  630TMC3    C1 9378   3.762   3.878  16.102 -0.5093 -0.6008  0.5409
  630TMC3    C2 9379   3.821   3.970  16.020  0.5530  0.0051 -0.5692
  630TMC3    C3 9380   3.956   3.945  16.003  0.2610 -0.1996  0.5781
  630TMC3    C4 9381   3.817   3.781  16.180 -0.7209  0.1577 -0.0754
  630TMC3    C5 9382   3.958   3.787  16.176 -0.2120 -0.0964 -0.4549
  630TMC3    C6 9383   4.027   3.851  16.078 -0.5556 -0.4770  0.1922
  630TMC3     C 9384   3.632   3.902  16.149 -0.0358  0.4457  0.2164
  630TMC3     O 9385   3.570   3.796  16.170  0.6024 -0.0215  0.3764
  630TMC3     H 9386   3.774   4.044  15.956  1.4034  2.4749  1.6571
  630TMC3    H1 9387   3.768   3.744  16.269 -3.2389 -1.7071 -2.1999
  630TMC3    H2 9388   4.133   3.837  16.063 -0.7154 -0.8235 -0.5749
  630TMC3    C7 9389   4.011   3.763  16.304  0.1013 -0.3013  0.5600
  630TMC3    C8 9390   4.036   4.063  15.967 -0.0921  0.3643  0.4371
  630TMC3    O1 9391   3.966   3.666  16.365 -0.1611  0.2775  0.1320
  630TMC3    O2 9392   4.140   4.071  16.025  0.4307 -0.1097  0.7060
  631MPD2     C 9393   2.097   3.813  15.507 -0.6076 -0.0182  0.2463
  631MPD2    C1 9394   2.229   3.855  15.487  0.0178 -0.1518 -0.4197
  631MPD2    C2 9395   2.328   3.758  15.470 -0.4223 -0.1279 -0.0034
  631MPD2    C3 9396   2.299   3.621  15.475 -0.3621  0.5943  0.0012
  631MPD2    C4 9397   2.169   3.582  15.477  0.4514 -0.2245 -0.1042
  631MPD2    C5 9398   2.072   3.678  15.494 -0.4372 -0.0493 -0.1435
  631MPD2     H 9399   2.429   3.796  15.458 -0.3864 -0.2597 -0.1160
  631MPD2    H1 9400   2.134   3.480  15.465  1.6972 -0.5776 -0.8113
  631MPD2    H2 9401   2.010   3.877  15.504 -1.2091 -0.8355  0.3069
  631MPD2    H3 9402   1.971   3.637  15.497 -1.4761  2.4444 -1.3679
  631MPD2     N 9403   2.408   3.533  15.452  0.1803  0.3276 -0.2016
  631MPD2    H5 9404   2.489   3.573  15.406 -0.8668  1.2504 -1.2241
  631MPD2    N1 9405   2.247   4.003  15.473 -0.8544  0.5865 -0.0436
  631MPD2    H7 9406   2.166   4.064  15.477 -0.3256  1.3546 -0.9206
  632TMC3    C1 9407   2.349   4.195  15.377 -0.1109 -0.0450  0.0224
  632TMC3    C2 9408   2.216   4.224  15.343 -0.4191  0.5726 -0.0303
  632TMC3    C3 9409   2.182   4.238  15.209 -0.5419 -0.3731 -0.4137
  632TMC3    C4 9410   2.446   4.216  15.281 -0.4982 -0.4085 -0.0675
  632TMC3    C5 9411   2.409   4.222  15.145  0.2852  0.7717  0.1920
  632TMC3    C6 9412   2.278   4.221  15.112 -0.5485 -1.3572 -0.1003
  632TMC3     C 9413   2.367   4.065  15.439 -0.2774 -0.0952 -0.3618
  632TMC3     O 9414   2.482   4.017  15.433 -0.3621 -0.4270  0.6694
  632TMC3     H 9415   2.139   4.218  15.419 -1.0987 -1.7225 -0.9016
  632TMC3    H1 9416   2.549   4.210  15.313 -0.3416  0.6542 -0.3588
  632TMC3    H2 9417   2.252   4.206  15.007  1.7219  1.2179 -1.0570
  632TMC3    C7 9418   2.504   4.232  15.033 -0.4516 -0.6392  0.2790
  632TMC3    C8 9419   2.048   4.180  15.186 -0.4815  0.3875  0.3464
  632TMC3    O1 9420   2.459   4.228  14.920  0.3430  0.5041 -0.9661
  632TMC3    O2 9421   2.004   4.097  15.261  0.1716  0.3096 -0.1941
  633MPD2     C 9422   2.004   1.925  17.503 -0.3255  0.0600 -0.4144
  633MPD2    C1 9423   2.046   1.869  17.378  0.0340  0.1500  0.2909
  633MPD2    C2 9424   2.158   1.791  17.376  0.4446 -0.0591 -0.5543
  633MPD2    C3 9425   2.224   1.770  17.501  0.0078 -0.3101 -0.2176
  633MPD2    C4 9426   2.187   1.827  17.618  0.8571 -0.4887 -0.0420
  633MPD2    C5 9427   2.077   1.904  17.616 -0.5206  0.6668  0.3983
  633MPD2     H 9428   2.184   1.721  17.297 -0.1177 -0.2663 -0.5554
  633MPD2    H1 9429   2.238   1.801  17.710  0.7486 -1.6339 -0.3043
  633MPD2    H2 9430   1.920   1.993  17.510  0.1050  0.2109  3.0774
  633MPD2    H3 9431   2.042   1.941  17.711 -1.4830 -0.9635  0.6837
  633MPD2     N 9432   2.344   1.685  17.516  0.0341  0.2074 -0.4041
  633MPD2    H5 9433   2.374   1.667  17.611 -0.7311 -3.0683 -0.7843
  633MPD2    N1 9434   1.975   1.877  17.260  0.4323  0.2201  0.0341
  633MPD2    H7 9435   1.988   1.810  17.184 -0.2699  0.4431 -0.2837
  634TMC3    C1 9436   1.857   2.003  17.097 -0.9043 -0.3911 -0.3558
  634TMC3    C2 9437   1.799   1.897  17.034 -0.6360 -0.8224 -0.2221
  634TMC3    C3 9438   1.733   1.909  16.916 -0.1448  0.3338 -0.3156
  634TMC3    C4 9439   1.857   2.128  17.047 -0.2824 -0.0268  0.8148
  634TMC3    C5 9440   1.800   2.140  16.925 -0.0101 -0.2777  0.3811
  634TMC3    C6 9441   1.719   2.039  16.866 -0.3951 -0.7668 -0.3927
  634TMC3     C 9442   1.913   1.993  17.230  0.3622  0.3456  0.0470
  634TMC3     O 9443   1.918   2.102  17.286  0.5803  0.0713 -0.4050
  634TMC3     H 9444   1.803   1.795  17.070 -2.4891  0.0171  2.3321
  634TMC3    H1 9445   1.923   2.205  17.086  2.0656 -1.6408  0.0214
  634TMC3    H2 9446   1.686   2.049  16.763  0.6294  2.3430 -0.4074
  634TMC3    C7 9447   1.842   2.247  16.833 -0.2566 -0.5405 -0.2551
  634TMC3    C8 9448   1.734   1.799  16.822 -0.2082  0.3856  0.3578
  634TMC3    O1 9449   1.852   2.220  16.715 -0.4354 -0.5839 -0.5415
  634TMC3    O2 9450   1.809   1.706  16.838  0.5035 -0.2103  0.5555
  635TMC3    C1 9451   2.046   3.292   0.492 -1.0519  1.1913 -0.3846
  635TMC3    C2 9452   2.090   3.183   0.420  0.5646 -0.4074 -0.1497
  635TMC3    C3 9453   2.072   3.064   0.474  0.0817  1.0482  0.5669
  635TMC3    C4 9454   1.993   3.276   0.618  0.3538 -0.0831  0.2134
  635TMC3    C5 9455   1.965   3.147   0.662 -0.1588  0.0179 -0.2766
  635TMC3    C6 9456   2.012   3.035   0.592 -0.8059  0.0684  0.1614
  635TMC3     C 9457   2.087   3.430   0.456 -0.0559  0.5512  0.1562
  635TMC3     O 9458   2.077   3.506   0.547 -0.2545 -0.2856 -0.3733
  635TMC3     H 9459   2.134   3.189   0.321  0.2179 -0.8791 -0.3282
  635TMC3    H1 9460   1.966   3.370   0.664  0.0285  0.0418 -0.2265
  635TMC3    H2 9461   1.979   2.934   0.614 -0.7707 -0.1607 -0.8264
  635TMC3    C7 9462   1.857   3.125   0.757  0.0285 -0.0351 -0.4352
  635TMC3    C8 9463   2.126   2.957   0.387  0.0323  0.0239  0.8969
  635TMC3    O1 9464   1.853   3.013   0.804 -0.3895 -0.4456  0.3611
  635TMC3    O2 9465   2.113   2.984   0.265 -0.2746 -0.0261  0.4866
  636MPD2     C 9466   3.171   2.304  15.620  0.1008 -0.0936  0.1883
  636MPD2    C1 9467   3.155   2.303  15.754 -0.8961  0.3210  0.3650
  636MPD2    C2 9468   3.194   2.187  15.815  0.0142  0.5398 -0.0419
  636MPD2    C3 9469   3.258   2.081  15.753 -0.1970  0.0520 -0.4485
  636MPD2    C4 9470   3.270   2.089  15.615  0.7722 -0.1983  0.0169
  636MPD2    C5 9471   3.230   2.206  15.549  0.4195  0.2325 -0.1948
  636MPD2     H 9472   3.175   2.192  15.921 -2.9370 -1.4377 -0.4668
  636MPD2    H1 9473   3.316   2.011  15.556 -2.2959 -0.2535 -2.3162
  636MPD2    H2 9474   3.150   2.394  15.564  0.4809 -1.9955 -2.9974
  636MPD2    H3 9475   3.238   2.211  15.441  0.0195  1.1576 -0.1785
  636MPD2     N 9476   3.295   1.969  15.829  0.0315  0.2929  0.3912
  636MPD2    H5 9477   3.274   1.991  15.926  1.6165 -1.0975  1.0762
  636MPD2    N1 9478   3.103   2.407  15.834  0.0201  0.2309  0.4364
  636MPD2    H7 9479   3.094   2.385  15.933  0.0817  1.2315  0.6655
  637TMC3    C1 9480   3.392   1.764  15.882  0.0931 -1.1377 -0.0697
  637TMC3    C2 9481   3.313   1.753  15.991 -0.7765  0.5555  0.0950
  637TMC3    C3 9482   3.338   1.665  16.088 -0.4698  0.4837 -0.4915
  637TMC3    C4 9483   3.486   1.668  15.849 -0.3548 -0.0098  0.0619
  637TMC3    C5 9484   3.507   1.574  15.944  0.0243 -0.1209 -0.4637
  637TMC3    C6 9485   3.435   1.568  16.062  0.5554  0.0988 -0.3736
  637TMC3     C 9486   3.366   1.863  15.783  0.6693 -0.5949 -0.3223
  637TMC3     O 9487   3.429   1.855  15.682 -0.2871  0.1039 -0.7945
  637TMC3     H 9488   3.234   1.824  16.011  1.4628  2.4466  2.1850
  637TMC3    H1 9489   3.557   1.676  15.767 -0.3421  0.9917  0.1738
  637TMC3    H2 9490   3.460   1.495  16.138  3.2628 -0.1833 -1.4976
  637TMC3    C7 9491   3.596   1.463  15.913  0.4794 -0.0237  0.4669
  637TMC3    C8 9492   3.343   1.734  16.217  0.5397 -0.0280  0.6717
  637TMC3    O1 9493   3.594   1.437  15.793  0.6790 -0.1931 -0.1239
  637TMC3    O2 9494   3.329   1.855  16.219  0.5956  0.0342 -0.3400
  638MPD2     C 9495   2.956   0.868  14.771  0.1214 -0.3296 -0.0284
  638MPD2    C1 9496   2.964   0.744  14.720  0.1119 -0.0928 -0.8804
  638MPD2    C2 9497   2.886   0.648  14.771  0.4719 -0.1083  0.7064
  638MPD2    C3 9498   2.808   0.670  14.888  1.1931 -0.4426 -0.1925
  638MPD2    C4 9499   2.829   0.789  14.957 -0.2587  0.2488 -0.1916
  638MPD2    C5 9500   2.891   0.894  14.893  0.0233 -1.1158  0.8698
  638MPD2     H 9501   2.893   0.549  14.726  1.2775  0.9539 -1.5152
  638MPD2    H1 9502   2.796   0.802  15.060  0.6946  0.1688  0.1214
  638MPD2    H2 9503   3.015   0.952  14.736 -0.7154  0.5223  0.6014
  638MPD2    H3 9504   2.903   0.994  14.933 -0.1907 -1.6621  2.3198
  638MPD2     N 9505   2.736   0.558  14.947 -0.7023 -0.1637 -0.4301
  638MPD2    H5 9506   2.725   0.561  15.048  2.1272  1.6678 -0.1682
  638MPD2    N1 9507   3.051   0.728  14.613 -0.0725 -0.3438  0.8282
  638MPD2    H7 9508   3.104   0.810  14.587  0.9018 -0.2772  3.0228
  639TMC3    C1 9509   2.684   0.324  14.928  0.0985  0.2659  0.1819
  639TMC3    C2 9510   2.612   0.233  14.855 -0.3985  0.4700  0.3502
  639TMC3    C3 9511   2.667   0.120  14.821  0.7575 -0.1476 -0.6981
  639TMC3    C4 9512   2.804   0.286  14.989  0.5223 -0.0798 -0.1453
  639TMC3    C5 9513   2.847   0.160  14.960 -0.6583 -0.4700 -0.2120
  639TMC3    C6 9514   2.793   0.089  14.862 -0.1308 -0.0954  0.2891
  639TMC3     C 9515   2.691   0.458  14.857 -0.2465  0.1044  0.3761
  639TMC3     O 9516   2.687   0.453  14.739  0.1288  0.4699  0.3324
  639TMC3     H 9517   2.535   0.276  14.792 -0.1472  2.1343  1.1813
  639TMC3    H1 9518   2.859   0.358  15.049 -2.1230  1.6116  0.2867
  639TMC3    H2 9519   2.834   4.730  14.833  0.4342 -0.5260  2.4898
  639TMC3    C7 9520   2.981   0.126  14.998  0.3289 -0.1461 -0.1223
  639TMC3    C8 9521   2.622   0.044  14.705 -0.0848 -0.2090  0.0585
  639TMC3    O1 9522   3.011   0.118  15.117  0.0518 -0.7924 -0.0635
  639TMC3    O2 9523   2.698   4.711  14.649 -0.0741 -0.8139 -0.5117
  640MPD2     C 9524   3.744   0.393   9.874  0.1002 -0.3933 -0.1906
  640MPD2    C1 9525   3.620   0.342   9.844 -0.2646 -0.1756 -0.1870
  640MPD2    C2 9526   3.503   0.414   9.871  0.5965 -0.3678  0.3610
  640MPD2    C3 9527   3.507   0.530   9.936  0.8228  0.5509  0.4666
  640MPD2    C4 9528   3.629   0.579   9.978  0.2517 -0.1936  0.3256
  640MPD2    C5 9529   3.745   0.512   9.943 -0.2343 -0.2653 -0.7405
  640MPD2     H 9530   3.408   0.380   9.831  1.4186 -2.3383  0.0730
  640MPD2    H1 9531   3.636   0.672  10.032  0.0474 -0.4503  0.8021
  640MPD2    H2 9532   3.838   0.344   9.851 -0.4095 -1.0962 -0.7643
  640MPD2    H3 9533   3.838   0.548   9.984 -0.6559  0.6768 -0.6028
  640MPD2     N 9534   3.384   0.593   9.967 -0.3484 -0.1005  1.1848
  640MPD2    H5 9535   3.302   0.540   9.940  0.1687 -0.5542  0.4915
  640MPD2    N1 9536   3.619   0.231   9.753 -0.0304  0.1562 -0.4912
  640MPD2    H7 9537   3.705   0.221   9.700  0.8231 -2.9581  1.4421
  641TMC3    C1 9538   3.534   0.052   9.611  0.2820  0.6607 -0.0958
  641TMC3    C2 9539   3.653   4.728   9.589 -0.9493 -0.7811 -0.0716
  641TMC3    C3 9540   3.651   4.628   9.501  0.3197  0.0040  0.1626
  641TMC3    C4 9541   3.415   0.008   9.548 -0.0410  0.1849 -0.3321
  641TMC3    C5 9542   3.422   4.645   9.452 -0.4579  0.6266 -0.8413
  641TMC3    C6 9543   3.534   4.582   9.437 -0.3744 -0.2081 -0.0149
  641TMC3     C 9544   3.515   0.142   9.729 -0.1423 -0.1050 -0.5805
  641TMC3     O 9545   3.404   0.136   9.783  0.2064 -0.5283  0.1418
  641TMC3     H 9546   3.751   0.012   9.629 -1.1465  1.1341 -0.6391
  641TMC3    H1 9547   3.318   0.050   9.571 -0.0652 -0.0275 -0.0416
  641TMC3    H2 9548   3.542   4.510   9.356  2.3004 -1.0477  0.9895
  641TMC3    C7 9549   3.294   4.609   9.390 -0.7485  0.4347 -0.0608
  641TMC3    C8 9550   3.748   4.518   9.497  0.7540  0.3629 -0.3219
  641TMC3    O1 9551   3.200   4.686   9.389 -0.2116 -0.0105  0.2311
  641TMC3    O2 9552   3.752   4.456   9.395 -0.2145 -0.7668 -0.4321
  642TMC3    C1 9553   4.550   0.336  12.822 -0.2980 -0.0128 -0.3700
  642TMC3    C2 9554   4.671   0.273  12.811  0.4202 -0.0470  0.1793
  642TMC3    C3 9555   4.673   0.138  12.793 -0.6016 -0.0242 -0.2541
  642TMC3    C4 9556   4.432   0.262  12.829 -0.0737 -1.1979 -0.4074
  642TMC3    C5 9557   4.440   0.124  12.807  0.3542  0.0431  0.2075
  642TMC3    C6 9558   4.559   0.060  12.785 -0.9512 -0.0247  0.1161
  642TMC3     C 9559   4.539   0.478  12.814 -0.0510  0.2443 -0.2405
  642TMC3     O 9560   4.645   0.538  12.792 -0.2417  0.2635  0.5946
  642TMC3     H 9561   0.025   0.329  12.802 -0.4064  1.1214 -0.9373
  642TMC3    H1 9562   4.332   0.297  12.855  0.0203 -0.1348 -1.4999
  642TMC3    H2 9563   4.556   4.690  12.780 -2.5413 -0.0902  2.4214
  642TMC3    C7 9564   4.327   0.068  12.732 -0.4208 -0.0166  0.4616
  642TMC3    C8 9565   0.064   0.076  12.787 -0.2515 -0.1285  0.0809
  642TMC3    O1 9566   4.253   0.148  12.671  0.5399  0.8227 -0.0591
  642TMC3    O2 9567   0.159   0.148  12.807 -0.6632  0.7137 -0.3993
  643TMC3    C1 9568   3.694   4.673   0.160  0.4942 -0.6654  0.3968
  643TMC3    C2 9569   3.560   4.654   0.131 -0.2371  0.6570  0.0417
  643TMC3    C3 9570   3.523   4.577   0.021  0.4519  0.2091 -0.1610
  643TMC3    C4 9571   3.788   4.620   0.081  0.9708  0.1715  0.2020
  643TMC3    C5 9572   3.751   4.539  17.721 -0.8458  0.1441 -0.4448
  643TMC3    C6 9573   3.617   4.511  17.692  0.1482  0.2798  0.4874
  643TMC3     C 9574   3.731   4.686   0.294  0.0072  0.5668 -0.1160
  643TMC3     O 9575   3.649   0.011   0.365 -0.2818  0.0844  0.2733
  643TMC3     H 9576   3.487   4.701   0.194 -0.9446  1.0136 -1.0509
  643TMC3    H1 9577   3.891   4.653   0.088  1.2104 -0.6617  0.6727
  643TMC3    H2 9578   3.591   4.465  17.597 -0.3138  2.0086 -0.2179
  643TMC3    C7 9579   3.836   4.568  17.610  0.4882  0.0986 -0.0570
  643TMC3    C8 9580   3.437   4.644  17.683 -0.9511  0.0753 -0.4405
  643TMC3    O1 9581   3.876   4.678  17.602 -0.2101  0.4997 -0.0992
  643TMC3    O2 9582   3.390   4.586  17.589 -0.3038  0.5392 -0.0800
  644MPD2     C 9583   3.522   0.376   9.384 -0.7731 -0.6934 -0.7613
  644MPD2    C1 9584   3.443   0.283   9.333  0.5641  0.3596  0.0184
  644MPD2    C2 9585   3.319   0.269   9.386  0.2931 -0.0505  0.0592
  644MPD2    C3 9586   3.275   0.349   9.488 -0.2134 -0.3102 -0.7418
  644MPD2    C4 9587   3.358   0.447   9.533  0.1605 -0.3790  0.7817
  644MPD2    C5 9588   3.485   0.454   9.485 -0.6745  0.1584 -0.5152
  644MPD2     H 9589   3.254   0.193   9.342  0.5591 -0.9202  1.1498
  644MPD2    H1 9590   3.326   0.525   9.602 -0.3784  1.6405 -1.7577
  644MPD2    H2 9591   3.623   0.384   9.344 -0.4037  0.1372  0.3581
  644MPD2    H3 9592   3.555   0.530   9.519  0.4592 -0.5732 -1.1977
  644MPD2     N 9593   3.149   0.327   9.548  0.0286  0.0633  0.3475
  644MPD2    H5 9594   3.092   0.257   9.501  0.8151 -0.6457  0.4593
  644MPD2    N1 9595   3.496   0.207   9.231  0.5132  0.0207 -0.0821
  644MPD2    H7 9596   3.590   0.229   9.201  0.5669 -0.0004  0.0707
  645TMC3    C1 9597   2.973   0.394   9.703  0.4411  0.4161  0.5294
  645TMC3    C2 9598   2.880   0.343   9.608 -1.0230  0.1819 -0.7372
  645TMC3    C3 9599   2.752   0.342   9.638 -0.2123 -0.2036 -0.0496
  645TMC3    C4 9600   2.932   0.425   9.827  0.7966  0.4193  1.2808
  645TMC3    C5 9601   2.803   0.406   9.854  0.2593 -0.8646  0.1919
  645TMC3    C6 9602   2.706   0.366   9.764  0.0367  0.1901 -0.3744
  645TMC3     C 9603   3.113   0.399   9.664  0.4364  0.2797  0.6682
  645TMC3     O 9604   3.179   0.468   9.742 -0.1499 -0.2753  0.3683
  645TMC3     H 9605   2.914   0.322   9.507 -1.0492  0.0124 -0.7100
  645TMC3    H1 9606   3.006   0.438   9.905  0.0413 -0.2912  2.1138
  645TMC3    H2 9607   2.601   0.363   9.787 -0.0789  0.7596 -0.8078
  645TMC3    C7 9608   2.752   0.491   9.959 -0.3711  0.5199 -0.5838
  645TMC3    C8 9609   2.653   0.278   9.544 -0.3606 -0.1959 -0.3208
  645TMC3    O1 9610   2.633   0.524   9.957 -0.0671  0.2882 -0.0426
  645TMC3    O2 9611   2.533   0.279   9.567 -0.1131 -0.2767 -0.3516
  646MPD2     C 9612   3.395   4.081  14.172  0.8479  0.3948 -0.8098
  646MPD2    C1 9613   3.307   4.072  14.278  0.4462 -0.0836 -0.0043
  646MPD2    C2 9614   3.183   4.136  14.264  0.0742 -0.4516 -0.2214
  646MPD2    C3 9615   3.144   4.203  14.147 -0.2900 -0.4719 -0.5598
  646MPD2    C4 9616   3.239   4.211  14.047  0.8119  0.9561  1.0502
  646MPD2    C5 9617   3.357   4.147  14.060 -0.1263 -0.1673 -0.4565
  646MPD2     H 9618   3.107   4.131  14.340 -0.3534 -1.2358 -0.6880
  646MPD2    H1 9619   3.231   4.266  13.953  1.8833  1.7548  1.4236
  646MPD2    H2 9620   3.488   4.026  14.174  1.8244  2.0309 -1.4122
  646MPD2    H3 9621   3.434   4.153  13.984 -0.7908 -0.3054 -1.1366
  646MPD2     N 9622   3.012   4.252  14.137 -0.3966  0.8471  0.3731
  646MPD2    H5 9623   2.957   4.242  14.221 -0.2582  0.6480  0.4386
  646MPD2    N1 9624   3.342   3.998  14.393 -0.0810 -0.5548  0.6117
  646MPD2    H7 9625   3.420   3.935  14.376 -0.6215 -0.9475 -0.3977
  647TMC3    C1 9626   3.347   3.931  14.624 -0.4682  0.4217 -0.7623
  647TMC3    C2 9627   3.271   3.921  14.742 -0.6262 -0.2186  0.5860
  647TMC3    C3 9628   3.332   3.901  14.856 -0.3292 -0.1947 -0.1154
  647TMC3    C4 9629   3.478   3.903  14.628  0.1082 -0.5858 -0.0483
  647TMC3    C5 9630   3.529   3.873  14.752  0.7041  0.4669  0.7651
  647TMC3    C6 9631   3.461   3.879  14.868 -0.5420  0.7045 -0.5217
  647TMC3     C 9632   3.288   4.012  14.517  0.3145 -0.1780  0.0199
  647TMC3     O 9633   3.198   4.084  14.550 -0.0577 -0.5353  0.5779
  647TMC3     H 9634   3.171   3.963  14.736 -0.6060  0.3903  4.4651
  647TMC3    H1 9635   3.534   3.899  14.536 -0.2071 -0.7196 -0.2331
  647TMC3    H2 9636   3.509   3.882  14.965  0.6709  4.5170 -1.2825
  647TMC3    C7 9637   3.667   3.834  14.778 -0.3422  0.2592 -0.0609
  647TMC3    C8 9638   3.264   3.843  14.962  0.3220  0.4060  0.1036
  647TMC3    O1 9639   3.700   3.812  14.894  0.4620 -0.2356 -0.3487
  647TMC3    O2 9640   3.298   3.881  15.074 -0.0059 -0.5338 -0.8269
  648TMC3    C1 9641   2.497   1.806  16.204 -0.2906  0.7429 -0.2921
  648TMC3    C2 9642   2.618   1.750  16.185  0.3922  0.8835  0.1535
  648TMC3    C3 9643   2.677   1.741  16.062  0.0346 -0.3028 -0.7423
  648TMC3    C4 9644   2.431   1.863  16.100  0.2284  0.1250  0.1065
  648TMC3    C5 9645   2.493   1.848  15.978 -0.2145 -0.8800  0.0570
  648TMC3    C6 9646   2.612   1.783  15.952  0.0526  0.4933 -0.0474
  648TMC3     C 9647   2.471   1.828  16.346 -0.0458 -0.7746 -0.2380
  648TMC3     O 9648   2.562   1.851  16.423  0.2771  0.2795  0.1252
  648TMC3     H 9649   2.665   1.706  16.272 -0.2829  1.6704  0.9111
  648TMC3    H1 9650   2.329   1.899  16.109  0.3171  0.3863  0.0699
  648TMC3    H2 9651   2.666   1.796  15.859 -1.2268 -2.6285 -1.2354
  648TMC3    C7 9652   2.448   1.941  15.872 -0.0449  0.2668  0.0351
  648TMC3    C8 9653   2.773   1.634  16.058 -0.0017  0.8604 -0.5493
  648TMC3    O1 9654   2.494   1.925  15.762 -0.6553 -0.2360  0.1762
  648TMC3    O2 9655   2.835   1.611  16.167  0.0561  0.1036 -0.3331
  649TMC3    C1 9656   0.915   3.324  12.631  0.0251  0.4489  0.0044
  649TMC3    C2 9657   1.032   3.296  12.572  0.0452  0.4591  0.0111
  649TMC3    C3 9658   1.124   3.219  12.635  0.0861  0.2154  0.0319
  649TMC3    C4 9659   0.889   3.279  12.759 -0.4154  0.3839 -0.8618
  649TMC3    C5 9660   0.979   3.187  12.811  0.7360 -0.5047 -0.0307
  649TMC3    C6 9661   1.097   3.154  12.750  0.1580  0.6481  0.3353
  649TMC3     C 9662   0.807   3.396  12.566  0.1469  0.4977  0.0751
  649TMC3     O 9663   0.698   3.401  12.626 -0.3529 -0.0112  0.4052
  649TMC3     H 9664   1.055   3.313  12.467 -1.2599 -2.2038 -0.6944
  649TMC3    H1 9665   0.800   3.293  12.820 -0.1556  1.0753 -0.6503
  649TMC3    H2 9666   1.166   3.102  12.816 -0.7359 -0.3237  0.5256
  649TMC3    C7 9667   0.943   3.120  12.939 -0.4948 -0.2798 -0.1642
  649TMC3    C8 9668   1.250   3.191  12.583 -0.1186 -0.2372 -0.9800
  649TMC3    O1 9669   0.862   3.175  13.013 -0.0302  0.3226  0.3037
  649TMC3    O2 9670   1.309   3.094  12.634 -0.0463  0.2639  0.1786
  650TMC3    C1 9671   3.808   4.581  12.980 -0.6815 -0.4188  0.7525
  650TMC3    C2 9672   3.715   4.664  13.036 -0.2345 -1.2745  0.6407
  650TMC3    C3 9673   3.602   4.692  12.971  0.6536  0.0382 -0.3012
  650TMC3    C4 9674   3.781   4.511  12.874  0.7452  0.1875  1.0254
  650TMC3    C5 9675   3.663   4.539  12.808 -0.6563  0.5309  0.8943
  650TMC3    C6 9676   3.566   4.627  12.852  0.5091  0.3314 -0.0033
  650TMC3     C 9677   3.921   4.540  13.065  0.3884  0.1092  0.1367
  650TMC3     O 9678   3.955   4.615  13.153  0.1261  0.0060  0.7257
  650TMC3     H 9679   3.733   4.706  13.135 -1.6775 -2.7607  1.5344
  650TMC3    H1 9680   3.859   4.462  12.819  0.6221  1.4298 -0.2641
  650TMC3    H2 9681   3.476   4.659  12.802 -0.4974 -0.8778  1.0540
  650TMC3    C7 9682   3.665   4.527  12.662 -0.2293 -0.5963  0.0869
  650TMC3    C8 9683   3.547   0.089  12.987 -0.1867 -0.4436 -0.9486
  650TMC3    O1 9684   3.709   4.425  12.610 -0.3570  0.1666  0.0465
  650TMC3    O2 9685   3.611   0.176  13.039  0.2944  0.8692  0.1567
  651MPD2     C 9686   2.646   2.490  10.535  0.3386  0.2835  0.3814
  651MPD2    C1 9687   2.685   2.562  10.643 -0.2915  0.8033 -0.2409
  651MPD2    C2 9688   2.819   2.606  10.650 -0.3071  0.0971 -0.9252
  651MPD2    C3 9689   2.906   2.551  10.559 -0.5412  0.0870 -0.3376
  651MPD2    C4 9690   2.865   2.483  10.446  0.7412  0.8787 -0.8027
  651MPD2    C5 9691   2.733   2.461  10.431  0.2571 -0.2118 -0.5134
  651MPD2     H 9692   2.847   2.672  10.731 -4.4294  3.5104 -2.2966
  651MPD2    H1 9693   2.924   2.440  10.366 -0.4127 -1.4403 -0.3925
  651MPD2    H2 9694   2.543   2.467  10.513 -0.3871  1.6650  2.2906
  651MPD2    H3 9695   2.697   2.404  10.346  0.6780 -0.1192 -0.7582
  651MPD2     N 9696   3.042   2.595  10.561 -0.0790  0.8102  0.3591
  651MPD2    H5 9697   3.066   2.676  10.617 -0.3929  1.8524 -1.0141
  651MPD2    N1 9698   2.601   2.591  10.752 -0.5844  0.7690 -0.1486
  651MPD2    H7 9699   2.623   2.646  10.834  0.8178  0.6117 -0.4228
  652TMC3    C1 9700   3.471   2.488  10.657  0.3815  0.2669  0.5730
  652TMC3    C2 9701   3.354   2.460  10.598 -0.0169  0.6697 -0.5786
  652TMC3    C3 9702   3.267   2.561  10.563 -0.4704  0.2302 -0.5380
  652TMC3    C4 9703   3.506   2.618  10.676  0.1638  0.4714 -0.5004
  652TMC3    C5 9704   3.422   2.716  10.638 -0.5595  0.2465 -0.2726
  652TMC3    C6 9705   3.299   2.691  10.587  0.5995  0.3279  0.3987
  652TMC3     C 9706   3.578   2.400  10.658  0.3727 -0.0711 -0.2157
  652TMC3     O 9707   3.620   2.364  10.766 -0.1759 -0.3356 -0.0032
  652TMC3     H 9708   3.346   2.358  10.563 -1.3069  0.7336 -0.4942
  652TMC3    H1 9709   3.605   2.640  10.713  0.2974 -0.8773 -0.0532
  652TMC3    H2 9710   3.235   2.776  10.563 -0.3737 -0.6698 -0.5133
  652TMC3    C7 9711   3.496   2.846  10.601 -0.1537 -0.2162 -0.5280
  652TMC3    C8 9712   3.142   2.514  10.513  0.2816 -0.2084 -0.0128
  652TMC3    O1 9713   3.472   2.896  10.493  0.4912 -0.0030 -0.0803
  652TMC3    O2 9714   3.134   2.395  10.481 -0.2159  0.3786  0.4362
  653MPD2     C 9715   1.835   2.120   0.199 -0.5993 -0.5209 -0.2442
  653MPD2    C1 9716   1.809   2.196   0.084  0.7969 -0.5794  0.4118
  653MPD2    C2 9717   1.746   2.136  17.724  0.7215 -0.3615  0.3739
  653MPD2    C3 9718   1.716   2.000  17.728 -0.1589  0.6418 -0.5393
  653MPD2    C4 9719   1.737   1.927   0.095  0.1140 -0.2642  0.2248
  653MPD2    C5 9720   1.801   1.988   0.197  0.6481  0.1385  0.5157
  653MPD2     H 9721   1.729   2.191  17.632  0.4680  0.9993  1.2294
  653MPD2    H1 9722   1.715   1.821   0.104  1.3565 -0.3195  2.5084
  653MPD2    H2 9723   1.892   2.155   0.285  1.2463 -2.2551 -0.7658
  653MPD2    H3 9724   1.819   1.925   0.283  1.5015  0.4413  0.5570
  653MPD2     N 9725   1.654   1.933  17.613  0.8255  0.0683 -0.0205
  653MPD2    H5 9726   1.637   1.998  17.536 -0.6905  1.6469  1.6452
  653MPD2    N1 9727   1.829   2.332   0.071 -0.1926  0.2061  0.6274
  653MPD2    H7 9728   1.799   2.378  17.734  0.6288 -0.4825 -0.0293
  654TMC3    C1 9729   1.640   1.769  17.445 -0.3261 -0.0658  1.0719
  654TMC3    C2 9730   1.525   1.803  17.374  0.0487 -0.0604 -0.7673
  654TMC3    C3 9731   1.501   1.734  17.255 -0.0453 -0.1509 -1.0973
  654TMC3    C4 9732   1.736   1.686  17.399 -0.9701  0.2966 -0.1006
  654TMC3    C5 9733   1.714   1.632  17.279  0.0763  0.4177 -0.4115
  654TMC3    C6 9734   1.595   1.644  17.212  0.2513 -0.4231 -0.0933
  654TMC3     C 9735   1.661   1.800  17.581 -0.9148 -0.5603  0.2160
  654TMC3     O 9736   1.703   1.707  17.648  0.5592 -0.2769 -0.5512
  654TMC3     H 9737   1.447   1.868  17.412  0.6486  1.5931 -2.3746
  654TMC3    H1 9738   1.819   1.654  17.461 -0.0858  1.3371 -0.7406
  654TMC3    H2 9739   1.585   1.594  17.117 -2.7122 -0.3557  0.1952
  654TMC3    C7 9740   1.806   1.537  17.216 -0.0412  0.4185 -0.1623
  654TMC3    C8 9741   1.385   1.774  17.180 -0.1683 -0.5010 -0.0022
  654TMC3    O1 9742   1.769   1.486  17.109 -0.1363  0.0682 -0.2446
  654TMC3    O2 9743   1.346   1.888  17.201  0.2328  0.6285 -0.1814
  655MPD2     C 9744   3.017   1.786  15.781 -0.1983 -0.2622 -0.2977
  655MPD2    C1 9745   2.978   1.890  15.697 -0.1474  0.7460  0.1914
  655MPD2    C2 9746   3.007   1.880  15.563  0.2721  0.2052  0.2683
  655MPD2    C3 9747   3.073   1.773  15.511  0.0687  0.3169  0.3380
  655MPD2    C4 9748   3.105   1.672  15.599  0.3293  0.4564  0.8622
  655MPD2    C5 9749   3.090   1.681  15.731 -0.0718  0.4766  0.1189
  655MPD2     H 9750   2.979   1.963  15.497 -0.7623 -0.3832 -0.0335
  655MPD2    H1 9751   3.148   1.579  15.565 -0.0980  0.5184  0.1468
  655MPD2    H2 9752   3.001   1.797  15.887 -1.2319  0.0114 -0.4765
  655MPD2    H3 9753   3.115   1.596  15.793 -2.0117 -1.6670 -2.0344
  655MPD2     N 9754   3.098   1.754  15.380  0.3293  0.0435 -0.8830
  655MPD2    H5 9755   3.151   1.671  15.356 -0.8127 -0.8265 -0.4296
  655MPD2    N1 9756   2.917   2.007  15.746 -0.2688  0.4085  0.9543
  655MPD2    H7 9757   2.891   2.071  15.672  0.1145 -0.8009 -0.2278
  656TMC3    C1 9758   2.800   2.154  15.896  0.4001  0.0274 -0.2328
  656TMC3    C2 9759   2.721   2.157  16.010 -0.2044 -0.0289  0.5141
  656TMC3    C3 9760   2.651   2.272  16.040 -0.0124 -0.0302  0.6939
  656TMC3    C4 9761   2.805   2.262  15.809 -0.0253  1.0912 -0.1878
  656TMC3    C5 9762   2.718   2.367  15.835  0.4931  0.0209  0.3188
  656TMC3    C6 9763   2.639   2.374  15.953  0.2467  0.0912  0.4579
  656TMC3     C 9764   2.880   2.027  15.875  0.1027 -0.5009 -0.5346
  656TMC3     O 9765   2.897   1.959  15.977  0.2194  0.3061  0.5614
  656TMC3     H 9766   2.752   2.094  16.092  0.9160  1.8571  1.5292
  656TMC3    H1 9767   2.867   2.249  15.721  0.4551  0.9794  0.1670
  656TMC3    H2 9768   2.554   2.438  15.970 -0.1207 -0.0562 -0.8001
  656TMC3    C7 9769   2.681   2.446  15.721 -0.5075 -0.8105 -0.8270
  656TMC3    C8 9770   2.562   2.265  16.150 -0.3853  0.4832 -0.5403
  656TMC3    O1 9771   2.740   2.408  15.623  0.0068  0.1697 -0.2107
  656TMC3    O2 9772   2.534   2.149  16.173 -0.3672  0.0095 -0.2115
  657TMC3    C1 9773   2.225   1.370  14.529 -0.4081  0.3962  0.2605
  657TMC3    C2 9774   2.159   1.424  14.636 -0.0140 -0.0873  0.0321
  657TMC3    C3 9775   2.056   1.520  14.617 -0.6194 -0.4195 -1.2128
  657TMC3    C4 9776   2.200   1.419  14.409  0.3838  0.0185  0.3817
  657TMC3    C5 9777   2.104   1.517  14.386  0.2047 -0.4674  0.2839
  657TMC3    C6 9778   2.026   1.561  14.490 -0.2588  0.7590 -0.4918
  657TMC3     C 9779   2.266   1.231  14.528 -0.0665 -0.6330 -0.2128
  657TMC3     O 9780   2.215   1.166  14.438 -0.1377 -0.1489 -0.1605
  657TMC3     H 9781   2.189   1.387  14.733  0.3849 -1.2103 -0.5073
  657TMC3    H1 9782   2.265   1.392  14.326  0.7838 -2.1032  1.3748
  657TMC3    H2 9783   1.960   1.647  14.476 -1.5670 -0.0522  0.6964
  657TMC3    C7 9784   2.079   1.556  14.243  0.5814  0.5230  0.0619
  657TMC3    C8 9785   1.982   1.574  14.728 -0.5264 -0.0475  0.0714
  657TMC3    O1 9786   2.166   1.526  14.160  0.0442 -0.3216 -0.1064
  657TMC3    O2 9787   1.909   1.668  14.695  0.3562  0.3775 -0.1317
  658MPD2     C 9788   3.357   1.580  14.562 -0.0087  0.3275  0.3473
  658MPD2    C1 9789   3.311   1.703  14.612  0.5090 -0.4926 -0.3953
  658MPD2    C2 9790   3.310   1.809  14.529  0.7439  0.4428 -0.4770
  658MPD2    C3 9791   3.357   1.785  14.396  0.6661 -0.4913 -0.0407
  658MPD2    C4 9792   3.427   1.675  14.358 -0.6365  0.3924  0.7330
  658MPD2    C5 9793   3.418   1.568  14.438 -0.1258 -0.0775 -0.6204
  658MPD2     H 9794   3.255   1.899  14.554 -1.6445 -1.2886  0.5758
  658MPD2    H1 9795   3.487   1.670  14.268 -2.4396  0.5731 -0.4737
  658MPD2    H2 9796   3.370   1.496  14.629 -0.6315 -0.4670 -0.5274
  658MPD2    H3 9797   3.455   1.471  14.406  0.0202  0.2647 -1.5083
  658MPD2     N 9798   3.345   1.897  14.314 -0.0624 -0.4359  0.3594
  658MPD2    H5 9799   3.304   1.982  14.351 -0.4686  0.1430 -1.3907
  658MPD2    N1 9800   3.246   1.697  14.741  0.1563 -0.0659  0.2895
  658MPD2    H7 9801   3.238   1.605  14.784  2.1688 -0.9932 -1.3079
  659TMC3    C1 9802   3.116   1.778  14.917 -0.5954  0.7232  0.9876
  659TMC3    C2 9803   3.126   1.844  15.036  0.2342  0.6813  0.1698
  659TMC3    C3 9804   3.075   1.781  15.149 -0.9893  0.2831  0.6820
  659TMC3    C4 9805   3.031   1.675  14.904 -0.3546  0.3238 -0.6405
  659TMC3    C5 9806   2.957   1.637  15.013 -0.7765 -0.1202 -0.2363
  659TMC3    C6 9807   2.991   1.675  15.139  0.5242 -0.0078  0.2425
  659TMC3     C 9808   3.206   1.806  14.803  0.2156  0.1182  0.6926
  659TMC3     O 9809   3.259   1.921  14.788  0.1667  0.3640 -0.0374
  659TMC3     H 9810   3.195   1.927  15.045  2.0956 -0.6198 -2.1497
  659TMC3    H1 9811   2.996   1.648  14.805  0.3604 -0.8173 -0.5856
  659TMC3    H2 9812   2.928   1.654  15.224  1.1728 -1.8099  0.2786
  659TMC3    C7 9813   2.820   1.620  14.994  0.4080 -0.1910 -0.0027
  659TMC3    C8 9814   3.080   1.845  15.285 -0.1003  0.3526  0.3347
  659TMC3    O1 9815   2.768   1.566  15.088 -0.3548  0.0790 -0.0071
  659TMC3    O2 9816   3.078   1.967  15.286 -0.3846  0.3134  0.3520
  660MPD2     C 9817   0.914   0.997  12.694  0.6942  0.3420  0.2297
  660MPD2    C1 9818   0.798   1.068  12.683  1.1868 -0.1002  0.2584
  660MPD2    C2 9819   0.697   1.056  12.783 -0.4092 -0.0883  0.2784
  660MPD2    C3 9820   0.715   0.972  12.888  0.6091  0.1577 -0.4851
  660MPD2    C4 9821   0.833   0.898  12.893  0.2459 -0.0181  0.4518
  660MPD2    C5 9822   0.924   0.911  12.796  0.2045 -0.4186  0.4125
  660MPD2     H 9823   0.614   1.125  12.777 -0.7426 -0.7594 -2.7921
  660MPD2    H1 9824   0.855   0.830  12.975 -3.7664 -2.4193 -0.4503
  660MPD2    H2 9825   0.983   0.998  12.610 -0.5487 -0.2263 -0.8067
  660MPD2    H3 9826   1.010   0.845  12.803  0.7630  0.4166  1.4079
  660MPD2     N 9827   0.620   0.940  12.987  0.1022  0.3353  0.5778
  660MPD2    H5 9828   0.652   0.877  13.060 -0.6214  0.4962  1.0224
  660MPD2    N1 9829   0.794   1.144  12.566  0.2838 -0.1817  0.0559
  660MPD2    H7 9830   0.881   1.173  12.522  0.6367 -1.8884 -0.3437
  661TMC3    C1 9831   0.687   1.264  12.387 -0.0292  0.2294 -0.2501
  661TMC3    C2 9832   0.795   1.227  12.308  0.4403  0.1861 -0.3230
  661TMC3    C3 9833   0.789   1.229  12.177 -0.4438 -0.0768  0.5787
  661TMC3    C4 9834   0.570   1.307  12.332 -0.2449  0.9219 -0.0848
  661TMC3    C5 9835   0.570   1.308  12.192  0.9461 -0.4724 -1.3058
  661TMC3    C6 9836   0.674   1.270  12.109  0.2196  0.0276  0.2872
  661TMC3     C 9837   0.672   1.194  12.517 -0.1879  0.3087  0.1763
  661TMC3     O 9838   0.560   1.175  12.557 -0.3635 -0.2759 -0.2667
  661TMC3     H 9839   0.889   1.193  12.351  1.4554  0.4871 -2.2915
  661TMC3    H1 9840   0.487   1.330  12.397 -0.2759 -0.5478  0.3834
  661TMC3    H2 9841   0.654   1.250  12.004  0.8311 -1.0768  0.3820
  661TMC3    C7 9842   0.440   1.268  12.138 -0.2157  0.2620  0.0082
  661TMC3    C8 9843   0.891   1.153  12.102  0.1272  0.1222  0.1918
  661TMC3    O1 9844   0.424   1.276  12.013 -0.2793 -0.1546  0.2149
  661TMC3    O2 9845   0.975   1.103  12.172  0.1673  0.0405  0.1378
  662MPD2     C 9846   1.401   0.361  16.743  0.2197  0.1790 -0.3839
  662MPD2    C1 9847   1.399   0.271  16.854  0.0826 -0.2323 -0.2691
  662MPD2    C2 9848   1.342   0.308  16.975 -0.3698  0.2675 -0.2334
  662MPD2    C3 9849   1.248   0.407  16.965 -0.1369 -0.1698  0.4131
  662MPD2    C4 9850   1.225   0.482  16.855  0.5910 -0.0098 -0.0350
  662MPD2    C5 9851   1.310   0.459  16.750 -0.3617 -0.5588  0.4466
  662MPD2     H 9852   1.347   0.235  17.055  1.0192  0.3751 -0.2329
  662MPD2    H1 9853   1.149   0.558  16.847 -1.0827 -1.5608  0.9094
  662MPD2    H2 9854   1.466   0.345  16.657  1.0705 -1.6461  0.5900
  662MPD2    H3 9855   1.294   0.524  16.665 -0.2849 -1.6935 -0.4444
  662MPD2     N 9856   1.154   0.433  17.073  0.4288 -0.4980 -0.1108
  662MPD2    H5 9857   1.081   0.502  17.058 -0.4153 -1.3925 -0.1296
  662MPD2    N1 9858   1.462   0.148  16.855  0.0304  0.2601  0.1167
  662MPD2    H7 9859   1.459   0.086  16.935  2.2259 -0.4619 -0.3521
  663TMC3    C1 9860   1.536   4.682  16.769  0.1083 -0.2403 -0.0902
  663TMC3    C2 9861   1.521   4.621  16.895  0.5937  0.0870  0.6411
  663TMC3    C3 9862   1.505   4.486  16.916  0.0303 -0.1391  0.0273
  663TMC3    C4 9863   1.520   4.601  16.659  0.0505 -0.6986 -0.2710
  663TMC3    C5 9864   1.503   4.468  16.675  0.3652  0.3402 -0.4278
  663TMC3    C6 9865   1.506   4.411  16.798 -0.6965 -0.3821  0.7779
  663TMC3     C 9866   1.521   0.089  16.749 -0.1963  0.3939 -0.6332
  663TMC3     O 9867   1.553   0.134  16.641  0.2508  0.0714 -0.1305
  663TMC3     H 9868   1.560   4.661  16.988  0.0764 -0.4185  1.0783
  663TMC3    H1 9869   1.506   4.649  16.562  0.1459  0.2983  0.2114
  663TMC3    H2 9870   1.484   4.305  16.808 -1.9449 -0.1044  0.9532
  663TMC3    C7 9871   1.394   4.418  16.585 -0.1893 -0.1064 -0.7090
  663TMC3    C8 9872   1.380   4.468  16.985 -0.8028  0.6730 -0.1686
  663TMC3    O1 9873   1.407   4.421  16.462  1.1984 -0.2211 -0.0209
  663TMC3    O2 9874   1.305   4.378  16.941 -0.2494  0.6995  0.4319
  664MPD2     C 9875   3.750   3.290  17.310 -0.0785 -0.5126 -0.4953
  664MPD2    C1 9876   3.799   3.412  17.360  0.1376  0.5717 -0.2971
  664MPD2    C2 9877   3.802   3.451  17.490 -0.2361  0.0934  0.5512
  664MPD2    C3 9878   3.764   3.349  17.582 -0.0079 -0.4682  0.0303
  664MPD2    C4 9879   3.749   3.217  17.539  0.1239 -0.0412 -0.4468
  664MPD2    C5 9880   3.735   3.193  17.403  0.4113  0.2169  0.2583
  664MPD2     H 9881   3.826   3.550  17.528  0.0368  1.1074 -2.2983
  664MPD2    H1 9882   3.736   3.136  17.610  1.2667  1.2487  1.2571
  664MPD2    H2 9883   3.714   3.270  17.210  0.8137 -0.2359 -0.8615
  664MPD2    H3 9884   3.696   3.095  17.376  1.7001 -0.5023  1.0015
  664MPD2     N 9885   3.759   3.388  17.718 -0.1550 -0.2341  0.4239
  664MPD2    H5 9886   3.786   3.486  17.728 -1.3991 -0.0346  1.8261
  664MPD2    N1 9887   3.842   3.508  17.261  0.2632  0.7997  0.2939
  664MPD2    H7 9888   3.871   3.601  17.289 -2.4697  1.1670  1.9796
  665TMC3    C1 9889   3.782   3.399   0.199 -0.5400 -0.2296 -0.1312
  665TMC3    C2 9890   3.725   3.351   0.317 -0.1392 -0.1421 -0.1701
  665TMC3    C3 9891   3.740   3.429   0.434  0.7866  0.0051 -0.0949
  665TMC3    C4 9892   3.869   3.501   0.197 -0.3780 -0.0850  0.1407
  665TMC3    C5 9893   3.886   3.575   0.313 -0.2244  0.5421 -0.1485
  665TMC3    C6 9894   3.828   3.539   0.430  0.2596  0.1263  0.2732
  665TMC3     C 9895   3.772   3.313   0.081  0.4419  0.3148 -0.8509
  665TMC3     O 9896   3.730   3.198   0.099 -0.7153  0.6028  0.2893
  665TMC3     H 9897   3.660   3.264   0.312  0.1148 -0.4323  1.5212
  665TMC3    H1 9898   3.904   3.547   0.105  2.4448 -1.4391  0.5326
  665TMC3    H2 9899   3.850   3.587   0.525 -0.8686 -1.1242  1.1590
  665TMC3    C7 9900   3.985   3.686   0.301 -0.2954  0.8110 -0.1443
  665TMC3    C8 9901   3.683   3.398   0.563 -0.2318  0.6035 -0.7908
  665TMC3    O1 9902   4.023   3.718   0.188  0.1722  0.3177  0.0685
  665TMC3    O2 9903   3.684   3.490   0.645  0.1101  0.8409 -0.0769
  666TMC3    C1 9904   2.800   3.817   9.951 -0.4194 -0.0014  0.0247
  666TMC3    C2 9905   2.930   3.771   9.978  0.0599 -0.3914  0.1961
  666TMC3    C3 9906   3.026   3.867   9.978  0.2438 -0.1408 -0.1289
  666TMC3    C4 9907   2.765   3.947   9.924  0.2402  0.0457 -0.8808
  666TMC3    C5 9908   2.868   4.036   9.913 -1.2669 -0.0923  0.3379
  666TMC3    C6 9909   2.994   3.990   9.926  0.4754  0.2713  0.2220
  666TMC3     C 9910   2.687   3.724   9.979 -0.1849 -0.3022 -0.4156
  666TMC3     O 9911   2.573   3.771   9.981 -0.4015  0.5597  0.0616
  666TMC3     H 9912   2.954   3.671  10.010 -1.3211 -0.4989  0.9116
  666TMC3    H1 9913   2.662   3.979   9.907  0.0469 -0.4131 -0.5762
  666TMC3    H2 9914   3.072   4.065   9.921  0.4101  0.4180  1.4399
  666TMC3    C7 9915   2.838   4.177   9.867  0.1854 -0.6292 -0.2437
  666TMC3    C8 9916   3.167   3.832  10.013 -0.6412  0.7307  0.1645
  666TMC3    O1 9917   2.717   4.210   9.872 -0.1428  0.1969  0.0792
  666TMC3    O2 9918   3.197   3.715  10.002  0.3158  0.0283 -0.1146
  667MPD2     C 9919   0.596   3.262  14.427 -0.6057 -0.5403 -0.2971
  667MPD2    C1 9920   0.484   3.319  14.477  0.2388  0.4643 -0.1158
  667MPD2    C2 9921   0.361   3.252  14.484 -0.2475  0.1370 -0.0502
  667MPD2    C3 9922   0.352   3.121  14.451 -0.5409 -0.3374 -0.2703
  667MPD2    C4 9923   0.465   3.060  14.399 -0.8910  0.1180  0.3954
  667MPD2    C5 9924   0.584   3.129  14.384 -0.6359  0.5608 -0.1919
  667MPD2     H 9925   0.275   3.306  14.523 -0.0044  0.0440  0.6121
  667MPD2    H1 9926   0.463   2.952  14.383 -2.0053  0.0920  0.7500
  667MPD2    H2 9927   0.684   3.323  14.410 -0.0394 -0.6257  2.3770
  667MPD2    H3 9928   0.665   3.070  14.343  0.3902  3.2344 -2.0138
  667MPD2     N 9929   0.233   3.048  14.467  0.2963  0.5590  0.0233
  667MPD2    H5 9930   0.228   2.962  14.413  2.3728  1.7831 -2.1341
  667MPD2    N1 9931   0.483   3.443  14.543  0.1396  0.3267  0.0866
  667MPD2    H7 9932   0.393   3.474  14.579 -0.2437 -0.6835  0.0064
  668TMC3    C1 9933   0.545   3.630  14.644 -0.5333  0.3486 -0.4410
  668TMC3    C2 9934   0.614   3.745  14.634 -0.2814 -0.7032 -0.3544
  668TMC3    C3 9935   0.616   3.828  14.741 -0.3356  0.0831  0.1698
  668TMC3    C4 9936   0.468   3.600  14.753 -0.1721 -0.0009 -0.1554
  668TMC3    C5 9937   0.470   3.686  14.856 -0.1767 -0.3473  0.1611
  668TMC3    C6 9938   0.536   3.804  14.848  0.0825 -0.1002 -0.2775
  668TMC3     C 9939   0.582   3.533  14.549  0.4755 -0.5043  0.0788
  668TMC3     O 9940   0.696   3.539  14.500 -1.0105  0.5164 -0.1678
  668TMC3     H 9941   0.685   3.760  14.554 -0.9741 -1.6860 -1.1545
  668TMC3    H1 9942   0.423   3.502  14.763  1.7386 -1.0265 -1.7228
  668TMC3    H2 9943   0.512   3.884  14.917  0.0252 -1.6499  1.4661
  668TMC3    C7 9944   0.405   3.670  14.980 -0.8267  0.1470 -0.2890
  668TMC3    C8 9945   0.662   3.966  14.724 -0.0052 -0.3799 -0.2623
  668TMC3    O1 9946   0.454   3.732  15.075  0.0330  0.4776 -0.4942
  668TMC3    O2 9947   0.627   4.036  14.814  0.3339  0.1981 -0.1936
  669TMC3    C1 9948   2.958   3.162  14.249 -0.3573  0.3820  0.5051
  669TMC3    C2 9949   2.870   3.136  14.149  0.0061 -0.0763  0.9568
  669TMC3    C3 9950   2.883   3.215  14.034  0.2797 -0.1713 -0.2403
  669TMC3    C4 9951   3.066   3.250  14.225  0.3044 -0.2499  0.0914
  669TMC3    C5 9952   3.081   3.317  14.105 -0.2101  0.6312  0.1719
  669TMC3    C6 9953   2.983   3.306  14.013  0.4347  0.5310  0.1939
  669TMC3     C 9954   2.906   3.147  14.388  0.5280 -0.2859 -0.4120
  669TMC3     O 9955   2.785   3.153  14.407 -0.0912  0.0345 -0.2503
  669TMC3     H 9956   2.783   3.075  14.171  0.0928 -0.1582  1.0710
  669TMC3    H1 9957   3.141   3.267  14.302 -1.4770  0.6272  1.6398
  669TMC3    H2 9958   2.988   3.353  13.915  0.1586 -1.1701 -0.6412
  669TMC3    C7 9959   3.197   3.400  14.084  0.1755  0.4268 -0.0579
  669TMC3    C8 9960   2.776   3.199  13.930 -0.1148  0.3646  0.5153
  669TMC3    O1 9961   3.238   3.455  14.185  0.6225 -0.1884  0.3583
  669TMC3    O2 9962   2.689   3.122  13.968  0.0594 -0.2875  0.1285
  670MPD2     C 9963   1.120   0.881  13.848 -0.4987  0.1204  0.0833
  670MPD2    C1 9964   1.232   0.826  13.906  0.2245 -0.9510  0.1845
  670MPD2    C2 9965   1.230   0.786  14.037 -0.3731 -0.2124 -0.3693
  670MPD2    C3 9966   1.118   0.809  14.117  0.0106 -0.2206  0.4707
  670MPD2    C4 9967   0.999   0.858  14.056  0.5233  0.2334  0.1605
  670MPD2    C5 9968   1.008   0.898  13.923 -0.0713 -0.1284 -0.0374
  670MPD2     H 9969   1.323   0.752  14.082 -1.0288  0.3691  1.4087
  670MPD2    H1 9970   0.907   0.887  14.105 -0.9621 -0.5543 -2.1521
  670MPD2    H2 9971   1.121   0.931  13.752 -1.6077 -0.8071 -0.4156
  670MPD2    H3 9972   0.929   0.944  13.866 -1.2501 -1.2928  0.6515
  670MPD2     N 9973   1.115   0.789  14.260 -0.1651  0.3983 -0.8584
  670MPD2    H5 9974   1.022   0.780  14.299  1.4423 -0.0024  2.8660
  670MPD2    N1 9975   1.353   0.814  13.844  0.1955  0.5553 -0.3361
  670MPD2    H7 9976   1.427   0.785  13.906 -0.7387  1.6424  1.2787
  671TMC3    C1 9977   1.197   0.688  14.459 -0.3807  0.2922  0.8173
  671TMC3    C2 9978   1.306   0.638  14.525 -0.3108 -0.0866 -0.0965
  671TMC3    C3 9979   1.295   0.518  14.596 -0.5527  0.2769  0.0039
  671TMC3    C4 9980   1.073   0.629  14.467  0.5128  0.7860  0.1701
  671TMC3    C5 9981   1.067   0.517  14.547  0.7766 -0.2474 -0.1253
  671TMC3    C6 9982   1.175   0.457  14.610 -0.1957 -0.0560 -0.1687
  671TMC3     C 9983   1.227   0.774  14.342 -0.3277  0.6070  0.0375
  671TMC3     O 9984   1.341   0.807  14.319  0.3639 -0.1081 -0.2289
  671TMC3     H 9985   1.390   0.705  14.537  0.1365 -0.8501  0.9601
  671TMC3    H1 9986   0.981   0.672  14.431  0.9323  0.2348 -1.5697
  671TMC3    H2 9987   1.154   0.377  14.680 -1.5506 -2.5348 -3.3784
  671TMC3    C7 9988   0.969   0.435  14.496 -0.0678 -0.4560  0.4185
  671TMC3    C8 9989   1.417   0.442  14.619 -0.2460  0.6891 -0.0618
  671TMC3    O1 9990   0.918   0.352  14.569  0.3003  0.3608  0.2065
  671TMC3    O2 9991   1.486   0.469  14.709  0.0577  0.3303 -0.0812
  672MPD2     C 9992   1.290   1.814   0.649 -0.0861  0.0631  0.0278
  672MPD2    C1 9993   1.385   1.714   0.677 -0.4021  0.0601  0.3203
  672MPD2    C2 9994   1.507   1.743   0.736  0.5636 -1.0253  0.6468
  672MPD2    C3 9995   1.531   1.872   0.771  0.6327  0.6091  0.0603
  672MPD2    C4 9996   1.434   1.969   0.756  0.3961 -0.2598  0.0007
  672MPD2    C5 9997   1.317   1.944   0.686  0.2408 -0.0671  0.1111
  672MPD2     H 9998   1.581   1.669   0.764  1.2310 -0.0011  1.5977
  672MPD2    H1 9999   1.446   2.070   0.794  1.5027 -0.7895  1.0601
  672MPD2    H210000   1.198   1.785   0.600 -0.3386 -2.6969  2.1371
  672MPD2    H310001   1.238   2.017   0.672 -0.1504 -1.0750 -3.0180
  672MPD2     N10002   1.653   1.910   0.834 -0.0779 -1.1776  0.6400
  672MPD2    H510003   1.648   2.011   0.849  0.7242 -1.2398  1.3054
  672MPD2    N110004   1.352   1.590   0.621  0.1291  0.0741  0.0183
  672MPD2    H710005   1.266   1.587   0.566  1.8384  0.8880 -2.6665
  673TMC3    C110006   1.379   1.379   0.521  1.0257  0.5641 -0.4630
  673TMC3    C210007   1.461   1.271   0.501 -0.4549  0.4970  0.4222
  673TMC3    C310008   1.453   1.206   0.381 -0.2927 -0.5559 -0.6549
  673TMC3    C410009   1.302   1.431   0.419 -0.8220  0.6898 -0.3958
  673TMC3    C510010   1.295   1.361   0.303 -0.3474  0.4157 -0.0958
  673TMC3    C610011   1.370   1.248   0.279 -0.0959  0.1522 -0.1636
  673TMC3     C10012   1.428   1.474   0.622  0.6728 -0.3961  0.0822
  673TMC3     O10013   1.528   1.441   0.685  0.0757  0.0320  0.0348
  673TMC3     H10014   1.523   1.238   0.584  0.6313 -0.2259 -0.6787
  673TMC3    H110015   1.224   1.505   0.430  0.2566  1.8928 -0.7998
  673TMC3    H210016   1.362   1.201   0.181 -1.7903  0.9235 -0.4030
  673TMC3    C710017   1.269   1.420   0.181  0.3664 -0.4385  0.6130
  673TMC3    C810018   1.539   1.091   0.348 -0.0031 -0.3500 -0.1742
  673TMC3    O110019   1.203   1.373   0.084 -0.6351 -0.5872  0.3389
  673TMC3    O210020   1.496   1.027   0.254 -0.6178  0.5830 -0.7190
  674MPD2     C10021   1.475   1.290  17.190  0.0025  0.1851  0.6195
  674MPD2    C110022   1.469   1.198  17.293 -0.0988 -0.1254  0.3475
  674MPD2    C210023   1.354   1.189  17.372 -0.1434 -0.7561 -0.4473
  674MPD2    C310024   1.252   1.284  17.367  0.1648  0.1133  0.0445
  674MPD2    C410025   1.248   1.363  17.248 -0.7711  0.8100  0.5577
  674MPD2    C510026   1.358   1.358  17.158 -0.3655 -0.8209  0.4966
  674MPD2     H10027   1.365   1.133  17.464  0.6715  0.8457  0.4345
  674MPD2    H110028   1.168   1.431  17.222  0.1366  1.4918 -0.4513
  674MPD2    H210029   1.553   1.302  17.116 -0.4538 -0.9369 -0.0393
  674MPD2    H310030   1.347   1.411  17.064  1.2707 -1.3523  0.0016
  674MPD2     N10031   1.151   1.288  17.466  0.3309 -0.5472 -0.1648
  674MPD2    H510032   1.157   1.221  17.542 -0.2148 -1.8856 -1.3029
  674MPD2    N110033   1.583   1.127  17.316  0.5947  0.4741 -0.0528
  674MPD2    H710034   1.663   1.152  17.259 -0.0667  1.8123 -0.3772
  675TMC3    C110035   1.731   0.991  17.439  0.0253  0.0338 -0.1338
  675TMC3    C210036   1.741   0.851  17.458 -0.0954  0.0272 -0.9424
  675TMC3    C310037   1.785   0.801  17.577  0.5282 -0.6211 -0.0738
  675TMC3    C410038   1.784   1.078  17.533  0.0657 -0.2305 -0.3209
  675TMC3    C510039   1.820   1.024  17.651 -0.0059  0.3286  0.5454
  675TMC3    C610040   1.822   0.888  17.674  0.1176 -0.2155 -0.2504
  675TMC3     C10041   1.600   1.018  17.400 -0.2311 -0.0587  0.4661
  675TMC3     O10042   1.509   0.944  17.435  0.0752 -0.6726 -0.1999
  675TMC3     H10043   1.724   0.781  17.377 -0.0231 -0.6800 -0.3451
  675TMC3    H110044   1.780   1.186  17.519  1.3890 -0.0023  1.0988
  675TMC3    H210045   1.852   0.843   0.019 -1.8104 -0.5833  0.1893
  675TMC3    C710046   1.876   1.111   0.005  0.3555  0.1350  0.7490
  675TMC3    C810047   1.771   0.661  17.595 -0.2777 -0.4825  0.4815
  675TMC3    O110048   1.822   1.217   0.027 -0.2454  0.4065 -0.2300
  675TMC3    O210049   1.849   0.595  17.529  0.1057  1.0099 -0.1114
  676MPD2     C10050   4.044   4.716  11.194  0.5494 -0.3451  0.0786
  676MPD2    C110051   3.915   4.682  11.206 -0.2406  0.4669 -0.2156
  676MPD2    C210052   3.862   4.583  11.125 -0.0401  0.5561 -0.2437
  676MPD2    C310053   3.944   4.513  11.041 -0.0724  0.0664 -0.1907
  676MPD2    C410054   4.072   4.558  11.017 -0.1764  0.2193 -0.3096
  676MPD2    C510055   4.122   4.655  11.099 -0.3047 -0.5222  1.0670
  676MPD2     H10056   3.760   4.550  11.145  0.1847  0.4041  0.6352
  676MPD2    H110057   4.134   4.509  10.943 -2.1047 -1.4950 -0.8014
  676MPD2    H210058   4.093   0.057  11.250 -0.9062 -1.1944  2.5388
  676MPD2    H310059   4.228   4.676  11.096 -0.1963 -1.0307  1.3552
  676MPD2     N10060   3.903   4.400  10.969  0.0060  0.1507 -0.5954
  676MPD2    H510061   3.965   4.371  10.894 -1.3698  0.0746 -1.7093
  676MPD2    N110062   3.823   0.005  11.297 -0.3018 -0.2963  0.0725
  676MPD2    H710063   3.725   4.716  11.300 -0.5247  0.8420  2.2822
  677TMC3    C110064   3.746   0.167  11.456  0.0989 -0.5816 -0.2579
  677TMC3    C210065   3.620   0.115  11.422  0.2922  0.4363  0.6315
  677TMC3    C310066   3.522   0.124  11.515 -0.6229 -0.2482 -0.4551
  677TMC3    C410067   3.768   0.235  11.574  0.7634  0.7968 -0.2618
  677TMC3    C510068   3.661   0.242  11.655  0.2123 -0.0900 -0.0053
  677TMC3    C610069   3.536   0.195  11.632 -0.0751 -0.8454  0.1141
  677TMC3     C10070   3.861   0.111  11.380  0.5620 -0.4595  0.2172
  677TMC3     O10071   3.972   0.152  11.408  0.2061  0.6569  0.1549
  677TMC3     H10072   3.604   0.062  11.329  1.8314  3.8176 -1.5815
  677TMC3    H110073   3.871   0.247  11.606  0.7178 -2.0965  0.9032
  677TMC3    H210074   3.464   0.196  11.713 -0.7573 -1.8472 -0.4798
  677TMC3    C710075   3.693   0.256  11.796  0.0560 -0.1029  0.5792
  677TMC3    C810076   3.390   0.061  11.479  0.6795 -0.2917 -0.1774
  677TMC3    O110077   3.614   0.207  11.876  0.2051  0.4884 -0.7076
  677TMC3    O210078   3.367   0.073  11.358  0.2174  0.1988  0.1378
  678MPD2     C10079   0.811   4.361   1.234 -0.4768  0.7031 -0.3494
  678MPD2    C110080   0.815   4.413   1.104  0.3387  0.5214  0.6015
  678MPD2    C210081   0.705   4.485   1.060  0.0741 -0.3611 -0.0613
  678MPD2    C310082   0.601   4.512   1.146  0.0947 -0.0466  0.6092
  678MPD2    C410083   0.593   4.457   1.276 -0.3902  0.0094  0.5973
  678MPD2    C510084   0.707   4.388   1.321 -0.4238 -0.9523  0.5595
  678MPD2     H10085   0.692   4.513   0.956  1.2081 -1.6288 -0.5430
  678MPD2    H110086   0.502   4.469   1.334 -2.4687 -0.3371 -2.5476
  678MPD2    H210087   0.880   4.282   1.263  2.2155  2.1272 -2.9165
  678MPD2    H310088   0.711   4.338   1.417 -0.0498  0.0338  1.0527
  678MPD2     N10089   0.493   4.584   1.094 -0.3935 -0.6252 -0.0397
  678MPD2    H510090   0.498   4.618   0.998  1.2674  1.3679  0.7366
  678MPD2    N110091   0.915   4.390   1.005 -1.0582  0.0203  0.0345
  678MPD2    H710092   0.910   4.436   0.915 -0.4351  0.2665  0.1214
  679TMC3    C110093   1.306   4.220   0.808 -0.4856 -0.1548  0.3132
  679TMC3    C210094   1.221   4.216   0.915 -0.6524 -0.0829 -0.3514
  679TMC3    C310095   1.134   4.323   0.929 -0.2331 -0.9806 -0.6924
  679TMC3    C410096   1.324   4.335   0.738  0.3857 -0.3815  0.4884
  679TMC3    C510097   1.229   4.433   0.754  0.6662  0.9703 -0.5597
  679TMC3    C610098   1.128   4.433   0.850  0.0370 -0.3736  0.1735
  679TMC3     C10099   1.402   4.118   0.770 -0.4855  0.2389 -0.5689
  679TMC3     O10100   1.455   4.120   0.659  0.8068 -0.0343  0.2939
  679TMC3     H10101   1.210   4.123   0.970  0.4232  0.3860  0.6654
  679TMC3    H110102   1.382   4.334   0.646 -2.5705 -2.3934 -1.3254
  679TMC3    H210103   1.075   4.527   0.865  0.7159  0.0610 -0.1694
  679TMC3    C710104   1.225   4.538   0.656 -0.0907  0.0352  0.2404
  679TMC3    C810105   1.026   4.310   1.022 -0.3671  0.0312 -0.1362
  679TMC3    O110106   1.130   4.613   0.639 -0.2256 -0.0394 -0.1421
  679TMC3    O210107   1.044   4.237   1.118 -0.3575  0.0818  0.6037
  680MPD2     C10108   0.372   3.351  13.554 -0.5572  0.4815  0.3289
  680MPD2    C110109   0.499   3.302  13.577  0.6732 -1.0577  0.0691
  680MPD2    C210110   0.606   3.382  13.591  0.3031  1.0603 -0.3127
  680MPD2    C310111   0.592   3.515  13.589 -0.1568 -0.4988  0.1629
  680MPD2    C410112   0.467   3.570  13.563  0.1039 -0.1156 -0.2418
  680MPD2    C510113   0.358   3.487  13.540  0.0864 -0.1737 -0.3201
  680MPD2     H10114   0.705   3.346  13.615 -0.9027 -1.0166  1.6584
  680MPD2    H110115   0.456   3.678  13.559  2.6621  0.1534  0.1728
  680MPD2    H210116   0.280   3.297  13.538 -1.0523  1.2143  0.7176
  680MPD2    H310117   0.258   3.526  13.529  0.3330  0.3258 -0.8516
  680MPD2     N10118   0.696   3.609  13.627  0.4503  0.1344 -0.1142
  680MPD2    H510119   0.676   3.707  13.616  1.4241  0.2578 -0.7730
  680MPD2    N110120   0.526   3.155  13.583  0.2689 -0.0276 -0.2954
  680MPD2    H710121   0.619   3.113  13.581  1.1083  1.8440 -1.0991
  681TMC3    C110122   0.481   2.928  13.607 -0.3411  0.8124 -0.0015
  681TMC3    C210123   0.412   2.844  13.684 -0.2646 -0.1441  0.8971
  681TMC3    C310124   0.463   2.722  13.683 -0.0457  0.6471 -0.3891
  681TMC3    C410125   0.587   2.901  13.520  0.0395 -0.0960 -0.3061
  681TMC3    C510126   0.629   2.777  13.520 -0.4618  0.2029  0.6743
  681TMC3    C610127   0.567   2.683  13.597 -1.1124 -0.3567 -0.5032
  681TMC3     C10128   0.430   3.062  13.601  0.0782 -0.1645 -0.0189
  681TMC3     O10129   0.308   3.075  13.624  0.3331  0.3577 -0.3346
  681TMC3     H10130   0.325   2.876  13.741 -1.3768 -2.1147  0.3145
  681TMC3    H110131   0.635   2.979  13.462  0.7006 -1.3762 -1.4622
  681TMC3    H210132   0.611   2.585  13.613 -0.6283 -0.1051 -0.2738
  681TMC3    C710133   0.715   2.722  13.409  0.3780  0.2706 -0.0380
  681TMC3    C810134   0.482   2.681  13.821  1.0699  0.3918  0.4334
  681TMC3    O110135   0.730   2.600  13.416 -0.6581 -0.2926 -0.2589
  681TMC3    O210136   0.385   2.680  13.893  0.2026  0.3796 -0.1984
  682MPD2     C10137   2.760   0.349  10.716  0.4342 -0.7882 -0.7018
  682MPD2    C110138   2.712   0.226  10.695  0.1148 -0.1686  0.0413
  682MPD2    C210139   2.682   0.151  10.805 -0.7726 -0.2380 -0.0364
  682MPD2    C310140   2.694   0.186  10.933 -0.1717 -0.8605  0.4016
  682MPD2    C410141   2.739   0.316  10.952 -0.2064 -0.6081  0.6548
  682MPD2    C510142   2.772   0.398  10.848  0.3572  0.4572  0.0046
  682MPD2     H10143   2.641   0.053  10.786 -0.4336 -0.3089 -0.4012
  682MPD2    H110144   2.754   0.341  11.056 -1.7642  0.3486  0.6444
  682MPD2    H210145   2.772   0.423  10.637 -0.8362  1.1061  0.8697
  682MPD2    H310146   2.807   0.498  10.873  0.4829  0.5859 -0.6993
  682MPD2     N10147   2.672   0.102  11.038  0.0641  0.3800  0.3901
  682MPD2    H510148   2.677   0.136  11.134  3.8824  0.2621  0.2648
  682MPD2    N110149   2.685   0.171  10.572 -0.2560 -0.0260  0.6751
  682MPD2    H710150   2.613   0.099  10.571  1.1699 -1.4615  2.3367
  683TMC3    C110151   2.688   4.643  11.395  0.0969 -0.2936  0.3368
  683TMC3    C210152   2.664   4.511  11.407  0.0811  0.3819 -0.6436
  683TMC3    C310153   2.644   4.445  11.290 -0.3097  0.3698 -0.0799
  683TMC3    C410154   2.695   4.715  11.280  0.9727 -0.5697 -0.1125
  683TMC3    C510155   2.665   4.644  11.164 -0.5515 -0.5834 -0.4251
  683TMC3    C610156   2.643   4.512  11.169  0.6728  0.3131  0.5965
  683TMC3     C10157   2.681   4.724  11.514  0.5146  0.3526 -0.4192
  683TMC3     O10158   2.645   0.100  11.500 -0.4758 -0.3134  0.6027
  683TMC3     H10159   2.651   4.460  11.502 -0.9870  0.2987 -0.8323
  683TMC3    H110160   2.721   0.083  11.282  0.3136 -0.4188  0.7674
  683TMC3    H210161   2.625   4.456  11.078 -3.2177  2.1818  0.1906
  683TMC3    C710162   2.643   4.706  11.033 -0.4250  0.6715 -0.5340
  683TMC3    C810163   2.667   4.302  11.278 -0.3451 -0.3965  0.2911
  683TMC3    O110164   2.643   4.629  10.934  0.1271 -0.4415  0.0115
  683TMC3    O210165   2.614   4.252  11.179  0.1291 -0.0370  0.5622
  684MPD2     C10166   1.347   3.883  16.290 -0.2633  0.0203  0.3174
  684MPD2    C110167   1.330   3.876  16.156  0.7222  0.3958 -0.3004
  684MPD2    C210168   1.303   3.996  16.092 -0.1733 -0.6423 -0.4613
  684MPD2    C310169   1.333   4.116  16.155 -0.1478  0.1248 -0.7815
  684MPD2    C410170   1.367   4.121  16.289  0.1422 -0.2336 -0.3312
  684MPD2    C510171   1.354   4.003  16.357 -0.3329  0.1605  0.0618
  684MPD2     H10172   1.271   3.993  15.989 -1.4841 -1.6144 -0.0181
  684MPD2    H110173   1.381   4.216  16.341 -1.7590  0.2640 -0.7113
  684MPD2    H210174   1.353   3.795  16.353  0.2680  0.4181  0.8279
  684MPD2    H310175   1.369   4.002  16.464 -2.2405  1.0954  0.3567
  684MPD2     N10176   1.333   4.237  16.080  0.6071  0.1562  0.2142
  684MPD2    H510177   1.361   4.323  16.125  0.2335 -0.3589  1.4176
  684MPD2    N110178   1.312   3.761  16.081 -0.1501 -0.0496 -0.0197
  684MPD2    H710179   1.285   3.780  15.985 -0.5758 -0.1423  0.0793
  685TMC3    C110180   1.341   3.538  16.012 -0.5691 -0.4013  0.1818
  685TMC3    C210181   1.258   3.563  15.903 -0.4774  0.1599 -0.3247
  685TMC3    C310182   1.303   3.533  15.769  0.9223  0.2820 -0.4067
  685TMC3    C410183   1.469   3.495  15.998  0.6063  0.4341 -0.7353
  685TMC3    C510184   1.510   3.455  15.869  0.7522  0.0409 -0.8825
  685TMC3    C610185   1.423   3.477  15.759  0.2814 -0.6683  0.3541
  685TMC3     C10186   1.319   3.630  16.121 -0.2087  0.0807 -0.9056
  685TMC3     O10187   1.365   3.592  16.226  0.6054 -0.3288 -0.5454
  685TMC3     H10188   1.154   3.589  15.922  0.0517  0.8635  1.6252
  685TMC3    H110189   1.519   3.477  16.093  0.5020  1.5362 -0.4697
  685TMC3    H210190   1.458   3.443  15.663  2.1016 -2.3273  1.6093
  685TMC3    C710191   1.650   3.474  15.840  0.0318  0.6977  0.0615
  685TMC3    C810192   1.206   3.516  15.662  0.4353  0.1205 -0.2063
  685TMC3    O110193   1.689   3.456  15.726 -0.4288 -0.0636  0.6183
  685TMC3    O210194   1.244   3.491  15.547 -0.6011  0.0695 -0.1998
  686MPD2     C10195   2.732   3.812  15.306 -0.4894  0.1716  0.0677
  686MPD2    C110196   2.736   3.703  15.391 -0.1880  0.6436  0.4264
  686MPD2    C210197   2.769   3.574  15.341 -0.0118  0.1254 -0.5666
  686MPD2    C310198   2.775   3.549  15.204 -0.1079 -0.0350 -0.1219
  686MPD2    C410199   2.763   3.656  15.123 -0.8256 -0.2697 -0.3187
  686MPD2    C510200   2.741   3.781  15.174 -0.0957  0.1701  0.2628
  686MPD2     H10201   2.782   3.491  15.409  0.4830 -0.7834 -1.7835
  686MPD2    H110202   2.762   3.652  15.015  2.0847  1.1340 -0.3876
  686MPD2    H210203   2.723   3.916  15.335  0.9480  0.6114 -1.0818
  686MPD2    H310204   2.735   3.857  15.097 -0.6121  0.8302  0.9546
  686MPD2     N10205   2.790   3.422  15.142  0.2102  0.4310 -0.4067
  686MPD2    H510206   2.799   3.431  15.041 -4.9031  2.0545 -0.7146
  686MPD2    N110207   2.715   3.727  15.524  0.3563 -0.0478 -0.3902
  686MPD2    H710208   2.679   3.821  15.541  0.0687  0.0486 -1.5092
  687TMC3    C110209   2.712   3.277  15.321  0.0810 -0.2844  0.0078
  687TMC3    C210210   2.586   3.335  15.327 -0.2682  0.0803 -0.0054
  687TMC3    C310211   2.537   3.337  15.446 -0.8458 -0.0737  0.0165
  687TMC3    C410212   2.765   3.189  15.415 -0.5126 -0.1979 -1.3836
  687TMC3    C510213   2.701   3.188  15.537 -0.3943 -0.2468 -0.1612
  687TMC3    C610214   2.582   3.258  15.547 -0.6497  0.1789  0.5117
  687TMC3     C10215   2.787   3.290  15.197 -0.2782 -0.2682  0.5540
  687TMC3     O10216   2.822   3.185  15.147  0.0682 -0.2550  0.0122
  687TMC3     H10217   2.554   3.410  15.255 -0.7604  1.3728  1.5504
  687TMC3    H110218   2.858   3.141  15.385 -0.3713  0.6374 -2.2780
  687TMC3    H210219   2.518   3.231  15.630 -0.4325  0.2578  0.7040
  687TMC3    C710220   2.775   3.162  15.660 -0.7123  0.7592  0.5140
  687TMC3    C810221   2.409   3.400  15.473 -1.0881  0.2986  0.0006
  687TMC3    O110222   2.872   3.089  15.656  0.0430  0.0002 -0.0102
  687TMC3    O210223   2.326   3.332  15.534  0.2297  0.7866 -0.5268
  688MPD2     C10224   1.897   2.890  17.340  1.0342  0.2643 -0.4287
  688MPD2    C110225   1.933   2.769  17.392  0.5783  0.3967  0.2246
  688MPD2    C210226   1.998   2.674  17.309  0.4056  0.1505  0.8332
  688MPD2    C310227   2.044   2.709  17.184 -0.3945  0.1639  0.4453
  688MPD2    C410228   2.021   2.839  17.141 -0.1235 -0.7421  0.1724
  688MPD2    C510229   1.944   2.927  17.213 -0.4263  0.4286  0.5625
  688MPD2     H10230   2.012   2.576  17.352  0.5133  0.4117  1.3962
  688MPD2    H110231   2.045   2.864  17.038 -1.5275 -1.1613 -0.2549
  688MPD2    H210232   1.846   2.966  17.398  0.6496 -0.5408  0.2895
  688MPD2    H310233   1.918   3.020  17.164  1.3223  0.7694  0.2787
  688MPD2     N10234   2.112   2.613  17.103 -0.6349 -0.6370 -0.1541
  688MPD2    H510235   2.166   2.648  17.024  0.1465 -4.2408 -1.2292
  688MPD2    N110236   1.901   2.720  17.523  0.2319 -0.0431 -0.0746
  688MPD2    H710237   1.937   2.626  17.538  3.7802  1.1464 -0.9846
  689TMC3    C110238   1.833   2.735   0.006  0.8764  0.3414  0.4684
  689TMC3    C210239   1.829   2.822   0.109 -0.1810  0.4419 -0.3854
  689TMC3    C310240   1.864   2.772   0.229 -0.6063 -0.2194 -0.3210
  689TMC3    C410241   1.857   2.599   0.019 -0.4726 -0.1606 -0.2558
  689TMC3    C510242   1.894   2.548   0.138 -0.0813 -0.9464 -0.3828
  689TMC3    C610243   1.899   2.636   0.240 -0.5423  0.0979  0.3352
  689TMC3     C10244   1.855   2.801  17.626  0.3525  0.3610 -0.0023
  689TMC3     O10245   1.845   2.924  17.618 -0.4072  0.5712  0.2341
  689TMC3     H10246   1.817   2.928   0.092  0.4548  0.9079  2.0455
  689TMC3    H110247   1.845   2.538  17.679  0.1174 -1.1269  0.3234
  689TMC3    H210248   1.938   2.609   0.338  1.4286 -0.9111 -0.7388
  689TMC3    C710249   1.876   2.409   0.172  0.0377 -0.0516 -0.4033
  689TMC3    C810250   1.811   2.828   0.354  0.5378  0.9063 -0.1449
  689TMC3    O110251   1.884   2.379   0.290 -0.2457 -0.0846 -0.3727
  689TMC3    O210252   1.777   2.737   0.431 -0.0561  0.3156  0.3615
  690MPD2     C10253   4.306   4.439  15.240 -0.2501 -0.3114  0.2543
  690MPD2    C110254   4.281   4.365  15.127  0.0052  0.0906 -0.1876
  690MPD2    C210255   4.382   4.347  15.029 -0.3304 -0.1786  0.3324
  690MPD2    C310256   4.503   4.423  15.038  0.0450  0.1465  0.4289
  690MPD2    C410257   4.518   4.501  15.150  0.6269  0.3133  0.0272
  690MPD2    C510258   4.421   4.513  15.251  0.2680  0.6565 -0.2752
  690MPD2     H10259   4.376   4.274  14.950 -0.9024  1.9905 -1.6194
  690MPD2    H110260   4.609   4.559  15.148  0.3988  0.7159  1.0799
  690MPD2    H210261   4.230   4.441  15.317 -1.5379  0.2486 -1.0294
  690MPD2    H310262   4.448   4.564  15.343  0.8886 -0.5770  0.2311
  690MPD2     N10263   4.605   4.414  14.929  0.3311 -0.4518  0.8415
  690MPD2    H510264   4.575   4.355  14.851  0.3343  3.6630 -2.2768
  690MPD2    N110265   4.163   4.288  15.098 -0.5858 -0.0406 -0.5153
  690MPD2    H710266   4.170   4.220  15.023  0.7229 -0.0774 -0.3598
  691TMC3    C110267   3.955   4.205  15.138 -0.4891  0.0625 -0.1826
  691TMC3    C210268   3.829   4.241  15.168 -0.8373 -0.0002 -0.1302
  691TMC3    C310269   3.735   4.148  15.145 -0.0453 -0.1158 -0.2716
  691TMC3    C410270   3.994   4.076  15.096  0.4707  0.0275 -0.0981
  691TMC3    C510271   3.894   3.981  15.078  0.1949  0.3171  0.0051
  691TMC3    C610272   3.764   4.022  15.094 -0.5219  0.3695  0.4029
  691TMC3     C10273   4.055   4.300  15.177 -0.2252 -0.0725 -0.4405
  691TMC3     O10274   4.032   4.387  15.258 -0.8384 -0.9251  0.4597
  691TMC3     H10275   3.813   4.339  15.212 -1.4559  0.2210 -0.8571
  691TMC3    H110276   4.087   4.049  15.048  0.1017  1.1633 -1.4205
  691TMC3    H210277   3.685   3.954  15.064 -1.8705  2.2911 -0.4164
  691TMC3    C710278   3.915   3.851  15.139 -0.3972 -0.2118  0.0419
  691TMC3    C810279   3.624   4.141  15.245  0.3717 -0.1773  0.6208
  691TMC3    O110280   4.023   3.794  15.134  0.0294  0.3863 -0.8524
  691TMC3    O210281   3.586   4.027  15.263  0.4583  0.3545  0.2167
  692TMC3    C110282   0.797   0.785  15.779  0.7472 -0.4133  0.0353
  692TMC3    C210283   0.930   0.809  15.785 -0.2160  0.6360  0.0161
  692TMC3    C310284   1.011   0.713  15.731  0.6174  0.7043 -0.1989
  692TMC3    C410285   0.743   0.658  15.756 -0.8006  0.5884  0.5274
  692TMC3    C510286   0.830   0.556  15.736  0.8084  0.0032  0.2613
  692TMC3    C610287   0.963   0.582  15.724 -0.3201  0.3116 -0.8995
  692TMC3     C10288   0.709   0.855  15.876 -0.2800  0.5256 -0.0746
  692TMC3     O10289   0.592   0.829  15.871  0.3255  0.6545 -0.2758
  692TMC3     H10290   0.952   0.915  15.777  0.5201  0.6630  2.1848
  692TMC3    H110291   0.635   0.645  15.749 -0.7452 -0.0974  1.0534
  692TMC3    H210292   1.025   0.505  15.680 -0.1199  0.3716 -0.7222
  692TMC3    C710293   0.778   0.420  15.719 -0.1002 -0.8194 -0.3122
  692TMC3    C810294   1.137   0.708  15.806 -0.7939  0.5132  0.1191
  692TMC3    O110295   0.671   0.403  15.656 -0.5282  0.1133  0.2309
  692TMC3    O210296   1.188   0.597  15.784 -0.6688 -0.2035 -0.2789
  693MPD2     C10297   0.442   3.612  10.255  0.3149  0.4861 -0.1466
  693MPD2    C110298   0.350   3.576  10.349  0.6655  0.2034  0.0828
  693MPD2    C210299   0.388   3.475  10.440  0.3759 -0.0803 -0.2700
  693MPD2    C310300   0.520   3.432  10.444  0.0443 -0.6709 -0.0215
  693MPD2    C410301   0.609   3.481  10.359  0.5176  0.0562  0.2712
  693MPD2    C510302   0.573   3.566  10.259 -0.0078 -0.0125 -0.2564
  693MPD2     H10303   0.320   3.438  10.516  0.2668 -0.2351 -0.4407
  693MPD2    H110304   0.715   3.460  10.368  0.4896  0.0094  0.4905
  693MPD2    H210305   0.404   3.672  10.173 -1.0738 -0.0349  0.1124
  693MPD2    H310306   0.652   3.614  10.203 -0.5857 -0.5308 -1.5179
  693MPD2     N10307   0.563   3.340  10.537  0.6911 -0.3381 -0.7686
  693MPD2    H510308   0.663   3.323  10.540  0.4842 -1.5016 -0.2836
  693MPD2    N110309   0.215   3.627  10.346 -0.1696 -0.1965  0.3915
  693MPD2    H710310   0.183   3.689  10.272  3.7167  1.0578 -0.2184
  694TMC3    C110311   4.734   3.664  10.433 -0.4350  0.8586  0.6497
  694TMC3    C210312   4.658   3.621  10.324 -0.7124 -0.2877  0.4059
  694TMC3    C310313   4.522   3.633  10.324  0.5509  0.5846  0.5912
  694TMC3    C410314   4.676   3.703  10.546 -0.2571  0.7264  0.2932
  694TMC3    C510315   4.538   3.717  10.545  0.2376  0.0689  0.4383
  694TMC3    C610316   4.465   3.694  10.434 -0.3553  0.5613  0.7778
  694TMC3     C10317   0.125   3.613  10.448  0.1853  0.2313 -0.1568
  694TMC3     O10318   0.155   3.585  10.565 -0.6240  0.7045  0.0406
  694TMC3     H10319   4.717   3.596  10.237  0.2833  1.6839  0.5292
  694TMC3    H110320   0.004   3.713  10.632 -0.8591  0.4970  0.7847
  694TMC3    H210321   4.357   3.695  10.446 -0.6281 -0.9584 -1.5227
  694TMC3    C710322   4.464   3.741  10.667  0.1375  0.2793  0.5913
  694TMC3    C810323   4.447   3.521  10.279  0.2152  0.3443 -0.2627
  694TMC3    O110324   4.365   3.810  10.675  0.0249  0.4187 -0.0493
  694TMC3    O210325   4.331   3.513  10.319  0.2206  0.2003 -0.1819
  695MPD2     C10326   1.491   0.472  13.399 -0.3820  0.0235  0.4048
  695MPD2    C110327   1.445   0.428  13.523  0.2939 -0.9336 -0.4140
  695MPD2    C210328   1.331   0.477  13.569  0.5058  0.3776  0.3254
  695MPD2    C310329   1.263   0.571  13.498 -0.0408  0.4995 -0.3352
  695MPD2    C410330   1.308   0.611  13.374 -0.1842  0.6089 -0.3944
  695MPD2    C510331   1.418   0.557  13.326 -0.1065 -0.3361 -0.2472
  695MPD2     H10332   1.301   0.463  13.672  0.1823 -0.8590  0.0556
  695MPD2    H110333   1.256   0.685  13.313  0.3752  1.8131  0.5835
  695MPD2    H210334   1.588   0.442  13.360  0.2388  1.0441  1.1760
  695MPD2    H310335   1.458   0.591  13.231 -0.6469  2.7895  0.6149
  695MPD2     N10336   1.152   0.632  13.562 -0.2096 -0.0439 -0.7983
  695MPD2    H510337   1.137   0.595  13.655  1.6853 -2.3644 -1.4068
  695MPD2    N110338   1.516   0.346  13.613  0.4622  0.5055 -0.4796
  695MPD2    H710339   1.478   0.330  13.706 -0.2195 -1.7246 -1.1336
  696TMC3    C110340   0.961   0.753  13.589  0.4595  0.0195 -0.6177
  696TMC3    C210341   0.919   0.670  13.687 -0.6062 -0.2259  0.0218
  696TMC3    C310342   0.798   0.690  13.740  0.1023  0.4709 -0.3948
  696TMC3    C410343   0.880   0.864  13.547 -0.3576 -0.4502 -0.4662
  696TMC3    C510344   0.757   0.871  13.603 -0.4197  0.1934 -0.2880
  696TMC3    C610345   0.713   0.785  13.699  0.2428  0.1129  0.0437
  696TMC3     C10346   1.081   0.739  13.515 -0.1793  0.1066  0.3521
  696TMC3     O10347   1.101   0.810  13.416 -0.2135 -0.0828 -0.1017
  696TMC3     H10348   0.968   0.575  13.703  0.4218  0.2729 -0.2101
  696TMC3    H110349   0.913   0.954  13.497 -1.1763  0.2253  0.2135
  696TMC3    H210350   0.610   0.785  13.735 -0.5421  1.4448 -2.1914
  696TMC3    C710351   0.663   0.962  13.548  0.3833  0.4093  0.0343
  696TMC3    C810352   0.748   0.608  13.853  0.1579  0.2063 -0.7103
  696TMC3    O110353   0.662   0.988  13.428  0.2237  0.5725 -0.0963
  696TMC3    O210354   0.631   0.624  13.889 -0.1773  0.3834 -0.3262
  697MPD2     C10355   0.548   2.478  15.753 -0.3726 -0.4360  0.1034
  697MPD2    C110356   0.560   2.440  15.614 -0.4511  0.3533  1.0365
  697MPD2    C210357   0.614   2.534  15.533  0.1308 -0.1909 -0.5856
  697MPD2    C310358   0.650   2.667  15.576  0.1679 -0.5198  0.2326
  697MPD2    C410359   0.642   2.696  15.706  0.1178 -0.2932  0.3926
  697MPD2    C510360   0.596   2.600  15.793 -0.8055  0.9673 -0.4154
  697MPD2     H10361   0.645   2.502  15.434  2.5551 -0.4435  0.2510
  697MPD2    H110362   0.673   2.793  15.741 -0.1192 -0.1737  0.2747
  697MPD2    H210363   0.512   2.406  15.826 -1.3366 -1.4945 -1.4218
  697MPD2    H310364   0.597   2.626  15.898  0.7504  2.3053 -0.7649
  697MPD2     N10365   0.709   2.757  15.475  0.1605  0.0528  0.6429
  697MPD2    H510366   0.722   2.713  15.385 -2.3853  0.5696  0.0344
  697MPD2    N110367   0.538   2.307  15.580  0.0110  0.2382 -0.2200
  697MPD2    H710368   0.512   2.244  15.654  0.1613 -0.7080 -0.9783
  698TMC3    C110369   0.763   2.953  15.362  0.7026 -0.0420 -0.1194
  698TMC3    C210370   0.834   3.074  15.363  0.2443 -0.1923  0.0653
  698TMC3    C310371   0.874   3.120  15.239 -0.2464 -0.9519 -0.3814
  698TMC3    C410372   0.703   2.902  15.248 -0.1852  0.3117 -0.0164
  698TMC3    C510373   0.738   2.960  15.128  1.0216  0.0634  0.4771
  698TMC3    C610374   0.823   3.069  15.118 -0.6278 -0.8598 -0.2136
  698TMC3     C10375   0.730   2.892  15.488 -0.2549 -0.0405  0.5348
  698TMC3     O10376   0.700   2.972  15.578 -0.3465 -0.3009  0.0108
  698TMC3     H10377   0.883   3.116  15.449  1.7946  0.7654 -1.2928
  698TMC3    H110378   0.634   2.819  15.249  0.4534 -0.2057  0.7334
  698TMC3    H210379   0.825   3.127  15.027  1.1153  0.6428  0.7744
  698TMC3    C710380   0.707   2.886  15.004  0.1640  0.0154  0.0428
  698TMC3    C810381   0.966   3.229  15.229  0.5806  0.9150  0.5669
  698TMC3    O110382   0.596   2.836  14.999  0.1639 -0.3298 -0.3096
  698TMC3    O210383   0.970   3.305  15.328 -0.6879  0.6272  0.2597
  699TMC3    C110384   0.422   0.961  13.118 -0.1168 -0.7503 -0.2147
  699TMC3    C210385   0.466   0.848  13.183 -0.2883 -0.8124 -0.2914
  699TMC3    C310386   0.405   0.823  13.302  0.4812 -0.0439 -0.2053
  699TMC3    C410387   0.325   1.043  13.166 -0.7923 -0.1671  0.3490
  699TMC3    C510388   0.261   1.007  13.282  0.1620 -0.4881  0.3790
  699TMC3    C610389   0.299   0.898  13.355 -0.0003  0.2981 -0.9307
  699TMC3     C10390   0.501   1.007  13.005  0.0674 -0.0771 -1.0001
  699TMC3     O10391   0.478   1.122  12.967 -0.2083  0.2715  0.1196
  699TMC3     H10392   0.540   0.777  13.147 -1.1951 -2.6302  1.4572
  699TMC3    H110393   0.289   1.133  13.120  0.3457  0.8838  1.4999
  699TMC3    H210394   0.253   0.879  13.451  1.8191 -0.1985 -0.1485
  699TMC3    C710395   0.152   1.085  13.345 -0.3093 -0.2269  0.0720
  699TMC3    C810396   0.446   0.720  13.389  0.2839  0.1726  0.0056
  699TMC3    O110397   0.121   1.050  13.459  0.8326 -0.4438  0.1688
  699TMC3    O210398   0.370   0.689  13.478  0.3519  0.0215 -0.6342
  700TMC3    C110399   4.648   2.797  17.173  0.0188  0.6452 -0.0093
  700TMC3    C210400   0.026   2.723  17.161  0.0672 -0.2052  0.6781
  700TMC3    C310401   0.134   2.752  17.230  0.9034 -0.1143 -0.4022
  700TMC3    C410402   4.644   2.905  17.255  0.2243  1.0575 -0.4999
  700TMC3    C510403   0.021   2.938  17.324  0.0149  0.0564  0.3306
  700TMC3    C610404   0.135   2.861  17.315  0.7367 -0.0213 -0.0407
  700TMC3     C10405   4.561   2.801  17.053  0.1145 -0.8386 -0.0443
  700TMC3     O10406   4.528   2.693  17.001  0.6913 -0.1748  0.1978
  700TMC3     H10407   0.019   2.629  17.107 -0.8904  1.2783 -1.7269
  700TMC3    H110408   4.546   2.944  17.279 -0.4348 -1.0060  0.1872
  700TMC3    H210409   0.226   2.886  17.369  0.2617  0.6723  0.4308
  700TMC3    C710410   0.020   3.062  17.403 -0.8366 -0.8716  0.0283
  700TMC3    C810411   0.259   2.700  17.173 -0.3540 -0.5895  0.0439
  700TMC3    O110412   0.132   3.100  17.440  0.5336 -0.0550  0.0457
  700TMC3    O210413   0.249   2.643  17.063 -0.5742 -0.0552 -0.0989
  701TMC3    C110414   4.344   1.821  15.419  0.1014 -0.4106 -0.3490
  701TMC3    C210415   4.383   1.764  15.304 -0.5216  0.3352  0.2731
  701TMC3    C310416   4.479   1.818  15.227  0.0107 -0.0740  0.4643
  701TMC3    C410417   4.414   1.925  15.470 -0.7344 -0.8436  0.2007
  701TMC3    C510418   4.525   1.969  15.408  0.4204 -0.3841 -0.6015
  701TMC3    C610419   4.554   1.920  15.281  0.0321 -0.1809  0.0864
  701TMC3     C10420   4.264   1.750  15.515  0.0895 -0.3079 -0.9916
  701TMC3     O10421   4.259   1.799  15.627  0.1805 -0.0470  0.4555
  701TMC3     H10422   4.338   1.671  15.272  2.8615 -1.6142  1.1477
  701TMC3    H110423   4.385   1.962  15.568 -1.5929 -1.0635  0.0333
  701TMC3    H210424   4.636   1.968  15.229 -0.3037  1.1896  0.8250
  701TMC3    C710425   4.595   2.090  15.446  0.2745  0.4521  0.8245
  701TMC3    C810426   4.554   1.740  15.126  0.2298 -0.4422  0.3084
  701TMC3    O110427   4.653   2.155  15.364  0.5719 -0.3500 -0.0386
  701TMC3    O210428   4.664   1.788  15.097 -0.4471  0.2479  0.2370
  702MPD2     C10429   3.972   4.254  10.334 -0.2310  0.4244  0.1557
  702MPD2    C110430   3.875   4.293  10.423 -0.2442 -0.2863  0.0330
  702MPD2    C210431   3.805   4.406  10.392 -0.6583 -0.2340  0.4751
  702MPD2    C310432   3.828   4.487  10.281 -0.5431  0.1216  0.3387
  702MPD2    C410433   3.918   4.437  10.189  0.0704  0.8100 -0.4071
  702MPD2    C510434   3.988   4.322  10.216  0.0238  0.0196 -0.5053
  702MPD2     H10435   3.724   4.433  10.459  0.4483 -0.6733  2.0174
  702MPD2    H110436   3.940   4.476  10.090  1.5047 -0.1805 -0.4807
  702MPD2    H210437   4.045   4.176  10.352 -0.3138  0.5845  1.1955
  702MPD2    H310438   4.051   4.286  10.136 -0.3954  1.4068 -1.4503
  702MPD2     N10439   3.747   4.594  10.261 -0.6282  0.0273  0.5996
  702MPD2    H510440   3.669   4.599  10.325 -0.0386 -1.5087  1.4486
  702MPD2    N110441   3.849   4.224  10.545 -0.2790  0.3605 -0.2042
  702MPD2    H710442   3.784   4.265  10.611 -1.6676 -3.6616  0.9361
  703TMC3    C110443   3.679   0.055  10.161 -0.0046 -0.7898  0.5969
  703TMC3    C210444   3.549   0.023  10.189  0.1298 -0.2075  0.1243
  703TMC3    C310445   3.461   0.122  10.208 -0.0200 -0.5566 -0.1839
  703TMC3    C410446   3.733   0.181  10.157  0.3203 -0.1330 -0.4405
  703TMC3    C510447   3.646   0.284  10.192 -0.4209 -0.6005  0.6279
  703TMC3    C610448   3.509   0.251  10.220 -0.2591 -0.5639  0.3083
  703TMC3     C10449   3.774   4.689  10.163 -0.1055  0.3683  0.0932
  703TMC3     O10450   3.852   4.700  10.073 -0.5912  0.0778 -0.2848
  703TMC3     H10451   3.513   4.658  10.185 -1.5716  0.3126  2.6188
  703TMC3    H110452   3.836   0.205  10.131  0.4321  0.0693  0.2039
  703TMC3    H210453   3.436   0.323  10.255 -0.5672 -1.1696  0.9076
  703TMC3    C710454   3.709   0.397  10.267  0.2419  0.5101  0.0516
  703TMC3    C810455   3.350   0.088  10.294  0.4702  0.0654 -0.0965
  703TMC3    O110456   3.833   0.397  10.260  0.8554  0.5008 -0.4465
  703TMC3    O210457   3.320   0.184  10.367  0.3790 -0.2880 -0.2943
  704TMC3    C110458   1.512   2.503  12.096 -0.2746 -0.8527 -0.6402
  704TMC3    C210459   1.564   2.400  12.019 -0.4067  0.2526  0.0537
  704TMC3    C310460   1.575   2.281  12.085  0.0804  0.1953  0.1619
  704TMC3    C410461   1.464   2.478  12.222  0.1587  0.3551 -0.9225
  704TMC3    C510462   1.476   2.355  12.277 -0.1923  0.1545 -0.2380
  704TMC3    C610463   1.528   2.251  12.210  0.2228  0.2763 -0.0587
  704TMC3     C10464   1.462   2.617  12.028 -0.4883  0.0248 -0.2515
  704TMC3     O10465   1.367   2.678  12.078  0.4091  0.3856  0.5312
  704TMC3     H10466   1.590   2.413  11.915  2.0722 -0.4095  0.5679
  704TMC3    H110467   1.421   2.560  12.278  0.5804  0.2248 -0.4080
  704TMC3    H210468   1.529   2.151  12.251 -2.9786  1.2140  2.2718
  704TMC3    C710469   1.436   2.357  12.420  0.0938 -0.2391  0.4051
  704TMC3    C810470   1.686   2.194  12.048 -0.9491 -0.3588  0.1403
  704TMC3    O110471   1.355   2.435  12.469  0.6016  0.5278 -0.2964
  704TMC3    O210472   1.687   2.084  12.109 -0.4899 -0.1681 -0.2372
  705MPD2     C10473   1.274   0.017  16.421 -0.8634  0.5588 -0.2892
  705MPD2    C110474   1.277   0.155  16.410  0.2101 -1.0198  0.7714
  705MPD2    C210475   1.193   0.231  16.483 -0.0409 -0.8653  0.6634
  705MPD2    C310476   1.100   0.174  16.567  0.0656 -0.2237 -0.3840
  705MPD2    C410477   1.080   0.034  16.565 -0.0374  0.0231  0.6293
  705MPD2    C510478   1.174   4.697  16.493  0.0609 -0.1364  0.5615
  705MPD2     H10479   1.198   0.338  16.467  3.7429 -1.1491  0.0332
  705MPD2    H110480   1.008   4.721  16.629  0.1398 -0.0373  0.7819
  705MPD2    H210481   1.338   4.680  16.376 -0.7110 -0.1174  1.0468
  705MPD2    H310482   1.167   4.588  16.491 -0.0334 -0.0998 -1.0192
  705MPD2     N10483   1.007   0.251  16.630 -0.1052 -0.0521  0.0493
  705MPD2    H510484   0.950   0.197  16.694 -2.4002  0.7595 -1.2891
  705MPD2    N110485   1.376   0.215  16.333  0.8110  0.4321  0.2784
  705MPD2    H710486   1.381   0.316  16.336 -0.1297  0.5360 -1.2877
  706TMC3    C110487   1.720   0.293  16.031 -0.2330  0.1326  0.6699
  706TMC3    C210488   1.770   0.407  16.095  1.1846 -0.8207 -0.2116
  706TMC3    C310489   1.701   0.445  16.215  0.0757 -0.4200  0.2291
  706TMC3    C410490   1.615   0.218  16.077 -0.8006 -0.8210  0.5730
  706TMC3    C510491   1.565   0.250  16.201 -0.2587  0.1800  0.5159
  706TMC3    C610492   1.610   0.356  16.275  0.1691 -0.6105  0.7188
  706TMC3     C10493   1.750   0.276  15.888 -0.4005 -0.0600  0.0951
  706TMC3     O10494   1.662   0.214  15.827  0.6678 -0.7272  0.6099
  706TMC3     H10495   1.856   0.457  16.053  0.3831  0.6132 -0.1440
  706TMC3    H110496   1.576   0.136  16.018  1.0900  0.1312 -1.9759
  706TMC3    H210497   1.562   0.392  16.365  1.6900 -1.4194  1.8565
  706TMC3    C710498   1.481   0.153  16.269  0.7783  0.2649  0.7350
  706TMC3    C810499   1.673   0.583  16.226 -0.3677  0.5559  0.1241
  706TMC3    O110500   1.495   0.034  16.241  0.5151 -0.3546 -0.7678
  706TMC3    O210501   1.692   0.651  16.128  0.0927 -0.5794  0.3219
  707TMC3    C110502   3.228   4.481   1.604 -0.1425  0.2156 -0.2957
  707TMC3    C210503   3.161   4.376   1.547  0.7122 -0.1835 -0.0379
  707TMC3    C310504   3.035   4.409   1.517  0.2183 -0.0880  0.4783
  707TMC3    C410505   3.176   4.594   1.651  0.4155 -0.2541  0.2775
  707TMC3    C510506   3.046   4.620   1.626  0.3173  0.2671  0.5536
  707TMC3    C610507   2.978   4.528   1.546 -0.1364 -0.6898 -0.2856
  707TMC3     C10508   3.368   4.464   1.638  0.0331  0.3365 -0.3304
  707TMC3     O10509   3.436   4.564   1.639  0.6074 -0.2290 -0.0846
  707TMC3     H10510   3.211   4.293   1.499 -0.3471 -0.5415 -0.5348
  707TMC3    H110511   3.237   4.666   1.703 -0.5757  1.3607 -0.7963
  707TMC3    H210512   2.874   4.546   1.520 -0.0030 -0.1578 -0.4584
  707TMC3    C710513   2.984   0.001   1.672 -0.2565 -0.0106  0.3555
  707TMC3    C810514   2.959   4.318   1.431 -0.1171 -0.6637  0.1959
  707TMC3    O110515   3.053   0.079   1.739 -0.2101 -0.0695  0.7481
  707TMC3    O210516   2.867   4.372   1.369  0.1529  0.5477  0.0304
  708MPD2     C10517   3.896   2.929  14.458  0.9500  0.1262  0.1552
  708MPD2    C110518   4.010   2.998  14.420 -0.2580 -0.2628  0.2082
  708MPD2    C210519   4.084   3.074  14.510  0.4314 -0.4466  0.5866
  708MPD2    C310520   4.048   3.065  14.650 -0.1130 -0.3783  0.4627
  708MPD2    C410521   3.950   2.977  14.685  0.1650 -0.5659  0.0320
  708MPD2    C510522   3.871   2.912  14.595 -0.9330  0.1065  0.8068
  708MPD2     H10523   4.157   3.138  14.461 -1.0271  1.3075  0.7218
  708MPD2    H110524   3.926   2.955  14.789 -0.5560 -2.1100 -0.4472
  708MPD2    H210525   3.830   2.878  14.388  1.1118  0.9098 -0.5704
  708MPD2    H310526   3.788   2.852  14.631  0.9607 -2.1063  1.4695
  708MPD2     N10527   4.093   3.151  14.757  0.4245 -0.5800 -0.6299
  708MPD2    H510528   4.054   3.143  14.851  0.6403 -2.5256 -0.6999
  708MPD2    N110529   4.037   2.994  14.283  0.1317  0.0225  0.1780
  708MPD2    H710530   3.966   2.952  14.224  0.4643 -1.4098  0.8026
  709TMC3    C110531   4.141   3.054  14.078  0.1632  0.1766  0.5682
  709TMC3    C210532   4.256   3.087  14.009  0.1099 -0.4549  0.6893
  709TMC3    C310533   4.251   3.148  13.886  0.5593 -0.3773  0.1642
  709TMC3    C410534   4.018   3.096  14.024 -0.2825  0.1635 -0.6232
  709TMC3    C510535   4.016   3.163  13.907 -0.0836 -0.2080  0.3732
  709TMC3    C610536   4.129   3.184  13.832 -0.0595 -0.2701  0.1970
  709TMC3     C10537   4.156   3.037  14.225  0.2412  1.0935 -0.2017
  709TMC3     O10538   4.267   3.045  14.277 -0.3016  0.3643  0.4986
  709TMC3     H10539   4.352   3.074  14.057  1.3775  0.6501 -1.5096
  709TMC3    H110540   3.926   3.091  14.080 -0.0760  1.1484 -0.1893
  709TMC3    H210541   4.125   3.225  13.731  0.2572 -3.6173 -1.1909
  709TMC3    C710542   3.889   3.218  13.848 -0.3708 -1.0174  0.5425
  709TMC3    C810543   4.353   3.252  13.861 -0.4859  0.0483  0.3328
  709TMC3    O110544   3.896   3.239  13.727  0.8058  0.4766  0.0575
  709TMC3    O210545   4.424   3.281  13.959  1.2305  0.0754  0.3784
  710TMC3    C110546   0.870   0.183  17.732 -1.0071 -1.3813  0.1284
  710TMC3    C210547   0.919   0.140  17.610 -0.3232  0.7840  0.6700
  710TMC3    C310548   1.030   0.059  17.607  0.9963  0.0688  0.1374
  710TMC3    C410549   0.943   0.162   0.100 -0.4712 -0.7573  0.2502
  710TMC3    C510550   1.071   0.107   0.089  0.2674 -0.3957 -0.4027
  710TMC3    C610551   1.110   0.047  17.720  0.2531 -0.2128 -0.9437
  710TMC3     C10552   0.734   0.227  17.737 -0.0514  0.3781  0.1243
  710TMC3     O10553   0.692   0.292  17.647 -0.6197  0.2633 -0.6961
  710TMC3     H10554   0.866   0.178  17.523 -1.8444  0.2156  1.3638
  710TMC3    H110555   0.917   0.208   0.195 -0.3360  1.0114 -0.5853
  710TMC3    H210556   1.196   4.718  17.716  0.8019  0.4520 -0.2660
  710TMC3    C710557   1.145   0.087   0.212  0.2410  0.6699  0.1456
  710TMC3    C810558   1.094   0.014  17.485 -0.0228  0.2072  0.3515
  710TMC3    O110559   1.088   0.117   0.321  0.0790 -0.2064 -0.4201
  710TMC3    O210560   1.206   4.701  17.501 -0.1867 -0.2588 -0.0647
  711TMC3    C110561   0.580   1.447  14.980 -0.1956  0.7241 -0.2235
  711TMC3    C210562   0.585   1.479  15.116 -0.7246  0.5283  0.7694
  711TMC3    C310563   0.701   1.461  15.184 -0.1131 -0.3624 -0.5038
  711TMC3    C410564   0.688   1.400  14.914 -0.6014  0.0024  0.3846
  711TMC3    C510565   0.797   1.371  14.986  0.4048 -0.1539 -0.0381
  711TMC3    C610566   0.811   1.413  15.119 -0.0359  0.0572  0.3663
  711TMC3     C10567   0.464   1.364  14.945  0.1124 -0.0237  0.2622
  711TMC3     O10568   0.472   1.302  14.840  0.0476  0.4826  0.3943
  711TMC3     H10569   0.501   1.526  15.165 -1.3159 -0.4466  0.6810
  711TMC3    H110570   0.687   1.379  14.808 -2.2294 -0.6096  0.5067
  711TMC3    H210571   0.905   1.398  15.171  0.3299 -1.7772 -0.8453
  711TMC3    C710572   0.854   1.245  14.961  0.2622  0.2215  0.8527
  711TMC3    C810573   0.670   1.384  15.302 -0.9450  0.0941 -0.5716
  711TMC3    O110574   0.957   1.225  15.022 -0.1496  0.2857 -0.5960
  711TMC3    O210575   0.549   1.369  15.321 -0.7401  0.2923  0.0428
  712MPD2     C10576   1.559   2.239  13.920 -0.5206 -0.2211  0.6107
  712MPD2    C110577   1.453   2.268  13.836 -0.3998 -0.7943  0.1629
  712MPD2    C210578   1.461   2.352  13.721  0.2181 -0.0719  0.1336
  712MPD2    C310579   1.588   2.389  13.676  0.2260  0.7749 -0.4091
  712MPD2    C410580   1.691   2.348  13.754  0.5599  0.2330 -0.2039
  712MPD2    C510581   1.681   2.282  13.874 -0.1447 -0.3446  0.5538
  712MPD2     H10582   1.370   2.369  13.664  0.0378 -2.5108 -0.3105
  712MPD2    H110583   1.791   2.365  13.716  1.5241 -1.6335  1.5270
  712MPD2    H210584   1.546   2.189  14.015  0.5906  0.4245  1.0973
  712MPD2    H310585   1.768   2.252  13.931  0.8470  2.8266  0.7560
  712MPD2     N10586   1.610   2.469  13.564 -0.4201  0.2630  0.2285
  712MPD2    H510587   1.707   2.475  13.533 -0.3251  0.4006  0.5528
  712MPD2    N110588   1.318   2.240  13.867 -0.0164 -0.4221 -0.4022
  712MPD2    H710589   1.248   2.280  13.805 -0.2821  0.3039  0.3765
  713TMC3    C110590   1.555   2.623  13.394 -0.1203  0.3002  0.0105
  713TMC3    C210591   1.685   2.604  13.346 -0.3013  0.1514 -0.2275
  713TMC3    C310592   1.721   2.690  13.243 -0.8528 -0.6278 -0.2878
  713TMC3    C410593   1.471   2.722  13.351 -0.3713  0.4667 -0.1171
  713TMC3    C510594   1.519   2.812  13.259  0.1799  0.4931  0.0484
  713TMC3    C610595   1.630   2.781  13.189  0.2300 -0.1482  0.3996
  713TMC3     C10596   1.508   2.542  13.504 -0.0209  0.1305 -0.4293
  713TMC3     O10597   1.392   2.556  13.541 -0.1212  0.4499 -0.5026
  713TMC3     H10598   1.730   2.507  13.361  0.4624  0.6269  0.5305
  713TMC3    H110599   1.386   2.748  13.413 -0.6206 -2.2614  0.6939
  713TMC3    H210600   1.670   2.859  13.127 -1.4086  2.4141  2.5727
  713TMC3    C710601   1.520   2.961  13.288  0.8534 -0.3335 -0.4748
  713TMC3    C810602   1.857   2.692  13.184  0.1624 -0.5482 -0.3004
  713TMC3    O110603   1.617   3.030  13.261  0.4507 -0.1209  0.4641
  713TMC3    O210604   1.873   2.779  13.100 -0.1408  0.3464 -0.3492
  714MPD2     C10605   4.251   1.109   0.985  0.5315  0.2474 -0.5565
  714MPD2    C110606   4.208   0.977   0.998  0.5092 -0.2944  0.3607
  714MPD2    C210607   4.080   0.949   0.989  0.4922 -0.4450 -0.3454
  714MPD2    C310608   3.982   1.044   0.962  0.0265 -0.2526 -0.1491
  714MPD2    C410609   4.025   1.175   0.933  0.8111  0.2286  0.9614
  714MPD2    C510610   4.159   1.205   0.943 -0.0097 -0.6194 -0.0765
  714MPD2     H10611   4.052   0.849   1.020  0.3408  0.3935  2.2841
  714MPD2    H110612   3.959   1.262   0.935 -1.3649 -1.2777 -4.5221
  714MPD2    H210613   4.354   1.139   0.993  0.2671  1.3195 -1.0932
  714MPD2    H310614   4.188   1.309   0.946 -0.0398 -0.6460  1.1269
  714MPD2     N10615   3.846   1.013   0.975  0.1549  0.3165 -0.0616
  714MPD2    H510616   3.819   0.915   0.963  1.9869 -0.4785  2.3389
  714MPD2    N110617   4.310   0.885   1.024  0.1556 -0.4963  0.1169
  714MPD2    H710618   4.404   0.919   1.046  0.2778  0.4529 -1.8887
  715TMC3    C110619   4.403   0.675   1.070 -0.4921 -1.0631  0.1806
  715TMC3    C210620   4.428   0.559   1.011 -0.3277  0.8740  0.2366
  715TMC3    C310621   4.547   0.497   1.038 -0.3512 -0.4425 -0.1758
  715TMC3    C410622   4.489   0.728   1.162  0.4454  0.1917 -0.1227
  715TMC3    C510623   4.599   0.666   1.190 -0.2672 -1.3807 -0.1391
  715TMC3    C610624   4.635   0.551   1.131  0.8006 -0.4681  0.2556
  715TMC3     C10625   4.300   0.752   1.010  0.4815 -0.0141 -0.1850
  715TMC3     O10626   4.222   0.692   0.938 -0.3281  0.1147 -0.2362
  715TMC3     H10627   4.368   0.527   0.927 -1.4441 -1.4154  1.9000
  715TMC3    H110628   4.481   0.824   1.212 -2.6475  0.4377 -1.1318
  715TMC3    H210629   4.715   0.496   1.180  0.3079 -0.2041  1.3583
  715TMC3    C710630   4.667   0.695   1.317 -0.2207 -0.1334  0.5288
  715TMC3    C810631   4.588   0.386   0.950 -0.6456 -0.0232  0.7206
  715TMC3    O110632   0.046   0.653   1.328 -0.3217 -0.1361 -0.0863
  715TMC3    O210633   4.499   0.344   0.877  0.0095  0.6144  0.0752
  716MPD2     C10634   3.954   4.384   9.763  0.2059  0.4457  0.8278
  716MPD2    C110635   3.887   4.379   9.646 -0.1177 -0.0006  0.0200
  716MPD2    C210636   3.877   4.262   9.570 -0.6117 -0.5521 -0.3804
  716MPD2    C310637   3.941   4.149   9.622  0.0961  0.8981 -0.0351
  716MPD2    C410638   4.007   4.154   9.743  0.0484 -0.1479 -0.5443
  716MPD2    C510639   4.018   4.275   9.807  0.3681  0.0304 -0.0486
  716MPD2     H10640   3.814   4.260   9.482  0.9979  2.9041 -1.6112
  716MPD2    H110641   4.062   4.071   9.785  0.6311 -0.9922 -2.9566
  716MPD2    H210642   3.948   4.468   9.832  0.5264  1.9278 -0.9495
  716MPD2    H310643   4.073   4.285   9.900  1.7365  2.5869 -1.1273
  716MPD2     N10644   3.930   4.028   9.547 -0.1656  0.1492  0.3831
  716MPD2    H510645   3.910   4.044   9.448  2.3574 -1.2376 -0.3642
  716MPD2    N110646   3.817   4.499   9.611 -0.2544  0.0355 -0.1135
  716MPD2    H710647   3.792   4.553   9.693 -0.2118 -0.9800  0.5724
  717TMC3    C110648   3.896   3.799   9.502 -0.2785  0.4876  0.2840
  717TMC3    C210649   3.786   3.834   9.428 -0.3330  0.2571  1.1639
  717TMC3    C310650   3.706   3.732   9.383 -0.7552  0.2884  0.1697
  717TMC3    C410651   3.930   3.667   9.521 -0.1315  0.6059 -0.1097
  717TMC3    C510652   3.851   3.573   9.471 -0.3769 -0.4413  0.2069
  717TMC3    C610653   3.742   3.601   9.397  0.1535 -0.7833  0.7366
  717TMC3     C10654   3.940   3.900   9.596  0.4541  0.8335 -0.3556
  717TMC3     O10655   3.990   3.856   9.697 -0.3982  0.1317  0.8614
  717TMC3     H10656   3.758   3.938   9.421 -0.6995  0.1957  1.6957
  717TMC3    H110657   4.017   3.646   9.581  0.4231  1.0860 -0.7525
  717TMC3    H210658   3.670   3.523   9.376  1.9174 -2.8356  2.4021
  717TMC3    C710659   3.909   3.448   9.449  0.4485  0.4140 -0.7192
  717TMC3    C810660   3.579   3.772   9.324 -0.7074 -0.5238  0.4703
  717TMC3    O110661   4.009   3.423   9.519 -0.4764 -0.4122 -0.7677
  717TMC3    O210662   3.526   3.878   9.360 -0.0317 -0.2241  0.5708
  718MPD2     C10663   3.451   2.389  12.622  0.4161  0.1906  0.1383
  718MPD2    C110664   3.351   2.460  12.563  0.3618  0.0242 -0.2141
  718MPD2    C210665   3.223   2.454  12.615 -1.0897  0.1883 -0.1041
  718MPD2    C310666   3.189   2.377  12.726  0.5416  0.8468  0.1711
  718MPD2    C410667   3.291   2.303  12.779 -0.7880  0.4434  0.8920
  718MPD2    C510668   3.424   2.313  12.736  0.1598  0.5621  0.3041
  718MPD2     H10669   3.148   2.520  12.574 -3.1538 -1.6465  0.7398
  718MPD2    H110670   3.264   2.226  12.850  1.3456 -2.9898 -2.0117
  718MPD2    H210671   3.556   2.391  12.593  0.3013  0.9214 -0.2053
  718MPD2    H310672   3.498   2.261  12.794 -1.4016 -1.6784  0.2829
  718MPD2     N10673   3.050   2.395  12.764  0.4565 -0.6174  0.0296
  718MPD2    H510674   2.998   2.459  12.706  1.5486  1.8692  1.8110
  718MPD2    N110675   3.388   2.546  12.452  0.4138  0.1459  0.4628
  718MPD2    H710676   3.489   2.553  12.440  0.5375  1.5946  2.2833
  719TMC3    C110677   3.344   2.716  12.286 -0.4399 -0.6247  0.4398
  719TMC3    C210678   3.242   2.782  12.218  0.2351 -0.0740  0.2018
  719TMC3    C310679   3.233   2.918  12.217 -0.4777 -0.6282  0.0070
  719TMC3    C410680   3.438   2.796  12.343  0.7718  0.3762  0.3048
  719TMC3    C510681   3.443   2.937  12.316 -0.1072 -0.5231 -0.1260
  719TMC3    C610682   3.330   2.994  12.262 -0.5506  0.4646  0.2552
  719TMC3     C10683   3.292   2.618  12.376 -0.2514  0.4101  0.5667
  719TMC3     O10684   3.169   2.623  12.373  0.4587 -0.5477 -0.0777
  719TMC3     H10685   3.168   2.721  12.166  0.2495  1.3439 -1.4774
  719TMC3    H110686   3.520   2.753  12.400  0.6212  0.2161  0.4026
  719TMC3    H210687   3.318   3.102  12.258 -0.2220  0.5208  0.8385
  719TMC3    C710688   3.573   3.005  12.332 -0.3694  0.1782 -0.0222
  719TMC3    C810689   3.101   2.972  12.271 -0.4600 -0.6384 -0.0879
  719TMC3    O110690   3.582   3.114  12.275 -0.0650 -0.1732  0.8905
  719TMC3    O210691   3.066   3.086  12.260 -0.1373  0.0139 -0.2109
  720MPD2     C10692   2.065   3.716  14.018 -0.4024 -0.5041  0.4123
  720MPD2    C110693   2.156   3.802  13.956  0.1949 -0.3921  0.0491
  720MPD2    C210694   2.285   3.829  14.001  0.7790 -0.9981 -0.3380
  720MPD2    C310695   2.331   3.770  14.117  0.0178  1.0360 -1.4335
  720MPD2    C410696   2.246   3.676  14.176 -0.2037  0.0683 -0.4192
  720MPD2    C510697   2.121   3.652  14.127 -0.1539  0.4192  0.3011
  720MPD2     H10698   2.356   3.890  13.946 -1.4201  1.4653 -0.4239
  720MPD2    H110699   2.278   3.623  14.265 -0.6981  3.9737  2.0737
  720MPD2    H210700   1.966   3.697  13.978 -0.3228 -1.2071  0.5628
  720MPD2    H310701   2.072   3.565  14.169  0.0005 -0.3305 -1.0688
  720MPD2     N10702   2.453   3.811  14.177 -0.3116 -0.1396 -0.4219
  720MPD2    H510703   2.519   3.866  14.122 -1.0677 -1.9403 -3.1194
  720MPD2    N110704   2.108   3.890  13.855 -0.2086  0.1906  0.5108
  720MPD2    H710705   2.171   3.945  13.798 -1.5017 -0.5108 -1.5607
  721TMC3    C110706   2.639   3.808  14.331  0.2696  0.5313 -0.1875
  721TMC3    C210707   2.691   3.837  14.459 -0.1476  0.5961  0.3138
  721TMC3    C310708   2.818   3.866  14.465 -0.6663 -0.2605  0.0656
  721TMC3    C410709   2.724   3.800  14.224 -0.8976  0.1302  0.0779
  721TMC3    C510710   2.855   3.822  14.245 -0.0598  0.4623 -0.7208
  721TMC3    C610711   2.913   3.856  14.364 -0.4670 -0.3949 -0.4300
  721TMC3     C10712   2.494   3.782  14.309 -0.3175  0.7109 -0.6673
  721TMC3     O10713   2.436   3.759  14.413  0.4488  0.2045 -0.0455
  721TMC3     H10714   2.615   3.860  14.533 -0.4089  1.3576 -0.1806
  721TMC3    H110715   2.679   3.770  14.130 -0.5476  1.4405 -0.5108
  721TMC3    H210716   3.020   3.852  14.378 -0.2760 -1.0809 -2.1298
  721TMC3    C710717   2.949   3.807  14.134  0.0964 -0.3148  0.1601
  721TMC3    C810718   2.866   3.895  14.597 -0.1936 -0.2261  0.0271
  721TMC3    O110719   3.056   3.868  14.156 -0.2496  0.6546 -0.2218
  721TMC3    O210720   2.965   3.826  14.623  0.2018  0.5716 -0.3753
  722MPD2     C10721   0.387   2.938  13.241 -0.9305  0.8258 -0.0513
  722MPD2    C110722   0.352   3.070  13.219  0.6970 -0.3442  0.2239
  722MPD2    C210723   0.218   3.089  13.188  0.8043  0.1748 -0.0568
  722MPD2    C310724   0.136   2.984  13.155  0.2334 -0.0788 -0.0721
  722MPD2    C410725   0.173   2.853  13.184 -0.0573 -0.6816  0.1613
  722MPD2    C510726   0.301   2.833  13.220  0.1285  0.0354 -0.0486
  722MPD2     H10727   0.183   3.190  13.169 -1.0970 -0.7403 -1.3715
  722MPD2    H110728   0.107   2.767  13.173 -0.3992 -0.0623 -2.7882
  722MPD2    H210729   0.485   2.909  13.278 -1.0119 -0.6445 -0.9632
  722MPD2    H310730   0.329   2.730  13.238 -0.1946 -0.0361  0.0380
  722MPD2     N10731   0.027   3.018  13.080 -0.5619  0.4236  1.0000
  722MPD2    H510732   0.009   3.117  13.064  1.1423  0.6660  0.5786
  722MPD2    N110733   0.442   3.179  13.235 -0.0317 -0.3059 -0.8693
  722MPD2    H710734   0.397   3.267  13.212 -1.6877 -0.7232  0.7332
  723TMC3    C110735   4.658   2.985  12.870 -0.4754 -0.0426 -0.6933
  723TMC3    C210736   4.684   2.914  12.755 -0.1752  0.3775 -0.0695
  723TMC3    C310737   4.709   2.980  12.638 -0.4248  0.2679 -0.4286
  723TMC3    C410738   4.666   3.118  12.864 -0.4314  0.3549  0.3141
  723TMC3    C510739   4.681   3.185  12.746  0.3483  0.0114 -0.5941
  723TMC3    C610740   4.702   3.115  12.631  0.0808  0.6230  0.2210
  723TMC3     C10741   4.704   2.925  12.995  0.1260  0.1834 -0.1211
  723TMC3     O10742   4.704   2.801  12.996 -0.2375 -0.7271 -0.1801
  723TMC3     H10743   4.663   2.807  12.762 -1.6379  0.6760  0.2266
  723TMC3    H110744   4.641   3.170  12.956 -0.6828 -1.2561  1.1618
  723TMC3    H210745   4.712   3.172  12.540 -0.0565 -3.3757 -2.3258
  723TMC3    C710746   4.660   3.330  12.740 -0.2531 -0.0345  0.5232
  723TMC3    C810747   0.030   2.919  12.519  0.2893 -0.2618 -0.2763
  723TMC3    O110748   4.622   3.370  12.630 -0.1876  0.2629 -0.2858
  723TMC3    O210749   0.052   2.987  12.421 -0.2889  0.2741  0.4677
  724TMC3    C110750   1.341   1.309  10.199  0.0353 -0.0024  0.0328
  724TMC3    C210751   1.351   1.345  10.065  0.6482  0.4644 -0.3157
  724TMC3    C310752   1.435   1.450  10.027  0.0289  0.4203  0.0140
  724TMC3    C410753   1.412   1.379  10.298 -0.5909  0.7956  0.1200
  724TMC3    C510754   1.510   1.468  10.249 -0.1123  0.6629  0.2487
  724TMC3    C610755   1.520   1.499  10.118  0.0420 -0.3625 -0.7636
  724TMC3     C10756   1.259   1.201  10.243 -0.2954 -0.5846 -0.7280
  724TMC3     O10757   1.254   1.182  10.362 -0.2261  0.3372  0.5667
  724TMC3     H10758   1.289   1.304   9.986  1.3777 -0.4097 -0.4370
  724TMC3    H110759   1.388   1.360  10.402  0.7323 -2.3637 -0.1376
  724TMC3    H210760   1.583   1.581  10.087  0.9837 -2.0378 -3.2991
  724TMC3    C710761   1.575   1.564  10.336  0.0191  0.7868  0.7113
  724TMC3    C810762   1.409   1.508   9.901  0.1079  0.0827  0.0029
  724TMC3    O110763   1.654   1.642  10.286 -0.2910 -0.7167 -0.2172
  724TMC3    O210764   1.375   1.443   9.803  0.2451  0.4094  0.0231
  725TMC3    C110765   2.145   0.423  12.650 -0.4458 -0.6736  0.3346
  725TMC3    C210766   2.081   0.406  12.523  0.0845  0.1157 -0.5892
  725TMC3    C310767   2.025   0.279  12.508 -0.1459  0.4786 -1.2847
  725TMC3    C410768   2.123   0.337  12.754  0.2457  0.6258 -0.1309
  725TMC3    C510769   2.043   0.228  12.736  0.3979 -0.3034 -0.1520
  725TMC3    C610770   1.991   0.203  12.611  0.4382 -0.2147 -0.1689
  725TMC3     C10771   2.266   0.508  12.652 -0.4042 -0.7318  0.3896
  725TMC3     O10772   2.297   0.550  12.762 -0.2661  0.1900  0.0818
  725TMC3     H10773   2.095   0.475  12.441  0.0235 -1.7586 -2.1568
  725TMC3    H110774   2.182   0.350  12.844 -0.0808  1.0802  0.0149
  725TMC3    H210775   1.931   0.115  12.594  1.2458 -0.7791 -0.1016
  725TMC3    C710776   2.115   0.121  12.792 -0.1240  0.2223 -0.0739
  725TMC3    C810777   2.007   0.214  12.376 -0.6196 -0.0581  0.4371
  725TMC3    O110778   2.236   0.124  12.793 -0.4295  0.1461 -0.1794
  725TMC3    O210779   1.981   0.094  12.377 -0.0791  0.1106  0.4083
  726MPD2     C10780   0.471   1.257  10.742 -0.3057  0.3975  0.2273
  726MPD2    C110781   0.359   1.290  10.670  0.7599 -0.0063  0.3195
  726MPD2    C210782   0.236   1.286  10.724  0.1026 -0.1180 -0.1443
  726MPD2    C310783   0.219   1.251  10.852  0.1043  0.0213 -0.5386
  726MPD2    C410784   0.323   1.218  10.932  0.0583 -0.6538 -0.3577
  726MPD2    C510785   0.446   1.217  10.874  0.2624 -0.4867  0.0281
  726MPD2     H10786   0.153   1.323  10.665 -0.2021  1.1672  1.0910
  726MPD2    H110787   0.313   1.188  11.036  1.5753  0.1071  0.0006
  726MPD2    H210788   0.572   1.266  10.704  0.1970  2.4000  2.0281
  726MPD2    H310789   0.534   1.196  10.934  0.1085  1.6353  0.9771
  726MPD2     N10790   0.096   1.258  10.923 -0.3604 -0.7560 -0.9294
  726MPD2    H510791   0.099   1.231  11.021  0.7500  0.1240 -0.7264
  726MPD2    N110792   0.370   1.328  10.534  0.5516 -0.3709  0.0983
  726MPD2    H710793   0.287   1.339  10.477  0.5920  0.4427  0.2011
  727TMC3    C110794   0.458   1.410  10.326 -0.1592 -0.0123  0.1828
  727TMC3    C210795   0.512   1.530  10.285 -0.1235  0.4000 -0.7019
  727TMC3    C310796   0.480   1.578  10.164  0.6681  0.1243 -0.9450
  727TMC3    C410797   0.361   1.346  10.252  0.7156 -0.4263 -0.4076
  727TMC3    C510798   0.327   1.411  10.136  0.0129 -0.1721  0.1614
  727TMC3    C610799   0.375   1.530  10.085 -0.3195  0.2912 -0.0529
  727TMC3     C10800   0.486   1.379  10.470  0.0914  0.0283 -0.4266
  727TMC3     O10801   0.596   1.405  10.513  0.5191 -0.1479  0.1236
  727TMC3     H10802   0.569   1.591  10.354 -0.3157 -0.6322  0.3748
  727TMC3    H110803   0.325   1.246  10.276 -1.6353  1.1437  2.6469
  727TMC3    H210804   0.345   1.569   9.988 -2.3789  1.0145  0.8858
  727TMC3    C710805   0.226   1.346  10.056 -0.0496  0.1594  0.1050
  727TMC3    C810806   0.538   1.711  10.134 -0.3202  0.2524  0.3150
  727TMC3    O110807   0.202   1.387   9.944 -0.0829 -0.6137  0.4369
  727TMC3    O210808   0.648   1.723  10.193  0.9314  0.1316  0.1197
  728TMC3    C110809   0.073   4.459  14.807  0.7889 -0.2843 -0.6433
  728TMC3    C210810   0.210   4.428  14.814  0.1212  0.1926 -0.2769
  728TMC3    C310811   0.276   4.418  14.693 -1.2320 -0.1072 -0.2558
  728TMC3    C410812   0.002   4.469  14.692  0.3870  0.2244  0.1821
  728TMC3    C510813   0.070   4.449  14.580 -0.4089  0.1817 -0.2811
  728TMC3    C610814   0.207   4.418  14.580 -0.4427 -0.3381  0.9097
  728TMC3     C10815   4.731   4.461  14.933  0.3546 -0.0372 -0.5864
  728TMC3     O10816   0.059   4.490  15.034  0.4044  0.1274  0.4586
  728TMC3     H10817   0.260   4.423  14.910 -2.5190 -1.7802  0.9841
  728TMC3    H110818   4.639   4.508  14.693  0.0381 -0.6850  1.6309
  728TMC3    H210819   0.254   4.417  14.483  1.1616  2.3134  1.6707
  728TMC3    C710820   0.025   4.545  14.478  0.2968  0.1541 -0.5813
  728TMC3    C810821   0.401   4.483  14.679  0.3980  0.2611  0.2980
  728TMC3    O110822   0.061   4.520  14.362 -0.0515  0.0568 -0.5188
  728TMC3    O210823   0.456   4.463  14.574  0.7489 -0.3411 -0.1469
  729MPD2     C10824   2.464   1.137  16.688 -0.5753 -0.3321 -0.3295
  729MPD2    C110825   2.408   1.259  16.651  0.3568 -0.2549  0.2625
  729MPD2    C210826   2.423   1.368  16.731  0.5065 -0.3609 -0.0165
  729MPD2    C310827   2.478   1.358  16.855 -0.4254 -0.9924  0.0843
  729MPD2    C410828   2.537   1.239  16.892 -0.1821  0.6181 -0.1741
  729MPD2    C510829   2.538   1.136  16.802 -0.5772  0.3254  0.3753
  729MPD2     H10830   2.380   1.462  16.697  1.1033  0.3362  1.1538
  729MPD2    H110831   2.588   1.225  16.987  0.4821  3.3939 -0.1168
  729MPD2    H210832   2.447   1.053  16.622  0.9965 -2.2812  1.7807
  729MPD2    H310833   2.590   1.044  16.828 -0.6637 -0.0127 -0.6528
  729MPD2     N10834   2.489   1.458  16.953  0.2313  0.7197 -0.8990
  729MPD2    H510835   2.536   1.431  17.039  0.3468  0.0713 -1.1698
  729MPD2    N110836   2.331   1.262  16.533  0.7570 -0.2976  0.0952
  729MPD2    H710837   2.320   1.179  16.477 -0.1519 -0.0859 -0.0409
  730TMC3    C110838   2.459   1.669  17.058 -0.1728 -0.0428  0.4430
  730TMC3    C210839   2.464   1.805  17.039  0.1418  0.0803  0.5341
  730TMC3    C310840   2.456   1.882  17.148  0.1980 -0.1961  0.3768
  730TMC3    C410841   2.436   1.611  17.179 -0.6648  0.2682 -0.0258
  730TMC3    C510842   2.423   1.692  17.282  0.1963  0.3978  0.0578
  730TMC3    C610843   2.441   1.833  17.276 -0.0466  0.8494 -0.0240
  730TMC3     C10844   2.437   1.582  16.942  0.0995  0.3208 -0.2989
  730TMC3     O10845   2.415   1.640  16.841 -0.3789 -0.1743 -0.4622
  730TMC3     H10846   2.488   1.852  16.944 -0.7795 -0.2007  0.1572
  730TMC3    H110847   2.414   1.505  17.188 -0.5967  0.1808 -0.9314
  730TMC3    H210848   2.420   1.901  17.358 -0.6871  2.0954 -1.2278
  730TMC3    C710849   2.423   1.636  17.415  0.4312 -0.0827 -0.2940
  730TMC3    C810850   2.505   2.024  17.131 -0.3384 -0.0351  0.3613
  730TMC3    O110851   2.495   1.539  17.420 -0.3914 -0.1770  0.2648
  730TMC3    O210852   2.547   2.051  17.019  0.3314 -0.0263  0.4726
  731MPD2     C10853   1.876   4.460  12.232  0.2860 -0.2799  1.2358
  731MPD2    C110854   1.790   4.364  12.176  0.4162  0.5839 -0.0115
  731MPD2    C210855   1.714   4.277  12.256 -0.2924  1.0858 -0.0826
  731MPD2    C310856   1.699   4.297  12.392  0.1042  0.3536  0.6824
  731MPD2    C410857   1.770   4.403  12.442 -0.0782 -0.2898  0.1584
  731MPD2    C510858   1.870   4.466  12.367  0.7811  0.1183 -0.1914
  731MPD2     H10859   1.665   4.192  12.210 -2.4034  2.3393 -0.1550
  731MPD2    H110860   1.764   4.435  12.545  0.3986 -1.2203  0.4719
  731MPD2    H210861   1.946   4.522  12.177  0.1633  0.8350  2.3360
  731MPD2    H310862   1.931   4.542  12.415  0.0883  1.6755 -1.7926
  731MPD2     N10863   1.608   4.221  12.463  0.1359 -0.5119 -0.1527
  731MPD2    H510864   1.557   4.156  12.404  0.6699  0.4944 -1.7372
  731MPD2    N110865   1.804   4.337  12.036 -0.1009  0.3362 -0.8891
  731MPD2    H710866   1.881   4.385  11.991 -0.0891 -0.0780 -1.3099
  732TMC3    C110867   1.746   4.253  11.816  0.4234 -0.1841 -0.0149
  732TMC3    C210868   1.640   4.214  11.737 -0.5232  0.4253 -0.4060
  732TMC3    C310869   1.662   4.184  11.603  0.0412 -0.1989 -0.6808
  732TMC3    C410870   1.869   4.283  11.764  1.2122 -0.1855  0.1846
  732TMC3    C510871   1.882   4.266  11.626  0.7326 -0.3207  0.0844
  732TMC3    C610872   1.785   4.202  11.551 -0.2941 -0.2557  0.4332
  732TMC3     C10873   1.719   4.256  11.962  0.4120 -0.2529 -0.6457
  732TMC3     O10874   1.624   4.189  11.999  0.5491  0.3281  0.1744
  732TMC3     H10875   1.549   4.204  11.795 -2.5422  0.2722 -3.6604
  732TMC3    H110876   1.946   4.335  11.821 -1.2083  2.6799  0.8855
  732TMC3    H210877   1.800   4.180  11.446 -0.6430 -3.2124  0.9981
  732TMC3    C710878   2.011   4.265  11.569  0.3634 -0.0058  0.1173
  732TMC3    C810879   1.556   4.116  11.537 -0.7598  0.5695  0.5383
  732TMC3    O110880   2.024   4.188  11.475  0.0346  0.4775 -0.0678
  732TMC3    O210881   1.579   4.037  11.449 -0.3240  0.3721 -0.4188
  733TMC3    C110882   2.641   2.368  12.981 -0.3838  0.4251 -0.4034
  733TMC3    C210883   2.772   2.335  12.987 -0.2223 -0.2934  0.4652
  733TMC3    C310884   2.852   2.396  12.890  0.0594 -0.2540  0.1921
  733TMC3    C410885   2.595   2.458  12.878  0.1180 -0.2100 -0.5699
  733TMC3    C510886   2.682   2.525  12.798 -0.4130  0.3853 -0.2558
  733TMC3    C610887   2.812   2.497  12.807  0.4599  0.7021 -0.3758
  733TMC3     C10888   2.545   2.273  13.034 -0.7507  0.3668  0.4615
  733TMC3     O10889   2.438   2.290  12.978  0.2934  0.4959 -0.1448
  733TMC3     H10890   2.812   2.255  13.049 -0.7223  1.1778  2.6950
  733TMC3    H110891   2.489   2.467  12.859 -0.1745  1.2238  1.7771
  733TMC3    H210892   2.874   2.574  12.764 -0.0964  2.2259  1.5406
  733TMC3    C710893   2.634   2.627  12.698 -0.4775 -0.0769 -0.4969
  733TMC3    C810894   2.992   2.348  12.881 -0.1190  0.3194  0.1137
  733TMC3    O110895   2.533   2.686  12.726  0.5297  0.5871 -0.0205
  733TMC3    O210896   3.034   2.260  12.959 -0.0535  0.2815 -0.4697
  734MPD2     C10897   4.706   4.651  12.239 -0.2394 -0.0751 -0.4347
  734MPD2    C110898   4.601   4.622  12.155 -0.0629  0.3613 -0.4389
  734MPD2    C210899   4.586   4.689  12.036 -0.6397 -0.4732 -0.0036
  734MPD2    C310900   4.677   0.044  11.995 -0.5734  0.5901  0.1833
  734MPD2    C410901   0.039   0.074  12.085  0.9193  0.4418  0.3490
  734MPD2    C510902   0.055   0.017  12.206  0.5540  0.2266 -0.3863
  734MPD2     H10903   4.505   4.665  11.968 -0.2060 -1.0057 -0.3374
  734MPD2    H110904   0.115   0.148  12.061  1.2209 -0.3616 -1.1692
  734MPD2    H210905   4.731   4.602  12.333 -2.5066  1.0368  0.7405
  734MPD2    H310906   0.137   0.059  12.261  1.3181 -0.1866 -1.2035
  734MPD2     N10907   4.674   0.089  11.866  0.2793  0.4267 -0.8190
  734MPD2    H510908   4.618   0.035  11.800  0.5332  0.5362 -1.1257
  734MPD2    N110909   4.515   4.515  12.185  0.1150 -0.2291  0.7977
  734MPD2    H710910   4.551   4.454  12.257  0.2376 -1.1301 -0.0175
  735TMC3    C110911   4.336   4.365  12.155  0.2445 -0.2341 -0.6282
  735TMC3    C210912   4.215   4.339  12.096  0.1093 -0.3465  0.1697
  735TMC3    C310913   4.193   4.233  12.015 -0.1274 -0.5276  0.3670
  735TMC3    C410914   4.434   4.268  12.146 -0.3552  0.2716 -0.6891
  735TMC3    C510915   4.406   4.158  12.071  0.0037 -0.2524  0.2450
  735TMC3    C610916   4.295   4.136  12.001 -0.6172 -0.5180 -0.5365
  735TMC3     C10917   4.389   4.496  12.132 -0.4330  0.3619 -0.1045
  735TMC3     O10918   4.322   4.569  12.057  0.4290  0.6510  0.7613
  735TMC3     H10919   4.141   4.418  12.088 -1.1850 -1.5286  0.3879
  735TMC3    H110920   4.530   4.274  12.196 -0.2496 -2.0421 -0.5996
  735TMC3    H210921   4.284   4.050  11.936 -2.7819  0.5353 -1.5488
  735TMC3    C710922   4.522   4.082  12.028  0.6950 -0.0856  0.0893
  735TMC3    C810923   4.131   4.275  11.887 -0.2879  0.3079  0.3933
  735TMC3    O110924   4.627   4.146  12.013  0.2448 -0.2850 -0.1897
  735TMC3    O210925   4.094   4.187  11.808 -0.2870 -0.0894 -0.2796
  736MPD2     C10926   4.588   3.725  11.965  0.7197 -0.5297 -0.3029
  736MPD2    C110927   4.593   3.863  11.950 -1.1890  0.4559 -0.1587
  736MPD2    C210928   4.698   3.909  11.869  0.2972 -0.7170 -0.5144
  736MPD2    C310929   0.061   3.828  11.815 -0.5365 -0.3432  0.5078
  736MPD2    C410930   0.069   3.696  11.851 -0.3642  0.0232  0.3981
  736MPD2    C510931   4.695   3.649  11.918 -0.1678 -0.0892  0.8721
  736MPD2     H10932   4.706   4.013  11.839 -0.1591 -0.2345  1.0418
  736MPD2    H110933   0.156   3.635  11.832 -0.1913  0.4695 -0.2409
  736MPD2    H210934   4.508   3.677  12.020  2.0965 -3.0153 -0.4677
  736MPD2    H310935   4.684   3.543  11.934 -2.4676  0.1678  1.0181
  736MPD2     N10936   0.169   3.878  11.743  0.0340  0.1181 -0.2423
  736MPD2    H510937   0.250   3.816  11.732 -0.0439 -0.0826  0.3322
  736MPD2    N110938   4.494   3.949  12.001 -0.1868  0.1864 -0.7709
  736MPD2    H710939   4.410   3.914  12.045 -0.1938  1.6185  0.3535
  737TMC3    C110940   0.290   4.054  11.640 -0.2201 -0.8524 -0.5928
  737TMC3    C210941   0.293   4.188  11.611 -0.7418  0.1129 -0.3958
  737TMC3    C310942   0.380   4.229  11.514  0.0908 -0.2501 -0.9419
  737TMC3    C410943   0.376   3.962  11.589  0.4039  0.2177  0.2865
  737TMC3    C510944   0.465   4.010  11.490  0.2988  0.0362  0.0619
  737TMC3    C610945   0.471   4.142  11.451 -0.5824  0.2869 -0.4400
  737TMC3     C10946   0.170   4.003  11.693  0.3034  0.1430  0.3115
  737TMC3     O10947   0.068   4.068  11.657  0.2791 -0.4843  0.5987
  737TMC3     H10948   0.220   4.257  11.651 -1.1083  0.8843 -2.4055
  737TMC3    H110949   0.373   3.855  11.607  2.3758  0.3698  1.5018
  737TMC3    H210950   0.536   4.179  11.373 -1.4120  1.8195 -0.3957
  737TMC3    C710951   0.537   3.912  11.407  0.0074 -0.2764  0.3471
  737TMC3    C810952   0.379   4.372  11.488  0.3038  0.1908  0.3622
  737TMC3    O110953   0.490   3.802  11.407 -0.0403 -0.4231  0.6256
  737TMC3    O210954   0.317   4.447  11.565  0.4018  0.3731  0.4019
  738MPD2     C10955   1.102   3.460  15.107  0.0837 -0.2448 -0.5332
  738MPD2    C110956   1.121   3.330  15.068 -0.6825  0.2362  0.0029
  738MPD2    C210957   1.206   3.303  14.965 -0.4307 -0.7900  0.1847
  738MPD2    C310958   1.245   3.411  14.879 -0.5033  0.5318 -0.7546
  738MPD2    C410959   1.222   3.541  14.917 -0.0441 -0.4493  0.3636
  738MPD2    C510960   1.162   3.567  15.037 -0.5858  0.3393 -0.4592
  738MPD2     H10961   1.221   3.205  14.921 -3.0182 -0.3254 -1.7233
  738MPD2    H110962   1.245   3.624  14.852  0.9147  0.7119  2.1777
  738MPD2    H210963   1.048   3.485  15.197 -0.6164 -1.6295 -0.5775
  738MPD2    H310964   1.138   3.669  15.067 -0.5483  0.4586 -0.8378
  738MPD2     N10965   1.314   3.393  14.749 -0.3429 -0.2324  0.0915
  738MPD2    H510966   1.357   3.468  14.696  0.7173  0.8847  2.4906
  738MPD2    N110967   1.038   3.230  15.118  0.1051  0.2610  0.2604
  738MPD2    H710968   1.038   3.149  15.058  1.6142 -0.0791  0.7240
  739TMC3    C110969   1.451   3.276  14.593 -0.0980 -0.7710  0.4563
  739TMC3    C210970   1.413   3.288  14.463 -0.2175 -0.2934  0.2721
  739TMC3    C310971   1.502   3.353  14.381 -0.0544 -0.2373 -0.2433
  739TMC3    C410972   1.572   3.320  14.650 -0.7226 -0.8364 -0.0986
  739TMC3    C510973   1.660   3.388  14.567 -0.3876 -0.3812 -0.3529
  739TMC3    C610974   1.624   3.407  14.433  0.1952 -0.3702  0.0698
  739TMC3     C10975   1.348   3.266  14.697  0.2758  0.1005 -0.7151
  739TMC3     O10976   1.292   3.160  14.714  0.0496  0.1405 -0.3804
  739TMC3     H10977   1.315   3.266  14.423 -0.3086 -0.7281  0.7437
  739TMC3    H110978   1.583   3.315  14.758  1.8511 -1.6003 -0.3724
  739TMC3    H210979   1.700   3.449  14.368  0.0311  0.3847  0.3633
  739TMC3    C710980   1.799   3.400  14.611 -0.2061  0.4177  0.2547
  739TMC3    C810981   1.453   3.396  14.251 -0.9603  0.3701 -0.5003
  739TMC3    O110982   1.816   3.402  14.733  0.0148  0.4673  0.1710
  739TMC3    O210983   1.336   3.384  14.227  0.1984 -0.9335  0.0178
  740TMC3    C110984   1.927   4.314  14.551  0.0223 -0.4528  0.7315
  740TMC3    C210985   1.934   4.215  14.653 -0.9025  0.0385  0.4404
  740TMC3    C310986   2.038   4.130  14.658 -0.2130 -0.0408  0.0081
  740TMC3    C410987   2.029   4.314  14.453 -0.4007  0.3287  0.7061
  740TMC3    C510988   2.136   4.225  14.470  0.3670 -0.1113 -0.1701
  740TMC3    C610989   2.145   4.137  14.575 -0.1537 -0.1144 -0.2132
  740TMC3     C10990   1.829   4.414  14.545  0.4216  0.3314 -0.7382
  740TMC3     O10991   1.853   4.517  14.482  0.3786 -0.2686 -0.3510
  740TMC3     H10992   1.865   4.206  14.736 -0.4803  2.6809  1.0660
  740TMC3    H110993   2.029   4.394  14.380  3.1944  0.0292  0.3767
  740TMC3    H210994   2.219   4.058  14.562 -1.6767 -1.5978  0.1259
  740TMC3    C710995   2.243   4.216  14.373 -0.3803  0.5408 -0.1346
  740TMC3    C810996   2.053   4.051  14.781 -0.4366  0.0445 -0.1034
  740TMC3    O110997   2.337   4.142  14.399  0.5083 -0.2802 -1.0943
  740TMC3    O210998   1.956   4.005  14.840  1.1043 -0.0550  0.1363
  741TMC3    C110999   1.337   3.899  14.170 -0.3938 -0.0772  0.0220
  741TMC3    C211000   1.237   3.827  14.114  0.7344  0.3115 -0.3473
  741TMC3    C311001   1.200   3.717  14.187  0.4108  0.2403 -0.2125
  741TMC3    C411002   1.402   3.867  14.283 -0.0052 -0.1684 -0.5936
  741TMC3    C511003   1.348   3.758  14.355  0.0048 -0.1078  0.1522
  741TMC3    C611004   1.256   3.676  14.308 -0.0135 -0.9973  0.2618
  741TMC3     C11005   1.346   4.034  14.122 -0.1888  0.4810 -0.3213
  741TMC3     O11006   1.454   4.084  14.093 -0.1667 -0.2101  0.5109
  741TMC3     H11007   1.204   3.845  14.013 -0.6084 -0.5096 -0.0606
  741TMC3    H111008   1.487   3.926  14.314 -1.8710  1.6278  1.1502
  741TMC3    H211009   1.228   3.580  14.349  0.4287 -0.8684  0.8775
  741TMC3    C711010   1.402   3.725  14.492 -0.6741  0.2918  0.1253
  741TMC3    C811011   1.097   3.647  14.107 -0.0520 -0.6667  0.0117
  741TMC3    O111012   1.366   3.614  14.532  0.1940 -0.0570 -0.2839
  741TMC3    O211013   1.027   3.716  14.033  0.5884 -0.3715 -0.3474
  742TMC3    C111014   1.415   2.678  15.098  0.3557 -0.2484  0.2744
  742TMC3    C211015   1.333   2.629  15.000  0.3633  0.2638  0.0604
  742TMC3    C311016   1.375   2.519  14.935 -0.6928  0.5214  0.3287
  742TMC3    C411017   1.535   2.623  15.136 -0.2345  0.2040  0.2267
  742TMC3    C511018   1.568   2.507  15.070 -0.6556 -0.1817  0.3351
  742TMC3    C611019   1.489   2.455  14.977  0.2990 -0.1701 -0.1477
  742TMC3     C11020   1.368   2.791  15.168  0.4394  0.0869 -0.3200
  742TMC3     O11021   1.247   2.811  15.169  0.6608 -0.2642  0.8261
  742TMC3     H11022   1.264   2.696  14.951  0.0673 -0.8343 -1.0167
  742TMC3    H111023   1.594   2.658  15.220 -2.6935 -0.3149  2.1777
  742TMC3    H211024   1.512   2.357  14.936  0.1577 -1.1024  2.0046
  742TMC3    C711025   1.643   2.406  15.142  0.0996  0.6499  0.3672
  742TMC3    C811026   1.281   2.446  14.847 -0.3840 -0.1424 -0.3900
  742TMC3    O111027   1.613   2.291  15.121  0.5867  0.5080  0.2358
  742TMC3    O211028   1.333   2.350  14.787  0.1806 -0.4717  0.2197
  743MPD2     C11029   3.821   3.703   1.710 -0.0751  0.3392 -0.7893
  743MPD2    C111030   3.826   3.655   1.586 -0.3658  0.9438  0.3944
  743MPD2    C211031   3.952   3.626   1.539  0.1621  0.1076  0.2643
  743MPD2    C311032   4.071   3.664   1.600  0.0456  0.0446  0.6630
  743MPD2    C411033   4.056   3.726   1.720  0.4584 -0.9139  0.0846
  743MPD2    C511034   3.931   3.741   1.781  0.1751  0.1422  0.7135
  743MPD2     H11035   3.958   3.574   1.444  1.4454  0.1584  0.3221
  743MPD2    H111036   4.139   3.749   1.786 -0.2961 -0.7837  0.9932
  743MPD2    H211037   3.725   3.724   1.755  0.3993  0.0398  0.3605
  743MPD2    H311038   3.920   3.799   1.872 -0.3151  0.4984  0.4269
  743MPD2     N11039   4.189   3.629   1.533  0.2992 -0.1218 -0.1487
  743MPD2    H511040   4.174   3.570   1.452 -0.7003  2.4832 -1.8289
  743MPD2    N111041   3.707   3.617   1.518  0.4731  0.3941 -0.8683
  743MPD2    H711042   3.620   3.644   1.564  0.5256 -4.3740  2.1033
  744TMC3    C111043   3.553   3.537   1.354  0.1648  0.0656  0.2836
  744TMC3    C211044   3.481   3.650   1.365 -0.5228 -0.0852 -0.3166
  744TMC3    C311045   3.373   3.663   1.273  0.3941  0.3186 -1.1153
  744TMC3    C411046   3.531   3.445   1.254  0.5818 -0.3206  0.2767
  744TMC3    C511047   3.428   3.469   1.165 -0.7791  0.0570  0.3634
  744TMC3    C611048   3.350   3.578   1.168  0.3437 -0.2498 -0.7261
  744TMC3     C11049   3.692   3.557   1.398  0.1934  0.2323  0.6116
  744TMC3     O11050   3.778   3.517   1.319 -0.0409  0.1211  0.1750
  744TMC3     H11051   3.494   3.714   1.452  1.0694 -1.6506  0.5871
  744TMC3    H111052   3.598   3.362   1.234  1.9747  1.0907 -1.0130
  744TMC3    H211053   3.265   3.588   1.100  0.6076  0.7696 -0.9131
  744TMC3    C711054   3.434   3.400   1.042  0.1152 -0.4763 -0.2005
  744TMC3    C811055   3.275   3.767   1.309  1.0632  0.1525 -0.1310
  744TMC3    O111056   3.378   3.455   0.948  0.5404  0.2959 -0.3491
  744TMC3    O211057   3.303   3.843   1.400 -0.2382 -0.8492  0.2342
  745TMC3    C111058   1.124   2.155  13.963 -0.0118 -0.0498  0.1734
  745TMC3    C211059   1.060   2.233  14.054 -0.1502 -0.5617 -0.0004
  745TMC3    C311060   0.951   2.307  14.007  0.3003 -0.0775  0.2061
  745TMC3    C411061   1.073   2.120  13.835 -0.5358 -0.2547 -0.3468
  745TMC3    C511062   0.973   2.205  13.792 -0.7728  0.0431 -0.1446
  745TMC3    C611063   0.911   2.292  13.878 -0.3252  0.2388 -0.0634
  745TMC3     C11064   1.266   2.164  13.971 -0.0480  0.0135  1.0964
  745TMC3     O11065   1.314   2.132  14.076 -0.5147 -0.0614 -0.8560
  745TMC3     H11066   1.103   2.239  14.153  1.7298 -0.8683 -0.8046
  745TMC3    H111067   1.124   2.056  13.764  1.0366  1.2365 -0.5596
  745TMC3    H211068   0.818   2.344  13.854  0.8052  2.9361  1.4062
  745TMC3    C711069   0.965   2.245  13.649 -0.6253  0.1780  0.2020
  745TMC3    C811070   0.953   2.438  14.053 -0.2861  0.1307 -0.5323
  745TMC3    O111071   0.892   2.332  13.616  0.0047 -0.0102  0.0897
  745TMC3    O211072   0.995   2.534  13.985  0.3106  0.1902 -0.3593
  746TMC3    C111073   3.779   4.200  10.909  0.1642 -0.5716 -0.1918
  746TMC3    C211074   3.863   4.198  10.794  0.3094 -0.5327 -0.0337
  746TMC3    C311075   3.867   4.081  10.726  0.5642  0.0769 -0.6028
  746TMC3    C411076   3.712   4.092  10.952 -0.7773 -0.1646 -0.6018
  746TMC3    C511077   3.729   3.976  10.883  0.2935 -0.7584 -0.3287
  746TMC3    C611078   3.811   3.965  10.771 -0.5597 -0.4207 -0.0447
  746TMC3     C11079   3.790   4.314  11.002  0.2208  0.2909  0.6311
  746TMC3     O11080   3.718   4.320  11.098  0.3216 -0.4765 -0.7900
  746TMC3     H11081   3.916   4.285  10.758 -0.6476 -0.4459 -1.2339
  746TMC3    H111082   3.652   4.106  11.041 -0.9938 -0.4011 -0.7122
  746TMC3    H211083   3.812   3.876  10.709  2.7942 -0.0233 -0.5648
  746TMC3    C711084   3.603   3.902  10.867  0.4257  0.4640 -0.3343
  746TMC3    C811085   3.894   4.097  10.582 -0.3260 -0.1310 -0.3577
  746TMC3    O111086   3.583   3.855  10.759 -0.3273 -0.0581 -0.0387
  746TMC3    O211087   3.965   4.017  10.525  0.4902 -0.1384 -0.1111
  747TMC3    C111088   1.419   4.090  10.829 -0.2318 -0.2317  0.2483
  747TMC3    C211089   1.326   3.997  10.865  0.3509 -0.0843  0.4513
  747TMC3    C311090   1.276   3.998  10.990  0.8554 -1.0536 -0.9789
  747TMC3    C411091   1.463   4.185  10.919 -0.2426  0.5461  0.1824
  747TMC3    C511092   1.412   4.173  11.046 -0.9691  0.1424 -0.8969
  747TMC3    C611093   1.316   4.081  11.092 -0.5554  0.2100  0.6661
  747TMC3     C11094   1.422   4.125  10.688  0.2582  0.2473 -0.2649
  747TMC3     O11095   1.430   4.245  10.664 -0.1922  0.1953 -0.0845
  747TMC3     H11096   1.279   3.943  10.784  1.7326  1.9876 -1.7469
  747TMC3    H111097   1.527   4.266  10.886 -1.2389  1.8408  1.4264
  747TMC3    H211098   1.275   4.086  11.192 -2.0386 -1.1024  0.1216
  747TMC3    C711099   1.480   4.260  11.145 -0.1823 -0.5714  0.0725
  747TMC3    C811100   1.166   3.911  11.010  0.5021  0.4300 -0.3018
  747TMC3    O111101   1.408   4.288  11.241  0.6869 -0.1689 -0.0019
  747TMC3    O211102   1.178   3.800  10.957  0.1103 -0.4345 -0.2531
  748MPD2     C11103   3.460   0.113   1.802 -0.1742 -0.2305  0.3059
  748MPD2    C111104   3.565   0.030   1.835 -0.0040  0.1971 -0.3847
  748MPD2    C211105   3.689   0.056   1.767 -0.2572 -0.1220 -0.0114
  748MPD2    C311106   3.706   0.147   1.664 -0.0114  0.9853  0.3608
  748MPD2    C411107   3.602   0.235   1.642 -0.6064 -0.2388 -0.1644
  748MPD2    C511108   3.486   0.216   1.710 -0.4486 -0.6586  0.1347
  748MPD2     H11109   3.772   4.725   1.778  0.1007  0.2575 -0.3523
  748MPD2    H111110   3.592   0.312   1.567  2.2766  0.6307  0.3622
  748MPD2    H211111   3.366   0.112   1.855 -1.0535  0.7092 -1.2327
  748MPD2    H311112   3.406   0.288   1.693  0.7523  0.3826 -1.0422
  748MPD2     N11113   3.821   0.148   1.585  0.0171 -0.7866  0.9676
  748MPD2    H511114   3.894   0.078   1.597  1.9596  0.6895 -2.0962
  748MPD2    N111115   3.527   4.658   1.918 -0.0266 -0.2255  0.3440
  748MPD2    H711116   3.439   4.665   1.968  0.5878  0.4313  1.3206
  749TMC3    C111117   3.935   0.177   1.387  0.0693  0.7136 -0.0495
  749TMC3    C211118   4.049   0.114   1.434 -0.3422 -0.9095  0.5494
  749TMC3    C311119   4.148   0.090   1.344  0.1972 -0.5027  0.4811
  749TMC3    C411120   3.928   0.211   1.254 -0.5824 -0.3293 -0.2329
  749TMC3    C511121   4.030   0.183   1.166  0.1474  0.7088  0.4381
  749TMC3    C611122   4.142   0.122   1.211 -0.3849 -0.6682 -0.3856
  749TMC3     C11123   3.831   0.226   1.475  0.8857  0.0760 -0.0564
  749TMC3     O11124   3.760   0.320   1.433 -0.1731  0.1994  0.8862
  749TMC3     H11125   4.072   0.110   1.540  1.9037 -3.1874 -0.0303
  749TMC3    H111126   3.835   0.259   1.225  0.7039  1.9453 -0.6305
  749TMC3    H211127   4.227   0.102   1.146  1.4209  0.9318  1.4902
  749TMC3    C711128   4.053   0.266   1.051 -0.4866 -0.1649  0.6368
  749TMC3    C811129   4.268   0.033   1.398 -0.4449  0.0008 -0.2034
  749TMC3    O111130   4.168   0.288   1.009  0.3276 -0.5694  0.3272
  749TMC3    O211131   4.295   0.040   1.516 -0.4116  0.0602 -0.1562
  750MPD2     C11132   3.857   1.580  11.393 -0.2146 -0.1183 -0.0197
  750MPD2    C111133   3.872   1.459  11.462 -0.4559  0.4520 -0.0273
  750MPD2    C211134   3.826   1.344  11.411 -0.2377  0.5860 -0.4755
  750MPD2    C311135   3.761   1.341  11.291  0.1756 -0.2053  0.2917
  750MPD2    C411136   3.749   1.459  11.225  0.2653  0.1688  0.1741
  750MPD2    C511137   3.791   1.582  11.273 -0.1886  0.3534 -0.3062
  750MPD2     H11138   3.848   1.253  11.466  0.6142  0.7886 -0.4858
  750MPD2    H111139   3.716   1.467  11.123  3.5247 -0.3230 -0.9255
  750MPD2    H211140   3.897   1.665  11.447  1.4036 -0.4605 -0.6741
  750MPD2    H311141   3.761   1.675  11.226  1.7717  1.1888  0.1029
  750MPD2     N11142   3.713   1.226  11.228 -0.2058  0.0858 -1.0468
  750MPD2    H511143   3.669   1.237  11.137  1.6596  3.2578 -1.5739
  750MPD2    N111144   3.926   1.473  11.593 -0.3341  0.5180 -0.1686
  750MPD2    H711145   3.964   1.562  11.625  1.2562 -0.2292  0.0173
  751TMC3    C111146   3.680   0.994  11.180 -0.0848 -0.0614 -0.0117
  751TMC3    C211147   3.627   0.876  11.223  0.3300 -0.2219 -0.2624
  751TMC3    C311148   3.601   0.783  11.128  0.5427 -0.2205 -0.2622
  751TMC3    C411149   3.718   1.019  11.057  0.0598  0.0348  0.0516
  751TMC3    C511150   3.685   0.927  10.964 -0.1210  0.1944 -0.1648
  751TMC3    C611151   3.623   0.808  10.997 -0.0923  0.2740 -0.4466
  751TMC3     C11152   3.727   1.094  11.277  0.0327 -0.1232  0.4347
  751TMC3     O11153   3.785   1.039  11.369  0.0002  0.0678 -0.7015
  751TMC3     H11154   3.605   0.869  11.328 -0.3200 -1.5563 -0.4994
  751TMC3    H111155   3.767   1.112  11.031 -0.7978  0.7424  1.0027
  751TMC3    H211156   3.600   0.733  10.922 -1.4191 -0.1698  0.4087
  751TMC3    C711157   3.765   0.922  10.838 -0.4544  0.3406  0.0042
  751TMC3    C811158   3.509   0.671  11.152  0.3237  0.5908 -0.7193
  751TMC3    O111159   3.875   0.970  10.844  0.4316 -0.0185 -0.1895
  751TMC3    O211160   3.446   0.628  11.057  0.0634 -0.2094  0.2068
  752TMC3    C111161   2.766   0.662  16.108  0.2667 -0.0823  0.3091
  752TMC3    C211162   2.810   0.582  16.008 -0.2201  0.4267 -0.5629
  752TMC3    C311163   2.916   0.505  16.055 -0.1162 -0.4356 -0.3097
  752TMC3    C411164   2.823   0.680  16.229 -0.0901 -0.1672  0.5752
  752TMC3    C511165   2.930   0.606  16.264 -0.2295 -0.2905 -0.0385
  752TMC3    C611166   2.981   0.513  16.176 -0.0902 -0.6164  0.0068
  752TMC3     C11167   2.652   0.750  16.108  0.4190 -0.0086 -0.2893
  752TMC3     O11168   2.607   0.776  16.217  0.5387  0.3253  0.0319
  752TMC3     H11169   2.757   0.574  15.914 -1.7206  0.6188  0.2691
  752TMC3    H111170   2.797   0.750  16.307 -0.5647 -1.4979  1.6093
  752TMC3    H211171   3.060   0.448  16.212  0.3717 -0.4428 -0.7039
  752TMC3    C711172   2.960   0.608  16.406 -0.2836 -0.3271 -1.0015
  752TMC3    C811173   2.995   0.438  15.951 -0.0799  0.7636 -0.3548
  752TMC3    O111174   2.873   0.634  16.485  0.1716 -0.5874  0.0830
  752TMC3    O211175   2.982   0.487  15.840  0.4083 -0.3150  0.3447
  753TMC3    C111176   0.159   2.095  13.496 -0.4785  0.5927 -0.3815
  753TMC3    C211177   0.251   2.066  13.595  0.5554  0.2733 -0.3888
  753TMC3    C311178   0.285   1.937  13.607  0.2862  0.6414  0.2414
  753TMC3    C411179   0.102   1.999  13.415  0.2693  0.2496  0.3381
  753TMC3    C511180   0.164   1.876  13.413  0.4464  0.0179  0.5335
  753TMC3    C611181   0.251   1.840  13.521  1.5558  0.6108  0.1932
  753TMC3     C11182   0.099   2.232  13.486  0.3250 -0.6644 -0.2376
  753TMC3     O11183   0.011   2.252  13.403  0.2532 -0.0127 -0.2846
  753TMC3     H11184   0.307   2.139  13.653  2.4867 -0.1024 -1.7690
  753TMC3    H111185   0.029   2.025  13.339  0.6705 -2.1857 -0.8937
  753TMC3    H211186   0.275   1.735  13.532  1.7498  0.5726 -0.6080
  753TMC3    C711187   0.125   1.777  13.316  0.4410 -0.0921  0.4575
  753TMC3    C811188   0.335   1.891  13.736 -0.1578 -0.6775  0.8503
  753TMC3    O111189   0.013   1.789  13.270 -0.4773  0.3685 -0.7029
  753TMC3    O211190   0.399   1.783  13.744 -0.2934  0.4070 -0.7973
  754MPD2     C11191   3.644   0.972  12.999  0.2936 -0.2340  0.6556
  754MPD2    C111192   3.547   0.869  13.000 -0.6039 -0.5350 -0.5878
  754MPD2    C211193   3.423   0.888  12.950 -0.1186  0.7348  0.4263
  754MPD2    C311194   3.382   1.010  12.899 -0.1522  0.0519 -0.0942
  754MPD2    C411195   3.477   1.108  12.898 -0.6597  0.2825 -0.1141
  754MPD2    C511196   3.607   1.093  12.949  0.1815 -0.6009 -0.5430
  754MPD2     H11197   3.353   0.806  12.952  0.4918  0.1759 -1.0747
  754MPD2    H111198   3.460   1.204  12.849  0.0006 -1.4388 -3.7666
  754MPD2    H211199   3.745   0.956  13.035  0.7255 -1.1114 -0.9427
  754MPD2    H311200   3.682   1.171  12.941 -0.6553  0.3945  1.2399
  754MPD2     N11201   3.253   1.031  12.853  0.1707  0.9818  0.1770
  754MPD2    H511202   3.232   1.125  12.822 -0.2695  0.8565  0.0893
  754MPD2    N111203   3.590   0.754  13.066  0.2503 -0.2650 -0.9323
  754MPD2    H711204   3.689   0.754  13.086  0.3733 -0.9503 -1.5545
  755MPD2     C11205   2.938   1.705  13.219  0.0417  0.2086 -0.2324
  755MPD2    C111206   2.875   1.598  13.280  0.4613 -0.1024 -0.2673
  755MPD2    C211207   2.859   1.485  13.212 -0.0510  0.1192 -0.1727
  755MPD2    C311208   2.924   1.459  13.090 -0.0901 -0.2616  0.0449
  755MPD2    C411209   2.987   1.563  13.033 -0.5132  0.6301  0.1667
  755MPD2    C511210   2.998   1.681  13.096 -0.1868  0.2184  0.2510
  755MPD2     H11211   2.805   1.409  13.268 -2.3792  2.1647  0.3512
  755MPD2    H111212   3.043   1.554  12.941  0.0822  2.3561  0.3706
  755MPD2    H211213   2.945   1.806  13.259 -1.2081  0.4133 -0.5337
  755MPD2    H311214   3.061   1.762  13.060  0.2183  0.1077  0.7214
  755MPD2     N11215   2.925   1.338  13.022 -0.6720  0.1755  0.3786
  755MPD2    H511216   2.992   1.326  12.948  0.5031 -2.9355  1.9408
  755MPD2    N111217   2.822   1.615  13.405 -0.1281  0.6882 -0.2947
  755MPD2    H711218   2.786   1.527  13.441  0.7576 -0.2386 -1.6473
  756MPD2     C11219   4.018   2.001   9.938 -0.7016 -0.2224  0.4886
  756MPD2    C111220   3.888   1.962   9.978 -0.0584  0.7577  1.0841
  756MPD2    C211221   3.776   1.971   9.900 -0.0174  0.5728  0.2871
  756MPD2    C311222   3.802   2.003   9.760 -0.2282 -0.0719 -0.2236
  756MPD2    C411223   3.931   2.024   9.723  0.5185  0.3447 -0.5214
  756MPD2    C511224   4.036   2.034   9.810 -0.2825 -0.2945 -0.1093
  756MPD2     H11225   3.675   1.954   9.935 -0.5210 -0.0509 -1.4671
  756MPD2    H111226   3.954   2.068   9.627  1.6865 -1.0033 -0.8592
  756MPD2    H211227   4.101   1.989  10.008  0.2486  0.3886 -0.5435
  756MPD2    H311228   4.138   2.059   9.781 -0.3841 -0.1944 -0.3743
  756MPD2     N11229   3.700   2.019   9.659  0.4244  0.2767  0.4076
  756MPD2    H511230   3.731   2.051   9.567 -2.6708 -1.0171 -1.0644
  756MPD2    N111231   3.866   1.921  10.109  0.4577 -0.3866 -0.7436
  756MPD2    H711232   3.772   1.921  10.147  0.9092  0.7692  0.3615
  757MPD2     C11233   2.735   1.776   9.488 -0.4789 -0.6146  0.0125
  757MPD2    C111234   2.839   1.712   9.557 -0.4594  0.4395 -0.3254
  757MPD2    C211235   2.963   1.769   9.550 -0.8864  0.3617  0.0357
  757MPD2    C311236   2.985   1.882   9.473  0.1804  0.2464  0.1934
  757MPD2    C411237   2.882   1.936   9.396  0.5000  0.3161 -0.4157
  757MPD2    C511238   2.757   1.874   9.399 -0.0037 -0.2063  0.2957
  757MPD2     H11239   3.046   1.719   9.598  0.5418  1.1254 -1.6378
  757MPD2    H111240   2.898   2.021   9.330 -0.3176  0.4855 -0.3984
  757MPD2    H211241   2.635   1.737   9.498 -0.7983  0.5317  1.2157
  757MPD2    H311242   2.671   1.906   9.341  1.0036 -1.4028 -1.8573
  757MPD2     N11243   3.114   1.936   9.479  0.6354  0.0941  0.1458
  757MPD2    H511244   3.184   1.883   9.530  0.4007 -0.2666  0.0946
  757MPD2    N111245   2.818   1.598   9.641  0.1020 -0.4028 -0.3606
  757MPD2    H711246   2.728   1.552   9.631 -0.9724  1.7721 -0.5993
  758MPD2     C11247   3.467   0.371  15.322 -0.2796  0.2699  0.6621
  758MPD2    C111248   3.518   0.286  15.416  0.4023 -0.4876 -0.3116
  758MPD2    C211249   3.528   0.312  15.554  0.0694  0.0634  0.4562
  758MPD2    C311250   3.493   0.437  15.591 -1.0325 -0.6942  0.1898
  758MPD2    C411251   3.433   0.523  15.498 -1.2791 -0.2321 -0.6499
  758MPD2    C511252   3.411   0.483  15.364  0.0400  0.1923 -0.5793
  758MPD2     H11253   3.570   0.243  15.626 -1.3401 -1.2495  0.0303
  758MPD2    H111254   3.397   0.623  15.518  2.9602  1.7032 -2.7914
  758MPD2    H211255   3.450   0.330  15.223 -0.7725  0.4311  0.6782
  758MPD2    H311256   3.361   0.550  15.296  0.8168  0.8798 -0.4762
  758MPD2     N11257   3.488   0.485  15.728 -0.7898 -0.3712  0.1561
  758MPD2    H511258   3.475   0.585  15.734 -1.1255 -0.5516  2.5505
  758MPD2    N111259   3.578   0.169  15.361 -0.5543  0.1420  0.3231
  758MPD2    H711260   3.599   0.165  15.262 -0.9021  0.1936  0.2482
  759MPD2     C11261   2.616   3.615  10.460 -0.6971  0.4775  0.3419
  759MPD2    C111262   2.504   3.667  10.511 -0.4369  0.6427 -0.4723
  759MPD2    C211263   2.467   3.794  10.482  0.3954  0.0508 -0.6008
  759MPD2    C311264   2.537   3.874  10.392 -0.0070  0.1257 -0.4475
  759MPD2    C411265   2.646   3.819  10.332  0.3552  0.0239  0.3367
  759MPD2    C511266   2.685   3.690  10.370 -0.8893  0.4254 -0.0892
  759MPD2     H11267   2.377   3.840  10.521 -0.7484 -2.5933 -0.0683
  759MPD2    H111268   2.707   3.867  10.257 -0.9757 -1.2126 -1.5196
  759MPD2    H211269   2.647   3.514  10.486 -0.4045  0.0795 -1.5800
  759MPD2    H311270   2.779   3.652  10.330 -0.1538  1.9663  0.1441
  759MPD2     N11271   2.490   4.002  10.359  0.2056 -0.2364 -0.6702
  759MPD2    H511272   2.407   4.038  10.404  2.3183  1.7446  1.6228
  759MPD2    N111273   2.422   3.589  10.597 -0.4905  0.0048 -0.0103
  759MPD2    H711274   2.328   3.623  10.611 -1.9835 -4.3291  0.4864
  760MPD2     C11275   1.940   1.208  11.505  0.1986  0.2897 -0.5239
  760MPD2    C111276   2.074   1.178  11.496 -0.0413  0.1881  1.2373
  760MPD2    C211277   2.120   1.050  11.465  0.2036 -0.0826  0.0352
  760MPD2    C311278   2.033   0.945  11.437  0.8421 -0.4261  0.3838
  760MPD2    C411279   1.895   0.976  11.445  0.5405 -0.7402  0.4336
  760MPD2    C511280   1.851   1.100  11.485 -0.0882  0.5523 -0.0019
  760MPD2     H11281   2.227   1.034  11.474  0.2354 -0.6455 -1.4988
  760MPD2    H111282   1.824   0.898  11.421 -1.6752  0.6094  2.6445
  760MPD2    H211283   1.899   1.303  11.536 -1.4535 -1.1082  1.6675
  760MPD2    H311284   1.744   1.114  11.499 -0.1373 -0.1539  0.3419
  760MPD2     N11285   2.076   0.810  11.428  0.7057  0.0628 -0.1333
  760MPD2    H511286   2.006   0.737  11.441 -0.1775  1.1414  1.1897
  760MPD2    N111287   2.176   1.274  11.527 -0.2487 -0.9056  0.4311
  760MPD2    H711288   2.273   1.247  11.523  0.2501  0.9285  0.0544
  761MPD2     C11289   3.203   0.392  11.446 -0.1337  0.1862 -0.1893
  761MPD2    C111290   3.213   0.398  11.310  0.1406 -0.1497 -0.3614
  761MPD2    C211291   3.312   0.477  11.266 -0.0839 -0.2659  0.2447
  761MPD2    C311292   3.399   0.549  11.337 -0.0038  0.5708  0.0251
  761MPD2    C411293   3.382   0.547  11.471  0.1794  0.8900 -0.3612
  761MPD2    C511294   3.277   0.479  11.521  0.5027  0.6909  0.1167
  761MPD2     H11295   3.330   0.460  11.160 -1.6134 -1.4951  0.1833
  761MPD2    H111296   3.446   0.605  11.536 -0.8384  0.2923  1.1726
  761MPD2    H211297   3.143   0.321  11.503 -0.4195 -0.4876 -1.3272
  761MPD2    H311298   3.263   0.485  11.628  2.0534  3.3768  0.1545
  761MPD2     N11299   3.496   0.637  11.280 -0.8648 -0.4723 -0.2119
  761MPD2    H511300   3.562   0.680  11.345  0.2729  2.0879 -3.0516
  761MPD2    N111301   3.143   0.299  11.229  0.0853  0.4405  0.0597
  761MPD2    H711302   3.094   0.226  11.280  0.9895  0.3240  0.7626
  762MPD2     C11303   2.922   4.580  10.430  0.5940  0.0243 -0.1782
  762MPD2    C111304   3.007   4.662  10.504 -0.2739 -0.1740 -0.3722
  762MPD2    C211305   3.119   4.714  10.443  0.2477  0.4539 -0.5596
  762MPD2    C311306   3.155   4.678  10.313 -0.4622 -0.5072 -0.0383
  762MPD2    C411307   3.071   4.601  10.245 -0.5815  0.4755 -0.4994
  762MPD2    C511308   2.955   4.551  10.302 -0.2815  0.6062 -0.9704
  762MPD2     H11309   3.183   0.046  10.497 -0.6866 -0.2207  1.4227
  762MPD2    H111310   3.085   4.574  10.141  1.2581  1.9204 -0.6236
  762MPD2    H211311   2.822   4.563  10.467  0.1074  1.5283 -0.8131
  762MPD2    H311312   2.886   4.494  10.241  1.4529 -0.3608 -2.0528
  762MPD2     N11313   3.272   4.723  10.250 -0.0104 -0.3491 -0.0837
  762MPD2    H511314   3.298   4.682  10.161 -0.8328  0.2254 -0.5965
  762MPD2    N111315   2.968   4.692  10.635  0.4462 -1.0344  0.4675
  762MPD2    H711316   2.901   4.624  10.671 -0.7749 -1.1954 -2.1324
  763MPD2     C11317   0.746   4.721  16.170  0.1155  0.1562  0.3485
  763MPD2    C111318   0.669   0.078  16.106 -0.4229  0.5568  0.3469
  763MPD2    C211319   0.640   0.202  16.158 -0.3509 -0.3015  0.3442
  763MPD2    C311320   0.698   0.229  16.281  0.2434 -0.1503  0.0773
  763MPD2    C411321   0.789   0.141  16.332  0.4412  0.5537 -0.5784
  763MPD2    C511322   0.807   0.015  16.287  0.2880  0.4556 -0.3282
  763MPD2     H11323   0.569   0.264  16.105 -1.8939 -0.8275  1.7978
  763MPD2    H111324   0.848   0.172  16.417 -2.5436  2.2988  0.8693
  763MPD2    H211325   0.771   4.624  16.128 -0.4297 -0.1118  0.6451
  763MPD2    H311326   0.882   4.682  16.320 -0.3178 -0.0254  0.0268
  763MPD2     N11327   0.686   0.357  16.343 -0.8138  0.8469  0.3940
  763MPD2    H511328   0.741   0.371  16.427  0.3938 -2.6949  0.1889
  763MPD2    N111329   0.599   0.041  15.981 -0.0559 -0.3466 -0.1440
  763MPD2    H711330   0.544   0.113  15.935  0.6713  0.8657  0.8673
  764MPD2     C11331   3.708   1.986  17.585 -0.0438 -0.4311 -0.0637
  764MPD2    C111332   3.578   2.031  17.577 -0.7296 -0.6801  0.0154
  764MPD2    C211333   3.501   2.019  17.694  0.1591  0.3253 -0.4463
  764MPD2    C311334   3.554   1.966   0.066 -0.3349  0.3784  0.0858
  764MPD2    C411335   3.686   1.927   0.062 -0.0926 -0.0552 -0.2340
  764MPD2    C511336   3.760   1.936  17.701 -0.4059 -0.0039 -0.4366
  764MPD2     H11337   3.397   2.050  17.690  0.6055  1.9401  0.3655
  764MPD2    H111338   3.736   1.888   0.150  0.6781  1.3359 -0.0426
  764MPD2    H211339   3.784   1.983  17.508  2.1757  1.6523  2.0298
  764MPD2    H311340   3.862   1.905  17.716 -0.4128  0.1992  0.0227
  764MPD2     N11341   3.462   1.956   0.173  0.1992  0.3099 -0.3069
  764MPD2    H511342   3.367   1.988   0.159  0.1553  0.2305 -0.1894
  764MPD2    N111343   3.522   2.094  17.462 -0.1381 -0.4419 -0.4717
  764MPD2    H711344   3.422   2.107  17.457 -0.3864 -1.0481  2.9140
  765MPD2     C11345   3.265   4.334  15.547 -0.1643 -0.7820  0.1855
  765MPD2    C111346   3.302   4.435  15.462  0.4623 -0.0885 -0.1005
  765MPD2    C211347   3.408   4.409  15.380  0.2753  0.6412 -0.4852
  765MPD2    C311348   3.463   4.280  15.377 -0.1223 -0.2327  0.0373
  765MPD2    C411349   3.423   4.186  15.462 -0.6495 -0.2402  0.3498
  765MPD2    C511350   3.323   4.210  15.551 -0.3222  0.4274  0.5138
  765MPD2     H11351   3.453   4.471  15.304 -0.5363  1.6446 -0.1444
  765MPD2    H111352   3.455   4.082  15.461  0.7741  0.1840  1.6566
  765MPD2    H211353   3.179   4.344  15.612 -1.3705  0.7517 -1.6720
  765MPD2    H311354   3.280   4.132  15.614  0.9488 -0.1935  0.6108
  765MPD2     N11355   3.577   4.264  15.294  0.3949 -0.0529  0.0344
  765MPD2    H511356   3.609   4.346  15.244 -1.0923  0.7417  0.3737
  765MPD2    N111357   3.227   4.553  15.464 -0.1942  0.4730  0.0337
  765MPD2    H711358   3.151   4.554  15.532  0.8639 -2.2888  1.2457
  766MPD2     C11359   2.614   4.650  15.186 -0.2608 -0.1007 -0.3117
  766MPD2    C111360   2.744   4.634  15.199 -0.6357  0.1366 -0.0780
  766MPD2    C211361   2.819   4.570  15.103  0.1907  0.1218  0.4310
  766MPD2    C311362   2.769   4.517  14.993 -0.8822  0.7597 -0.2351
  766MPD2    C411363   2.634   4.536  14.971  0.5659  0.3969  0.8086
  766MPD2    C511364   2.561   4.614  15.067  0.1398  0.1891 -0.8260
  766MPD2     H11365   2.926   4.589  15.109  0.1171  1.1446 -1.3196
  766MPD2    H111366   2.582   4.502  14.882  0.2345  0.5637  0.9386
  766MPD2    H211367   2.549   4.702  15.256  0.6098 -1.8628  1.8154
  766MPD2    H311368   2.462   4.645  15.036 -0.2675  0.2038  0.5066
  766MPD2     N11369   2.851   4.446  14.898  0.2275  0.1330 -0.0323
  766MPD2    H511370   2.809   4.424  14.809 -0.6046 -0.3408  0.4862
  766MPD2    N111371   2.820   4.683  15.304  0.4799  0.5602  0.1187
  766MPD2    H711372   2.918   4.655  15.298  0.2545 -0.6756  2.3778
  767MPD2     C11373   2.280   0.030  14.558 -0.4278 -0.1844  0.0144
  767MPD2    C111374   2.415   0.001  14.565 -0.1005  0.8032  0.3060
  767MPD2    C211375   2.470   4.660  14.469 -0.6929  0.5416  0.1708
  767MPD2    C311376   2.397   4.604  14.371  0.1011  0.3406 -0.6181
  767MPD2    C411377   2.264   4.625  14.367 -0.6208  0.3065 -0.2683
  767MPD2    C511378   2.205   4.710  14.459 -0.2410 -0.3172  0.8272
  767MPD2     H11379   2.577   4.640  14.466 -0.6014  0.8367  1.3791
  767MPD2    H111380   2.198   4.596  14.286 -1.0100  0.8755 -0.1584
  767MPD2    H211381   2.231   0.082  14.640  2.5607  1.8203  0.5292
  767MPD2    H311382   2.100   4.736  14.459 -0.0077  0.6083  2.5090
  767MPD2     N11383   2.458   4.530  14.266 -0.1153 -0.4353 -0.5718
  767MPD2    H511384   2.414   4.514  14.176 -1.1089 -0.7856 -0.0143
  767MPD2    N111385   2.484   0.056  14.677  0.3619  0.0795  0.7398
  767MPD2    H711386   2.423   0.102  14.744 -0.1304 -0.3349  0.5753
  768MPD2     C11387   3.483   3.864  10.387  0.0277 -0.4301  0.3098
  768MPD2    C111388   3.414   3.772  10.462  0.1663  0.7861 -0.1894
  768MPD2    C211389   3.478   3.668  10.525  0.0365  0.0024 -0.2172
  768MPD2    C311390   3.612   3.667  10.535 -0.1436  0.3449  0.1621
  768MPD2    C411391   3.677   3.756  10.455 -0.3548 -0.0598 -0.9425
  768MPD2    C511392   3.621   3.853  10.378 -0.0367  0.1076  0.4278
  768MPD2     H11393   3.409   3.611  10.586 -1.7391  1.1647 -1.1308
  768MPD2    H111394   3.785   3.761  10.461 -0.3973 -1.6843  1.1653
  768MPD2    H211395   3.431   3.936  10.325  0.6306  1.0172  1.5044
  768MPD2    H311396   3.680   3.927  10.325  0.0838 -1.4787 -1.6595
  768MPD2     N11397   3.693   3.582  10.612  0.3834  0.6256  0.2341
  768MPD2    H511398   3.794   3.582  10.605  0.6442  2.5835  4.2134
  768MPD2    N111399   3.271   3.774  10.463  0.8434 -1.0360  0.2005
  768MPD2    H711400   3.234   3.693  10.512 -1.8242  0.1103  0.0703
  769MPD2     C11401   4.661   1.268  14.935  0.4772  0.0717  0.1835
  769MPD2    C111402   4.528   1.272  14.966 -0.2227 -0.3764 -0.2166
  769MPD2    C211403   4.479   1.387  15.021 -0.6175 -0.3439 -0.7658
  769MPD2    C311404   4.557   1.498  15.039  0.1800  0.0411 -0.5596
  769MPD2    C411405   4.685   1.492  15.008 -0.7192 -0.8945 -0.4144
  769MPD2    C511406   0.001   1.380  14.957 -0.0782 -0.1911 -0.1740
  769MPD2     H11407   4.379   1.390  15.062 -0.8740 -0.7758 -1.3771
  769MPD2    H111408   0.014   1.576  15.023 -2.2088  0.0984  0.6022
  769MPD2    H211409   4.702   1.179  14.889  0.1189 -1.5376  2.9850
  769MPD2    H311410   0.108   1.378  14.938 -0.0159 -0.9245  0.2291
  769MPD2     N11411   4.496   1.617  15.090  0.2192  0.3795  0.3573
  769MPD2    H511412   4.400   1.610  15.123 -0.3470  0.9553 -1.1357
  769MPD2    N111413   4.438   1.169  14.952  0.2655 -0.2966  0.3454
  769MPD2    H711414   4.340   1.188  14.971 -0.1633  1.1269 -3.4443
  770MPD2     C11415   4.235   0.141  14.595 -0.1389  0.3575 -0.4299
  770MPD2    C111416   4.122   0.213  14.572  0.1341 -0.2302  0.4853
  770MPD2    C211417   4.116   0.342  14.627  0.8698 -0.0024  0.3741
  770MPD2    C311418   4.228   0.402  14.687 -0.9879 -0.1456 -0.0895
  770MPD2    C411419   4.342   0.325  14.708 -0.4940  0.0866  0.7019
  770MPD2    C511420   4.341   0.191  14.665 -0.1043 -0.1210  0.9985
  770MPD2     H11421   4.040   0.413  14.596  0.1728 -0.1374  1.7949
  770MPD2    H111422   4.433   0.358  14.756 -0.6057  0.7784  0.4480
  770MPD2    H211423   4.242   0.038  14.563  1.4723 -0.1251  1.5291
  770MPD2    H311424   4.431   0.130  14.673 -0.1833 -0.0537  2.3088
  770MPD2     N11425   4.212   0.539  14.722 -0.1505  0.1673 -0.3536
  770MPD2    H511426   4.123   0.586  14.710 -1.2803 -1.5578  1.1670
  770MPD2    N111427   4.018   0.146  14.502 -0.6142 -0.1896  0.0181
  770MPD2    H711428   4.049   0.053  14.475  1.0469  0.6647 -0.9971
  771MPD2     C11429   0.532   4.214  13.849  0.0032  0.6965 -0.7081
  771MPD2    C111430   0.417   4.287  13.830  0.1742  0.3446 -0.0225
  771MPD2    C211431   0.308   4.216  13.770 -0.3459  0.3542 -0.1855
  771MPD2    C311432   0.321   4.094  13.712 -0.2651  0.8312  0.6609
  771MPD2    C411433   0.446   4.032  13.725  0.2192 -0.4555 -0.1877
  771MPD2    C511434   0.544   4.083  13.803 -0.5143  0.1929 -0.2776
  771MPD2     H11435   0.213   4.268  13.757 -1.1746 -0.8675  0.9550
  771MPD2    H111436   0.465   3.929  13.696 -0.7147 -0.5362 -0.5005
  771MPD2    H211437   0.620   4.254  13.898  0.9139  1.3306 -2.8631
  771MPD2    H311438   0.629   4.030  13.843 -0.2491 -0.8334 -2.2044
  771MPD2     N11439   0.210   4.037  13.639  0.0844 -0.1856  0.4361
  771MPD2    H511440   0.122   4.083  13.658  0.9384  1.3629  0.6098
  771MPD2    N111441   0.405   4.424  13.858  0.8289  0.0563 -0.5248
  771MPD2    H711442   0.316   4.466  13.834  1.9443  2.0421 -1.1222
  772MPD2     C11443   4.597   0.146  13.825 -0.3636 -0.0901  0.3916
  772MPD2    C111444   4.673   0.049  13.886 -0.8042 -0.0487  0.4541
  772MPD2    C211445   4.608   4.688  13.946 -0.5408  0.0871 -0.1926
  772MPD2    C311446   4.473   4.683  13.956  0.7558 -0.1282  0.0582
  772MPD2    C411447   4.398   0.045  13.902  0.0471 -0.1226 -0.0044
  772MPD2    C511448   4.462   0.140  13.828 -0.1022  0.6996  0.0737
  772MPD2     H11449   4.674   4.615  13.991 -0.1700  1.0650  0.8297
  772MPD2    H111450   4.290   0.045  13.916  0.4615  2.3932  3.1185
  772MPD2    H211451   4.640   0.223  13.762  0.5265  0.3511  1.5379
  772MPD2    H311452   4.397   0.206  13.770 -0.7156 -1.7347 -1.9975
  772MPD2     N11453   4.407   4.572  14.016  0.0361 -0.0800 -0.8954
  772MPD2    H511454   4.307   4.585  14.017 -0.2151 -2.0744 -0.2320
  772MPD2    N111455   0.078   0.042  13.888  0.3371  0.2658  0.1911
  772MPD2    H711456   0.127   4.713  13.947  0.6833  2.1446  2.0134
  773MPD2     C11457   4.019   0.634   0.247  0.1795 -1.1351 -0.7475
  773MPD2    C111458   3.989   0.564   0.134 -0.3006 -1.3540 -0.5460
  773MPD2    C211459   4.042   0.434   0.125  0.0326  0.1493 -0.3538
  773MPD2    C311460   4.118   0.378   0.229  0.2129  0.1875  0.3881
  773MPD2    C411461   4.155   0.460   0.330  0.4501 -0.1025 -0.2712
  773MPD2    C511462   4.096   0.579   0.350 -0.3309 -0.0908 -0.4305
  773MPD2     H11463   4.030   0.380   0.032 -0.6514 -0.3056 -0.0056
  773MPD2    H111464   4.229   0.420   0.399 -1.7239 -0.7440  1.7009
  773MPD2    H211465   3.967   0.728   0.262  4.0456  0.7278  0.8698
  773MPD2    H311466   4.129   0.638   0.434  0.9025 -0.7016 -0.4786
  773MPD2     N11467   4.173   0.242   0.208  0.1219 -0.1064  0.0642
  773MPD2    H511468   4.133   0.197   0.126 -0.6145  0.1760  0.2686
  773MPD2    N111469   3.918   0.618   0.024  0.3980 -0.7200 -0.0631
  773MPD2    H711470   3.912   0.558  17.691  1.9014  1.6061 -1.9030
  774MPD2     C11471   3.117   4.640  13.221  0.1855 -0.0006 -0.3760
  774MPD2    C111472   3.208   4.629  13.321 -0.9609 -0.1236 -0.0961
  774MPD2    C211473   3.275   0.010  13.348  1.0102 -0.6814 -0.4485
  774MPD2    C311474   3.265   0.119  13.273 -0.4290  0.8475 -0.2493
  774MPD2    C411475   3.173   0.124  13.174 -0.2505  0.1995 -0.1830
  774MPD2    C511476   3.102   0.009  13.147 -0.3586 -0.9331 -0.4714
  774MPD2     H11477   3.332   0.027  13.439  1.4533 -0.5642 -0.7424
  774MPD2    H111478   3.157   0.216  13.118 -1.0171 -0.6864 -1.4251
  774MPD2    H211479   3.050   4.555  13.211  0.1222 -0.0783  0.6759
  774MPD2    H311480   3.020   0.006  13.076 -0.2406 -2.3059 -0.5520
  774MPD2     N11481   3.343   0.234  13.278 -0.0752 -0.5709  0.0523
  774MPD2    H511482   3.320   0.304  13.208  0.8288  1.8897  2.2435
  774MPD2    N111483   3.229   4.507  13.383  0.6509 -0.0558 -0.2317
  774MPD2    H711484   3.156   4.438  13.373  0.5958  0.0031 -0.2316
  775MPD2     C11485   4.562   1.585  15.543  0.2187  0.6549  0.0152
  775MPD2    C111486   4.610   1.680  15.627 -0.5719  0.1862 -0.1830
  775MPD2    C211487   4.720   1.759  15.591  0.6260 -0.4830  0.0010
  775MPD2    C311488   0.041   1.740  15.467 -0.3110 -0.3366 -0.2213
  775MPD2    C411489   4.734   1.634  15.393  0.1306 -0.2872  0.5507
  775MPD2    C511490   4.627   1.563  15.427  0.3559  0.2784  0.1456
  775MPD2     H11491   0.010   1.843  15.655 -1.6870  0.5931 -0.4188
  775MPD2    H111492   0.032   1.610  15.294 -0.8824  0.1141  0.0937
  775MPD2    H211493   4.476   1.524  15.568  0.5808 -1.2080 -3.2436
  775MPD2    H311494   4.585   1.497  15.352 -2.6946  1.7133  0.5921
  775MPD2     N11495   0.155   1.814  15.425  0.4270  0.2876 -0.1004
  775MPD2    H511496   0.181   1.796  15.328  1.2835 -2.9648  0.7334
  775MPD2    N111497   4.545   1.693  15.747 -0.0235 -0.5012  0.6128
  775MPD2    H711498   4.478   1.621  15.771 -0.4780 -0.8843 -1.8114
  776MPD2     C11499   3.693   1.942  12.020  0.1757  0.3323  0.0546
  776MPD2    C111500   3.816   1.912  11.967  0.6536  0.1742  0.5619
  776MPD2    C211501   3.873   2.003  11.882  0.2770  0.2031 -0.1004
  776MPD2    C311502   3.807   2.122  11.845  1.0882  0.0665 -0.0905
  776MPD2    C411503   3.680   2.142  11.901 -0.1024  0.8611  0.0163
  776MPD2    C511504   3.619   2.054  11.982 -0.0023 -0.0725  1.0545
  776MPD2     H11505   3.974   1.995  11.844 -0.0467  0.7274 -1.0732
  776MPD2    H111506   3.619   2.227  11.873 -2.6194 -1.0935 -0.4389
  776MPD2    H211507   3.635   1.877  12.085  1.0794  0.9754  1.5280
  776MPD2    H311508   3.523   2.079  12.027  0.1873  1.5251  0.5796
  776MPD2     N11509   3.855   2.222  11.760  0.0982 -0.7345 -0.4830
  776MPD2    H511510   3.785   2.294  11.744  0.2112  0.0582  2.5713
  776MPD2    N111511   3.877   1.787  11.999 -0.1666 -0.3875  0.2798
  776MPD2    H711512   3.816   1.725  12.052 -1.9569  0.4018 -0.8442
  777MPD2     C11513   4.246   4.082   0.488 -0.6211 -0.2138 -0.1915
  777MPD2    C111514   4.263   3.978   0.574 -0.3179  0.1276 -0.3654
  777MPD2    C211515   4.206   3.855   0.551  0.0016  1.0478 -0.6518
  777MPD2    C311516   4.124   3.839   0.440  0.2778  0.2455  0.3674
  777MPD2    C411517   4.131   3.933   0.344 -0.1341 -0.2427  0.1093
  777MPD2    C511518   4.196   4.052   0.364 -0.8234 -0.8396 -0.1053
  777MPD2     H11519   4.198   3.779   0.628 -0.5533  0.3753 -1.3750
  777MPD2    H111520   4.081   3.931   0.248 -0.2639  2.6781  0.1132
  777MPD2    H211521   4.286   4.180   0.513  3.6757 -2.2124  0.6769
  777MPD2    H311522   4.181   4.131   0.292  1.7856 -1.0564 -0.9091
  777MPD2     N11523   4.045   3.720   0.420  0.2260 -0.3806 -0.6353
  777MPD2    H511524   4.031   3.651   0.493 -0.7345 -1.2670 -1.6554
  777MPD2    N111525   4.339   4.005   0.697 -0.0369  0.6292 -0.7581
  777MPD2    H711526   4.382   4.096   0.708  1.5812 -0.3272  0.6069
  778MPD2     C11527   0.750   4.240  14.659 -0.4729 -0.2781  0.3754
  778MPD2    C111528   0.813   4.125  14.614  0.1578 -0.9225 -0.3801
  778MPD2    C211529   0.935   4.144  14.553  0.9378 -0.5154  0.3013
  778MPD2    C311530   0.991   4.277  14.541 -0.1529 -0.1199 -0.2325
  778MPD2    C411531   0.928   4.382  14.595 -0.0128 -0.2809 -0.0715
  778MPD2    C511532   0.807   4.367  14.655  0.1270 -0.3227  0.0229
  778MPD2     H11533   0.995   4.057  14.529  0.5688 -0.6593 -0.1001
  778MPD2    H111534   0.979   4.478  14.590 -1.9464  0.6901 -1.1619
  778MPD2    H211535   0.650   4.230  14.700 -0.1144 -0.6826  1.1560
  778MPD2    H311536   0.741   4.446  14.688  0.4130 -0.1721  0.2339
  778MPD2     N11537   1.116   4.294  14.473  0.3967  0.4262  0.3047
  778MPD2    H511538   1.167   4.209  14.449  0.4591  0.6087 -0.2128
  778MPD2    N111539   0.754   3.995  14.625  0.1507  0.4544 -0.4627
  778MPD2    H711540   0.799   3.914  14.584 -0.7074  0.1064 -0.7155
  779MPD2     C11541   4.668   2.870  13.985 -0.9449  0.3427  0.3309
  779MPD2    C111542   0.051   2.875  14.053 -0.4360 -0.4925 -0.4851
  779MPD2    C211543   0.130   2.987  14.024  0.0117  0.4904  0.4856
  779MPD2    C311544   0.091   3.092  13.948  0.6467  0.5881  0.6163
  779MPD2    C411545   4.697   3.094  13.906 -0.8934  1.0405  0.1995
  779MPD2    C511546   4.625   2.980  13.914  0.1696  0.9440  0.4477
  779MPD2     H11547   0.228   3.002  14.067  0.7371 -1.1044 -0.5956
  779MPD2    H111548   4.653   3.177  13.852 -1.2087 -1.1626 -2.9179
  779MPD2    H211549   4.599   2.787  13.983  0.0461 -0.5153  1.2428
  779MPD2    H311550   4.523   2.970  13.878  0.1234 -0.8934  1.0986
  779MPD2     N11551   0.184   3.196  13.925  0.3959  0.0093  0.4443
  779MPD2    H511552   0.264   3.200  13.987  0.9838 -1.2856 -0.2275
  779MPD2    N111553   0.108   2.765  14.121  0.2047  0.6000  0.6238
  779MPD2    H711554   0.056   2.678  14.115  0.6680  0.3613  0.0491
  780MPD2     C11555   0.640   2.858   0.677  0.4485 -0.5909  0.1579
  780MPD2    C111556   0.520   2.792   0.665  0.3726  0.5758  0.2886
  780MPD2    C211557   0.425   2.832   0.572  0.2699  0.0305 -0.4383
  780MPD2    C311558   0.457   2.946   0.488 -0.6301 -0.2126 -0.9939
  780MPD2    C411559   0.575   3.006   0.502 -0.1851 -0.2398  0.2274
  780MPD2    C511560   0.667   2.961   0.594 -0.2423 -0.5903  0.3284
  780MPD2     H11561   0.335   2.772   0.559  0.9236 -0.9942 -0.2054
  780MPD2    H111562   0.611   3.082   0.434 -2.2716  0.0181 -0.5901
  780MPD2    H211563   0.719   2.833   0.748 -1.3814 -3.3856  1.2251
  780MPD2    H311564   0.764   3.010   0.596  0.0007 -1.0056 -1.3818
  780MPD2     N11565   0.366   2.985   0.384 -0.1896  0.2352 -0.6661
  780MPD2    H511566   0.302   2.912   0.358  0.0344  0.1742 -1.0515
  780MPD2    N111567   0.499   2.681   0.753  0.0351  0.1406 -0.2622
  780MPD2    H711568   0.574   2.637   0.804  1.4352  0.8372 -1.7307
  781MPD2     C11569   1.625   0.457  12.245 -0.2746 -0.2976 -0.0295
  781MPD2    C111570   1.609   0.327  12.195 -0.0811  0.1848  0.2971
  781MPD2    C211571   1.611   0.295  12.062  0.2612  1.0308 -0.1285
  781MPD2    C311572   1.633   0.399  11.972 -0.5979  0.7264  0.3495
  781MPD2    C411573   1.654   0.528  12.018 -0.3793 -0.0009  0.1174
  781MPD2    C511574   1.643   0.559  12.155  0.0376  0.0586  0.4113
  781MPD2     H11575   1.598   0.190  12.038 -0.4987  1.2149 -0.5437
  781MPD2    H111576   1.663   0.601  11.939  0.6340 -0.2584 -0.0069
  781MPD2    H211577   1.606   0.482  12.349  1.2748  0.0374  0.1786
  781MPD2    H311578   1.660   0.660  12.192 -1.3578 -0.0434  1.3380
  781MPD2     N11579   1.642   0.382  11.829  0.5166  0.2005  0.0160
  781MPD2    H511580   1.675   0.459  11.771 -1.5281  1.1194  0.0639
  781MPD2    N111581   1.591   0.219  12.287  0.0205 -0.4208  0.5815
  781MPD2    H711582   1.583   0.121  12.261  2.8581 -1.1098  2.2403
  782MPD2     C11583   3.948   1.350  10.532 -1.3838  0.3267  0.2043
  782MPD2    C111584   4.070   1.411  10.494  0.4824 -0.3816  0.1471
  782MPD2    C211585   4.166   1.423  10.598  0.4962 -1.0592  0.4301
  782MPD2    C311586   4.140   1.387  10.732 -0.0221 -0.2463  0.2324
  782MPD2    C411587   4.015   1.331  10.761  0.4860  0.6709  0.8019
  782MPD2    C511588   3.922   1.322  10.662  0.1419 -0.3041 -0.2735
  782MPD2     H11589   4.269   1.453  10.584  0.0691  0.2025  0.0302
  782MPD2    H111590   3.994   1.293  10.860 -0.2834 -1.0310 -0.0105
  782MPD2    H211591   3.882   1.310  10.456 -1.6469  1.8552 -0.3728
  782MPD2    H311592   3.827   1.273  10.680  0.1781  0.4836  2.0635
  782MPD2     N11593   4.249   1.389  10.827  0.1627 -0.0295 -0.3844
  782MPD2    H511594   4.328   1.447  10.802 -1.0126  1.6401 -0.2742
  782MPD2    N111595   4.096   1.432  10.362 -0.9377 -0.5457 -0.7797
  782MPD2    H711596   4.026   1.406  10.293  0.9393 -2.2813 -1.9921
  783MPD2     C11597   3.639   0.867  10.494  0.3174 -0.1256 -0.0474
  783MPD2    C111598   3.726   0.903  10.593 -0.3185  0.2860 -0.2949
  783MPD2    C211599   3.857   0.943  10.559  0.1478 -0.6761 -0.1937
  783MPD2    C311600   3.892   0.945  10.429  0.4279 -0.3486 -0.7772
  783MPD2    C411601   3.804   0.907  10.326  0.4412  0.2101  0.0910
  783MPD2    C511602   3.681   0.864  10.363 -0.4796 -0.1271  1.0575
  783MPD2     H11603   3.931   0.974  10.632 -1.0307  1.1043  0.2388
  783MPD2    H111604   3.831   0.906  10.221 -1.5662 -1.9503 -0.3876
  783MPD2    H211605   3.546   0.819  10.524 -0.2179  1.1353  0.2938
  783MPD2    H311606   3.614   0.839  10.281  1.7180  0.4547 -0.9258
  783MPD2     N11607   4.026   0.999  10.399  0.3185 -0.0603 -0.4209
  783MPD2    H511608   4.096   1.006  10.473 -0.0194 -5.3058  0.3897
  783MPD2    N111609   3.678   0.901  10.729 -0.1702  0.7642  0.4488
  783MPD2    H711610   3.583   0.870  10.749  0.0190 -0.2121 -0.1870
  784MPD2     C11611   1.976   0.834   0.353 -0.5304 -0.2503  0.4977
  784MPD2    C111612   1.995   0.955   0.419  0.0611  0.1914  0.3603
  784MPD2    C211613   1.886   1.042   0.425  0.9291 -0.2462  0.3496
  784MPD2    C311614   1.769   1.005   0.371  0.0303  0.7354 -0.5224
  784MPD2    C411615   1.755   0.894   0.293 -0.4537 -0.5133  0.2379
  784MPD2    C511616   1.859   0.807   0.293 -0.3041 -0.4373  0.2912
  784MPD2     H11617   1.908   1.137   0.472 -0.0123  0.3154 -0.3571
  784MPD2    H111618   1.661   0.865   0.247 -0.3811 -1.7633  0.8828
  784MPD2    H211619   2.052   0.757   0.348 -0.3399  0.0161 -0.6832
  784MPD2    H311620   1.841   0.710   0.248  2.2429 -1.1914  0.8711
  784MPD2     N11621   1.667   1.102   0.398  0.3519 -0.0083 -0.6761
  784MPD2    H511622   1.688   1.183   0.455  2.0962 -0.0753 -1.2141
  784MPD2    N111623   2.113   0.998   0.485  0.5198 -0.8186 -0.0801
  784MPD2    H711624   2.118   1.095   0.513 -0.0525 -0.9561  0.4934
  785MPD2     C11625   2.167   4.224  10.949 -1.4261  0.3099  0.1467
  785MPD2    C111626   2.135   4.320  10.856  0.5716 -0.6604 -0.8927
  785MPD2    C211627   2.065   4.279  10.747  0.0372 -0.1769  0.0211
  785MPD2    C311628   2.022   4.151  10.735  0.4592 -0.3115  0.3444
  785MPD2    C411629   2.044   4.056  10.835  0.4037  0.3682  0.1728
  785MPD2    C511630   2.127   4.096  10.934 -0.2060  0.1419  0.6314
  785MPD2     H11631   2.048   4.358  10.675 -3.0373  0.0732  1.0237
  785MPD2    H111632   2.005   3.955  10.829  1.6545  0.0367 -2.5216
  785MPD2    H211633   2.207   4.250  11.046 -1.7198  1.3485 -0.0183
  785MPD2    H311634   2.151   4.028  11.015  0.2984 -1.3328 -0.7522
  785MPD2     N11635   1.945   4.124  10.617  0.1704 -0.2957  0.1480
  785MPD2    H511636   1.951   4.197  10.547 -1.2338  0.3859  0.7373
  785MPD2    N111637   2.156   4.461  10.881 -0.0162  0.4462 -0.2858
  785MPD2    H711638   2.135   4.524  10.804  0.3822 -0.0517 -0.8021
  786MPD2     C11639   0.811   2.312  14.679 -0.5404  0.2441  0.2512
  786MPD2    C111640   0.927   2.248  14.652  0.4333  0.4615 -0.3405
  786MPD2    C211641   1.044   2.307  14.704 -0.6964 -0.1849 -0.1563
  786MPD2    C311642   1.044   2.416  14.788  0.1695  0.1586  0.2802
  786MPD2    C411643   0.925   2.469  14.819  0.4005  0.7916  0.1977
  786MPD2    C511644   0.814   2.425  14.758 -0.1697  0.7053 -0.1021
  786MPD2     H11645   1.138   2.255  14.686 -1.3906 -1.9530  1.3872
  786MPD2    H111646   0.921   2.551  14.890  1.2621  1.7461 -0.8624
  786MPD2    H211647   0.715   2.284  14.635 -1.0340 -1.1593  2.2313
  786MPD2    H311648   0.719   2.476  14.769  0.4213  1.8217 -0.2395
  786MPD2     N11649   1.148   2.467  14.865 -0.1893 -0.3193  0.2399
  786MPD2    H511650   1.130   2.534  14.940 -1.8186  0.7586 -1.1357
  786MPD2    N111651   0.940   2.128  14.578  0.3716  0.2681  0.2843
  786MPD2    H711652   1.032   2.089  14.560  0.2695 -0.4377  1.2663
  787MPD2     C11653   1.425   1.730  14.570 -0.6036  0.5146  0.2538
  787MPD2    C111654   1.359   1.710  14.450 -0.1829  0.5231 -0.1552
  787MPD2    C211655   1.412   1.620  14.357 -0.4733  0.3911 -0.1122
  787MPD2    C311656   1.527   1.550  14.380  0.2783  0.9323 -0.2609
  787MPD2    C411657   1.592   1.569  14.501 -0.3829 -0.2991  0.4333
  787MPD2    C511658   1.544   1.661  14.593 -0.9348  0.7412  0.0697
  787MPD2     H11659   1.361   1.605  14.263  2.3527 -1.6631 -1.3066
  787MPD2    H111660   1.673   1.502  14.528  0.1248  1.3610  3.1172
  787MPD2    H211661   1.390   1.814  14.630  4.7486  2.1689  1.0857
  787MPD2    H311662   1.600   1.682  14.683  0.0019 -0.1044 -0.3160
  787MPD2     N11663   1.569   1.458  14.279  0.2479  0.3259 -0.4270
  787MPD2    H511664   1.499   1.439  14.209 -0.4179  3.7015 -0.6706
  787MPD2    N111665   1.240   1.784  14.423  0.1936  0.6878 -0.4764
  787MPD2    H711666   1.236   1.867  14.481  0.4792  0.0032  0.5274
  788MPD2     C11667   3.695   1.132   0.660  0.6147  0.0892 -0.7082
  788MPD2    C111668   3.609   1.028   0.670 -0.0539  0.5329  0.4153
  788MPD2    C211669   3.475   1.057   0.649 -0.1565 -0.0594 -0.0704
  788MPD2    C311670   3.428   1.185   0.636  0.0787  1.3882  0.2740
  788MPD2    C411671   3.528   1.284   0.626 -0.2131 -0.3293  0.5481
  788MPD2    C511672   3.663   1.258   0.633 -0.3015  0.3862  0.4247
  788MPD2     H11673   3.403   0.976   0.646  0.4548 -0.6251  0.8871
  788MPD2    H111674   3.493   1.385   0.606 -0.7098 -0.7605 -0.7790
  788MPD2    H211675   3.799   1.104   0.653  0.5028 -0.3103 -0.8102
  788MPD2    H311676   3.736   1.333   0.604  2.2882 -1.8994  1.0670
  788MPD2     N11677   3.292   1.221   0.624  0.3068 -0.2115  0.0316
  788MPD2    H511678   3.271   1.320   0.622  3.0917  0.3728  0.2516
  788MPD2    N111679   3.647   0.890   0.681 -0.5888 -0.2889  0.0043
  788MPD2    H711680   3.741   0.859   0.661 -0.5273  1.1017 -1.9333
  789MPD2     C11681   3.251   4.734  16.383 -0.6954 -0.6751  0.0005
  789MPD2    C111682   3.119   4.725  16.329  0.0161 -0.3094 -0.7997
  789MPD2    C211683   3.024   0.074  16.363  0.8841 -0.7811  0.1465
  789MPD2    C311684   3.043   0.159  16.470 -0.4965 -0.7486 -0.0995
  789MPD2    C411685   3.163   0.158  16.541  0.2487  0.4132  0.1121
  789MPD2    C511686   3.266   0.084  16.490  0.1546  0.4091 -0.0438
  789MPD2     H11687   2.927   0.065  16.315  1.3710  2.9647 -1.5212
  789MPD2    H111688   3.165   0.224  16.628 -0.6791 -0.7500  1.0232
  789MPD2    H211689   3.338   4.673  16.365 -0.6310 -0.6084  0.0844
  789MPD2    H311690   3.360   0.087  16.544  0.7240 -1.5532 -0.9322
  789MPD2     N11691   2.932   0.231  16.528 -0.0438  0.5551 -0.2920
  789MPD2    H511692   2.955   0.262  16.622 -0.9292 -1.3658  0.5556
  789MPD2    N111693   3.085   4.621  16.243  0.4827 -0.2928 -0.1147
  789MPD2    H711694   2.990   4.618  16.209  0.8817 -2.4296 -1.0143
  790MPD2     C11695   4.168   1.537  13.257  0.5226 -0.1040  0.0971
  790MPD2    C111696   4.174   1.665  13.211  1.2451 -0.4605  0.3135
  790MPD2    C211697   4.125   1.693  13.085 -0.5772  0.4162  0.6175
  790MPD2    C311698   4.054   1.593  13.017 -0.3005  0.9199 -0.2538
  790MPD2    C411699   4.024   1.475  13.082 -0.5980  0.6011 -0.5839
  790MPD2    C511700   4.087   1.442  13.200  0.3780 -0.3352  1.1399
  790MPD2     H11701   4.151   1.789  13.041 -0.8672  0.2517  0.0872
  790MPD2    H111702   3.954   1.405  13.039  0.2038 -1.7744  1.8985
  790MPD2    H211703   4.207   1.515  13.356  1.0878 -0.7331 -0.2684
  790MPD2    H311704   4.072   1.347  13.250  2.6504 -1.1667  0.2338
  790MPD2     N11705   3.991   1.639  12.902  0.3254 -0.0269  0.3261
  790MPD2    H511706   4.013   1.735  12.879  2.7698 -0.0748  2.4020
  790MPD2    N111707   4.246   1.758  13.290  0.0349 -0.2254 -0.4621
  790MPD2    H711708   4.267   1.724  13.383 -0.9590  0.6106  0.0723
  791MPD2     C11709   3.366   1.893  12.255  0.7397 -0.2162 -0.0988
  791MPD2    C111710   3.377   1.802  12.359  0.2470  0.5406  0.5865
  791MPD2    C211711   3.267   1.729  12.394 -0.1127 -0.3751 -0.4193
  791MPD2    C311712   3.146   1.754  12.327 -0.4450  0.0492  0.3719
  791MPD2    C411713   3.141   1.844  12.219 -0.0969 -0.2236  0.4092
  791MPD2    C511714   3.254   1.914  12.186  0.3486  0.6484 -0.3326
  791MPD2     H11715   3.262   1.661  12.478  0.3186  0.1150  0.0035
  791MPD2    H111716   3.051   1.861  12.161 -0.6757 -0.6720  1.1614
  791MPD2    H211717   3.455   1.941  12.217  0.3690  0.8311  0.3618
  791MPD2    H311718   3.255   1.967  12.091  1.2422 -3.3153 -2.5175
  791MPD2     N11719   3.037   1.677  12.367 -0.5263 -0.2092  0.9225
  791MPD2    H511720   3.054   1.601  12.432 -0.2165 -1.7404 -0.9589
  791MPD2    N111721   3.504   1.801  12.423  0.2398 -0.5689  0.6077
  791MPD2    H711722   3.580   1.858  12.389 -3.5257  2.5746 -2.4839
  792MPD2     C11723   4.269   1.883  11.439  0.0905 -0.2988  0.3209
  792MPD2    C111724   4.195   1.967  11.359 -0.0457  0.6678  0.3303
  792MPD2    C211725   4.074   2.002  11.405 -0.2622  0.2436  0.1599
  792MPD2    C311726   4.018   1.950  11.523 -0.0949 -0.3982  0.6044
  792MPD2    C411727   4.095   1.860  11.593  0.4698 -0.2938 -0.5065
  792MPD2    C511728   4.218   1.827  11.552  0.1712  0.6441  0.2806
  792MPD2     H11729   4.010   2.074  11.354  0.3351  1.5018  1.1722
  792MPD2    H111730   4.054   1.823  11.687 -0.9264  1.3676 -0.4696
  792MPD2    H211731   4.368   1.852  11.410 -0.2991 -0.4311 -0.8805
  792MPD2    H311732   4.279   1.753  11.603 -1.7101 -0.3753  1.0377
  792MPD2     N11733   3.876   1.962  11.555  0.1756  0.3698  0.8677
  792MPD2    H511734   3.847   1.891  11.622 -0.3749 -0.6047 -0.4061
  792MPD2    N111735   4.243   2.002  11.230 -0.2416 -0.7709 -0.3844
  792MPD2    H711736   4.326   1.949  11.205  0.3343  0.7663 -1.7579
  793MPD2     C11737   3.432   2.100  10.731  0.4999 -1.0901  0.2740
  793MPD2    C111738   3.532   2.019  10.773 -0.1722  0.2529  0.5861
  793MPD2    C211739   3.548   1.990  10.906 -0.1249  0.2040  0.7663
  793MPD2    C311740   3.461   2.038  10.996  0.3885 -0.4723  0.6008
  793MPD2    C411741   3.361   2.129  10.952 -0.0059 -0.0632  0.0658
  793MPD2    C511742   3.335   2.145  10.814 -0.0909  0.2284  0.1096
  793MPD2     H11743   3.633   1.934  10.944  0.4531  0.4236 -0.2095
  793MPD2    H111744   3.280   2.158  11.018  0.0406 -0.2867  0.2182
  793MPD2    H211745   3.413   2.104  10.624  1.7839 -1.2983  0.0351
  793MPD2    H311746   3.261   2.207  10.765 -2.1333 -0.2760  2.5534
  793MPD2     N11747   3.474   2.017  11.133 -0.6960  0.0705  0.9913
  793MPD2    H511748   3.427   2.078  11.198  1.2566 -1.2890  3.6561
  793MPD2    N111749   3.627   1.967  10.682 -0.1265 -0.7694 -0.5346
  793MPD2    H711750   3.696   1.906  10.725  1.7794  1.8629  0.1398
  794MPD2     C11751   3.725   1.295  17.282 -0.4869  0.2077 -0.6186
  794MPD2    C111752   3.645   1.185  17.248 -0.7186  0.0377 -0.6184
  794MPD2    C211753   3.551   1.199  17.155  0.4194 -0.0477  0.0360
  794MPD2    C311754   3.528   1.327  17.104  0.1676  0.0165  0.1876
  794MPD2    C411755   3.610   1.432  17.129  0.3087 -0.0226  0.0457
  794MPD2    C511756   3.711   1.416  17.219 -0.2533 -0.1717  0.4904
  794MPD2     H11757   3.490   1.116  17.122 -0.7080  0.2858  1.2562
  794MPD2    H111758   3.595   1.532  17.088  2.4579  1.1033  2.0042
  794MPD2    H211759   3.807   1.287  17.353  0.0446 -1.0759 -1.3685
  794MPD2    H311760   3.772   1.497  17.257 -0.7453 -0.7384  2.4825
  794MPD2     N11761   3.421   1.352  17.018 -0.7827 -0.5943  0.0011
  794MPD2    H511762   3.401   1.444  16.982  0.4197  1.1766  3.8906
  794MPD2    N111763   3.652   1.057  17.308  0.7468  0.0753 -0.1176
  794MPD2    H711764   3.611   0.979  17.258 -0.8188 -0.3871  1.8400
  795MPD2     C11765   1.243   3.381  13.413  0.4346 -0.4379 -0.1645
  795MPD2    C111766   1.162   3.290  13.362  0.6530 -0.4409  0.8339
  795MPD2    C211767   1.210   3.169  13.326 -0.2058 -0.1351 -0.0450
  795MPD2    C311768   1.346   3.133  13.340 -0.2667 -0.1282  0.0924
  795MPD2    C411769   1.428   3.233  13.391  0.0126 -0.0533  0.2729
  795MPD2    C511770   1.384   3.359  13.422 -0.0698 -0.2946  0.1927
  795MPD2     H11771   1.145   3.093  13.286  3.1426 -1.2283 -3.3894
  795MPD2    H111772   1.532   3.206  13.407  0.1686  0.3974  0.0449
  795MPD2    H211773   1.210   3.482  13.436  0.7703 -0.4041  0.1756
  795MPD2    H311774   1.454   3.431  13.461 -0.3577 -0.2613  0.6408
  795MPD2     N11775   1.394   3.000  13.311  0.0315 -0.4404  0.4608
  795MPD2    H511776   1.325   2.925  13.312 -1.4897  0.9465  0.2692
  795MPD2    N111777   1.026   3.315  13.338  0.3166 -0.0355 -0.4358
  795MPD2    H711778   0.972   3.234  13.310  0.3052  0.0395 -0.6286
  796MPD2     C11779   0.895   4.655  15.655 -0.0856  0.2865 -0.1352
  796MPD2    C111780   0.997   4.711  15.726  0.6192  0.5445  0.0553
  796MPD2    C211781   0.980   0.107  15.748 -0.1606 -0.0540  0.0119
  796MPD2    C311782   0.869   0.184  15.719 -0.1072 -0.4772  0.2952
  796MPD2    C411783   0.769   0.122  15.639 -0.0002  1.0274 -0.1179
  796MPD2    C511784   0.790   4.726  15.605  0.1962  0.1472  0.0695
  796MPD2     H11785   1.061   0.145  15.810 -1.4188  1.7383  0.5652
  796MPD2    H111786   0.676   0.166  15.604 -0.9949 -1.0844 -0.1855
  796MPD2    H211787   0.900   4.548  15.637 -2.6188  0.5841 -2.5633
  796MPD2    H311788   0.713   4.665  15.560 -1.3360 -0.4878  3.5439
  796MPD2     N11789   0.868   0.326  15.756 -0.1813 -0.3945 -0.8875
  796MPD2    H511790   0.952   0.360  15.801 -0.7491  0.1069 -0.2080
  796MPD2    N111791   1.115   4.639  15.752 -0.0181  0.0566 -0.3335
  796MPD2    H711792   1.109   4.538  15.749  2.7918 -0.0915 -1.1748
  797MPD2     C11793   2.173   4.449  17.098 -0.9584 -1.0908  0.0325
  797MPD2    C111794   2.193   4.590  17.104  0.8330 -0.1055  0.0349
  797MPD2    C211795   2.141   4.666  17.006  0.1255 -0.3302 -0.6005
  797MPD2    C311796   2.072   4.607  16.898 -0.2155 -0.4050  0.5568
  797MPD2    C411797   2.066   4.469  16.890 -0.1889  0.9433 -0.3197
  797MPD2    C511798   2.123   4.388  16.990  0.2582 -0.6844  0.6306
  797MPD2     H11799   2.156   0.036  17.014 -1.1500 -0.2143  0.3223
  797MPD2    H111800   2.025   4.423  16.801 -1.5231  0.3042  0.6189
  797MPD2    H211801   2.208   4.381  17.174  1.5146 -0.4583 -0.5329
  797MPD2    H311802   2.119   4.279  16.986 -3.0842 -0.4812 -0.9993
  797MPD2     N11803   2.011   4.683  16.792  0.0906 -0.0591 -1.1383
  797MPD2    H511804   1.982   4.645  16.703 -0.5014  0.6242 -1.2365
  797MPD2    N111805   2.266   4.654  17.203  0.7016  0.6362  0.1677
  797MPD2    H711806   2.297   0.011  17.187  0.7939  0.7618  1.1058
  798MPD2     C11807   2.112   0.640  17.035 -0.7868 -0.0623  0.1394
  798MPD2    C111808   2.159   0.528  16.975 -0.2818 -0.1137 -0.6667
  798MPD2    C211809   2.244   0.447  17.045 -0.2217  0.1510  0.1469
  798MPD2    C311810   2.278   0.473  17.181  0.0726 -0.0330  0.8946
  798MPD2    C411811   2.226   0.583  17.245 -0.0318 -0.0149  0.3016
  798MPD2    C511812   2.139   0.659  17.169  0.3655  0.9844  0.4299
  798MPD2     H11813   2.269   0.352  16.999  1.0697  0.0725  1.0214
  798MPD2    H111814   2.240   0.595  17.352  0.8946 -0.8638  0.2792
  798MPD2    H211815   2.028   0.695  16.992  0.3276 -0.0019 -1.9521
  798MPD2    H311816   2.078   0.734  17.218  0.2601 -0.5262  2.6314
  798MPD2     N11817   2.344   0.362  17.239 -0.6604  0.0315  0.4494
  798MPD2    H511818   2.381   0.286  17.183 -1.4256  0.4879 -0.6583
  798MPD2    N111819   2.114   0.503  16.842 -0.4989  0.0401  0.2466
  798MPD2    H711820   2.029   0.547  16.808 -0.9446 -0.0885  1.1885
  799MPD2     C11821   1.144   1.168  14.587  0.2211  0.1801 -0.4770
  799MPD2    C111822   1.029   1.120  14.532  0.0156 -0.1010 -0.0736
  799MPD2    C211823   0.980   1.199  14.426  0.1000  1.0012 -0.3104
  799MPD2    C311824   1.042   1.311  14.372 -0.5175 -0.0523  0.3405
  799MPD2    C411825   1.168   1.343  14.423 -0.0085 -0.3146 -0.1170
  799MPD2    C511826   1.221   1.266  14.525 -0.3143  0.7805 -0.2684
  799MPD2     H11827   0.890   1.162  14.378 -2.0824  4.3504  1.1831
  799MPD2    H111828   1.229   1.429  14.399 -0.2453 -1.1003 -3.4527
  799MPD2    H211829   1.178   1.124  14.681  0.5892  3.3085  0.8847
  799MPD2    H311830   1.314   1.298  14.569  0.4078 -0.5058 -0.8516
  799MPD2     N11831   0.981   1.398  14.282 -0.2069 -0.0497  0.0471
  799MPD2    H511832   1.039   1.475  14.251  0.3899 -0.6213 -0.2700
  799MPD2    N111833   0.958   1.002  14.584 -0.1045  0.1023  0.0041
  799MPD2    H711834   0.877   0.978  14.527  0.0745  1.1731 -0.7039
  800MPD2     C11835   1.321   2.557  14.384  0.2324 -0.5357 -0.2267
  800MPD2    C111836   1.319   2.547  14.244 -0.0566  0.1027 -0.1439
  800MPD2    C211837   1.199   2.514  14.178 -0.2958  0.4261  0.2984
  800MPD2    C311838   1.083   2.486  14.247 -0.1053  0.7855 -0.2591
  800MPD2    C411839   1.091   2.482  14.385 -0.8068  0.4897 -0.3371
  800MPD2    C511840   1.203   2.526  14.452 -0.2091  0.6571 -0.1218
  800MPD2     H11841   1.210   2.496  14.072  3.2729  0.3239  0.6688
  800MPD2    H111842   1.011   2.444  14.448  0.6975 -1.9098  0.1425
  800MPD2    H211843   1.415   2.587  14.430 -0.7366  1.6779  0.2858
  800MPD2    H311844   1.210   2.516  14.560  0.9455  0.7878 -0.1834
  800MPD2     N11845   0.974   2.429  14.186  0.2933  0.1278  0.1788
  800MPD2    H511846   0.911   2.375  14.245 -0.2873  0.0189 -0.5339
  800MPD2    N111847   1.447   2.563  14.182  0.2429  0.2274 -0.2202
  800MPD2    H711848   1.530   2.572  14.240 -0.7705 -0.9461  1.4177
  801MPD2     C11849   1.747   3.067  13.701 -0.5391  0.5199 -0.0285
  801MPD2    C111850   1.642   3.000  13.753 -0.2475 -0.7196 -0.0926
  801MPD2    C211851   1.516   3.060  13.780 -0.3379  0.1313 -0.1771
  801MPD2    C311852   1.503   3.192  13.759  0.3525  0.4742 -0.5569
  801MPD2    C411853   1.606   3.258  13.699 -0.2847 -0.1304 -0.1701
  801MPD2    C511854   1.732   3.196  13.673  0.7912 -0.6212  0.0762
  801MPD2     H11855   1.424   3.008  13.804 -0.8670 -0.7939 -4.1930
  801MPD2    H111856   1.597   3.363  13.674  0.9860 -0.0137 -0.1121
  801MPD2    H211857   1.841   3.023  13.671 -1.0719 -1.8562  1.7592
  801MPD2    H311858   1.814   3.253  13.630 -0.3913  0.8842 -0.1789
  801MPD2     N11859   1.392   3.265  13.792 -0.2609  0.0100 -0.1356
  801MPD2    H511860   1.383   3.359  13.754  0.9581 -0.8663 -2.5907
  801MPD2    N111861   1.659   2.859  13.778  0.1832  0.3268  0.5039
  801MPD2    H711862   1.574   2.806  13.794 -0.8258  2.0902  0.8815
  802MPD2     C11863   1.169   3.874   0.007  0.0369 -0.8426  0.2582
  802MPD2    C111864   1.057   3.840  17.688 -0.0145 -0.1585 -0.2322
  802MPD2    C211865   1.055   3.727  17.606  0.2611 -0.2648 -0.7459
  802MPD2    C311866   1.162   3.641  17.600  0.1015 -0.3152  0.0257
  802MPD2    C411867   1.277   3.671  17.676 -0.5065  0.2663  0.1651
  802MPD2    C511868   1.275   3.782   0.008 -0.0004 -0.1960  0.5288
  802MPD2     H11869   0.968   3.718  17.542  0.5017 -0.9861 -0.9647
  802MPD2    H111870   1.365   3.608  17.682  1.1445  2.4687 -1.1408
  802MPD2    H211871   1.172   3.950   0.083  1.9825  0.4590 -1.1002
  802MPD2    H311872   1.363   3.804   0.067  1.3982  0.3373 -1.7552
  802MPD2     N11873   1.149   3.528  17.521 -0.3576  0.4576 -0.3393
  802MPD2    H511874   1.060   3.509  17.477 -0.8182 -2.5276  1.8385
  802MPD2    N111875   0.936   3.909  17.711 -0.0388  0.0466 -0.4078
  802MPD2    H711876   0.852   3.881  17.661 -1.7192 -0.5968  2.7450
  803MPD2     C11877   1.569   1.379  12.191  0.2458  0.7238 -0.5401
  803MPD2    C111878   1.694   1.433  12.207 -0.8229  0.5637  0.1826
  803MPD2    C211879   1.724   1.477  12.337  0.4468  0.5251 -0.4593
  803MPD2    C311880   1.636   1.469  12.443  0.1196  0.5815  0.1851
  803MPD2    C411881   1.506   1.424  12.413 -0.4622  0.4462  0.4537
  803MPD2    C511882   1.476   1.380  12.287  0.1773 -0.0139  0.6234
  803MPD2     H11883   1.827   1.512  12.334  0.2391  1.3829  2.1210
  803MPD2    H111884   1.429   1.422  12.489 -0.4212  1.3858  0.5232
  803MPD2    H211885   1.529   1.377  12.090  0.5082 -1.1183 -0.6002
  803MPD2    H311886   1.375   1.349  12.265  1.4321 -2.3679 -1.7729
  803MPD2     N11887   1.669   1.505  12.574  0.1635 -0.5854  0.3397
  803MPD2    H511888   1.595   1.525  12.640  1.3233 -0.7518  1.7015
  803MPD2    N111889   1.790   1.458  12.103 -0.3967  0.1406  0.3686
  803MPD2    H711890   1.872   1.514  12.127 -0.6660 -0.1562  2.0287
  804MPD2     C11891   1.350   3.267  16.936  0.5281 -0.8685  0.0309
  804MPD2    C111892   1.404   3.221  17.052 -0.0190  0.3214 -1.1916
  804MPD2    C211893   1.450   3.322  17.134  0.7658 -0.3423 -0.5680
  804MPD2    C311894   1.423   3.452  17.123  0.4259  1.2476  0.1195
  804MPD2    C411895   1.353   3.496  17.015  0.4283  0.2573 -0.3288
  804MPD2    C511896   1.321   3.401  16.918 -1.1858  1.1054  0.1856
  804MPD2     H11897   1.501   3.300  17.228 -0.9130  0.3804  0.5039
  804MPD2    H111898   1.315   3.597  17.003  2.0588  1.1779  2.3423
  804MPD2    H211899   1.312   3.201  16.859  0.8480  0.3837 -1.1898
  804MPD2    H311900   1.264   3.423  16.829  0.4309 -3.3317 -1.9662
  804MPD2     N11901   1.472   3.537  17.220 -0.7286  0.0645  0.2542
  804MPD2    H511902   1.526   3.491  17.293 -1.1345  0.4590  0.8011
  804MPD2    N111903   1.410   3.087  17.088  0.7185 -0.2017  0.3443
  804MPD2    H711904   1.456   3.047  17.170  0.9944  1.2158  0.8739
  805MPD2     C11905   0.683   1.236  15.570  0.2578  0.0174 -1.3897
  805MPD2    C111906   0.786   1.305  15.518  0.1946  1.1289  0.4019
  805MPD2    C211907   0.903   1.313  15.588 -0.3542 -0.4759 -0.1069
  805MPD2    C311908   0.923   1.236  15.702  1.1759  0.7484  0.4439
  805MPD2    C411909   0.820   1.174  15.759 -0.3025 -0.1781 -0.1411
  805MPD2    C511910   0.698   1.179  15.696  0.4271  0.1759  0.2001
  805MPD2     H11911   0.970   1.391  15.555 -2.8260  1.7644  0.1341
  805MPD2    H111912   0.831   1.126  15.855 -1.0946  2.3617  1.1960
  805MPD2    H211913   0.587   1.228  15.520  0.7446  0.2246 -2.3695
  805MPD2    H311914   0.622   1.115  15.740  1.1594 -0.9598 -0.1881
  805MPD2     N11915   1.041   1.259  15.779 -0.1086 -0.4164  0.5565
  805MPD2    H511916   1.100   1.339  15.760 -2.9644  1.7967  1.1306
  805MPD2    N111917   0.779   1.375  15.391 -0.1236  0.5126  0.8255
  805MPD2    H711918   0.864   1.411  15.349 -0.0124 -0.1190  0.5108
  806MPD2     C11919   1.707   0.270   0.174  0.0157 -0.2007  0.5572
  806MPD2    C111920   1.643   0.379   0.228  0.6465  0.5738 -0.0619
  806MPD2    C211921   1.637   0.489   0.148 -0.5087  0.4822 -0.5118
  806MPD2    C311922   1.700   0.499   0.026 -0.7383  0.3560 -0.4011
  806MPD2    C411923   1.768   0.390  17.731 -0.2975 -0.4773 -1.1294
  806MPD2    C511924   1.776   0.278   0.057  0.1779  0.0051 -0.7455
  806MPD2     H11925   1.586   0.579   0.180  0.3866  0.3070  1.3722
  806MPD2    H111926   1.819   0.396  17.636 -1.4362 -1.7024 -1.8273
  806MPD2    H211927   1.725   0.179   0.229  1.9642 -0.5125 -0.6274
  806MPD2    H311928   1.832   0.194   0.018  1.8621  0.2886  1.0313
  806MPD2     N11929   1.696   0.630  17.706 -0.1264 -0.3153  0.4463
  806MPD2    H511930   1.637   0.700   0.000 -0.8769 -0.7085  0.0546
  806MPD2    N111931   1.574   0.368   0.351  0.1085  0.1733  0.2303
  806MPD2    H711932   1.593   0.281   0.399  1.1822 -0.7593 -1.8883
  807MPD2     C11933   1.523   4.622   0.909  0.2567 -0.0080 -0.2052
  807MPD2    C111934   1.418   4.705   0.940  0.3885 -0.3166  0.5165
  807MPD2    C211935   1.322   4.670   1.033 -0.0195 -0.3324  0.3709
  807MPD2    C311936   1.346   4.564   1.118  0.0398  0.1710 -0.0657
  807MPD2    C411937   1.464   4.491   1.097  0.1245  0.0016 -0.3712
  807MPD2    C511938   1.543   4.515   0.988  0.2477 -0.8415  0.7877
  807MPD2     H11939   1.237   4.736   1.045 -1.1360 -1.9599  1.3075
  807MPD2    H111940   1.480   4.400   1.154 -0.5912  0.6433  0.8311
  807MPD2    H211941   1.599   4.644   0.834  1.1973 -2.5124 -0.0105
  807MPD2    H311942   1.630   4.452   0.976  0.5058 -0.5100  0.9360
  807MPD2     N11943   1.250   4.539   1.222  0.2745  0.3452  0.0479
  807MPD2    H511944   1.175   4.607   1.231 -0.4031 -0.3027 -0.6980
  807MPD2    N111945   1.384   0.080   0.862 -0.4280 -0.1623 -0.1909
  807MPD2    H711946   1.301   0.135   0.878 -1.4090 -2.0268  1.1876
  808MPD2     C11947   1.734   2.767   9.525 -0.0129  0.1376 -0.1000
  808MPD2    C111948   1.656   2.810   9.634 -0.6590  0.8752  0.3397
  808MPD2    C211949   1.661   2.943   9.681 -0.1672 -0.5450  0.4692
  808MPD2    C311950   1.728   3.037   9.610  0.3834  0.5800  0.2456
  808MPD2    C411951   1.810   2.991   9.502  0.5607  0.4498  0.2188
  808MPD2    C511952   1.809   2.862   9.461 -0.4391  0.8888  0.6104
  808MPD2     H11953   1.612   2.971   9.773 -2.5286 -1.4203 -0.5116
  808MPD2    H111954   1.870   3.065   9.451 -0.5961  1.9410  0.9981
  808MPD2    H211955   1.733   2.663   9.496  3.1152  0.2137 -0.5485
  808MPD2    H311956   1.865   2.838   9.372 -1.1531 -0.2272  0.4621
  808MPD2     N11957   1.726   3.177   9.644 -0.3595 -0.0221 -0.8743
  808MPD2    H511958   1.777   3.243   9.586 -2.5897 -0.8285 -3.7528
  808MPD2    N111959   1.599   2.711   9.715 -0.0072  0.6403  0.2570
  808MPD2    H711960   1.547   2.743   9.796  1.3478 -0.1392  1.4488
  809MPD2     C11961   2.208   3.944   9.397 -0.2718 -0.6315  0.1180
  809MPD2    C111962   2.202   3.809   9.431  0.3143  0.6497 -0.1288
  809MPD2    C211963   2.100   3.753   9.502 -1.3821  0.7606 -0.2410
  809MPD2    C311964   1.990   3.827   9.533 -0.0275 -0.1686 -0.0460
  809MPD2    C411965   1.996   3.963   9.515 -0.4140  0.2276  1.0607
  809MPD2    C511966   2.109   4.019   9.447  0.6926 -0.6163  0.1561
  809MPD2     H11967   2.111   3.648   9.526 -0.1986  0.3833 -2.4940
  809MPD2    H111968   1.905   4.010   9.549 -1.4461  0.4775 -2.1007
  809MPD2    H211969   2.292   3.989   9.345 -1.3987  2.3600  0.8544
  809MPD2    H311970   2.110   4.124   9.418  1.2612 -0.4403  0.8204
  809MPD2     N11971   1.874   3.774   9.593 -0.1908  0.5101  0.4094
  809MPD2    H511972   1.805   3.836   9.635 -0.9818 -0.2778  0.2665
  809MPD2    N111973   2.297   3.711   9.388 -0.1590  0.0171  0.0160
  809MPD2    H711974   2.290   3.613   9.413  0.0490  0.7341  2.7858
  810MPD2     C11975   1.240   1.779  10.591  0.5963 -0.5431  0.1798
  810MPD2    C111976   1.213   1.788  10.456 -0.3873  0.7231 -0.2966
  810MPD2    C211977   1.215   1.917  10.395  0.5680 -0.3627 -0.9011
  810MPD2    C311978   1.234   2.027  10.474 -0.2889  0.0420 -0.0702
  810MPD2    C411979   1.256   2.016  10.609  0.3613  0.1636 -0.5265
  810MPD2    C511980   1.257   1.892  10.666 -0.0733 -0.0116  0.0040
  810MPD2     H11981   1.188   1.929  10.291 -0.7976 -0.3197 -0.5338
  810MPD2    H111982   1.275   2.102  10.672 -1.2686  0.2125 -0.1259
  810MPD2    H211983   1.253   1.685  10.644 -0.2669 -1.3772 -1.0919
  810MPD2    H311984   1.291   1.879  10.769  1.1380 -1.0009 -0.5156
  810MPD2     N11985   1.221   2.159  10.420 -0.1621 -0.4858  0.2020
  810MPD2    H511986   1.195   2.232  10.485  2.2644  0.7268 -0.1749
  810MPD2    N111987   1.169   1.674  10.383 -0.0896  0.1900  0.0899
  810MPD2    H711988   1.157   1.588  10.435  0.5446  0.9377  1.4976
  811MPD2     C11989   0.487   1.528   9.786  0.4810 -0.2736  0.1077
  811MPD2    C111990   0.604   1.592   9.828 -0.7737  0.5651  0.0243
  811MPD2    C211991   0.616   1.724   9.794 -0.2435 -0.7761  0.5789
  811MPD2    C311992   0.513   1.793   9.726 -0.5870  0.0759  0.3949
  811MPD2    C411993   0.400   1.726   9.685  0.6627 -0.3539  0.4425
  811MPD2    C511994   0.387   1.593   9.722 -0.4366  0.0181  0.6543
  811MPD2     H11995   0.695   1.783   9.839 -1.1151  0.7168  0.1382
  811MPD2    H111996   0.314   1.777   9.642 -0.0857 -1.7883  0.2392
  811MPD2    H211997   0.460   1.427   9.814 -1.3476 -0.4580 -2.4045
  811MPD2    H311998   0.294   1.542   9.697 -0.6344 -0.4355  2.2888
  811MPD2     N11999   0.539   1.926   9.697 -0.0200  0.0255  0.2554
  811MPD2    H512000   0.628   1.966   9.724  0.0137 -0.7239  1.2556
  811MPD2    N112001   0.706   1.524   9.895  0.0262 -0.0998  0.5222
  811MPD2    H712002   0.678   1.436   9.937 -2.2863  0.2535 -0.2828
  812MPD2     C12003   4.539   1.515  11.820  1.0380 -0.5560 -0.1395
  812MPD2    C112004   4.584   1.627  11.888 -0.2879  0.5664  0.2079
  812MPD2    C212005   4.609   1.619  12.021  0.3025  0.2826  0.1766
  812MPD2    C312006   4.585   1.505  12.096 -0.4271 -0.3093  1.0024
  812MPD2    C412007   4.530   1.402  12.030  0.5111 -0.1807  0.6693
  812MPD2    C512008   4.509   1.403  11.895  0.5534  0.3331  0.0219
  812MPD2     H12009   4.661   1.696  12.077 -0.5204  2.0831 -1.5258
  812MPD2    H112010   4.505   1.304  12.070 -1.8217 -0.3763 -1.2188
  812MPD2    H212011   4.514   1.514  11.715 -1.0219 -1.6614  0.3508
  812MPD2    H312012   4.459   1.320  11.847  1.7612 -0.0643 -0.5515
  812MPD2     N12013   4.621   1.500  12.231  0.2270 -0.2308  0.1290
  812MPD2    H512014   4.667   1.572  12.285  0.9068 -0.7884  0.3017
  812MPD2    N112015   4.612   1.742  11.816 -0.2865  0.2183 -0.0081
  812MPD2    H712016   4.601   1.739  11.715 -0.2767  0.5326 -0.0198
  813MPD2     C12017   3.990   3.283  12.690  0.4726 -0.2389  0.1622
  813MPD2    C112018   3.957   3.403  12.769 -0.3442 -0.2177 -0.3162
  813MPD2    C212019   3.818   3.431  12.790  0.1998 -0.2639 -0.3568
  813MPD2    C312020   3.716   3.356  12.739 -0.3818  0.6666 -0.2216
  813MPD2    C412021   3.753   3.241  12.669  0.0225 -0.3579  0.1755
  813MPD2    C512022   3.885   3.204  12.645  0.2862  0.3254  0.0531
  813MPD2     H12023   3.798   3.517  12.853  0.1774  0.1296 -0.8938
  813MPD2    H112024   3.686   3.167  12.627  1.6393 -1.4923 -0.4085
  813MPD2    H212025   4.089   3.258  12.655 -1.2631 -3.2825 -2.4489
  813MPD2    H312026   3.895   3.122  12.575 -2.6896 -0.7285  0.8765
  813MPD2     N12027   3.581   3.379  12.781  0.0221 -0.1584  0.6052
  813MPD2    H512028   3.559   3.475  12.805  2.1920  0.1692  1.2681
  813MPD2    N112029   4.048   3.486  12.834 -0.1125 -0.2198 -0.6087
  813MPD2    H712030   4.010   3.560  12.894 -0.2680 -2.3042  1.8631
  814MPD2     C12031   4.035   4.440  12.549  0.4652 -0.1768  1.0198
  814MPD2    C112032   4.070   4.556  12.495  0.3938  0.1494 -0.2351
  814MPD2    C212033   4.152   4.639  12.569 -0.0922 -0.0817 -0.2382
  814MPD2    C312034   4.210   4.600  12.687 -0.1007 -0.5446  0.1281
  814MPD2    C412035   4.169   4.472  12.737 -0.3426 -0.2243 -0.7285
  814MPD2    C512036   4.082   4.391  12.670  0.0711 -0.3688 -0.3386
  814MPD2     H12037   4.183   4.731  12.521 -1.0637  0.4310  0.1119
  814MPD2    H112038   4.219   4.429  12.823  1.2332 -0.9629 -2.0191
  814MPD2    H212039   3.961   4.380  12.497  1.6743 -2.0226  1.4052
  814MPD2    H312040   4.057   4.289  12.698 -1.1146  0.1127  0.3572
  814MPD2     N12041   4.309   4.673  12.752 -0.3959 -0.2183  0.2549
  814MPD2    H512042   4.368   4.618  12.814  0.0733  1.4420  1.2718
  814MPD2    N112043   4.038   4.602  12.367 -0.0915  0.0022  0.4181
  814MPD2    H712044   4.066   4.699  12.354 -0.3082  0.0397  0.2237
  815MPD2     C12045   0.122   3.405  11.445  0.7463 -0.3866 -0.8062
  815MPD2    C112046   0.076   3.276  11.403 -0.3619 -0.3517 -0.5981
  815MPD2    C212047   4.696   3.226  11.471 -0.2679 -0.8546 -0.0374
  815MPD2    C312048   4.638   3.294  11.579 -0.3236  0.7350  0.5881
  815MPD2    C412049   4.706   3.397  11.635  0.5702 -0.3383 -0.8235
  815MPD2    C512050   0.076   3.449  11.564  0.0445 -0.5949 -0.3965
  815MPD2     H12051   4.638   3.140  11.440 -0.2725 -1.1375  0.7588
  815MPD2    H112052   4.676   3.456  11.721  0.5326  0.2877 -1.2647
  815MPD2    H212053   0.201   3.461  11.395  0.6169 -0.6131 -1.2667
  815MPD2    H312054   0.112   3.546  11.596  1.1359 -1.5492  1.2929
  815MPD2     N12055   4.524   3.243  11.641  0.1077 -0.7107 -0.0592
  815MPD2    H512056   4.487   3.160  11.595 -0.7261  0.3539 -1.3054
  815MPD2    N112057   0.129   3.218  11.283  0.2240 -0.0753 -0.0462
  815MPD2    H712058   0.201   3.272  11.237  0.0425  0.6552  0.5269
  816MPD2     C12059   0.621   2.718  17.271 -0.5367 -0.5403 -0.0791
  816MPD2    C112060   0.505   2.676  17.210 -0.2173 -0.0415 -0.0256
  816MPD2    C212061   0.515   2.571  17.120  0.0860 -0.6910 -0.3056
  816MPD2    C312062   0.633   2.509  17.084  0.4635 -0.7256  0.3420
  816MPD2    C412063   0.749   2.573  17.130 -0.2907  0.0054 -0.2192
  816MPD2    C512064   0.739   2.671  17.224  0.3563 -0.5273  0.7936
  816MPD2     H12065   0.426   2.516  17.090  0.8693 -0.7091 -2.5831
  816MPD2    H112066   0.848   2.550  17.093 -1.4794 -3.3567 -1.2830
  816MPD2    H212067   0.618   2.797  17.345 -2.6072  0.4249 -1.1988
  816MPD2    H312068   0.825   2.719  17.269  1.6402 -0.7655 -1.3786
  816MPD2     N12069   0.622   2.393  17.001 -0.3612 -0.0612 -0.1591
  816MPD2    H512070   0.529   2.369  16.970 -0.9965  1.2496  0.7337
  816MPD2    N112071   0.374   2.734  17.241  0.2986  1.1002  0.1845
  816MPD2    H712072   0.370   2.798  17.320  1.9534  0.6310  0.6361
  817MPD2     C12073   4.292   4.462   9.341  0.4775 -0.1088  0.6550
  817MPD2    C112074   4.190   4.372   9.332  0.1611 -0.1769 -0.7449
  817MPD2    C212075   4.070   4.403   9.271 -0.1155 -0.3173 -0.2778
  817MPD2    C312076   4.043   4.528   9.224  0.4583  0.2938 -0.1825
  817MPD2    C412077   4.143   4.626   9.236 -0.1616  0.1627  0.6447
  817MPD2    C512078   4.259   4.593   9.297  0.3445  0.5790  0.4453
  817MPD2     H12079   3.996   4.324   9.269  3.1672 -3.3601 -0.2257
  817MPD2    H112080   4.116   4.724   9.197  0.3463 -0.8917 -2.3232
  817MPD2    H212081   4.385   4.435   9.390 -0.8169 -0.6543  2.7925
  817MPD2    H312082   4.321   4.680   9.311  0.0034  0.6994  1.2050
  817MPD2     N12083   3.919   4.554   9.161 -0.8251  0.3565 -0.0460
  817MPD2    H512084   3.850   4.480   9.159 -1.1395  0.6328  0.4931
  817MPD2    N112085   4.203   4.238   9.380  0.1058  0.0977  0.8585
  817MPD2    H712086   4.125   4.177   9.358  0.3621 -0.1053  0.5241
  818MPD2     C12087   2.965   4.657   9.808  0.0871 -0.0659 -0.0067
  818MPD2    C112088   2.883   4.592   9.903 -0.4783  0.6143  0.7885
  818MPD2    C212089   2.869   4.456   9.898  0.0986  0.1373  0.5633
  818MPD2    C312090   2.944   4.385   9.813  0.1237 -0.0267  0.1218
  818MPD2    C412091   3.029   4.444   9.726  0.7940  0.3317 -0.0475
  818MPD2    C512092   3.039   4.581   9.724  0.3831 -0.5217  1.0660
  818MPD2     H12093   2.826   4.400   9.980 -1.0260 -1.5640 -1.1971
  818MPD2    H112094   3.091   4.389   9.657 -0.8865 -0.5825 -0.8438
  818MPD2    H212095   2.970   0.028   9.799 -0.5615 -0.1992 -1.9580
  818MPD2    H312096   3.113   4.629   9.662 -2.7085  1.1681 -1.2854
  818MPD2     N12097   2.945   4.244   9.820 -0.4306  1.1942 -0.4676
  818MPD2    H512098   3.019   4.188   9.777 -0.7657 -0.9967  1.8115
  818MPD2    N112099   2.807   4.644  10.003 -0.2902  0.0709  0.0926
  818MPD2    H712100   2.741   4.577  10.040 -2.1733  0.3482 -2.7229
  819MPD2     C12101   1.359   1.057  15.692  0.1856 -0.8303 -0.4666
  819MPD2    C112102   1.408   0.930  15.660  0.7370  0.0810 -0.4244
  819MPD2    C212103   1.525   0.889  15.724 -0.0752  0.2891  0.3026
  819MPD2    C312104   1.590   0.965  15.821 -0.1300  0.0626 -0.1534
  819MPD2    C412105   1.549   1.099  15.842 -0.8838  0.0709 -0.7783
  819MPD2    C512106   1.435   1.138  15.779  0.1951 -0.3279  0.4833
  819MPD2     H12107   1.567   0.790  15.706  0.5673  0.4750  0.7821
  819MPD2    H112108   1.592   1.157  15.923 -0.6767 -1.9527  0.5793
  819MPD2    H212109   1.259   1.090  15.664  0.6504  0.6363 -0.3724
  819MPD2    H312110   1.394   1.236  15.803 -0.4465 -0.6050  0.5188
  819MPD2     N12111   1.697   0.907  15.887  0.2196  0.2771 -0.2085
  819MPD2    H512112   1.726   0.821  15.841  1.4968  0.0222  1.0979
  819MPD2    N112113   1.330   0.854  15.573 -0.2206  0.3940  0.2756
  819MPD2    H712114   1.244   0.901  15.544 -2.5861 -3.8495  0.4090
  820MPD2     C12115   0.607   0.971  14.951  0.5948 -0.2504 -0.0831
  820MPD2    C112116   0.727   1.026  14.970 -0.2142 -0.2592 -0.5460
  820MPD2    C212117   0.821   0.955  15.040 -0.0373  0.4802  0.0413
  820MPD2    C312118   0.796   0.826  15.087  0.1696 -0.4050 -0.1643
  820MPD2    C412119   0.677   0.773  15.065 -0.5602 -0.0099  0.1764
  820MPD2    C512120   0.581   0.841  14.993  0.3474 -0.4440  0.2650
  820MPD2     H12121   0.916   1.004  15.056  0.2819 -0.4889  1.1857
  820MPD2    H112122   0.650   0.675  15.102 -0.8198  0.7553  2.0163
  820MPD2    H212123   0.534   1.021  14.887  0.1686  0.0828  0.6669
  820MPD2    H312124   0.486   0.791  14.976  1.6580 -2.7022 -0.4980
  820MPD2     N12125   0.892   0.750  15.165  0.0594  0.3930  0.4386
  820MPD2    H512126   0.867   0.657  15.198 -1.4658  0.6421 -0.0163
  820MPD2    N112127   0.745   1.161  14.920  0.1319  0.0869  1.1982
  820MPD2    H712128   0.665   1.205  14.875  2.2223  0.0761 -2.5367
  821MPD2     C12129   1.054   2.304  13.363  0.3371 -0.0058  0.4082
  821MPD2    C112130   1.130   2.237  13.457  0.2188  0.1345 -0.1824
  821MPD2    C212131   1.260   2.211  13.422 -0.2167 -0.2520 -0.0086
  821MPD2    C312132   1.318   2.253  13.304  0.4380  0.1625  0.6069
  821MPD2    C412133   1.238   2.319  13.208  0.0175  0.1191  0.0239
  821MPD2    C512134   1.108   2.348  13.243 -0.1474  0.5007  0.3391
  821MPD2     H12135   1.324   2.158  13.492 -0.0786  0.0852  0.1191
  821MPD2    H112136   1.282   2.369  13.122 -0.7571  2.0756  0.7521
  821MPD2    H212137   0.948   2.327  13.374 -0.5970 -2.6172 -3.2758
  821MPD2    H312138   1.041   2.406  13.181  0.2959  2.1197  1.3768
  821MPD2     N12139   1.456   2.235  13.266  0.1674  0.6824 -0.2749
  821MPD2    H512140   1.483   2.295  13.189  0.6393  1.2578  0.3376
  821MPD2    N112141   1.085   2.204  13.587  0.0262 -0.0693 -0.0845
  821MPD2    H712142   1.148   2.138  13.632  0.4907  0.4826  0.0727
  822MPD2     C12143   2.305   2.173  15.736 -0.1698 -0.2507  0.1137
  822MPD2    C112144   2.313   2.152  15.870  0.0702 -0.3395  0.1771
  822MPD2    C212145   2.265   2.248  15.958  0.2683 -0.0216  0.3112
  822MPD2    C312146   2.205   2.367  15.913  1.1675 -0.5822  0.0463
  822MPD2    C412147   2.175   2.372  15.778 -1.3445 -0.0136  0.0134
  822MPD2    C512148   2.224   2.274  15.697  0.3867  0.7976 -0.6390
  822MPD2     H12149   2.294   2.226  16.060 -0.2716  1.0708  0.7074
  822MPD2    H112150   2.140   2.468  15.740  0.8312 -1.4111 -5.4431
  822MPD2    H212151   2.351   2.107  15.663 -1.5843  0.3362 -1.3113
  822MPD2    H312152   2.227   2.289  15.590 -4.7931  1.0837 -0.7510
  822MPD2     N12153   2.172   2.471  16.010  0.0781 -0.3118 -0.1267
  822MPD2    H512154   2.198   2.450  16.106  0.7229 -2.1739 -0.7056
  822MPD2    N112155   2.370   2.038  15.930  0.0579  0.4352 -0.8543
  822MPD2    H712156   2.380   2.040  16.031  3.0800 -1.4919 -1.1061
  823MPD2     C12157   1.826   2.760  16.742  0.1478 -0.0576  0.0250
  823MPD2    C112158   1.847   2.652  16.656  0.1254 -0.6080  0.0573
  823MPD2    C212159   1.853   2.521  16.704 -0.0425 -1.1147  0.5220
  823MPD2    C312160   1.847   2.496  16.843  0.0421  0.5951 -0.2388
  823MPD2    C412161   1.830   2.604  16.926  0.9597  0.3080 -0.3932
  823MPD2    C512162   1.813   2.727  16.873 -0.3105  0.1499 -0.0721
  823MPD2     H12163   1.843   2.439  16.635  0.9537 -1.0564  0.3179
  823MPD2    H112164   1.812   2.591  17.032 -2.2582 -1.0643 -1.1355
  823MPD2    H212165   1.810   2.860  16.703 -0.1017 -0.1079 -0.0019
  823MPD2    H312166   1.785   2.803  16.946 -4.2132 -0.4260 -0.9802
  823MPD2     N12167   1.844   2.368  16.899  0.0493  0.0166  0.3618
  823MPD2    H512168   1.855   2.375  17.000 -0.3415 -1.4494  0.5006
  823MPD2    N112169   1.863   2.687  16.520  0.4536  0.6030  0.0210
  823MPD2    H712170   1.842   2.785  16.503  2.1782  0.4829 -2.8494
  824MPD2     C12171   2.924   1.376  16.017 -0.7499 -0.0045 -0.7742
  824MPD2    C112172   2.864   1.455  15.914 -0.3330  0.7641 -0.4491
  824MPD2    C212173   2.879   1.409  15.783  0.0811 -0.2523  0.2183
  824MPD2    C312174   2.945   1.287  15.754 -0.0328  1.1875  0.0832
  824MPD2    C412175   2.995   1.214  15.858 -0.2055  0.2337  0.0679
  824MPD2    C512176   2.991   1.260  15.986  0.5942 -0.0102 -0.0145
  824MPD2     H12177   2.830   1.466  15.705  0.6120 -0.4399 -0.2463
  824MPD2    H112178   3.039   1.118  15.834 -0.9598 -0.3045  0.8280
  824MPD2    H212179   2.896   1.381  16.121  0.9345  2.0879 -0.4249
  824MPD2    H312180   3.014   1.192  16.068  2.0352 -0.3377 -0.6803
  824MPD2     N12181   2.963   1.247  15.615  0.6305  0.3340  1.0529
  824MPD2    H512182   2.920   1.312  15.551  0.4373 -0.7187  0.1124
  824MPD2    N112183   2.785   1.572  15.933 -0.5379 -0.7532  0.1378
  824MPD2    H712184   2.741   1.609  15.850 -1.3279 -0.2362  0.7859
  825MPD2     C12185   3.466   1.466  14.977 -0.0198 -0.3675  0.0789
  825MPD2    C112186   3.396   1.501  15.093  0.1696  0.0156 -0.1863
  825MPD2    C212187   3.392   1.634  15.130 -0.5381 -0.3444  0.8819
  825MPD2    C312188   3.463   1.728  15.052  0.1629  0.7158  0.3772
  825MPD2    C412189   3.537   1.686  14.948  0.5690  0.3107 -0.6095
  825MPD2    C512190   3.541   1.560  14.910  0.1122 -0.4259 -0.5920
  825MPD2     H12191   3.335   1.665  15.217  0.7106  1.6463  1.0139
  825MPD2    H112192   3.609   1.751  14.900  0.1749  1.7635  0.7917
  825MPD2    H212193   3.468   1.366  14.935  1.2038  0.9782 -3.0278
  825MPD2    H312194   3.598   1.522  14.826 -0.4058  0.6699 -1.4413
  825MPD2     N12195   3.466   1.866  15.087  0.8404  0.2390  0.7109
  825MPD2    H512196   3.514   1.926  15.019 -0.6556  0.7164  0.0820
  825MPD2    N112197   3.338   1.396  15.162  0.2408 -0.2070  0.1983
  825MPD2    H712198   3.348   1.300  15.129  1.5859  0.6623 -1.9020
  826MPD2     C12199   3.104   1.664  13.989  0.5421  0.0913 -0.0817
  826MPD2    C112200   3.081   1.714  13.866 -0.0530 -0.7496 -0.2342
  826MPD2    C212201   2.979   1.814  13.854 -0.5140 -0.3179 -0.2181
  826MPD2    C312202   2.902   1.858  13.962 -0.4083 -0.0021 -0.5643
  826MPD2    C412203   2.930   1.802  14.091 -0.1836  0.0946 -0.8231
  826MPD2    C512204   3.028   1.701  14.098 -0.4510 -0.2510 -0.0971
  826MPD2     H12205   2.975   1.873  13.763  0.7095 -0.7050 -0.5161
  826MPD2    H112206   2.868   1.828  14.176  0.2217  0.7078 -0.7113
  826MPD2    H212207   3.176   1.586  14.007 -0.0165 -0.4724 -0.2953
  826MPD2    H312208   3.055   1.655  14.193 -1.3428  1.3151  0.9280
  826MPD2     N12209   2.800   1.957  13.954  0.0788 -0.4005 -0.1063
  826MPD2    H512210   2.741   1.958  14.036 -0.9436 -0.5689 -0.8410
  826MPD2    N112211   3.164   1.666  13.760  0.4990 -0.5514 -0.7106
  826MPD2    H712212   3.228   1.591  13.783  0.8822 -0.3941 -1.2759
  827MPD2     C12213   3.575   3.221   9.978  0.5537 -0.1805 -0.3799
  827MPD2    C112214   3.570   3.082  10.006 -0.2849 -0.6642  0.5539
  827MPD2    C212215   3.467   3.010   9.949 -0.1754  0.0808  0.1690
  827MPD2    C312216   3.370   3.075   9.873  0.3639 -1.2612 -0.3678
  827MPD2    C412217   3.378   3.210   9.850  0.1982 -0.4607  0.3444
  827MPD2    C512218   3.475   3.281   9.906 -0.2353 -0.0934  0.7795
  827MPD2     H12219   3.459   2.903   9.969 -1.4773  0.3332  1.0464
  827MPD2    H112220   3.304   3.267   9.794  1.7296 -0.2578 -1.4568
  827MPD2    H212221   3.661   3.271  10.023  0.5113  0.2318 -0.7620
  827MPD2    H312222   3.480   3.388   9.888 -0.9606 -0.3927 -1.1910
  827MPD2     N12223   3.276   2.997   9.810 -0.5400 -0.4647  0.4247
  827MPD2    H512224   3.282   2.902   9.844  1.7543  0.4253  2.4763
  827MPD2    N112225   3.676   3.017  10.077  0.7889  0.0901 -0.9755
  827MPD2    H712226   3.756   3.076  10.099 -0.1119  1.1809 -0.6161
  828MPD2     C12227   1.836   2.550  12.215  0.1984  0.3246 -0.5876
  828MPD2    C112228   1.877   2.671  12.159 -0.0639 -0.1027 -0.3237
  828MPD2    C212229   2.002   2.678  12.093 -0.4501 -0.4813 -0.1749
  828MPD2    C312230   2.093   2.572  12.104  0.2660  0.5592  0.1873
  828MPD2    C412231   2.054   2.456  12.169  0.1307 -0.1860  0.2667
  828MPD2    C512232   1.928   2.450  12.225 -0.4420 -0.2147 -0.6105
  828MPD2     H12233   2.040   2.766  12.041  2.4335 -0.8443  1.3050
  828MPD2    H112234   2.116   2.369  12.181  1.8214  1.1753  1.4163
  828MPD2    H212235   1.743   2.530  12.267  1.3522 -1.3069  0.8496
  828MPD2    H312236   1.901   2.362  12.282 -0.9086  0.3580  0.0486
  828MPD2     N12237   2.224   2.569  12.052 -0.6161 -0.1323 -0.0238
  828MPD2    H512238   2.278   2.487  12.076  0.1937  0.1978 -0.7211
  828MPD2    N112239   1.795   2.785  12.163 -0.1683 -0.4691 -0.6651
  828MPD2    H712240   1.824   2.864  12.107 -2.2444  1.2657  0.6744
  829MPD2     C12241   1.852   3.552  11.723  0.5928  0.0524  0.3269
  829MPD2    C112242   1.720   3.520  11.723  0.5038 -0.1254  0.2990
  829MPD2    C212243   1.679   3.405  11.783  0.2662  1.1273 -0.1247
  829MPD2    C312244   1.760   3.317  11.854  0.4711  0.7384 -0.3974
  829MPD2    C412245   1.887   3.352  11.857 -0.4928 -0.8260  0.4438
  829MPD2    C512246   1.939   3.462  11.792  0.0535 -0.3678  0.2140
  829MPD2     H12247   1.572   3.406  11.793  0.5135 -1.7253  2.9957
  829MPD2    H112248   1.959   3.287  11.906  2.3230  2.8039  1.0795
  829MPD2    H212249   1.885   3.643  11.673  3.3637 -1.8161 -1.2307
  829MPD2    H312250   2.045   3.484  11.789  0.1403 -0.6207  1.3048
  829MPD2     N12251   1.714   3.210  11.925  0.0324 -0.0272  0.3414
  829MPD2    H512252   1.781   3.150  11.971 -0.2160 -0.8421 -0.3495
  829MPD2    N112253   1.635   3.613  11.654 -0.2177  0.3453  0.2566
  829MPD2    H712254   1.682   3.692  11.611  1.8496 -0.6052  0.7728
  830MPD2     C12255   2.417   0.469  15.885  0.9574  0.0381  0.1684
  830MPD2    C112256   2.347   0.571  15.832 -0.4341 -0.0856  0.0178
  830MPD2    C212257   2.384   0.618  15.702 -0.1265 -0.2537 -0.6575
  830MPD2    C312258   2.504   0.578  15.640  0.0550  0.5878  0.1789
  830MPD2    C412259   2.580   0.481  15.709  0.0175  0.4150  0.5043
  830MPD2    C512260   2.536   0.427  15.830 -0.5218  0.2832  1.3743
  830MPD2     H12261   2.331   0.700  15.655  1.3477  1.3886  0.5631
  830MPD2    H112262   2.677   0.450  15.672 -0.2332  1.1634 -0.7976
  830MPD2    H212263   2.381   0.419  15.974  0.5460  0.5930  0.3134
  830MPD2    H312264   2.602   0.359  15.882  1.4226 -1.1741 -2.9995
  830MPD2     N12265   2.556   0.631  15.522  0.1785  0.3523  0.7205
  830MPD2    H512266   2.656   0.617  15.506  0.4254  0.3466  2.2458
  830MPD2    N112267   2.244   0.624  15.911  0.2073  0.4886  0.7476
  830MPD2    H712268   2.243   0.599  16.010  0.7868  0.1808  0.6755
  831MPD2     C12269   2.391   2.519  16.360  0.5251 -0.2705  0.3358
  831MPD2    C112270   2.408   2.400  16.292  0.2090 -0.1793 -0.0281
  831MPD2    C212271   2.314   2.302  16.305  0.3780  0.5145 -0.1402
  831MPD2    C312272   2.203   2.320  16.394 -0.2773  0.3463  0.3947
  831MPD2    C412273   2.198   2.429  16.475  0.2922  0.1430 -0.0643
  831MPD2    C512274   2.295   2.525  16.456  0.0565 -0.1155  0.4555
  831MPD2     H12275   2.331   2.202  16.268 -1.1902  0.3592 -0.4482
  831MPD2    H112276   2.120   2.462  16.542 -0.7719  1.2889 -1.8438
  831MPD2    H212277   2.466   2.597  16.350  1.3674 -1.1439 -0.1727
  831MPD2    H312278   2.289   2.614  16.519  2.7400  0.5232 -0.2054
  831MPD2     N12279   2.108   2.221  16.407 -0.4378 -0.4662 -0.0974
  831MPD2    H512280   2.038   2.238  16.479 -0.3964 -0.0294 -0.1568
  831MPD2    N112281   2.515   2.387  16.199 -0.2712  0.1128  0.0973
  831MPD2    H712282   2.560   2.471  16.163  1.9008 -1.7580 -1.5622
  832MPD2     C12283   0.366   3.543  17.145 -0.3814  0.6032  0.5812
  832MPD2    C112284   0.377   3.656  17.064  0.1342 -0.7785  0.3764
  832MPD2    C212285   0.266   3.698  16.984 -0.4956  0.1827 -0.6571
  832MPD2    C312286   0.153   3.620  16.994  0.5950  0.5981 -0.2187
  832MPD2    C412287   0.144   3.505  17.072 -0.4461 -0.8443  0.0389
  832MPD2    C512288   0.251   3.471  17.150 -0.1822 -0.0554  0.4147
  832MPD2     H12289   0.273   3.797  16.939  1.2565  0.5155  0.3472
  832MPD2    H112290   0.064   3.431  17.072  1.0403 -2.4461  1.6396
  832MPD2    H212291   0.447   3.500  17.203  0.5063  0.5690 -0.6673
  832MPD2    H312292   0.251   3.379  17.207  0.7559 -1.1256 -1.3100
  832MPD2     N12293   0.032   3.652  16.931  0.1563  0.0207  0.2343
  832MPD2    H512294   4.693   3.588  16.944  0.0427  0.2721  0.7770
  832MPD2    N112295   0.499   3.726  17.073 -0.1001 -0.7691  0.1767
  832MPD2    H712296   0.561   3.692  17.145 -0.9301  0.5638  1.5226
  833MPD2     C12297   2.404   1.025  12.488  0.3776  0.0049 -0.0055
  833MPD2    C112298   2.318   0.961  12.406 -0.2405  0.5160  1.0881
  833MPD2    C212299   2.365   0.900  12.289 -0.1113 -0.0077 -0.0487
  833MPD2    C312300   2.494   0.913  12.254 -0.6668 -0.2290  0.4438
  833MPD2    C412301   2.583   0.988  12.337  0.0676  0.3545  0.0597
  833MPD2    C512302   2.534   1.047  12.450  0.1311 -0.2544 -0.0667
  833MPD2     H12303   2.303   0.849  12.216 -0.6301  2.1611 -1.1282
  833MPD2    H112304   2.688   1.006  12.320 -0.1591  0.1397 -1.5370
  833MPD2    H212305   2.375   1.068  12.583 -1.1585  1.9356 -1.3465
  833MPD2    H312306   2.588   1.115  12.516  0.2023  0.3356 -0.7284
  833MPD2     N12307   2.539   0.850  12.135  0.5950  0.0193  0.1468
  833MPD2    H512308   2.467   0.801  12.083 -1.4417  3.1258  0.0648
  833MPD2    N112309   2.178   0.952  12.424 -0.3998 -0.5639 -0.1470
  833MPD2    H712310   2.120   0.894  12.364 -0.2573  0.0169 -0.8447
  834MPD2     C12311   2.832   4.661  11.842  0.6426  0.1803  0.5617
  834MPD2    C112312   2.759   4.731  11.747 -0.1293  0.1657 -0.2166
  834MPD2    C212313   2.716   0.120  11.774 -0.3878  0.6842  0.8708
  834MPD2    C312314   2.750   0.182  11.890  0.3285  0.3312  0.2728
  834MPD2    C412315   2.823   0.117  11.989 -0.3049 -0.1973 -0.4312
  834MPD2    C512316   2.857   4.724  11.965 -0.5619 -0.2345 -0.6205
  834MPD2     H12317   2.653   0.175  11.705  0.0411 -2.7304 -2.2355
  834MPD2    H112318   2.848   0.160  12.085 -1.5472 -1.3734  0.4223
  834MPD2    H212319   2.858   4.556  11.833  2.8757  0.7632  0.3804
  834MPD2    H312320   2.911   4.674  12.044 -0.5077 -0.3905 -0.7552
  834MPD2     N12321   2.693   0.307  11.901  0.3580  0.8644 -0.3732
  834MPD2    H512322   2.645   0.345  11.819  0.7331  0.8079 -0.6161
  834MPD2    N112323   2.733   4.666  11.629  0.2797  0.3604 -0.2373
  834MPD2    H712324   2.762   4.569  11.625 -1.0183 -0.0640  0.6931
  835MPD2     C12325   2.872   3.541  11.176 -0.4394 -0.2854  0.1108
  835MPD2    C112326   2.783   3.501  11.266 -0.0422  0.4916 -0.0042
  835MPD2    C212327   2.822   3.447  11.385 -0.0554 -0.0757 -0.0532
  835MPD2    C312328   2.954   3.427  11.413 -0.0513  0.7202  0.0586
  835MPD2    C412329   3.042   3.450  11.310 -0.7652 -0.7475 -0.1778
  835MPD2    C512330   3.000   3.514  11.196  0.3290 -0.5519  0.2233
  835MPD2     H12331   2.746   3.432  11.461 -1.9181  1.0690 -1.6947
  835MPD2    H112332   3.148   3.429  11.322 -0.1938  1.3029 -1.7488
  835MPD2    H212333   2.849   3.591  11.083 -2.1457 -0.7089  0.3196
  835MPD2    H312334   3.078   3.542  11.126  1.1176  2.7174  2.4043
  835MPD2     N12335   3.002   3.377  11.531 -0.1528  0.4668  0.2565
  835MPD2    H512336   3.096   3.341  11.521 -1.0644 -0.9711 -3.1142
  835MPD2    N112337   2.651   3.542  11.265  0.0332 -0.3267 -0.3430
  835MPD2    H712338   2.604   3.546  11.355 -0.5029  2.3707 -0.7535
  836MPD2     C12339   2.904   2.632  12.075 -0.2285  0.5316  0.9821
  836MPD2    C112340   2.837   2.755  12.056 -0.1658  0.1469 -0.6233
  836MPD2    C212341   2.716   2.772  12.121  0.1760 -0.0977  0.2619
  836MPD2    C312342   2.654   2.667  12.189 -0.0780  0.4739 -0.6546
  836MPD2    C412343   2.718   2.544  12.184 -0.4361 -0.0165 -0.2742
  836MPD2    C512344   2.841   2.524  12.122 -0.2357 -0.3618  0.9416
  836MPD2     H12345   2.669   2.867  12.102 -1.2796 -0.8246  0.2549
  836MPD2    H112346   2.670   2.463  12.238 -2.6254 -0.0393 -2.2689
  836MPD2    H212347   3.006   2.625  12.041 -0.6043  0.5209 -0.1407
  836MPD2    H312348   2.888   2.427  12.129  0.3095 -0.0576  1.4152
  836MPD2     N12349   2.530   2.672  12.258  1.0248 -0.0266  0.3366
  836MPD2    H512350   2.497   2.591  12.308  1.2292 -0.1410  0.2857
  836MPD2    N112351   2.901   2.856  11.986  0.0980  0.3409 -0.0790
  836MPD2    H712352   2.986   2.821  11.943  0.2581 -0.0115  0.5314
  837MPD2     C12353   1.035   2.460   9.905  0.3756 -0.4297 -0.8195
  837MPD2    C112354   0.907   2.505   9.905  0.5351 -0.0456  0.6971
  837MPD2    C212355   0.884   2.627   9.957  0.4715  0.3209 -0.5938
  837MPD2    C312356   0.990   2.714   9.986 -0.0702 -0.0001  0.1582
  837MPD2    C412357   1.115   2.681   9.951  0.1286 -0.3924  0.1765
  837MPD2    C512358   1.139   2.545   9.938  0.2051  0.2548  0.0356
  837MPD2     H12359   0.780   2.657   9.970  0.9442  1.9630 -0.6724
  837MPD2    H112360   1.202   2.745   9.959 -0.1347  0.0616 -0.4947
  837MPD2    H212361   1.063   2.357   9.886  1.6911 -0.1920 -0.1525
  837MPD2    H312362   1.234   2.493   9.933 -0.5294 -0.9919 -0.9153
  837MPD2     N12363   0.955   2.851  10.007  0.2449 -0.7518 -0.9243
  837MPD2    H512364   0.861   2.874  10.038  0.1964 -1.1980 -0.7339
  837MPD2    N112365   0.796   2.431   9.863  0.2921 -0.5548  0.1841
  837MPD2    H712366   0.706   2.455   9.904  0.0561 -0.4695 -0.3864
  838MPD2     C12367   3.869   0.948  11.829  0.5805  0.4149  0.8330
  838MPD2    C112368   3.906   0.859  11.925 -0.2956 -0.2597  0.0764
  838MPD2    C212369   3.825   0.751  11.953  0.1588  0.0940 -0.8682
  838MPD2    C312370   3.720   0.728  11.870 -0.6218 -0.4506  0.3067
  838MPD2    C412371   3.682   0.822  11.770 -0.3856 -0.4125  0.3553
  838MPD2    C512372   3.762   0.933  11.748 -0.0938 -0.0967  0.2691
  838MPD2     H12373   3.847   0.677  12.030 -1.3143  1.0594  0.4741
  838MPD2    H112374   3.588   0.810  11.717 -1.6631  0.6540  2.3993
  838MPD2    H212375   3.925   1.038  11.807 -0.8991  0.3994 -3.0818
  838MPD2    H312376   3.738   1.004  11.670  3.0369 -0.8438 -1.3521
  838MPD2     N12377   3.648   0.613  11.904  0.3120 -0.4006 -0.3645
  838MPD2    H512378   3.683   0.567  11.987 -0.9557 -0.0962  0.3429
  838MPD2    N112379   4.033   0.868  12.003  0.1946  0.6116  0.0087
  838MPD2    H712380   4.052   0.796  12.072  1.5715 -0.4546 -1.4956
  839MPD2     C12381   3.826   0.278  12.071 -0.2052 -0.4523  0.6011
  839MPD2    C112382   3.866   0.348  11.953 -0.3089 -0.3572  0.1793
  839MPD2    C212383   3.973   0.439  11.970  0.1721 -0.1334 -0.4475
  839MPD2    C312384   4.042   0.451  12.090 -0.3595 -0.3391  0.2042
  839MPD2    C412385   3.997   0.386  12.198  0.0310 -0.0575  0.1851
  839MPD2    C512386   3.888   0.302  12.189  0.1259 -0.5140  0.3543
  839MPD2     H12387   4.001   0.500  11.885 -3.7534  2.6744  0.2795
  839MPD2    H112388   4.053   0.393  12.290  0.6501  1.4273 -0.3063
  839MPD2    H212389   3.747   0.205  12.060  0.8237 -1.4480 -0.2260
  839MPD2    H312390   3.849   0.251  12.275 -3.0312  1.0616 -0.1586
  839MPD2     N12391   4.149   0.538  12.108 -0.5449 -0.0410 -0.2207
  839MPD2    H512392   4.180   0.557  12.203 -1.0939 -1.1651  0.1778
  839MPD2    N112393   3.808   0.330  11.819  0.0732  0.3010 -0.2317
  839MPD2    H712394   3.840   0.392  11.745 -1.8551  0.8264 -0.6427
  840MPD2     C12395   4.485   3.002  10.293 -0.5897  0.0221 -0.2066
  840MPD2    C112396   4.369   3.075  10.286 -0.0435 -0.1755 -0.6078
  840MPD2    C212397   4.387   3.212  10.257 -0.6842  0.0086 -0.0001
  840MPD2    C312398   4.510   3.272  10.262  0.5309  0.7082  0.7064
  840MPD2    C412399   4.620   3.192  10.281 -0.8582  0.2870  0.1827
  840MPD2    C512400   4.610   3.060  10.302  0.0860  0.4777 -0.1820
  840MPD2     H12401   4.294   3.263  10.276 -0.1683  0.6853  0.7059
  840MPD2    H112402   4.715   3.236  10.310  1.2991 -3.2775 -1.5905
  840MPD2    H212403   4.478   2.895  10.312 -0.0599  0.4551  2.3733
  840MPD2    H312404   4.702   3.007  10.321  0.9166  1.9307 -0.1515
  840MPD2     N12405   4.533   3.412  10.273 -0.0201  0.0669  0.4901
  840MPD2    H512406   4.632   3.432  10.279 -0.0774  0.7866 -0.7771
  840MPD2    N112407   4.250   3.005  10.290  0.2213 -0.0844  0.3485
  840MPD2    H712408   4.251   2.904  10.299 -0.6207  0.0554  1.9491
  841MPD2     C12409   4.148   2.774  14.959 -0.0445  0.4783  0.6050
  841MPD2    C112410   4.146   2.689  14.850 -0.2236  0.6771 -0.7546
  841MPD2    C212411   4.208   2.718  14.737  0.4812  0.5540 -0.0901
  841MPD2    C312412   4.288   2.832  14.724 -0.1902  0.1404 -0.2350
  841MPD2    C412413   4.303   2.913  14.838  0.3158 -1.0482 -0.0861
  841MPD2    C512414   4.227   2.884  14.950  0.3883 -0.5102  0.3182
  841MPD2     H12415   4.202   2.654  14.649 -2.6608  1.9321 -0.8984
  841MPD2    H112416   4.360   3.006  14.841  1.0386 -1.5741  2.1625
  841MPD2    H212417   4.086   2.763  15.047 -1.4269 -1.2436 -0.5692
  841MPD2    H312418   4.232   2.949  15.037  0.8648  0.4196 -0.4043
  841MPD2     N12419   4.349   2.863  14.601 -0.4686 -0.0439 -0.3357
  841MPD2    H512420   4.343   2.803  14.520  0.9309  1.0152 -1.2078
  841MPD2    N112421   4.070   2.573  14.851  0.5535  0.1242 -0.3934
  841MPD2    H712422   4.068   2.525  14.762  0.4810  1.0428 -0.8796
  842MPD2     C12423   4.291   3.972  16.424  0.1941 -0.1645 -0.0469
  842MPD2    C112424   4.193   3.869  16.429 -0.2274 -0.5836 -0.1885
  842MPD2    C212425   4.179   3.794  16.544 -0.1338 -0.0539  0.6377
  842MPD2    C312426   4.261   3.820  16.657 -0.6411  0.8419 -0.1507
  842MPD2    C412427   4.368   3.910  16.643  0.0606  0.0225 -0.1277
  842MPD2    C512428   4.379   3.991  16.528 -0.2265 -0.4091  0.1572
  842MPD2     H12429   4.100   3.722  16.557 -0.6290  0.2599 -0.6482
  842MPD2    H112430   4.438   3.936  16.721 -1.0130  1.2776  0.4184
  842MPD2    H212431   4.296   4.035  16.336 -0.1726 -0.6968 -0.4462
  842MPD2    H312432   4.458   4.064  16.514 -0.4896  0.2784  2.3482
  842MPD2     N12433   4.241   3.759  16.786  0.2457 -0.1519 -0.5322
  842MPD2    H512434   4.291   3.804  16.861 -0.9503  0.7022 -0.2516
  842MPD2    N112435   4.109   3.856  16.318  0.1815 -0.4692  0.6766
  842MPD2    H712436   4.106   3.935  16.255 -2.3807  0.1803  1.6048
  843MPD2     C12437   1.980   0.217  17.411  0.2434  0.1684  0.1854
  843MPD2    C112438   2.016   0.106  17.483  0.3298 -0.7468 -0.0469
  843MPD2    C212439   2.093   0.128  17.603 -0.0889  0.0874 -0.0017
  843MPD2    C312440   2.129   0.257  17.648  0.5428  0.3718  0.0017
  843MPD2    C412441   2.098   0.363  17.556 -0.0648  0.3037  0.3245
  843MPD2    C512442   2.015   0.344  17.451 -0.5051 -0.0999  0.1570
  843MPD2     H12443   2.129   0.040  17.656  0.2056  0.4726  0.4394
  843MPD2    H112444   2.122   0.463  17.591  1.0383  0.1980 -0.1427
  843MPD2    H212445   1.929   0.205  17.316 -3.3880  0.3679  2.1190
  843MPD2    H312446   1.974   0.427  17.397 -1.2113 -0.1011  0.6960
  843MPD2     N12447   2.229   0.285  17.743 -0.0437 -1.0894  0.0967
  843MPD2    H512448   2.265   0.380  17.737 -1.6344 -0.5916 -1.8073
  843MPD2    N112449   1.974   4.715  17.453 -0.1321  0.1665 -0.4744
  843MPD2    H712450   1.985   4.650  17.530 -1.0896  1.1562  0.5014
  844MPD2     C12451   4.675   2.870  16.512  0.2269  0.0804  0.3852
  844MPD2    C112452   0.012   2.930  16.417  0.2509  0.1324  0.9022
  844MPD2    C212453   0.057   3.050  16.434 -0.0573  0.7989 -0.4279
  844MPD2    C312454   0.041   3.112  16.560  0.6704  0.4256 -0.4804
  844MPD2    C412455   4.721   3.044  16.661 -0.5006 -0.1016 -0.3413
  844MPD2    C512456   4.670   2.925  16.638  0.3168 -0.0573 -0.6552
  844MPD2     H12457   0.112   3.110  16.363 -2.9403  1.6837 -1.8844
  844MPD2    H112458   4.703   3.097  16.754  4.9252 -0.9878  1.2514
  844MPD2    H212459   4.624   2.776  16.499  1.0621 -0.2774 -0.2820
  844MPD2    H312460   4.624   2.876  16.723  1.8577  0.3894  0.4235
  844MPD2     N12461   0.097   3.245  16.581  0.2854 -0.2161  0.2349
  844MPD2    H512462   0.130   3.299  16.502  0.5573 -0.1947  0.3645
  844MPD2    N112463   0.051   2.859  16.303 -0.4015 -0.4366 -0.6852
  844MPD2    H712464   0.077   2.915  16.222  1.2885  0.7910  0.7054
  845MPD2     C12465   0.375   4.210  16.417  0.5483  0.8944 -0.4152
  845MPD2    C112466   0.448   4.176  16.528  1.0853  0.2847  0.7036
  845MPD2    C212467   0.437   4.042  16.576 -0.1639  0.1680 -0.1854
  845MPD2    C312468   0.351   3.955  16.512  0.7490  0.1771  0.3347
  845MPD2    C412469   0.278   3.998  16.405 -0.3297  0.3982  0.9896
  845MPD2    C512470   0.285   4.124  16.359  0.1033  0.3380 -0.2757
  845MPD2     H12471   0.504   4.002  16.651 -0.1313 -1.4234 -1.0650
  845MPD2    H112472   0.209   3.934  16.350  0.2943  0.0215  0.6377
  845MPD2    H212473   0.391   4.308  16.375  1.9392  0.8385  0.0022
  845MPD2    H312474   0.232   4.154  16.269  0.5310  1.2136 -0.2403
  845MPD2     N12475   0.344   3.825  16.570 -0.1898  0.4148  0.3661
  845MPD2    H512476   0.388   3.817  16.661  0.2735 -2.1305 -0.0978
  845MPD2    N112477   0.533   4.269  16.578 -0.8812 -0.1838 -0.0391
  845MPD2    H712478   0.536   4.360  16.532 -1.2641  0.0961  0.4866
  846MPD2     C12479   2.422   4.228  13.893  0.2979  0.3073  0.6152
  846MPD2    C112480   2.294   4.279  13.887  0.2754 -0.2895 -0.2288
  846MPD2    C212481   2.227   4.292  14.008 -0.1852 -0.4939 -0.0281
  846MPD2    C312482   2.284   4.247  14.129  0.1744 -0.9676  0.3578
  846MPD2    C412483   2.415   4.193  14.130 -0.0269  0.5904  1.0842
  846MPD2    C512484   2.481   4.187  14.010 -0.1188 -0.2332 -0.2311
  846MPD2     H12485   2.134   4.345  14.026 -0.5205 -0.6048 -1.5091
  846MPD2    H112486   2.463   4.145  14.214 -1.4170 -0.5962  1.1933
  846MPD2    H212487   2.494   4.217  13.813 -0.2598 -1.9887  0.4361
  846MPD2    H312488   2.584   4.155  14.009  0.0337  0.2940 -2.1752
  846MPD2     N12489   2.210   4.271  14.247 -0.3818 -0.3801  0.5438
  846MPD2    H512490   2.112   4.296  14.239 -0.0501  1.3003  1.8102
  846MPD2    N112491   2.235   4.313  13.761 -0.4622 -0.3419  0.5158
  846MPD2    H712492   2.145   4.360  13.756  0.5604  1.3690 -1.5404
  847MPD2     C12493   2.817   0.413  13.675 -0.2188  0.8065  0.1086
  847MPD2    C112494   2.830   0.497  13.786  1.0230  0.0300  0.1809
  847MPD2    C212495   2.821   0.439  13.908  0.5196 -0.2777 -0.7396
  847MPD2    C312496   2.802   0.307  13.934  0.6615  0.2824  0.4785
  847MPD2    C412497   2.783   0.221  13.827  0.7290 -0.1176  0.6276
  847MPD2    C512498   2.793   0.279  13.698 -0.3425  0.5784  0.3753
  847MPD2     H12499   2.820   0.506  13.993 -1.9002 -1.4750  0.1790
  847MPD2    H112500   2.765   0.114  13.828 -0.0223  0.0119  0.8140
  847MPD2    H212501   2.812   0.460  13.578 -0.6948  0.8723  0.1626
  847MPD2    H312502   2.775   0.223  13.607 -2.9668 -0.5395  1.5801
  847MPD2     N12503   2.799   0.269  14.071 -0.3328  0.0679  0.3266
  847MPD2    H512504   2.834   0.335  14.141 -1.0950  1.7270 -0.8582
  847MPD2    N112505   2.828   0.640  13.781  0.6198  0.0486  0.0794
  847MPD2    H712506   2.820   0.688  13.870 -0.2373  1.8529 -0.9759
  848MPD2     C12507   4.725   3.651  16.124  0.1289  0.1573  0.6316
  848MPD2    C112508   4.704   3.752  16.217  0.0895  0.5921 -0.2429
  848MPD2    C212509   4.710   3.885  16.174  1.3072 -0.0524  0.3537
  848MPD2    C312510   0.017   3.915  16.044 -0.7887  0.1502  0.6660
  848MPD2    C412511   0.037   3.809  15.953 -0.3754 -0.2227 -0.8673
  848MPD2    C512512   0.018   3.679  15.991 -0.0397 -0.1227 -0.3653
  848MPD2     H12513   4.709   3.963  16.250  0.8391  0.3658 -0.0829
  848MPD2    H112514   0.080   3.825  15.854  0.2465  3.3223 -0.0394
  848MPD2    H212515   4.737   3.548  16.153  2.9268 -0.1191 -1.5221
  848MPD2    H312516   0.046   3.597  15.925  1.9231  1.2140 -1.2136
  848MPD2     N12517   0.025   4.048  15.996  0.2682 -0.3444  0.3680
  848MPD2    H512518   0.047   4.068  15.899 -1.8363 -0.4965 -0.1395
  848MPD2    N112519   4.670   3.736  16.350 -0.3625  0.2558 -0.2860
  848MPD2    H712520   4.674   3.812  16.416 -0.8751  1.0760 -1.1954
  849MPD2     C12521   3.648   3.220  14.119  0.1781 -0.2351  0.0789
  849MPD2    C112522   3.765   3.262  14.059  0.3265  0.1433 -1.0122
  849MPD2    C212523   3.857   3.335  14.134 -0.2447 -0.5808 -0.6247
  849MPD2    C312524   3.850   3.326  14.275  0.0789  0.5340 -0.7389
  849MPD2    C412525   3.748   3.261  14.335  0.3684  0.3724  0.3734
  849MPD2    C512526   3.640   3.223  14.257 -0.2656  0.1125 -0.6414
  849MPD2     H12527   3.940   3.383  14.083 -0.7400 -1.2739 -2.0603
  849MPD2    H112528   3.732   3.255  14.442 -0.1839  3.2166  0.4600
  849MPD2    H212529   3.566   3.181  14.060  0.3503 -0.7780  0.1945
  849MPD2    H312530   3.553   3.193  14.314 -0.3098 -1.1844 -1.3739
  849MPD2     N12531   3.941   3.384  14.359 -0.2226 -0.7786 -0.0553
  849MPD2    H512532   3.923   3.367  14.457  1.0497 -0.7626  0.1882
  849MPD2    N112533   3.773   3.227  13.918 -0.0482 -0.7736 -0.0468
  849MPD2    H712534   3.685   3.214  13.870  1.9962 -1.1813 -3.7261
  850MPD2     C12535   2.377   1.797  14.782 -0.5360 -0.0924 -0.5812
  850MPD2    C112536   2.406   1.753  14.914 -0.6289 -0.6108  0.0389
  850MPD2    C212537   2.533   1.712  14.955  0.6488 -0.1235  0.1851
  850MPD2    C312538   2.633   1.705  14.858  0.4360 -0.3200 -0.2986
  850MPD2    C412539   2.607   1.750  14.734  0.2971  0.5034  0.1318
  850MPD2    C512540   2.482   1.790  14.694  0.2779 -0.5439  0.2433
  850MPD2     H12541   2.561   1.680  15.055  3.5083 -0.0530 -0.5874
  850MPD2    H112542   2.682   1.754  14.656 -0.2653  1.2282 -0.3704
  850MPD2    H212543   2.278   1.825  14.750 -1.5265 -0.2034  2.3427
  850MPD2    H312544   2.471   1.828  14.593  0.7524 -0.1488  0.3393
  850MPD2     N12545   2.768   1.688  14.881  0.3709 -0.5503 -0.0371
  850MPD2    H512546   2.823   1.718  14.800 -1.9602 -2.6877 -2.4355
  850MPD2    N112547   2.312   1.752  15.016  0.1671 -0.4474  0.1390
  850MPD2    H712548   2.345   1.728  15.109  1.5347  3.9404  0.7505
  851MPD2     C12549   2.448   1.468  15.679 -0.8296 -0.8571 -1.2630
  851MPD2    C112550   2.394   1.448  15.555 -0.0956  0.1047  1.1812
  851MPD2    C212551   2.440   1.344  15.475  0.1361 -0.1275 -0.7382
  851MPD2    C312552   2.528   1.254  15.532 -0.0849  0.1459  0.0198
  851MPD2    C412553   2.572   1.273  15.662 -0.3553  0.1456 -0.8719
  851MPD2    C512554   2.529   1.376  15.739  0.6549  0.2048 -0.3571
  851MPD2     H12555   2.410   1.316  15.374  0.0184 -1.3725 -0.3562
  851MPD2    H112556   2.642   1.208  15.714 -0.9818 -0.0665 -0.2965
  851MPD2    H212557   2.424   1.554  15.741 -1.4724 -2.1873  0.3221
  851MPD2    H312558   2.568   1.390  15.839 -0.0970  2.6594 -0.4140
  851MPD2     N12559   2.572   1.143  15.454 -0.8570 -0.5382 -0.2258
  851MPD2    H512560   2.531   1.128  15.362 -0.8400  1.0142 -0.4815
  851MPD2    N112561   2.288   1.535  15.507 -0.1543  0.3547 -0.1188
  851MPD2    H712562   2.274   1.612  15.572  1.6859  0.6006 -0.0080
  852MPD2     C12563   1.979   4.296   9.919 -0.3570  0.9598 -0.5171
  852MPD2    C112564   1.940   4.386  10.015  0.7021  0.0004  0.6002
  852MPD2    C212565   1.977   4.516  10.005  0.2961  0.0203 -0.0722
  852MPD2    C312566   2.056   4.558   9.897  0.4956  0.2953  0.8110
  852MPD2    C412567   2.078   4.473   9.794 -0.2598 -0.3207 -0.2774
  852MPD2    C512568   2.041   4.342   9.811  0.2918  0.0652 -0.1075
  852MPD2     H12569   1.952   4.584  10.085  1.5122  0.8655 -0.4046
  852MPD2    H112570   2.136   4.509   9.710  1.8027  0.6350  1.5579
  852MPD2    H212571   1.943   4.194   9.919  0.6383  0.6103 -1.0516
  852MPD2    H312572   2.052   4.267   9.732  1.5540 -0.1575  0.2855
  852MPD2     N12573   2.116   4.682   9.912 -0.2370  0.0711 -0.3359
  852MPD2    H512574   2.107   4.735   9.998  0.5269  0.6899 -0.6389
  852MPD2    N112575   1.887   4.335  10.142 -0.5288 -0.1285 -0.3427
  852MPD2    H712576   1.862   4.408  10.208  1.5332 -0.1701  0.4899
  853MPD2     C12577   3.539   3.849  12.153  0.2169  0.2644 -0.1410
  853MPD2    C112578   3.545   3.985  12.149  0.3350 -0.1782 -0.2767
  853MPD2    C212579   3.612   4.044  12.050 -0.0129  0.2744  1.0006
  853MPD2    C312580   3.679   3.966  11.954  0.1623 -0.1029 -0.3369
  853MPD2    C412581   3.659   3.829  11.948  1.4516  0.1569  0.3272
  853MPD2    C512582   3.595   3.776  12.053  0.5549 -0.6097  0.0310
  853MPD2     H12583   3.611   4.152  12.046 -0.6139  0.2126 -0.6321
  853MPD2    H112584   3.711   3.773  11.872  2.3498 -1.0367  1.8129
  853MPD2    H212585   3.490   3.785  12.226  0.4265  0.4322  0.1489
  853MPD2    H312586   3.588   3.668  12.061 -0.7334 -0.4161  1.5425
  853MPD2     N12587   3.734   4.029  11.840 -0.1185  0.0575 -0.4034
  853MPD2    H512588   3.738   3.977  11.754 -0.8864  1.0932 -1.0667
  853MPD2    N112589   3.493   4.055  12.262  0.4164 -0.2876  0.1985
  853MPD2    H712590   3.453   4.001  12.338 -2.5189 -1.4303 -2.1377
  854MPD2     C12591   4.393   0.030  13.143 -0.2975 -0.8329  0.2574
  854MPD2    C112592   4.525   0.078  13.138  0.5227  0.3743 -0.6278
  854MPD2    C212593   4.625   4.720  13.108  0.0096 -0.4664 -0.0606
  854MPD2    C312594   4.603   4.585  13.083 -0.0629 -0.1116 -0.1895
  854MPD2    C412595   4.475   4.538  13.101  0.0926  0.5137 -0.0437
  854MPD2    C512596   4.375   4.628  13.129 -0.4197  1.1410  0.1298
  854MPD2     H12597   4.728   0.015  13.101 -0.8262  2.5671  1.6006
  854MPD2    H112598   4.446   4.435  13.082  2.2471  0.1574 -1.3997
  854MPD2    H212599   4.306   0.091  13.163  0.2900 -0.7320  2.5358
  854MPD2    H312600   4.275   4.588  13.127 -1.0837  2.8987 -1.3931
  854MPD2     N12601   4.703   4.492  13.038 -0.1542  0.4084  0.4848
  854MPD2    H512602   4.679   4.398  13.008 -2.0629  0.9724  0.2321
  854MPD2    N112603   4.557   0.218  13.155  0.7769 -0.0618  0.9065
  854MPD2    H712604   4.475   0.277  13.165 -0.7168 -1.8820 -0.5269
  855MPD2     C12605   0.933   4.136  13.172  0.2863  0.3822  0.2397
  855MPD2    C112606   0.839   4.056  13.236  0.5679 -0.8752 -0.3832
  855MPD2    C212607   0.708   4.071  13.203  0.2171 -0.1842 -0.1712
  855MPD2    C312608   0.677   4.148  13.094  0.7944  0.0698  0.0345
  855MPD2    C412609   0.776   4.213  13.021 -0.7831 -0.0831 -0.5163
  855MPD2    C512610   0.906   4.198  13.052  0.1779  0.3262 -0.0459
  855MPD2     H12611   0.626   4.020  13.252 -0.8151  1.4227 -0.2400
  855MPD2    H112612   0.758   4.274  12.933  0.5479  2.4820  1.0007
  855MPD2    H212613   1.036   4.146  13.204  0.0235 -0.3539  1.3235
  855MPD2    H312614   0.982   4.255  13.000 -1.8566  2.5562 -0.5819
  855MPD2     N12615   0.535   4.166  13.056 -0.0940 -0.2738 -0.3013
  855MPD2    H512616   0.464   4.128  13.118  1.0429 -0.6572  0.7582
  855MPD2    N112617   0.873   3.960  13.344 -0.9125  0.1176 -0.2308
  855MPD2    H712618   0.796   3.943  13.408 -2.2446 -1.2023 -2.2169
  856MPD2     C12619   3.283   4.553  13.846 -0.5661  0.2456 -0.3787
  856MPD2    C112620   3.339   4.686  13.849  0.6567  0.3330 -0.6885
  856MPD2    C212621   3.277   0.054  13.788  0.4497 -0.0662 -0.2382
  856MPD2    C312622   3.166   0.032  13.707  0.2216 -0.2837  0.4566
  856MPD2    C412623   3.108   4.642  13.713 -0.0008  0.4007 -0.0917
  856MPD2    C512624   3.165   4.535  13.780 -0.1837 -0.0053 -0.6638
  856MPD2     H12625   3.319   0.152  13.808 -1.7068  0.9459 -0.6607
  856MPD2    H112626   3.009   4.628  13.671 -0.6779 -1.0118  1.9755
  856MPD2    H212627   3.335   4.467  13.886 -1.1019  0.3387  0.5197
  856MPD2    H312628   3.120   4.437  13.782 -0.0279 -0.0420  0.6898
  856MPD2     N12629   3.117   0.135  13.629 -0.6489  0.3278  0.0024
  856MPD2    H512630   3.040   0.120  13.565  1.7260  1.4106 -3.0994
  856MPD2    N112631   3.458   4.721  13.920  0.4045  0.4494 -0.0207
  856MPD2    H712632   3.488   0.080  13.915  2.6107 -0.1171  2.3017
  857MPD2     C12633   0.278   2.521  12.294  0.9504 -0.8162 -0.3513
  857MPD2    C112634   0.184   2.474  12.385 -0.0497 -0.0014  0.3089
  857MPD2    C212635   0.107   2.566  12.458  0.5492 -0.0674 -0.6342
  857MPD2    C312636   0.116   2.702  12.438  0.3496 -0.1285 -0.4869
  857MPD2    C412637   0.212   2.745  12.350 -0.2206 -0.2037  0.3647
  857MPD2    C512638   0.290   2.658  12.274 -0.2250 -1.1599 -0.3113
  857MPD2     H12639   0.038   2.531  12.533  0.5167 -0.0495 -0.6557
  857MPD2    H112640   0.242   2.847  12.331 -1.5283 -0.2890 -2.1885
  857MPD2    H212641   0.339   2.453  12.236  0.8535 -0.8348 -0.4312
  857MPD2    H312642   0.369   2.699  12.212 -2.1698  3.5964  0.3842
  857MPD2     N12643   0.047   2.783  12.530  0.3568 -0.1606  0.0560
  857MPD2    H512644   4.722   2.746  12.601 -0.5368 -1.7856 -1.5868
  857MPD2    N112645   0.192   2.339  12.418  0.0607 -0.3417  0.1109
  857MPD2    H712646   0.252   2.278  12.364  0.4958  0.8221 -0.7114
  858MPD2     C12647   0.320   1.138  16.543 -0.4957 -0.3283  0.0412
  858MPD2    C112648   0.458   1.138  16.525  0.1399 -0.0755  0.0764
  858MPD2    C212649   0.530   1.242  16.566  0.3264  0.6888 -0.4899
  858MPD2    C312650   0.471   1.352  16.630 -0.2999  0.3781  0.0292
  858MPD2    C412651   0.337   1.354  16.666  0.6271 -0.4674  0.1878
  858MPD2    C512652   0.269   1.240  16.620 -0.1539 -0.0261 -0.1701
  858MPD2     H12653   0.636   1.241  16.543  0.5476  2.4551  0.4881
  858MPD2    H112654   0.279   1.424  16.725  0.8279  0.0625 -0.2417
  858MPD2    H212655   0.252   1.058  16.515  0.3367 -0.7305 -0.8016
  858MPD2    H312656   0.162   1.247  16.639 -0.0911 -1.0098  0.5431
  858MPD2     N12657   0.546   1.461  16.676  0.4194  0.1587 -0.5996
  858MPD2    H512658   0.501   1.524  16.742  1.7091  0.1932  0.2489
  858MPD2    N112659   0.522   1.033  16.457 -0.3326 -0.4556  0.8066
  858MPD2    H712660   0.617   1.050  16.425 -0.8427  1.6878  0.4287
  859MPD2     C12661   4.200   3.269  15.666  1.3716  0.8570  0.6288
  859MPD2    C112662   4.176   3.244  15.537  0.1386  0.1043  0.2726
  859MPD2    C212663   4.151   3.112  15.486  0.1480  0.2916  0.2505
  859MPD2    C312664   4.179   3.005  15.572 -0.3940  0.4337  0.3382
  859MPD2    C412665   4.197   3.026  15.705  0.5092  0.0723 -0.3971
  859MPD2    C512666   4.206   3.160  15.752 -0.0764 -0.2321  0.0801
  859MPD2     H12667   4.136   3.093  15.381  2.1169 -0.2669  0.0630
  859MPD2    H112668   4.225   2.946  15.772 -0.5914 -0.5406 -0.6636
  859MPD2    H212669   4.213   3.366  15.713  0.2554  1.6699 -0.7409
  859MPD2    H312670   4.212   3.174  15.859  0.7708 -1.7339  0.2243
  859MPD2     N12671   4.189   2.873  15.534 -0.8047 -0.3776 -0.9747
  859MPD2    H512672   4.181   2.801  15.605 -1.3882  0.3845 -0.2687
  859MPD2    N112673   4.181   3.361  15.454  0.0156  0.1140 -0.1062
  859MPD2    H712674   4.218   3.443  15.501  3.4046 -1.4232 -0.1579
  860MPD2     C12675   1.275   4.004  11.458  0.0831 -0.1175 -0.4107
  860MPD2    C112676   1.302   4.092  11.562  0.3060  0.4240  0.1311
  860MPD2    C212677   1.199   4.132  11.645 -0.7242 -0.7855  0.7041
  860MPD2    C312678   1.075   4.075  11.629  1.5487 -0.1237  0.2626
  860MPD2    C412679   1.052   3.977  11.537 -1.2911 -0.0743  0.6466
  860MPD2    C512680   1.154   3.947  11.451  0.6485 -0.2445 -0.2484
  860MPD2     H12681   1.226   4.201  11.725  2.0397 -0.5985 -0.3958
  860MPD2    H112682   0.960   3.921  11.520 -0.1076 -1.2466 -2.0078
  860MPD2    H212683   1.350   3.974  11.387 -1.0858  0.5141 -1.9108
  860MPD2    H312684   1.135   3.879  11.369  2.0813 -1.2948  0.2936
  860MPD2     N12685   0.984   4.128  11.724 -0.3927  0.5116  0.7347
  860MPD2    H512686   1.021   4.194  11.792 -0.0629  0.2893  0.7711
  860MPD2    N112687   1.432   4.152  11.589  0.1554  0.3909 -0.5989
  860MPD2    H712688   1.435   4.232  11.652 -2.5237  1.1483 -1.4064
  861MPD2     C12689   0.992   1.888  10.913 -0.6629  0.2498  0.3260
  861MPD2    C112690   0.968   2.024  10.899  1.1580 -0.5332  0.2186
  861MPD2    C212691   0.903   2.073  10.794  0.3393 -0.5628 -0.5488
  861MPD2    C312692   0.847   1.990  10.702  0.3436 -0.2834 -0.6559
  861MPD2    C412693   0.870   1.852  10.714  0.1570 -0.1699 -0.2115
  861MPD2    C512694   0.947   1.806  10.814 -0.2124  0.3527  0.0054
  861MPD2     H12695   0.905   2.179  10.775 -0.9289 -0.7654 -1.8600
  861MPD2    H112696   0.833   1.776  10.646  1.0727 -0.9364  0.1495
  861MPD2    H212697   1.045   1.842  10.995 -0.7364 -1.1399 -0.4009
  861MPD2    H312698   0.957   1.699  10.825  0.1526  0.2887 -0.9573
  861MPD2     N12699   0.759   2.028  10.594  0.1845  0.3750 -0.0284
  861MPD2    H512700   0.712   1.954  10.543 -0.7144 -0.8674  2.6230
  861MPD2    N112701   1.000   2.115  10.997  0.1061  0.0824  0.6916
  861MPD2    H712702   0.976   2.209  10.967 -0.6658  0.0926  1.3188
  862MPD2     C12703   0.147   1.754  10.345 -0.6865 -0.0679 -0.5729
  862MPD2    C112704   0.244   1.773  10.442  0.1483 -0.2142  0.6582
  862MPD2    C212705   0.240   1.705  10.564  0.1104  0.2499  0.0734
  862MPD2    C312706   0.130   1.626  10.594  0.0100 -0.0250  0.3077
  862MPD2    C412707   0.041   1.599  10.493  0.1682 -0.1189  0.3443
  862MPD2    C512708   0.050   1.657  10.373  0.6059  0.7849  0.8089
  862MPD2     H12709   0.313   1.723  10.642 -1.2879 -2.5065  2.0509
  862MPD2    H112710   4.702   1.523  10.504 -1.3448  1.4851  0.7549
  862MPD2    H212711   0.150   1.791  10.243  1.9023 -0.6926 -0.7393
  862MPD2    H312712   4.713   1.632  10.299  0.6184 -1.2335  1.4732
  862MPD2     N12713   0.098   1.583  10.723 -0.3281 -0.6974  0.8167
  862MPD2    H512714   0.015   1.526  10.730 -0.0930 -0.8069  2.6249
  862MPD2    N112715   0.343   1.873  10.424  0.0378 -0.2380 -0.4269
  862MPD2    H712716   0.408   1.882  10.502 -1.5539 -0.8897  0.9970
  863MPD2     C12717   3.610   0.102  16.406  0.5055 -0.0742 -0.7902
  863MPD2    C112718   3.649   0.232  16.412  0.6191  0.3498  0.1722
  863MPD2    C212719   3.725   0.280  16.520  0.1053  0.0346  0.6103
  863MPD2    C312720   3.774   0.189  16.611 -0.5522 -0.7628  0.3708
  863MPD2    C412721   3.741   0.055  16.601 -0.1941 -0.6600 -1.0067
  863MPD2    C512722   3.648   0.017  16.510 -0.6850 -0.3796 -0.4068
  863MPD2     H12723   3.753   0.385  16.519 -0.0802  0.0693 -2.5086
  863MPD2    H112724   3.763   4.723  16.682 -0.3377  1.3742  0.7929
  863MPD2    H212725   3.546   0.060  16.330 -1.1337 -0.3211  0.7164
  863MPD2    H312726   3.611   4.652  16.517  0.6203 -0.6946  1.8120
  863MPD2     N12727   3.849   0.223  16.731  0.4029 -0.1497 -0.3648
  863MPD2    H512728   3.887   0.146  16.786 -1.0722 -1.5921 -1.3364
  863MPD2    N112729   3.597   0.319  16.315 -0.3669 -0.1637  0.7962
  863MPD2    H712730   3.553   0.276  16.234  1.5716 -1.1179  0.2597
  864MPD2     C12731   4.169   2.105  17.136  0.5082 -0.1126  0.6251
  864MPD2    C112732   4.220   2.013  17.047  0.1530  0.5390  0.8512
  864MPD2    C212733   4.310   2.048  16.945 -0.3828 -0.5939 -0.2727
  864MPD2    C312734   4.353   2.177  16.935 -0.1619 -0.0705  0.9584
  864MPD2    C412735   4.302   2.269  17.024  0.1844 -0.7306 -0.2513
  864MPD2    C512736   4.209   2.232  17.117  0.2433 -0.3071  0.2289
  864MPD2     H12737   4.347   1.978  16.871 -2.2043  0.4174 -2.1366
  864MPD2    H112738   4.327   2.374  17.017 -0.2457 -0.6470 -0.5524
  864MPD2    H212739   4.108   2.075  17.220  0.2339  1.1805  0.8782
  864MPD2    H312740   4.160   2.310  17.173 -0.1579 -0.3759 -0.0284
  864MPD2     N12741   4.448   2.219  16.841  0.5339  0.4387  0.1104
  864MPD2    H512742   4.481   2.316  16.844  1.1392  0.2557 -0.8041
  864MPD2    N112743   4.207   1.876  17.063 -0.3903 -0.0279 -0.2142
  864MPD2    H712744   4.271   1.815  17.013  0.7455  1.7014 -0.8759
  865MPD2     C12745   4.307   2.353  16.009  0.1776 -0.3785  0.3350
  865MPD2    C112746   4.344   2.287  16.122 -0.5020  0.3786 -0.0160
  865MPD2    C212747   4.368   2.351  16.242 -0.0002  0.3423 -0.6659
  865MPD2    C312748   4.388   2.484  16.242 -0.0418  0.3187 -0.0616
  865MPD2    C412749   4.374   2.549  16.121  0.2022 -0.5492  0.6900
  865MPD2    C512750   4.338   2.486  16.009  0.2151 -0.0628  1.3331
  865MPD2     H12751   4.385   2.293  16.332 -2.7877  2.2109  1.0662
  865MPD2    H112752   4.385   2.656  16.105 -0.1863 -0.5215  0.6090
  865MPD2    H212753   4.301   2.297  15.916  1.6110 -2.3375  1.4242
  865MPD2    H312754   4.331   2.544  15.918  0.1301 -0.7016  0.9350
  865MPD2     N12755   4.422   2.561  16.358  0.3060  0.1947 -0.2168
  865MPD2    H512756   4.392   2.657  16.351  2.5112  0.8925  0.0477
  865MPD2    N112757   4.357   2.143  16.103 -1.0126  0.4354 -0.3715
  865MPD2    H712758   4.342   2.113  16.007 -2.2501 -2.1421  0.6467
  866MPD2     C12759   1.316   2.743  11.162  0.0834 -0.4081 -0.3529
  866MPD2    C112760   1.303   2.605  11.129  0.0428 -0.0007  0.4505
  866MPD2    C212761   1.187   2.567  11.057  0.1663 -0.3462  0.0536
  866MPD2    C312762   1.102   2.661  11.001 -0.3793 -0.5354 -0.4756
  866MPD2    C412763   1.127   2.787  11.036 -0.1236  0.1166  0.1535
  866MPD2    C512764   1.227   2.825  11.124  0.0407 -0.2766  0.7013
  866MPD2     H12765   1.177   2.460  11.039  0.6851 -0.0645 -1.9194
  866MPD2    H112766   1.057   2.863  11.006  0.1069  0.4337  0.4250
  866MPD2    H212767   1.364   2.769  11.256 -2.9290 -1.0536  1.3823
  866MPD2    H312768   1.235   2.929  11.152 -0.1379 -0.4575  1.4290
  866MPD2     N12769   0.989   2.637  10.923 -0.6353  0.4779 -0.0154
  866MPD2    H512770   0.925   2.711  10.895  1.1436  0.9150 -2.9471
  866MPD2    N112771   1.383   2.517  11.209 -0.6636 -0.0533  0.1479
  866MPD2    H712772   1.450   2.558  11.272 -0.0475  0.7680 -1.0347
  867MPD2     C12773   3.063   1.943  16.593  0.1814 -0.7532  0.3592
  867MPD2    C112774   3.141   1.884  16.685  0.8678 -0.0080  0.1574
  867MPD2    C212775   3.214   1.959  16.769 -0.3270  0.1647 -0.6100
  867MPD2    C312776   3.215   2.093  16.756  0.6907 -0.8442  0.8942
  867MPD2    C412777   3.142   2.158  16.657 -0.6465 -0.0243 -0.1873
  867MPD2    C512778   3.069   2.078  16.575  0.5235  0.3512 -0.0409
  867MPD2     H12779   3.282   1.912  16.839  1.1049  1.8768 -0.8642
  867MPD2    H112780   3.135   2.266  16.648 -0.3347  0.0174  0.0608
  867MPD2    H212781   3.020   1.880  16.515  3.6033 -3.0288  0.2618
  867MPD2    H312782   3.014   2.121  16.492 -0.1925  0.0105  0.2532
  867MPD2     N12783   3.294   2.179  16.839 -0.3975  0.1220  0.3017
  867MPD2    H512784   3.269   2.277  16.842 -0.5073  0.0498  1.6945
  867MPD2    N112785   3.135   1.745  16.703 -0.0349  0.2797  0.2416
  867MPD2    H712786   3.066   1.696  16.646  0.9727 -0.6679 -0.1747
  868MPD2     C12787   4.630   1.306  13.206 -0.6646 -0.4569 -0.5432
  868MPD2    C112788   4.707   1.242  13.304 -0.0425 -0.4173 -0.3428
  868MPD2    C212789   4.674   1.259  13.439 -0.4877  0.3360  0.3385
  868MPD2    C312790   4.571   1.345  13.470  0.2100 -0.4836  0.3119
  868MPD2    C412791   4.498   1.414  13.370  0.0661  0.2565  0.2738
  868MPD2    C512792   4.531   1.398  13.244  0.2354 -0.1116 -0.4458
  868MPD2     H12793   4.733   1.217  13.519 -1.3667 -1.0579  0.2530
  868MPD2    H112794   4.413   1.480  13.377 -0.7464 -0.6550 -1.1391
  868MPD2    H212795   4.644   1.275  13.103  1.2913  1.1619 -0.7536
  868MPD2    H312796   4.477   1.446  13.162 -2.3023  0.0096  1.2882
  868MPD2     N12797   4.545   1.362  13.609 -0.2396 -0.4827 -0.1678
  868MPD2    H512798   4.602   1.305  13.671  0.4728 -0.9106 -1.2208
  868MPD2    N112799   0.070   1.151  13.258 -0.3823 -0.5469 -0.0816
  868MPD2    H712800   0.078   1.136  13.158 -2.5915  1.9954 -0.6329
  869MPD2     C12801   0.975   3.534   0.184 -0.4694  1.1822  0.1478
  869MPD2    C112802   1.035   3.618   0.267  0.1497  0.0879  0.4723
  869MPD2    C212803   1.169   3.596   0.289 -0.1417 -0.2074  0.0301
  869MPD2    C312804   1.242   3.508   0.226 -0.3095  0.5021  0.4647
  869MPD2    C412805   1.181   3.421   0.139  0.7135  0.6184 -0.2754
  869MPD2    C512806   1.045   3.429   0.124 -0.1088  0.3256  0.0005
  869MPD2     H12807   1.220   3.671   0.349  2.2872 -1.8831  0.0651
  869MPD2    H112808   1.241   3.345   0.091 -0.7125  0.1559 -1.3299
  869MPD2    H212809   0.869   3.537   0.160 -0.6106  2.0018  0.8534
  869MPD2    H312810   0.995   3.352   0.066  2.2490 -2.1922  1.3055
  869MPD2     N12811   1.382   3.504   0.238  0.1667  0.0653  0.0540
  869MPD2    H512812   1.438   3.455   0.170 -1.9656 -2.9421  0.4380
  869MPD2    N112813   0.948   3.721   0.322  0.2747  0.1664 -0.2486
  869MPD2    H712814   0.849   3.702   0.305  0.0321  1.1805  0.0516
  870MPD2     C12815   2.077   1.806   1.491  0.2854  1.1462  0.6260
  870MPD2    C112816   2.016   1.770   1.375 -0.8366 -0.0226  0.9633
  870MPD2    C212817   1.890   1.827   1.343 -0.3654  0.2356 -0.6045
  870MPD2    C312818   1.823   1.911   1.429 -0.0980 -0.6898  0.5786
  870MPD2    C412819   1.899   1.949   1.543 -0.1958  0.0801 -0.0655
  870MPD2    C512820   2.016   1.898   1.573 -0.3601 -0.2474 -0.0028
  870MPD2     H12821   1.842   1.805   1.248 -2.0725  0.6296  0.1889
  870MPD2    H112822   1.870   2.036   1.601 -0.8760 -0.6357  0.6680
  870MPD2    H212823   2.174   1.773   1.527  0.3818 -0.1828 -0.8654
  870MPD2    H312824   2.080   1.940   1.651 -0.5109 -0.7931  0.4134
  870MPD2     N12825   1.695   1.975   1.402 -0.5728 -0.0429  0.1431
  870MPD2    H512826   1.652   1.960   1.311 -1.1453  0.7095  0.2882
  870MPD2    N112827   2.093   1.684   1.288  0.8142  0.5048 -0.4485
  870MPD2    H712828   2.187   1.661   1.318  0.5636  1.2254  0.8930
  871MPD2     C12829   1.467   1.663  16.613  0.4628  0.6870  0.4646
  871MPD2    C112830   1.595   1.691  16.650  0.9757  0.2867  0.2682
  871MPD2    C212831   1.697   1.618  16.591 -0.3681  0.2704 -0.0801
  871MPD2    C312832   1.665   1.513  16.512  0.0780  0.2269 -0.2981
  871MPD2    C412833   1.537   1.483  16.477 -0.6224  0.3330 -0.1629
  871MPD2    C512834   1.434   1.557  16.530  0.4396  1.1917 -0.3652
  871MPD2     H12835   1.801   1.631  16.615  0.3603 -3.4732 -1.1920
  871MPD2    H112836   1.527   1.400  16.408 -0.7328 -1.7560  2.3612
  871MPD2    H212837   1.385   1.714  16.661  1.1874  2.0316  0.2986
  871MPD2    H312838   1.335   1.528  16.499  0.3492  0.7685  0.3134
  871MPD2     N12839   1.777   1.440  16.462 -0.0757  0.1126  0.2300
  871MPD2    H512840   1.867   1.467  16.502  0.9590  1.0220 -2.6693
  871MPD2    N112841   1.623   1.799  16.734  0.2570  0.5310 -0.6538
  871MPD2    H712842   1.545   1.862  16.750 -0.6081 -0.6941 -0.0179
  872MPD2     C12843   2.986   3.813  13.638 -0.8200  0.3069 -0.0614
  872MPD2    C112844   3.078   3.867  13.730 -0.1862 -0.0679  0.2766
  872MPD2    C212845   3.062   3.833  13.864 -0.3349 -0.8477 -1.0104
  872MPD2    C312846   2.956   3.751  13.902 -0.1995 -0.2908  0.4062
  872MPD2    C412847   2.893   3.681  13.801 -0.8477 -0.4398 -0.8260
  872MPD2    C512848   2.903   3.717  13.674 -0.2977  0.3934 -0.0005
  872MPD2     H12849   3.117   3.883  13.944 -0.9712 -4.3074  1.5787
  872MPD2    H112850   2.826   3.599  13.827 -3.3519  1.1872 -2.1703
  872MPD2    H212851   2.991   3.837  13.532 -0.3163  0.5667  0.0234
  872MPD2    H312852   2.836   3.673  13.600 -1.1162 -0.5215  1.2943
  872MPD2     N12853   2.906   3.728  14.033 -0.5511 -0.6822  0.9483
  872MPD2    H512854   2.829   3.664  14.049 -1.3956 -0.2365 -1.3633
  872MPD2    N112855   3.175   3.966  13.701  0.1457  0.3269 -0.1825
  872MPD2    H712856   3.246   3.990  13.769 -1.2473  2.7052  0.4639
  873MPD2     C12857   0.260   4.086   0.915  0.4058  0.1816 -0.2718
  873MPD2    C112858   0.165   4.169   0.857 -0.9346 -0.1446  0.1482
  873MPD2    C212859   0.071   4.120   0.766 -0.6726  0.1405  0.5369
  873MPD2    C312860   0.081   3.989   0.721  0.6440 -0.0994 -0.5297
  873MPD2    C412861   0.182   3.911   0.776  0.4943  0.2578  0.8363
  873MPD2    C512862   0.261   3.958   0.873 -0.3352 -0.2042  0.2098
  873MPD2     H12863   4.730   4.181   0.725 -0.8969 -0.3548  0.2289
  873MPD2    H112864   0.208   3.815   0.732  1.4236 -0.1127  2.2063
  873MPD2    H212865   0.332   4.124   0.986 -1.8249  0.3277  1.9457
  873MPD2    H312866   0.334   3.892   0.917  1.8596  0.7927 -1.9100
  873MPD2     N12867   4.726   3.925   0.634  0.3908  0.5401 -0.2287
  873MPD2    H512868   4.729   3.823   0.637 -1.4091  0.4350 -2.1373
  873MPD2    N112869   0.167   4.298   0.912  0.0329 -0.2790 -0.3751
  873MPD2    H712870   0.241   4.326   0.976 -1.0517  0.2593  0.6477
  874MPD2     C12871   4.086   4.200  15.620 -0.6913 -0.0430 -0.1124
  874MPD2    C112872   4.108   4.179  15.756 -0.0483 -0.6508 -0.1992
  874MPD2    C212873   4.226   4.230  15.805 -0.7922 -0.9446  0.0053
  874MPD2    C312874   4.306   4.315  15.725  0.1078 -0.0096  0.7271
  874MPD2    C412875   4.280   4.333  15.587 -0.3120 -0.0509 -0.2784
  874MPD2    C512876   4.168   4.274  15.541 -0.4147  0.2717  0.0360
  874MPD2     H12877   4.253   4.220  15.910  0.5966 -0.7646 -0.3386
  874MPD2    H112878   4.346   4.390  15.524  0.1749  0.6107  0.8390
  874MPD2    H212879   4.005   4.152  15.565 -0.4881 -0.6428  0.1178
  874MPD2    H312880   4.157   4.264  15.433 -0.7867  0.0670  0.0905
  874MPD2     N12881   4.418   4.366  15.788  0.1202 -0.5553 -0.2004
  874MPD2    H512882   4.432   4.350  15.888 -1.0654 -1.1796 -0.1266
  874MPD2    N112883   4.022   4.091  15.830  0.1499 -0.2480 -0.2783
  874MPD2    H712884   3.958   4.034  15.775 -1.6317  1.4326  0.0414
  875MPD2     C12885   0.795   2.684  14.542 -0.4722  0.5170 -0.2042
  875MPD2    C112886   0.670   2.700  14.612 -0.1754 -0.5055  0.3383
  875MPD2    C212887   0.681   2.762  14.734  0.1095 -0.8146  0.2568
  875MPD2    C312888   0.795   2.820  14.783 -0.2675 -0.7773 -0.6605
  875MPD2    C412889   0.907   2.810  14.714  0.3150 -0.4896 -0.1912
  875MPD2    C512890   0.905   2.739  14.601 -0.2910  1.4930  0.0756
  875MPD2     H12891   0.587   2.769  14.788  0.3534  0.8676  0.4761
  875MPD2    H112892   1.004   2.837  14.755  0.8694 -0.8875 -1.2400
  875MPD2    H212893   0.813   2.625  14.453 -0.5641  1.3266 -0.7606
  875MPD2    H312894   1.000   2.734  14.549 -1.4112 -1.3138 -1.6821
  875MPD2     N12895   0.801   2.903  14.901  0.0273 -0.5701  0.0807
  875MPD2    H512896   0.882   2.957  14.929 -0.6860  0.5474 -0.0155
  875MPD2    N112897   0.547   2.647  14.571 -0.6063  0.3761 -1.0324
  875MPD2    H712898   0.466   2.667  14.630  0.6792  1.8547  0.2300
  876MPD2     C12899   4.037   3.702  15.695 -0.5895  0.1005 -0.6252
  876MPD2    C112900   4.158   3.720  15.756  0.0889 -0.0091  0.2786
  876MPD2    C212901   4.191   3.651  15.869 -0.0104 -0.0942 -0.0481
  876MPD2    C312902   4.098   3.565  15.930 -0.3642  0.2065  0.1020
  876MPD2    C412903   3.981   3.544  15.872  0.3054  0.1060 -0.0592
  876MPD2    C512904   3.958   3.611  15.752 -0.2897  0.2116  0.6625
  876MPD2     H12905   4.281   3.670  15.926 -0.1574  2.3993 -0.6424
  876MPD2    H112906   3.910   3.475  15.914  0.9846 -0.0374  0.8479
  876MPD2    H212907   3.997   3.754  15.610 -0.0804 -0.5937 -1.2967
  876MPD2    H312908   3.863   3.592  15.702 -1.1860  0.2506  2.3750
  876MPD2     N12909   4.144   3.510  16.049 -0.6925 -0.2447  0.0514
  876MPD2    H512910   4.228   3.553  16.087  0.0379  0.2279 -2.0941
  876MPD2    N112911   4.249   3.807  15.695 -0.1816  0.4668 -0.0402
  876MPD2    H712912   4.229   3.845  15.603 -0.7460 -2.7281 -1.2167
  877MPD2     C12913   4.338   3.973  15.059 -0.0505  0.2717 -0.0649
  877MPD2    C112914   4.456   4.037  15.096 -0.5529  0.7674 -0.4182
  877MPD2    C212915   4.549   4.063  14.999 -0.2001 -0.4183 -0.3890
  877MPD2    C312916   4.535   4.023  14.863  0.2159  0.4679  0.5927
  877MPD2    C412917   4.413   3.972  14.828 -0.3762 -0.4786  0.3643
  877MPD2    C512918   4.326   3.936  14.929  0.1732 -0.3696 -0.1944
  877MPD2     H12919   4.645   4.103  15.031 -3.2887  5.1865  1.8488
  877MPD2    H112920   4.392   3.936  14.728  0.5133 -1.2014  0.4401
  877MPD2    H212921   4.257   3.940  15.124 -0.4230 -0.4034 -0.8779
  877MPD2    H312922   4.243   3.879  14.890  0.5944 -1.6609  0.8124
  877MPD2     N12923   4.632   4.027  14.763  0.1755 -0.1136  0.6476
  877MPD2    H512924   4.607   3.983  14.675  2.0276  0.9938 -0.4243
  877MPD2    N112925   4.482   4.075  15.223 -0.0629 -0.1141 -0.2675
  877MPD2    H712926   4.569   4.121  15.249 -2.4608  4.0397  0.5008
  878MPD2     C12927   4.555   3.612  13.546 -0.7484 -0.3846 -0.3011
  878MPD2    C112928   4.460   3.547  13.471  0.2473 -0.6538 -0.2181
  878MPD2    C212929   4.389   3.450  13.538  0.1238  0.1378  0.3688
  878MPD2    C312930   4.422   3.405  13.668 -0.5428  0.7473 -0.6626
  878MPD2    C412931   4.517   3.483  13.731 -0.6358  0.0988 -0.6851
  878MPD2    C512932   4.574   3.587  13.678  0.4028  0.5608 -0.5718
  878MPD2     H12933   4.314   3.389  13.489  0.3944  0.7812 -0.8455
  878MPD2    H112934   4.532   3.476  13.838 -0.6113 -1.4462 -0.7866
  878MPD2    H212935   4.603   3.703  13.511 -0.1541 -0.6005 -0.0460
  878MPD2    H312936   4.637   3.652  13.737 -0.7131  1.2660 -0.1591
  878MPD2     N12937   4.352   3.302  13.729 -0.0074 -0.7825  0.3553
  878MPD2    H512938   4.283   3.258  13.669  1.4985 -0.2294 -1.7923
  878MPD2    N112939   4.441   3.591  13.337 -0.2989  0.2261 -0.1389
  878MPD2    H712940   4.515   3.646  13.296 -0.9602  1.8602  0.8536
  879MPD2     C12941   4.233   0.397  16.597 -0.4757  0.3071  0.0153
  879MPD2    C112942   4.277   0.278  16.643  0.4668  0.9011 -0.2401
  879MPD2    C212943   4.216   0.167  16.593  0.3310  0.2826  0.4339
  879MPD2    C312944   4.115   0.178  16.499  0.7292  0.3778 -0.6849
  879MPD2    C412945   4.083   0.301  16.449 -0.0178  0.5813 -0.6955
  879MPD2    C512946   4.144   0.412  16.498 -1.2149  0.8006  0.6080
  879MPD2     H12947   4.245   0.067  16.624  0.1487 -0.5452 -2.1129
  879MPD2    H112948   4.011   0.314  16.369 -0.4306  3.4788  0.1501
  879MPD2    H212949   4.255   0.494  16.641  1.6656  0.2701 -1.0045
  879MPD2    H312950   4.110   0.510  16.469 -1.8306  0.2226 -0.6148
  879MPD2     N12951   4.055   0.066  16.438 -0.3157 -0.0206  0.4151
  879MPD2    H512952   4.000   0.083  16.354  0.3168  1.5709  0.3038
  879MPD2    N112953   4.372   0.279  16.745  0.5209  0.1675  0.6303
  879MPD2    H712954   4.420   0.367  16.764 -2.9311  2.2283 -0.2932
  880MPD2     C12955   1.321   1.883  17.712 -0.2886  0.1242 -0.6314
  880MPD2    C112956   1.383   1.884   0.089 -0.0675  0.2388 -0.1039
  880MPD2    C212957   1.401   1.758   0.152 -0.6066  0.4598  0.3548
  880MPD2    C312958   1.343   1.646   0.103  0.6228  0.1278 -0.5179
  880MPD2    C412959   1.265   1.650  17.735 -0.1285  0.6161  0.5577
  880MPD2    C512960   1.263   1.766  17.666 -0.7486 -0.1444 -0.4154
  880MPD2     H12961   1.453   1.752   0.247 -1.0495 -0.7255  0.5215
  880MPD2    H112962   1.206   1.567  17.698 -1.7283  2.6112 -1.3590
  880MPD2    H212963   1.295   1.974  17.658 -1.0079 -0.1859 -0.8056
  880MPD2    H312964   1.207   1.778  17.573  0.7375  1.6676 -1.0771
  880MPD2     N12965   1.334   1.535   0.195 -0.1446  0.1500  0.0826
  880MPD2    H512966   1.384   1.548   0.283  0.6307  0.3494 -0.3918
  880MPD2    N112967   1.416   2.006   0.147  0.4765 -0.5113 -0.1372
  880MPD2    H712968   1.398   2.086   0.088 -0.7346 -0.0307  0.8753
  881MPD2     C12969   1.511   2.934  17.659  0.5595  0.2224  0.2493
  881MPD2    C112970   1.493   2.809  17.608 -0.0465 -0.1639  0.1109
  881MPD2    C212971   1.505   2.702  17.697 -0.0366  1.0128 -1.2350
  881MPD2    C312972   1.481   2.719   0.085  0.0505  0.1651  0.0665
  881MPD2    C412973   1.488   2.850   0.137  0.9006 -0.2880 -0.2204
  881MPD2    C512974   1.513   2.949   0.045  1.0037 -0.5507 -0.5708
  881MPD2     H12975   1.528   2.605  17.655 -1.4921 -0.1054  0.5836
  881MPD2    H112976   1.485   2.874   0.243  0.4077 -1.7571  0.1105
  881MPD2    H212977   1.531   3.015  17.590 -0.5227  0.1695 -0.1223
  881MPD2    H312978   1.522   3.048   0.089  0.6325 -1.4702  1.5378
  881MPD2     N12979   1.481   2.609   0.179  0.1741 -0.6109  0.3033
  881MPD2    H512980   1.477   2.628   0.279  0.5590  0.1481  0.1786
  881MPD2    N112981   1.510   2.801  17.471  0.6276 -0.5794 -0.4565
  881MPD2    H712982   1.511   2.891  17.423 -2.4586 -0.3903 -0.1457
  882MPD2     C12983   4.654   3.668  14.157 -0.1334 -0.7331  0.0893
  882MPD2    C112984   4.614   3.783  14.217  0.0809  0.0086  0.0102
  882MPD2    C212985   4.483   3.813  14.211  0.0973  0.7369 -0.2071
  882MPD2    C312986   4.389   3.727  14.154  0.6214 -0.6679 -0.3543
  882MPD2    C412987   4.426   3.603  14.108  0.3257 -0.1368 -0.2035
  882MPD2    C512988   4.560   3.580  14.108  0.0008 -0.5083 -0.2715
  882MPD2     H12989   4.437   3.905  14.247 -1.5817  0.9299 -2.8572
  882MPD2    H112990   4.366   3.517  14.081 -0.2788  0.0316  0.6136
  882MPD2    H212991   0.021   3.639  14.158 -0.3537 -1.5213 -0.2957
  882MPD2    H312992   4.591   3.485  14.065  0.2873 -0.9295  0.8610
  882MPD2     N12993   4.250   3.748  14.152  0.2346 -0.5780  0.0134
  882MPD2    H512994   4.195   3.665  14.135 -3.3380  1.4561  1.5942
  882MPD2    N112995   4.708   3.859  14.291  0.0221  0.4939  0.4702
  882MPD2    H712996   0.066   3.824  14.290 -0.0319  0.2733  4.0387
  883MPD2     C12997   1.559   3.882  15.900 -0.1711 -0.1080  0.1118
  883MPD2    C112998   1.541   4.000  15.820 -0.8493  0.4288 -0.3012
  883MPD2    C212999   1.622   4.110  15.845 -0.3151 -0.0103 -0.3970
  883MPD2    C313000   1.701   4.116  15.961 -0.0373  0.5740 -0.2340
  883MPD2    C413001   1.702   4.004  16.040  0.2205  0.0233 -0.5272
  883MPD2    C513002   1.634   3.890  16.005 -0.0711 -0.2785 -0.0146
  883MPD2     H13003   1.604   4.195  15.779 -4.1403 -1.6245 -1.4305
  883MPD2    H113004   1.765   4.003  16.128 -2.2631  0.3292  1.2794
  883MPD2    H213005   1.511   3.788  15.874  1.3777 -0.5329 -1.1853
  883MPD2    H313006   1.650   3.803  16.069 -0.5732 -0.8394 -0.6568
  883MPD2     N13007   1.774   4.238  15.987 -0.2066  0.2046  0.2969
  883MPD2    H513008   1.776   4.314  15.920  2.8103  0.5515  0.7804
  883MPD2    N113009   1.451   4.001  15.711 -0.3196  0.1625 -0.6635
  883MPD2    H713010   1.461   4.071  15.638 -1.1227 -0.2832 -1.2035
  884MPD2     C13011   3.424   4.635  14.877  0.1528 -0.1741 -0.8263
  884MPD2    C113012   3.382   4.717  14.774  0.0082 -0.1075 -0.2496
  884MPD2    C213013   3.262   0.045  14.777 -0.1856 -0.1113  0.3131
  884MPD2    C313014   3.182   0.036  14.891 -0.2505 -0.0807 -0.1119
  884MPD2    C413015   3.234   4.705  14.995  0.2462 -0.4876 -0.0519
  884MPD2    C513016   3.353   4.632  14.992  0.6060  0.1414  0.2053
  884MPD2     H13017   3.223   0.114  14.704 -2.6038  1.8834  3.4724
  884MPD2    H113018   3.175   4.708  15.087 -1.2292 -2.6731 -0.9212
  884MPD2    H213019   3.508   4.566  14.871  0.8542  0.3341  3.2580
  884MPD2    H313020   3.390   4.565  15.069  0.8023  0.9125  0.7840
  884MPD2     N13021   3.057   0.106  14.885  0.4225 -0.7877 -0.5933
  884MPD2    H513022   3.019   0.142  14.798  0.8121 -2.9944 -1.6916
  884MPD2    N113023   3.455   4.730  14.651  0.4039 -0.2211  0.4751
  884MPD2    H713024   3.415   0.038  14.570  0.7654  2.0907  1.6276
  885MPD2     C13025   2.086   0.501   0.274  0.5100  0.0644  0.3341
  885MPD2    C113026   2.216   0.538   0.310 -0.0411 -0.3037  0.2735
  885MPD2    C213027   2.296   0.608   0.220 -0.1080  0.1588 -0.2868
  885MPD2    C313028   2.234   0.663   0.105 -0.1585  0.6754  0.2690
  885MPD2    C413029   2.106   0.628   0.071  0.1384  0.3692  0.0224
  885MPD2    C513030   2.034   0.542   0.155 -0.3169  0.0791  0.0701
  885MPD2     H13031   2.391   0.648   0.253 -0.8389  1.7380 -0.0849
  885MPD2    H113032   2.065   0.658  17.724  0.6497  1.3404  0.1112
  885MPD2    H213033   2.019   0.448   0.341 -1.4738 -0.2094 -1.8798
  885MPD2    H313034   1.933   0.513   0.129  0.9366 -0.9277 -3.6145
  885MPD2     N13035   2.311   0.740   0.010 -0.5675 -0.5612  0.0458
  885MPD2    H513036   2.411   0.725   0.012 -0.5051 -0.2432 -0.5866
  885MPD2    N113037   2.255   0.487   0.437  0.0200 -0.4007 -0.1673
  885MPD2    H713038   2.189   0.435   0.494 -0.1782 -0.4519 -0.4449
  886MPD2     C13039   3.116   3.387  15.149 -0.6215  0.4102 -0.2225
  886MPD2    C113040   3.130   3.511  15.213 -0.1484 -0.0008 -0.1231
  886MPD2    C213041   3.161   3.625  15.143 -0.2436  0.0731  0.2123
  886MPD2    C313042   3.162   3.621  15.006  0.6030 -0.3916 -0.0574
  886MPD2    C413043   3.135   3.497  14.943  0.0472  0.1409 -0.0779
  886MPD2    C513044   3.119   3.381  15.016  0.0560  0.0513 -0.7034
  886MPD2     H13045   3.177   3.723  15.189  0.9864  0.0872 -0.2501
  886MPD2    H113046   3.135   3.482  14.835 -2.4995  0.2511 -0.0974
  886MPD2    H213047   3.070   3.305  15.204 -0.6395 -0.5333 -1.6674
  886MPD2    H313048   3.107   3.287  14.963  1.0495  0.1051 -1.0238
  886MPD2     N13049   3.194   3.731  14.923  0.2321 -0.3138 -0.7603
  886MPD2    H513050   3.201   3.710  14.824  0.1819 -2.9539 -0.2024
  886MPD2    N113051   3.128   3.523  15.351 -0.5708 -0.2322 -0.6558
  886MPD2    H713052   3.150   3.610  15.397 -0.3027 -1.4480  1.4994
  887MPD2     C13053   3.746   3.492  15.486 -0.3380  0.3791 -0.0688
  887MPD2    C113054   3.660   3.598  15.481  0.3964 -0.0510  0.4989
  887MPD2    C213055   3.681   3.694  15.388 -0.1593  0.4752 -0.0949
  887MPD2    C313056   3.794   3.706  15.311 -0.4822 -0.4847  0.5880
  887MPD2    C413057   3.880   3.601  15.316 -0.5006  0.1974  0.2502
  887MPD2    C513058   3.854   3.496  15.401 -0.4763 -0.5960  0.2629
  887MPD2     H13059   3.604   3.769  15.372 -1.6829 -0.8658  0.8101
  887MPD2    H113060   3.964   3.586  15.249 -0.4021  1.8587 -0.0102
  887MPD2    H213061   3.732   3.396  15.534  0.0888  0.3690  0.0372
  887MPD2    H313062   3.911   3.403  15.403  0.5014 -0.0629 -2.7479
  887MPD2     N13063   3.811   3.819  15.222  0.4459  0.1986  0.6663
  887MPD2    H513064   3.733   3.883  15.219 -0.4637 -0.9585 -0.4732
  887MPD2    N113065   3.530   3.596  15.546  0.0513 -0.0152 -0.0888
  887MPD2    H713066   3.466   3.674  15.534  1.5415  0.9009 -2.1551
  888MPD2     C13067   0.761   3.400  14.907  0.4121  0.5384  0.1903
  888MPD2    C113068   0.721   3.475  15.016 -0.0032  0.2928  0.0351
  888MPD2    C213069   0.760   3.602  15.020  0.2019 -0.4591  0.3997
  888MPD2    C313070   0.847   3.657  14.920 -0.1184 -0.0138  0.5455
  888MPD2    C413071   0.888   3.576  14.812  0.5904  0.8316 -1.1256
  888MPD2    C513072   0.844   3.447  14.808  0.0955 -0.1095  0.7312
  888MPD2     H13073   0.721   3.660  15.103  1.8303 -0.0366  0.8783
  888MPD2    H113074   0.954   3.616  14.736  1.2804 -1.4113 -1.7153
  888MPD2    H213075   0.754   3.292  14.903 -0.9450  0.6436 -0.1238
  888MPD2    H313076   0.871   3.382  14.726  2.2486  3.0395 -1.0514
  888MPD2     N13077   0.891   3.786  14.943 -0.4173  0.2567  0.0902
  888MPD2    H513078   0.859   3.833  15.027 -0.8005  0.5334 -0.2094
  888MPD2    N113079   0.632   3.422  15.112  0.0714 -0.0911  0.4898
  888MPD2    H713080   0.607   3.485  15.188 -0.3261 -1.7424  1.7424
  889MPD2     C13081   4.583   3.614  12.786 -0.0471  0.5419  0.0820
  889MPD2    C113082   4.650   3.536  12.876  1.2091 -0.5812  0.4432
  889MPD2    C213083   4.674   3.593  12.999  0.8722  0.3621 -0.2058
  889MPD2    C313084   4.642   3.721  13.037 -0.6558 -0.2925  0.1303
  889MPD2    C413085   4.573   3.797  12.945 -0.6329 -0.4720 -0.8557
  889MPD2    C513086   4.547   3.738  12.821 -0.3586 -0.0088  0.1922
  889MPD2     H13087   4.734   3.537  13.069 -0.4611  0.1730  0.7741
  889MPD2    H113088   4.536   3.898  12.963  1.2376  0.2041 -0.7778
  889MPD2    H213089   4.544   3.568  12.697  0.8000 -0.6925  0.3543
  889MPD2    H313090   4.490   3.787  12.743 -0.1983  0.6832  0.5139
  889MPD2     N13091   4.674   3.770  13.166 -0.3160 -0.2019  0.3632
  889MPD2    H513092   4.722   3.705  13.227 -1.6928 -0.7826  0.8211
  889MPD2    N113093   4.675   3.394  12.859 -0.0516  0.6044 -0.1075
  889MPD2    H713094   4.714   3.345  12.939  2.7514  1.0747 -1.2167
  890MPD2     C13095   4.567   0.242  14.326 -0.1117 -0.3544 -0.0161
  890MPD2    C113096   4.615   0.268  14.456  0.2802  0.5792 -0.0333
  890MPD2    C213097   4.660   0.152  14.519 -0.2080  0.2178  0.3870
  890MPD2    C313098   4.674   0.029  14.458  0.9126  0.4739  0.0744
  890MPD2    C413099   4.628   0.020  14.330  0.5494 -0.1936 -0.2543
  890MPD2    C513100   4.563   0.122  14.271  0.4983  0.1491 -1.0060
  890MPD2     H13101   4.702   0.157  14.619  0.4797  1.2500  0.0369
  890MPD2    H113102   4.625   4.663  14.276  1.1505 -0.5103  0.2606
  890MPD2    H213103   4.522   0.325  14.272 -0.2425 -0.1785  0.3581
  890MPD2    H313104   4.515   0.117  14.174 -1.1435 -1.8923 -0.0897
  890MPD2     N13105   4.727   4.660  14.529  0.0391  0.1196 -0.4918
  890MPD2    H513106   0.019   4.678  14.624  0.0100 -1.2904 -0.2175
  890MPD2    N113107   4.620   0.395  14.517 -0.3033  0.1267  0.4955
  890MPD2    H713108   4.584   0.473  14.462  0.9389 -0.9375 -1.8530
  891MPD2     C13109   2.327   3.398  16.579  0.0334  0.1293 -0.0075
  891MPD2    C113110   2.315   3.512  16.661  0.1826  0.1885 -0.0425
  891MPD2    C213111   2.356   3.493  16.792 -0.3869 -0.0264 -0.1113
  891MPD2    C313112   2.401   3.375  16.840 -0.5835  0.1609 -0.3153
  891MPD2    C413113   2.412   3.266  16.761  0.1126 -0.0526 -0.0548
  891MPD2    C513114   2.374   3.280  16.631 -0.0714  0.9675  0.7962
  891MPD2     H13115   2.348   3.580  16.856  0.9251  1.9802 -2.6622
  891MPD2    H113116   2.449   3.168  16.787 -1.8946 -0.8422 -0.1111
  891MPD2    H213117   2.291   3.393  16.477  2.2250  0.7778 -0.8174
  891MPD2    H313118   2.367   3.195  16.565  0.9057  0.9696  0.6861
  891MPD2     N13119   2.444   3.376  16.972  0.0850  0.0844  0.6980
  891MPD2    H513120   2.442   3.465  17.021  0.4429  0.6092 -0.2439
  891MPD2    N113121   2.260   3.626  16.601  0.0273 -1.0919  0.4220
  891MPD2    H713122   2.243   3.611  16.502 -1.2400  0.1312  0.4569
  892MPD2     C13123   3.711   4.233  14.771 -0.3425 -0.1987 -0.8152
  892MPD2    C113124   3.619   4.240  14.665 -0.2958 -1.0004  0.0754
  892MPD2    C213125   3.670   4.207  14.543 -0.4335 -0.1598  0.6540
  892MPD2    C313126   3.800   4.163  14.533 -0.2443  0.4945 -0.1571
  892MPD2    C413127   3.888   4.162  14.634  0.5210 -0.2034 -0.2522
  892MPD2    C513128   3.845   4.213  14.755  0.2702 -0.5194  0.3928
  892MPD2     H13129   3.601   4.214  14.459 -2.4528 -0.9472  2.2494
  892MPD2    H113130   3.994   4.141  14.630  0.2678 -1.2997 -1.0995
  892MPD2    H213131   3.688   4.257  14.874 -0.8148 -1.4728 -0.6283
  892MPD2    H313132   3.906   4.221  14.843  1.2830  1.3606 -0.4980
  892MPD2     N13133   3.841   4.099  14.418  0.2848  0.2255  0.2746
  892MPD2    H513134   3.942   4.100  14.413  0.4102  0.7408  3.2845
  892MPD2    N113135   3.482   4.260  14.669  0.3585 -0.6653  0.3561
  892MPD2    H713136   3.430   4.270  14.582 -1.2025 -0.9931  1.2652
  893MPD2     C13137   4.727   2.554   0.587  0.4276  0.3765  0.0440
  893MPD2    C113138   4.718   2.680   0.531  0.1669  0.3620 -0.1475
  893MPD2    C213139   4.619   2.711   0.435  0.9324 -0.0002 -0.0162
  893MPD2    C313140   4.525   2.619   0.402  0.1597  0.3871 -0.3570
  893MPD2    C413141   4.532   2.493   0.454  0.4439 -0.6401  0.0432
  893MPD2    C513142   4.631   2.459   0.548  0.3751 -0.2861  0.7265
  893MPD2     H13143   4.607   2.809   0.390 -0.9790 -0.9351 -1.5660
  893MPD2    H113144   4.462   2.419   0.417  1.1289 -0.9532 -0.6462
  893MPD2    H213145   0.061   2.529   0.665 -0.6321 -0.4326  0.7597
  893MPD2    H313146   4.633   2.359   0.590  0.6697 -0.4696  0.2760
  893MPD2     N13147   4.418   2.643   0.319  0.0989  0.1645 -0.5211
  893MPD2    H513148   4.356   2.563   0.305 -1.0229  1.4444 -2.8540
  893MPD2    N113149   0.063   2.778   0.588 -0.2094 -0.6672  0.0727
  893MPD2    H713150   0.110   2.745   0.672  2.6597  1.4661 -0.7105
  894MPD2     C13151   3.263   0.351   1.377 -0.4113  0.8525  0.3526
  894MPD2    C113152   3.158   0.439   1.341 -0.4891 -0.7711 -0.0412
  894MPD2    C213153   3.197   0.567   1.297  0.6133  0.1618  0.1124
  894MPD2    C313154   3.332   0.605   1.284 -0.3163  0.1389 -0.5419
  894MPD2    C413155   3.428   0.517   1.323 -0.6996  0.1014  0.0798
  894MPD2    C513156   3.393   0.388   1.361 -0.4282  0.2866  0.4801
  894MPD2     H13157   3.122   0.643   1.278 -0.4698 -1.1118 -0.7034
  894MPD2    H113158   3.533   0.543   1.318 -1.0940  1.2028 -2.3831
  894MPD2    H213159   3.253   0.250   1.417  1.1537  0.7383  0.4271
  894MPD2    H313160   3.473   0.319   1.385 -1.1628  0.1831  2.6561
  894MPD2     N13161   3.358   0.739   1.241 -0.3196  0.2475  0.2940
  894MPD2    H513162   3.273   0.788   1.214 -1.1033 -1.5054 -0.4207
  894MPD2    N113163   3.024   0.396   1.329  0.0725  0.0348 -0.2080
  894MPD2    H713164   2.960   0.460   1.282 -0.1986 -0.1117 -0.0377
  895MPD2     C13165   2.420   3.565  13.257  0.2557 -0.3151 -0.1056
  895MPD2    C113166   2.306   3.514  13.187 -0.0955  0.1426 -0.2817
  895MPD2    C213167   2.327   3.427  13.081 -0.0336  0.1002 -0.4677
  895MPD2    C313168   2.451   3.375  13.051  0.1794  0.5577 -0.5371
  895MPD2    C413169   2.563   3.422  13.113 -0.3950  0.3583  0.1498
  895MPD2    C513170   2.541   3.514  13.217  0.1109  0.4089 -0.0812
  895MPD2     H13171   2.245   3.391  13.020 -0.1650 -0.5149  0.0642
  895MPD2    H113172   2.663   3.386  13.096 -0.2804  0.9806 -0.4620
  895MPD2    H213173   2.411   3.642  13.332 -1.2237  2.1540 -2.7946
  895MPD2    H313174   2.629   3.540  13.273  0.5524  0.0699 -0.6136
  895MPD2     N13175   2.449   3.271  12.952  0.4249 -0.0991  0.1021
  895MPD2    H513176   2.363   3.257  12.899  0.7325  0.1520 -0.4681
  895MPD2    N113177   2.178   3.550  13.222  0.2613 -0.4497 -0.1477
  895MPD2    H713178   2.116   3.493  13.166 -2.0943  1.0019  0.9854
  896MPD2     C13179   1.010   1.089   1.517 -0.0817  0.3989 -0.6707
  896MPD2    C113180   0.975   1.089   1.390 -0.0300 -0.0287 -0.1465
  896MPD2    C213181   0.839   1.061   1.352 -0.0519  0.9094 -0.1266
  896MPD2    C313182   0.748   1.032   1.449 -0.0174  0.1614  0.1699
  896MPD2    C413183   0.792   1.012   1.582 -0.0704 -0.7302 -0.0740
  896MPD2    C513184   0.921   1.047   1.614  0.0731  0.0496  0.9227
  896MPD2     H13185   0.796   1.068   1.253  1.0555  1.5087 -0.5679
  896MPD2    H113186   0.723   1.006   1.665 -0.9321  1.5433 -0.6168
  896MPD2    H213187   1.110   1.104   1.556  0.2592 -1.4939 -0.8109
  896MPD2    H313188   0.955   1.045   1.717  0.7336 -0.2962  0.6947
  896MPD2     N13189   0.612   1.037   1.406 -0.6436 -0.1981 -0.6662
  896MPD2    H513190   0.600   1.055   1.306 -1.8246  0.1499 -0.4588
  896MPD2    N113191   1.071   1.119   1.294 -0.4208 -0.6728  0.1393
  896MPD2    H713192   1.168   1.111   1.325 -0.6980 -0.1350  1.1600
  897MPD2     C13193   1.274   2.974  10.355  0.1722  0.2187  0.3830
  897MPD2    C113194   1.245   3.106  10.353 -0.0747  0.0133 -0.2092
  897MPD2    C213195   1.148   3.152  10.444  0.6381  0.3163 -0.6241
  897MPD2    C313196   1.091   3.066  10.532  0.5121  1.0528 -0.0931
  897MPD2    C413197   1.117   2.931  10.528 -0.4990  0.4309  0.3952
  897MPD2    C513198   1.205   2.884  10.436 -0.1989 -0.5088 -1.3563
  897MPD2     H13199   1.121   3.257  10.452  1.4878  0.6060 -1.5928
  897MPD2    H113200   1.065   2.854  10.584  0.5955  0.2375  1.1178
  897MPD2    H213201   1.339   2.924  10.286  1.4331  0.2197  1.5716
  897MPD2    H313202   1.225   2.778  10.427  0.7989 -0.4057 -0.3056
  897MPD2     N13203   0.984   3.112  10.607 -0.2095 -0.1835 -0.0250
  897MPD2    H513204   0.957   3.207  10.585  0.5952 -0.0311 -0.3533
  897MPD2    N113205   1.295   3.184  10.249  0.0324 -0.1116  0.0943
  897MPD2    H713206   1.347   3.135  10.178 -1.3039  0.0667 -1.0005
  898MPD2     C13207   3.178   0.081   0.567 -0.8656 -0.2406 -0.5454
  898MPD2    C113208   3.229   4.733   0.465 -0.4346  1.1057 -0.1831
  898MPD2    C213209   3.200   0.030   0.331  0.2077 -0.0182  0.1189
  898MPD2    C313210   3.129   0.142   0.294  0.5653 -0.1449  0.1233
  898MPD2    C413211   3.086   0.231   0.391 -0.0046 -0.5199  0.4389
  898MPD2    C513212   3.111   0.192   0.519 -0.7560  0.3421 -0.1954
  898MPD2     H13213   3.247   4.710   0.252 -1.3254 -1.0988 -0.0075
  898MPD2    H113214   3.027   0.321   0.380  1.0485 -0.1593 -2.2284
  898MPD2    H213215   3.200   0.059   0.671  0.3773 -1.3256 -1.0301
  898MPD2    H313216   3.053   0.245   0.594  0.2901 -0.4751  1.1902
  898MPD2     N13217   3.111   0.170   0.149  0.3432  0.0179  0.2243
  898MPD2    H513218   3.164   0.114   0.083  0.8399 -0.0481  0.6801
  898MPD2    N113219   3.309   4.621   0.497  0.2307 -0.2205 -0.1099
  898MPD2    H713220   3.314   4.558   0.417  0.4506 -0.7237  0.3009
  899MPD2     C13221   3.949   4.493  17.119  0.0050  0.4334  0.7751
  899MPD2    C113222   3.930   4.607  17.192 -0.1180 -0.5674  0.2100
  899MPD2    C213223   3.894   4.593  17.329  0.3755  0.4061  0.3988
  899MPD2    C313224   3.881   4.473  17.390  0.8648 -0.7168 -0.1495
  899MPD2    C413225   3.900   4.358  17.312 -0.4501  0.4681  0.1701
  899MPD2    C513226   3.932   4.366  17.171 -0.6231 -0.2245 -0.5360
  899MPD2     H13227   3.874   4.684  17.386 -0.3011  0.2455  0.4146
  899MPD2    H113228   3.888   4.259  17.352 -0.5519  0.6961  0.7010
  899MPD2    H213229   3.974   4.496  17.014 -0.9621  0.8728  0.5654
  899MPD2    H313230   3.940   4.279  17.108 -0.7979 -1.8513  1.6894
  899MPD2     N13231   3.838   4.462  17.518  0.5223 -0.6093  0.5133
  899MPD2    H513232   3.812   4.367  17.545 -0.4399 -0.3223  0.5864
  899MPD2    N113233   3.948   4.728  17.125  0.0158  0.8900  0.5555
  899MPD2    H713234   3.965   4.724  17.025 -0.6325 -0.4110  0.5077
  900MPD2     C13235   3.880   1.366  12.516 -0.8598  1.3768  0.8772
  900MPD2    C113236   3.763   1.287  12.507 -0.1864  0.1663 -0.3275
  900MPD2    C213237   3.663   1.319  12.417  0.3571  0.5615  0.1070
  900MPD2    C313238   3.679   1.435  12.340 -0.3829 -0.6426  0.3236
  900MPD2    C413239   3.787   1.521  12.364  0.3311 -0.4089  0.0707
  900MPD2    C513240   3.891   1.482  12.451  0.2709 -0.2662  1.2721
  900MPD2     H13241   3.575   1.257  12.405  1.8996 -1.5111 -0.2800
  900MPD2    H113242   3.789   1.618  12.315 -0.2898 -0.7476 -0.6150
  900MPD2    H213243   3.968   1.340  12.573  1.9564 -0.3093 -4.2593
  900MPD2    H313244   3.986   1.535  12.450 -1.0263  2.0120 -3.0321
  900MPD2     N13245   3.577   1.457  12.250 -0.1178 -0.2213  0.8128
  900MPD2    H513246   3.497   1.394  12.247  0.4477 -0.9035  0.1647
  900MPD2    N113247   3.751   1.171  12.584  0.0925  0.0322  1.0398
  900MPD2    H713248   3.827   1.139  12.644  0.4830  0.3605  0.7153
  901MPD2     C13249   3.262   0.232  12.827  0.0109 -0.1863  1.2544
  901MPD2    C113250   3.385   0.237  12.877 -0.6643  0.0941 -0.2027
  901MPD2    C213251   3.468   0.348  12.859  0.7110 -0.0597  0.1104
  901MPD2    C313252   3.412   0.453  12.788  0.0455  0.7967  0.9756
  901MPD2    C413253   3.283   0.454  12.738 -0.1478  0.3398 -0.1346
  901MPD2    C513254   3.208   0.345  12.772  0.1128  0.9491 -0.7351
  901MPD2     H13255   3.568   0.359  12.899  0.3433 -0.1576  1.0532
  901MPD2    H113256   3.237   0.525  12.671  0.0880  1.7256  1.1753
  901MPD2    H213257   3.210   0.137  12.834 -1.2329  0.3857 -0.2307
  901MPD2    H313258   3.106   0.344  12.734 -1.0261 -1.1504  2.4208
  901MPD2     N13259   3.505   0.556  12.756 -0.1885 -0.0776 -0.4919
  901MPD2    H513260   3.596   0.545  12.801 -0.6264 -0.7251  0.2459
  901MPD2    N113261   3.423   0.116  12.934  0.3789 -0.2004  0.4967
  901MPD2    H713262   3.372   0.029  12.922  0.7291 -0.2936 -0.3271
  902MPD2     C13263   2.060   4.494  12.737  0.4604  0.0508 -0.6682
  902MPD2    C113264   2.115   4.619  12.714 -0.7170  0.1722 -0.8862
  902MPD2    C213265   2.223   4.627  12.624 -0.0838 -0.5040 -0.6917
  902MPD2    C313266   2.270   4.515  12.560 -0.1728 -0.9809  0.0334
  902MPD2    C413267   2.215   4.393  12.593 -0.0348 -1.0169 -0.4132
  902MPD2    C513268   2.112   4.386  12.677 -0.4467 -0.2911  0.1485
  902MPD2     H13269   2.257   4.727  12.601  0.7621 -0.6514 -0.0916
  902MPD2    H113270   2.269   4.302  12.567 -2.1754 -2.8346  1.4638
  902MPD2    H213271   1.974   4.485  12.802 -0.5054 -3.3179 -2.4347
  902MPD2    H313272   2.077   4.285  12.697 -1.4775  0.3515  1.5809
  902MPD2     N13273   2.367   4.515  12.455  0.5451 -0.4446  0.2357
  902MPD2    H513274   2.427   4.434  12.444 -2.0753 -2.2955 -0.3841
  902MPD2    N113275   2.053   0.002  12.771  0.5742 -0.2129 -0.3973
  902MPD2    H713276   1.956   4.736  12.800  0.7084 -1.4114 -0.0963
  903MPD2     C13277   2.512   4.289  11.660 -0.4488 -0.2587 -0.2634
  903MPD2    C113278   2.447   4.386  11.734 -0.3894  0.0941 -0.3029
  903MPD2    C213279   2.310   4.405  11.725  0.6551  0.4157  0.1850
  903MPD2    C313280   2.238   4.329  11.634  0.1908  0.6026 -0.2583
  903MPD2    C413281   2.300   4.234  11.551  0.7616 -0.2248  0.2252
  903MPD2    C513282   2.435   4.216  11.568  0.4926 -0.9029  0.2311
  903MPD2     H13283   2.258   4.480  11.784  0.0162 -0.1375  0.3143
  903MPD2    H113284   2.254   4.166  11.480 -0.7326  1.6271 -0.5905
  903MPD2    H213285   2.611   4.251  11.683 -1.5688 -2.9268  0.1679
  903MPD2    H313286   2.486   4.133  11.520 -0.4525 -0.7058 -1.0873
  903MPD2     N13287   2.098   4.340  11.638 -0.2584 -0.7060  0.4609
  903MPD2    H513288   2.057   4.413  11.696  1.3138  2.2954 -2.1904
  903MPD2    N113289   2.521   4.449  11.839 -0.4638  0.6499 -0.2487
  903MPD2    H713290   2.612   4.415  11.867 -0.6449  1.2751  1.0826
  904MPD2     C13291   2.308   2.947  13.337 -0.5326  0.1455  0.2232
  904MPD2    C113292   2.311   2.854  13.442 -0.8847 -0.1489 -0.0366
  904MPD2    C213293   2.412   2.840  13.528 -0.1968 -1.0548  0.3984
  904MPD2    C313294   2.526   2.918  13.508 -0.1759  0.0024  0.2547
  904MPD2    C413295   2.529   3.010  13.403  0.0988 -0.7706 -0.6561
  904MPD2    C513296   2.420   3.012  13.317 -0.2752  0.6241  0.0534
  904MPD2     H13297   2.406   2.771  13.611 -0.8908 -1.2662  0.1798
  904MPD2    H113298   2.602   3.088  13.382  0.0663 -0.9274 -1.3359
  904MPD2    H213299   2.229   2.958  13.263  0.4946  0.2952 -0.8399
  904MPD2    H313300   2.424   3.076  13.229  1.8033 -1.2945 -1.2293
  904MPD2     N13301   2.629   2.910  13.604  0.2420  0.9339  0.2531
  904MPD2    H513302   2.622   2.841  13.678  0.0280 -1.6977 -2.2394
  904MPD2    N113303   2.192   2.779  13.476  0.8126  0.2425 -1.1905
  904MPD2    H713304   2.205   2.699  13.538 -1.4832  1.8914  1.3684
  905MPD2     C13305   1.725   3.160  12.961  0.3772 -0.2818  0.2430
  905MPD2    C113306   1.847   3.180  13.026 -0.1202 -0.6914 -0.6416
  905MPD2    C213307   1.960   3.174  12.949  1.0450 -0.5251  0.8304
  905MPD2    C313308   1.947   3.137  12.812  0.3346 -0.1581 -0.5304
  905MPD2    C413309   1.825   3.116  12.748 -0.5742  0.4982 -0.5454
  905MPD2    C513310   1.715   3.139  12.825 -0.3587 -0.2574  0.1941
  905MPD2     H13311   2.056   3.173  12.999  1.3991  2.0275  0.2120
  905MPD2    H113312   1.813   3.102  12.641  1.6738 -1.7869 -0.4970
  905MPD2    H213313   1.630   3.162  13.013  0.9983 -1.0900  1.3977
  905MPD2    H313314   1.616   3.137  12.780  0.0420  2.3796 -0.7887
  905MPD2     N13315   2.063   3.126  12.729  0.3619 -0.2430  0.1677
  905MPD2    H513316   2.055   3.077  12.641  0.5805  1.4793 -0.7986
  905MPD2    N113317   1.841   3.189  13.165 -0.0441 -0.3016  0.3520
  905MPD2    H713318   1.766   3.150  13.220  0.0706 -0.6389  0.2697
  906MPD2     C13319   4.368   3.691  10.948 -0.1576 -0.0471  0.4396
  906MPD2    C113320   4.452   3.602  10.877  0.2588 -0.4153 -0.6646
  906MPD2    C213321   4.483   3.475  10.932  0.1292 -0.5675 -0.1044
  906MPD2    C313322   4.424   3.439  11.050 -0.3553  0.4244 -0.5874
  906MPD2    C413323   4.338   3.528  11.114  0.3445  0.1512 -0.4605
  906MPD2    C513324   4.310   3.647  11.066  0.4089  0.0500  0.5612
  906MPD2     H13325   4.538   3.407  10.868 -1.3984 -0.9986 -0.9707
  906MPD2    H113326   4.292   3.506  11.210 -0.5087 -0.7922 -1.0833
  906MPD2    H213327   4.342   3.790  10.914  1.8256 -0.1319 -1.3014
  906MPD2    H313328   4.248   3.716  11.122  0.3129 -0.8203  1.5190
  906MPD2     N13329   4.429   3.308  11.111  0.0515 -0.1536  0.8301
  906MPD2    H513330   4.378   3.285  11.196  0.6087 -1.1111  0.9004
  906MPD2    N113331   4.501   3.635  10.750  1.0504  0.1218  0.4684
  906MPD2    H713332   4.579   3.578  10.717  2.8573  2.3852  0.8122
  907MPD2     C13333   3.560   2.470  15.665 -0.5175  0.0023  0.3525
  907MPD2    C113334   3.568   2.332  15.652 -1.3439  0.0579 -0.9889
  907MPD2    C213335   3.577   2.254  15.762  0.3009  0.1600  0.3933
  907MPD2    C313336   3.585   2.312  15.894  0.1714  0.2107 -0.6918
  907MPD2    C413337   3.581   2.445  15.903  0.4437 -0.0366 -0.2018
  907MPD2    C513338   3.564   2.525  15.789  0.8090 -0.0192  0.5255
  907MPD2     H13339   3.580   2.146  15.748 -0.0278  0.2641 -0.4591
  907MPD2    H113340   3.595   2.502  15.994 -1.1050  0.5773 -0.3388
  907MPD2    H213341   3.552   2.534  15.579  0.6660  0.2269  0.4067
  907MPD2    H313342   3.559   2.633  15.793  2.2294  0.0699 -0.0733
  907MPD2     N13343   3.600   2.232  16.009 -0.6392 -0.0500 -0.2738
  907MPD2    H513344   3.618   2.134  15.991  1.5102  0.3254 -0.0632
  907MPD2    N113345   3.572   2.273  15.518 -0.6249  0.3110  0.3039
  907MPD2    H713346   3.574   2.171  15.515 -3.8177  0.2715 -0.9950
  908MPD2     C13347   0.890   3.075   9.519 -0.4795  1.0995  0.3480
  908MPD2    C113348   0.987   3.001   9.582 -0.5909  0.9050  0.2332
  908MPD2    C213349   1.085   3.070   9.654 -0.0144  0.6632  0.2135
  908MPD2    C313350   1.079   3.207   9.675 -0.4001 -0.6237  0.2813
  908MPD2    C413351   0.973   3.276   9.622  0.0214 -0.4966 -0.6347
  908MPD2    C513352   0.887   3.212   9.541 -0.1573 -0.1531  0.5410
  908MPD2     H13353   1.168   3.013   9.694 -2.8406 -0.4539  4.4535
  908MPD2    H113354   0.959   3.382   9.637  2.4213 -0.4212  1.0589
  908MPD2    H213355   0.822   3.026   9.450 -0.4344  1.2793  0.1782
  908MPD2    H313356   0.797   3.257   9.500  0.6857  1.7580  0.8060
  908MPD2     N13357   1.179   3.263   9.758 -0.3118  0.5201  1.3328
  908MPD2    H513358   1.250   3.197   9.788  0.4442  0.1978 -1.1174
  908MPD2    N113359   1.010   2.866   9.541  0.7668 -0.0031  0.0217
  908MPD2    H713360   0.948   2.828   9.469  1.0446 -0.1629 -0.1332
  909MPD2     C13361   1.471   1.379  11.691  0.2443  0.0744 -0.9308
  909MPD2    C113362   1.526   1.501  11.722 -0.9329 -0.2788  0.9040
  909MPD2    C213363   1.468   1.571  11.826  0.2322 -0.2204  0.0638
  909MPD2    C313364   1.370   1.519  11.907  0.5220 -0.4951 -0.3141
  909MPD2    C413365   1.328   1.393  11.883 -0.1966  0.0792 -0.3248
  909MPD2    C513366   1.371   1.328  11.769  0.1556 -0.1314 -0.5903
  909MPD2     H13367   1.507   1.671  11.845 -2.2221  0.6831  0.3082
  909MPD2    H113368   1.260   1.344  11.951 -0.2696 -0.6941 -0.9538
  909MPD2    H213369   1.514   1.302  11.629 -0.1921 -1.8980  1.2017
  909MPD2    H313370   1.337   1.227  11.751 -1.7828  0.1808  1.3396
  909MPD2     N13371   1.335   1.608  12.016 -0.5745 -0.0729  0.0800
  909MPD2    H513372   1.393   1.690  12.034  1.1490 -1.3663  0.3208
  909MPD2    N113373   1.628   1.554  11.642  0.3438  0.2323 -0.5703
  909MPD2    H713374   1.671   1.641  11.670  2.1735 -0.7760 -0.2263
  910MPD2     C13375   2.474   2.981  15.817  0.6169  0.6635 -0.1642
  910MPD2    C113376   2.575   2.919  15.742  0.5431 -0.1729  0.2603
  910MPD2    C213377   2.554   2.909  15.600 -0.3815  0.3412 -0.2263
  910MPD2    C313378   2.438   2.959  15.540 -0.2242 -0.2826  0.4489
  910MPD2    C413379   2.348   3.016  15.620  0.2516  0.2939  0.1283
  910MPD2    C513380   2.366   3.029  15.753  0.0108 -0.2935 -0.3557
  910MPD2     H13381   2.626   2.869  15.530  1.6719  0.9051  1.5568
  910MPD2    H113382   2.265   3.071  15.577 -0.1468 -0.1109  0.3833
  910MPD2    H213383   2.486   3.005  15.922  1.6299  0.9873 -0.3581
  910MPD2    H313384   2.298   3.096  15.805 -1.2977  0.0287 -2.4843
  910MPD2     N13385   2.424   2.979  15.401 -0.5579 -0.1483 -0.2517
  910MPD2    H513386   2.337   3.027  15.377 -1.0086 -0.9931 -0.2979
  910MPD2    N113387   2.695   2.871  15.790 -0.1192 -0.0751 -0.6450
  910MPD2    H713388   2.750   2.823  15.719  1.6314 -2.1235  2.1268
  911MPD2     C13389   0.716   3.272  16.487 -0.0116 -0.5583  0.2168
  911MPD2    C113390   0.768   3.390  16.436  0.6783  0.2738  0.2203
  911MPD2    C213391   0.685   3.487  16.396  0.1253  0.4306 -0.0485
  911MPD2    C313392   0.551   3.476  16.385 -0.1612 -0.4974  0.0998
  911MPD2    C413393   0.498   3.359  16.433  0.6631  0.3753  0.2434
  911MPD2    C513394   0.579   3.260  16.488 -0.5953  0.2037 -0.5755
  911MPD2     H13395   0.729   3.571  16.342 -0.4996  2.2879  2.3211
  911MPD2    H113396   0.393   3.342  16.414  0.2236  1.2381  1.9174
  911MPD2    H213397   0.773   3.185  16.520 -0.2689 -1.0924 -0.7619
  911MPD2    H313398   0.539   3.167  16.526  1.7585 -1.1384 -1.3683
  911MPD2     N13399   0.471   3.561  16.292  0.0297 -0.6350  0.0267
  911MPD2    H513400   0.376   3.529  16.276  0.7442 -1.9392 -1.5245
  911MPD2    N113401   0.902   3.400  16.425  0.4206  0.2153  0.0573
  911MPD2    H713402   0.951   3.314  16.449  1.9715  0.7645 -1.1344
  912MPD2     C13403   0.169   3.267  15.634  0.8237  0.1816 -0.2575
  912MPD2    C113404   0.227   3.281  15.759  0.3475  0.1752 -0.4748
  912MPD2    C213405   0.244   3.169  15.835 -0.0580  0.8095 -0.1365
  912MPD2    C313406   0.236   3.038  15.776 -0.3215 -0.3614 -0.0321
  912MPD2    C413407   0.197   3.027  15.649 -0.3612  0.4113  0.7142
  912MPD2    C513408   0.153   3.137  15.581 -0.2055 -0.5991  0.0811
  912MPD2     H13409   0.273   3.175  15.939  1.3934  1.4585 -0.5872
  912MPD2    H113410   0.186   2.935  15.592  0.5813  1.5432 -1.3080
  912MPD2    H213411   0.143   3.354  15.574 -0.3769  0.0843  0.1111
  912MPD2    H313412   0.131   3.127  15.476  1.6224  0.5845 -0.3960
  912MPD2     N13413   0.249   2.921  15.862  0.4192 -0.7887  0.7130
  912MPD2    H513414   0.271   2.931  15.960  0.1844 -1.5175  0.8457
  912MPD2    N113415   0.253   3.409  15.815  0.2601 -0.1141 -0.5411
  912MPD2    H713416   0.261   3.484  15.747  1.6349 -0.2930 -0.5795
  913MPD2     C13417   1.243   0.898  10.999  0.9874  0.4253 -0.1311
  913MPD2    C113418   1.237   0.771  10.944 -0.6106 -0.2748  0.3543
  913MPD2    C213419   1.281   0.751  10.810  0.0244  0.8956 -0.3517
  913MPD2    C313420   1.333   0.859  10.736 -0.0803  0.0799  0.0952
  913MPD2    C413421   1.355   0.977  10.799  0.1935  0.4364 -0.0275
  913MPD2    C513422   1.315   0.995  10.931 -0.5281 -0.4124 -0.5664
  913MPD2     H13423   1.262   0.662  10.751  1.8598 -0.9513  1.8494
  913MPD2    H113424   1.373   1.069  10.745  2.2346 -1.1186 -1.9528
  913MPD2    H213425   1.197   0.919  11.095  1.2732  0.4522  0.0002
  913MPD2    H313426   1.320   1.093  10.976 -1.1937 -1.0519  0.9171
  913MPD2     N13427   1.348   0.860  10.599  0.0325 -0.3238 -0.0983
  913MPD2    H513428   1.397   0.942  10.566  0.6922 -0.6965 -0.0456
  913MPD2    N113429   1.176   0.676  11.027  0.5213 -0.2822  0.5073
  913MPD2    H713430   1.133   0.720  11.108 -0.4597 -1.1361  0.4499
  914MPD2     C13431   3.569   4.737  12.203 -0.7800 -0.1299 -0.0675
  914MPD2    C113432   3.570   0.104  12.296  0.0211  0.0502  0.2970
  914MPD2    C213433   3.602   0.071  12.426  0.3996 -0.6002  0.0233
  914MPD2    C313434   3.629   4.681  12.468  0.3992  0.2272  0.2010
  914MPD2    C413435   3.650   4.584  12.370 -0.2310  0.2740  0.3598
  914MPD2    C513436   3.609   4.617  12.241  0.5534 -0.4994  0.2503
  914MPD2     H13437   3.583   0.149  12.499 -0.8376  1.3475 -2.3772
  914MPD2    H113438   3.669   4.481  12.395  1.5458  1.0924  2.3687
  914MPD2    H213439   3.540   0.012  12.099  1.9036 -2.0946 -1.0494
  914MPD2    H313440   3.614   4.541  12.163  0.2301 -0.2232 -0.0424
  914MPD2     N13441   3.637   4.651  12.609 -0.6680  0.3180 -0.0214
  914MPD2    H513442   3.614   4.730  12.669  2.3254  1.1956 -0.0143
  914MPD2    N113443   3.544   0.233  12.246  0.0829  0.5468  0.2991
  914MPD2    H713444   3.513   0.246  12.151 -1.4473  1.7903  0.9641
  915MPD2     C13445   2.035   0.358  15.461  0.3508 -0.0356 -0.1180
  915MPD2    C113446   1.923   0.288  15.478 -0.9470 -0.1696 -0.1175
  915MPD2    C213447   1.867   0.286  15.608 -1.1229  0.3526 -0.1125
  915MPD2    C313448   1.920   0.346  15.715  0.0723  0.0774 -0.0600
  915MPD2    C413449   2.041   0.415  15.692  0.3684 -0.1266 -0.8049
  915MPD2    C513450   2.098   0.424  15.564  0.8904  0.1762 -0.0157
  915MPD2     H13451   1.779   0.225  15.622 -0.8887 -0.3747 -1.8448
  915MPD2    H113452   2.089   0.463  15.777  1.7860  0.2115 -1.7931
  915MPD2    H213453   2.085   0.366  15.365  0.2021  1.4891 -0.0744
  915MPD2    H313454   2.185   0.489  15.558  3.0601 -2.9263 -2.0680
  915MPD2     N13455   1.869   0.341  15.848 -0.1415  0.0705  0.7039
  915MPD2    H513456   1.926   0.381  15.922  0.7174  0.6677 -0.2851
  915MPD2    N113457   1.861   0.224  15.364 -0.0440 -0.0154 -0.2768
  915MPD2    H713458   1.887   0.252  15.270  0.7184  3.0002  0.8584
  916MPD2     C13459   4.519   3.544  15.874  0.6162 -0.2767  0.1563
  916MPD2    C113460   4.521   3.420  15.932 -0.1954 -0.2214  0.0225
  916MPD2    C213461   4.539   3.309  15.850  0.3884 -0.2988  1.1664
  916MPD2    C313462   4.547   3.324  15.714 -0.1302  0.2688  0.1351
  916MPD2    C413463   4.555   3.454  15.657 -1.7020 -0.8767 -0.5887
  916MPD2    C513464   4.539   3.558  15.741 -0.1649  0.3850  0.3803
  916MPD2     H13465   4.536   3.205  15.882 -1.6171 -0.7821 -0.5435
  916MPD2    H113466   4.575   3.481  15.554 -2.0357 -2.4260 -1.0479
  916MPD2    H213467   4.506   3.636  15.931  1.4320  0.4559 -0.8413
  916MPD2    H313468   4.531   3.653  15.689  0.9042  0.3204  0.0987
  916MPD2     N13469   4.559   3.199  15.642  0.0077  0.0081 -0.0861
  916MPD2    H513470   4.569   3.113  15.696  1.6557  0.4630  0.3255
  916MPD2    N113471   4.492   3.424  16.070 -0.2031  0.2224  0.2769
  916MPD2    H713472   4.462   3.509  16.116  1.3071  0.4919  0.7509
  917MPD2     C13473   0.539   0.492  12.374  0.5914 -0.5466 -0.2662
  917MPD2    C113474   0.433   0.574  12.336 -0.1416 -0.1760  0.5436
  917MPD2    C213475   0.446   0.657  12.225 -0.3826 -0.2600 -0.0056
  917MPD2    C313476   0.568   0.673  12.161 -0.3709 -0.3463  0.9751
  917MPD2    C413477   0.673   0.595  12.206  0.2512 -0.5544 -0.2548
  917MPD2    C513478   0.662   0.498  12.303 -0.2443  0.6703 -1.1941
  917MPD2     H13479   0.367   0.717  12.181  0.7629  2.8776  2.2291
  917MPD2    H113480   0.770   0.614  12.162 -0.5878  0.8978 -1.4823
  917MPD2    H213481   0.531   0.428  12.461 -0.2216 -1.4266 -0.9851
  917MPD2    H313482   0.746   0.439  12.336 -1.9178 -1.8930 -1.5175
  917MPD2     N13483   0.604   0.754  12.043 -0.9541  0.3520  0.0727
  917MPD2    H513484   0.699   0.742  12.010 -1.2216 -2.6085  0.4577
  917MPD2    N113485   0.308   0.577  12.402  0.1116 -0.2994  0.0111
  917MPD2    H713486   0.248   0.651  12.367  0.2150 -0.9744 -1.5737
  918MPD2     C13487   0.184   1.146  12.085  0.3331 -0.1867  0.1010
  918MPD2    C113488   0.255   1.122  12.198  0.2353  0.4887  0.2989
  918MPD2    C213489   0.202   1.038  12.295  0.9397 -0.2998  0.1369
  918MPD2    C313490   0.086   0.973  12.280 -0.3035  0.1028  0.0224
  918MPD2    C413491   0.020   0.984  12.164  0.0543  0.6991  0.2257
  918MPD2    C513492   0.064   1.072  12.071  0.9675 -0.3950 -0.2114
  918MPD2     H13493   0.257   1.028  12.388 -0.4489  0.8144  1.0787
  918MPD2    H113494   4.671   0.925  12.135  1.1532 -0.3643 -0.8768
  918MPD2    H213495   0.213   1.220  12.012  2.0422 -1.2862 -0.3365
  918MPD2    H313496   0.013   1.088  11.976 -0.0692 -3.0901 -0.1155
  918MPD2     N13497   0.048   0.889  12.381 -0.0707  0.1503 -0.3459
  918MPD2    H513498   0.106   0.887  12.464 -1.2908  0.8641  0.5286
  918MPD2    N113499   0.377   1.186  12.225  0.2798 -0.0157 -0.8915
  918MPD2    H713500   0.413   1.167  12.318  0.5923 -1.9660 -1.4091
  919MPD2     C13501   0.475   4.638  11.401 -0.2767  0.5130  0.4911
  919MPD2    C113502   0.447   4.532  11.316  0.0020  0.1536 -0.2358
  919MPD2    C213503   0.466   4.556  11.186 -0.2944 -0.2858  0.1512
  919MPD2    C313504   0.485   4.679  11.130  0.0738  0.0439 -0.4008
  919MPD2    C413505   0.489   0.057  11.209 -0.2384 -0.4004  0.3770
  919MPD2    C513506   0.483   0.025  11.343  0.4762 -0.7662  0.0520
  919MPD2     H13507   0.446   4.472  11.121 -0.3952 -1.4668  1.7313
  919MPD2    H113508   0.514   0.158  11.176  0.1362 -1.0291 -1.2935
  919MPD2    H213509   0.481   4.633  11.509  2.6277 -0.1386  0.3067
  919MPD2    H313510   0.509   0.108  11.408 -0.5369 -0.9281  0.6569
  919MPD2     N13511   0.481   4.680  10.990  0.2526 -0.1226 -0.0989
  919MPD2    H513512   0.460   4.592  10.944 -1.1406  1.0410 -1.7188
  919MPD2    N113513   0.425   4.400  11.361  1.5142  0.4854  0.0751
  919MPD2    H713514   0.440   4.325  11.294 -0.5411  0.4650 -0.3777
  920MPD2     C13515   0.098   0.656  10.389  0.0287  0.6188  0.2315
  920MPD2    C113516   0.046   0.584  10.493  0.9474  0.4700 -0.7221
  920MPD2    C213517   0.116   0.478  10.539  0.6560 -0.3017  0.6204
  920MPD2    C313518   0.247   0.454  10.498 -0.4335  0.0915 -0.6053
  920MPD2    C413519   0.295   0.526  10.392  0.3084 -0.2296  0.5394
  920MPD2    C513520   0.218   0.626  10.336 -0.5245 -0.4109  0.7190
  920MPD2     H13521   0.076   0.415  10.618  2.4484  1.0528  2.5902
  920MPD2    H113522   0.394   0.506  10.352  0.8089  1.6798  0.8173
  920MPD2    H213523   0.034   0.739  10.359 -2.2344 -0.8751  0.9879
  920MPD2    H313524   0.258   0.683  10.253  0.8786 -1.0655  0.9482
  920MPD2     N13525   0.308   0.344  10.570  0.5084  0.0376  0.0525
  920MPD2    H513526   0.254   0.290  10.637 -0.0771  1.4174  0.6848
  920MPD2    N113527   4.663   0.616  10.563  0.0546  0.5787 -0.2369
  920MPD2    H713528   4.643   0.565  10.648 -2.6454  1.1204 -0.5497
  921MPD2     C13529   1.580   4.037  16.775  0.3950 -0.8223 -0.6083
  921MPD2    C113530   1.628   3.946  16.680 -0.2440 -0.1413  0.5752
  921MPD2    C213531   1.566   3.829  16.648  0.1075 -0.1317  0.0386
  921MPD2    C313532   1.438   3.813  16.696  0.6800  0.2999  0.6478
  921MPD2    C413533   1.384   3.900  16.779 -0.0545  0.5274  0.1978
  921MPD2    C513534   1.455   4.010  16.827  0.9587 -0.2191 -0.4235
  921MPD2     H13535   1.594   3.756  16.573  2.4368  0.2031  0.5748
  921MPD2    H113536   1.286   3.883  16.822 -0.4201 -2.6046 -1.8507
  921MPD2    H213537   1.627   4.135  16.779  1.0492 -1.1330 -0.8550
  921MPD2    H313538   1.409   4.080  16.896  0.5234 -1.7981  0.8928
  921MPD2     N13539   1.359   3.706  16.667  0.0494  0.7672 -0.4137
  921MPD2    H513540   1.260   3.702  16.690 -0.3957  2.3172 -2.0376
  921MPD2    N113541   1.758   3.977  16.624 -0.2480  0.2283  0.0211
  921MPD2    H713542   1.808   4.050  16.673 -1.1306 -0.5521  2.1445
  922MPD2     C13543   2.600   2.504  17.296 -0.4837 -0.6952  0.2718
  922MPD2    C113544   2.561   2.425  17.405 -0.5045 -0.2039 -0.6688
  922MPD2    C213545   2.537   2.290  17.389 -0.4878 -0.8602  0.3666
  922MPD2    C313546   2.554   2.230  17.263 -0.1982  0.7667 -0.3787
  922MPD2    C413547   2.580   2.311  17.151 -0.3977  0.8108  0.0100
  922MPD2    C513548   2.603   2.444  17.174 -1.2700 -0.2891 -0.2284
  922MPD2     H13549   2.518   2.228  17.476 -3.4632 -2.8058 -1.6585
  922MPD2    H113550   2.582   2.273  17.049 -1.9219  0.2108  0.1944
  922MPD2    H213551   2.622   2.609  17.308  1.3238 -0.9463 -0.9874
  922MPD2    H313552   2.635   2.504  17.090 -1.2833 -1.4038 -1.0366
  922MPD2     N13553   2.513   2.096  17.246 -0.4084  0.4292  0.4897
  922MPD2    H513554   2.475   2.049  17.328  2.1688 -1.4730  0.6090
  922MPD2    N113555   2.550   2.476  17.541  0.7269  0.0569  0.4860
  922MPD2    H713556   2.499   2.416  17.605 -0.6972  2.5589  1.6889
  923MPD2     C13557   3.166   3.685   9.026 -0.4867  0.0166 -0.2297
  923MPD2    C113558   3.185   3.786   9.120  0.5251  0.3393  0.6411
  923MPD2    C213559   3.300   3.779   9.200 -0.1081 -0.3578 -0.1543
  923MPD2    C313560   3.391   3.674   9.193 -0.3915 -0.2624  0.2098
  923MPD2    C413561   3.361   3.571   9.103  0.2455  1.1613  0.6790
  923MPD2    C513562   3.241   3.575   9.024 -0.0446  0.8690  0.4403
  923MPD2     H13563   3.322   3.857   9.272  2.2671 -0.3516 -0.8609
  923MPD2    H113564   3.439   3.501   9.077 -0.2381  0.7684  0.2574
  923MPD2    H213565   3.071   3.682   8.972 -1.1957 -2.8441  1.1524
  923MPD2    H313566   3.211   3.496   8.957  0.7535  1.0400 -0.1174
  923MPD2     N13567   3.525   3.672   9.252 -0.7028  0.5362  0.1150
  923MPD2    H513568   3.573   3.586   9.228 -0.1223  2.0931 -4.2825
  923MPD2    N113569   3.074   3.875   9.129  0.1630 -0.0219 -0.2391
  923MPD2    H713570   2.998   3.870   9.063  1.4948  0.4319 -1.7921
  924MPD2     C13571   3.725   1.348  16.246 -0.3637 -0.5050 -0.3260
  924MPD2    C113572   3.697   1.438  16.144 -0.6156 -0.2622 -0.4301
  924MPD2    C213573   3.720   1.569  16.172  0.5966 -0.2678 -0.6806
  924MPD2    C313574   3.748   1.609  16.294  0.1887  0.6173  0.0192
  924MPD2    C413575   3.746   1.524  16.397  0.1276 -0.4087  0.4456
  924MPD2    C513576   3.743   1.390  16.376  0.0002 -0.4710  0.3456
  924MPD2     H13577   3.711   1.643  16.093  1.8196 -0.5208 -1.0665
  924MPD2    H113578   3.765   1.554  16.499  0.2748 -1.4734  0.7248
  924MPD2    H213579   3.710   1.242  16.225  0.2023 -0.7957  0.7614
  924MPD2    H313580   3.772   1.326  16.458 -0.6185  0.3175  1.1858
  924MPD2     N13581   3.761   1.751  16.330  0.7391 -0.4846 -0.1750
  924MPD2    H513582   3.766   1.775  16.429  3.2543 -1.1311 -0.1664
  924MPD2    N113583   3.660   1.389  16.016 -0.5546 -0.3839  0.5273
  924MPD2    H713584   3.692   1.295  15.994  1.4146 -0.1792  2.5363
  925MPD2     C13585   2.921   3.967  14.873 -0.0545  0.7372  0.6055
  925MPD2    C113586   2.801   3.998  14.813  1.0003  0.0001 -0.3188
  925MPD2    C213587   2.703   4.080  14.870 -0.2057  0.2649  0.3695
  925MPD2    C313588   2.726   4.128  14.994  0.2678  0.1626 -0.0095
  925MPD2    C413589   2.845   4.099  15.057  0.0188  0.3114 -0.4697
  925MPD2    C513590   2.933   4.015  15.001 -0.2768 -1.0084  0.2505
  925MPD2     H13591   2.610   4.092  14.814  0.8621  0.6618 -1.3108
  925MPD2    H113592   2.864   4.143  15.154  1.0224 -3.1589  0.9016
  925MPD2    H213593   2.997   3.904  14.828  0.5719  3.4375 -2.0812
  925MPD2    H313594   3.029   3.993  15.047 -0.4153 -0.3803  0.8507
  925MPD2     N13595   2.636   4.199  15.074  0.6571  0.4616 -0.1239
  925MPD2    H513596   2.657   4.209  15.172  1.0700  1.9403 -0.3637
  925MPD2    N113597   2.777   3.969  14.675 -0.1357 -0.7158  0.5929
  925MPD2    H713598   2.696   4.015  14.635 -0.3087 -1.1422  0.4486
  926MPD2     C13599   0.946   2.684  13.220  0.5625 -0.3499  0.3178
  926MPD2    C113600   0.856   2.796  13.220  0.2542  0.4299 -0.0503
  926MPD2    C213601   0.885   2.904  13.143  0.9429  0.3641  0.2040
  926MPD2    C313602   0.990   2.900  13.052 -0.7936  0.0070 -0.4713
  926MPD2    C413603   1.074   2.787  13.053  0.7363  0.0483 -0.2509
  926MPD2    C513604   1.054   2.682  13.138 -0.2666 -0.2792 -0.1835
  926MPD2     H13605   0.822   2.993  13.143  1.9673  1.0980  1.6976
  926MPD2    H113606   1.160   2.776  12.987 -0.0230  1.4037 -1.4450
  926MPD2    H213607   0.933   2.595  13.281 -2.6442  0.3439  0.6744
  926MPD2    H313608   1.118   2.594  13.135  1.4343  0.9850 -0.7894
  926MPD2     N13609   1.012   2.999  12.958 -0.0954  0.4014 -0.0090
  926MPD2    H513610   1.070   2.976  12.878  0.3195  0.7890  0.1812
  926MPD2    N113611   0.755   2.818  13.317 -0.5753 -0.2788 -0.0074
  926MPD2    H713612   0.710   2.908  13.306  0.6094  0.4248  0.9110
  927MPD2     C13613   0.931   4.652  17.173 -0.4367 -0.6025 -0.4962
  927MPD2    C113614   1.039   4.677  17.254  0.2179  0.1029 -0.4605
  927MPD2    C213615   1.165   4.647  17.217  0.3454 -0.5173  0.8893
  927MPD2    C313616   1.197   4.585  17.098  0.5169  0.0662  0.9802
  927MPD2    C413617   1.087   4.537  17.022 -0.0570 -0.6299 -0.1656
  927MPD2    C513618   0.960   4.578  17.059  0.0203  0.6876  0.2073
  927MPD2     H13619   1.248   4.659  17.286 -0.2339 -1.8833  1.8040
  927MPD2    H113620   1.093   4.499  16.920 -1.7966  0.2177 -0.5814
  927MPD2    H213621   0.830   4.672  17.206 -0.3905  0.3511 -0.9222
  927MPD2    H313622   0.880   4.571  16.986 -0.5294  0.3737  0.8381
  927MPD2     N13623   1.335   4.561  17.075  0.3807  0.2384 -0.1983
  927MPD2    H513624   1.401   4.616  17.128  0.3995 -1.2837  1.3498
  927MPD2    N113625   1.012   0.000  17.377  0.5662  0.2250 -0.4726
  927MPD2    H713626   0.915   0.030  17.385  0.2496 -0.9970  0.2627
  928MPD2     C13627   3.584   3.082   0.935  0.2895  0.2622 -0.0100
  928MPD2    C113628   3.550   3.215   0.928 -0.0182  0.1803  0.3407
  928MPD2    C213629   3.567   3.276   0.810 -0.3699 -0.1801 -0.1295
  928MPD2    C313630   3.617   3.206   0.704  0.2490  0.4660 -0.3509
  928MPD2    C413631   3.630   3.073   0.700  0.4346  0.2094  0.0539
  928MPD2    C513632   3.607   3.009   0.819 -0.1709 -0.5226 -0.3158
  928MPD2     H13633   3.555   3.382   0.796 -2.5122 -0.4091 -0.0581
  928MPD2    H113634   3.655   3.017   0.611  1.5627  1.3649 -0.3555
  928MPD2    H213635   3.561   3.027   1.025  0.9189  1.0979  0.6574
  928MPD2    H313636   3.612   2.902   0.830  0.0251 -0.2148  2.6014
  928MPD2     N13637   3.652   3.265   0.579  0.2921  0.0216  0.8586
  928MPD2    H513638   3.676   3.206   0.500  2.0204  0.9267  0.7007
  928MPD2    N113639   3.500   3.280   1.040 -0.0716  0.0435  0.0888
  928MPD2    H713640   3.502   3.226   1.125 -0.5994 -0.1701 -0.0295
  929MPD2     C13641   3.678   3.949  10.016 -0.2135  0.0222  0.4512
  929MPD2    C113642   3.611   3.833  10.049 -1.3518  0.4742  0.1103
  929MPD2    C213643   3.473   3.826  10.043 -0.4156  0.6687  0.7959
  929MPD2    C313644   3.400   3.935  10.007 -0.8559  0.9537 -0.2183
  929MPD2    C413645   3.462   4.049   9.969  0.2866  0.0034 -0.4281
  929MPD2    C513646   3.597   4.054   9.986  0.4793  0.1954 -0.2744
  929MPD2     H13647   3.417   3.743  10.086 -0.2690 -0.1877 -0.6706
  929MPD2    H113648   3.407   4.134   9.929 -0.6288 -0.6876 -0.6480
  929MPD2    H213649   3.785   3.954  10.002 -0.0244 -0.6627  1.7013
  929MPD2    H313650   3.645   4.145   9.951  3.9067 -1.0366  1.2341
  929MPD2     N13651   3.252   3.939  10.018 -0.1871 -0.0479  0.2589
  929MPD2    H513652   3.208   4.031  10.019  0.8342  0.4667 -3.1051
  929MPD2    N113653   3.691   3.724  10.082  0.5203  1.2113  0.4215
  929MPD2    H713654   3.792   3.734  10.088  0.5001  1.3913  0.4555
  930MPD2     C13655   0.786   0.351  14.281 -0.5464  0.3067  0.0700
  930MPD2    C113656   0.898   0.421  14.262 -0.5314 -0.6872  0.0182
  930MPD2    C213657   0.921   0.475  14.138 -0.0093  0.6506 -0.1500
  930MPD2    C313658   0.834   0.471  14.034  0.4888 -0.1881  0.0974
  930MPD2    C413659   0.713   0.415  14.069 -0.7864 -0.3368  0.6654
  930MPD2    C513660   0.691   0.360  14.186  0.5897  0.6660 -0.1797
  930MPD2     H13661   1.012   0.533  14.127  1.1301 -1.6254 -2.6374
  930MPD2    H113662   0.625   0.421  14.006 -0.7671  0.8614  0.7435
  930MPD2    H213663   0.773   0.297  14.374 -1.4247  2.2374  1.0810
  930MPD2    H313664   0.600   0.303  14.202  0.7036  0.3882 -0.5104
  930MPD2     N13665   0.851   0.540  13.918 -0.4917 -0.3660  0.3374
  930MPD2    H513666   0.945   0.569  13.893 -2.1240  4.0428 -0.8238
  930MPD2    N113667   0.994   0.436  14.362  0.2080 -0.1600 -0.1289
  930MPD2    H713668   1.074   0.489  14.328 -1.0982 -1.2603 -5.0455
  931MPD2     C13669   1.494   4.738   0.259 -0.7481  0.1054 -0.5346
  931MPD2    C113670   1.363   0.001   0.282 -0.2880  0.2706  0.4035
  931MPD2    C213671   1.311   4.684   0.399  0.3346  0.1870 -0.4060
  931MPD2    C313672   1.396   4.627   0.490  0.1026 -0.9423  0.7169
  931MPD2    C413673   1.527   4.627   0.462 -0.7104  0.3246 -0.1084
  931MPD2    C513674   1.570   4.676   0.346 -0.1179 -0.8777  0.2945
  931MPD2     H13675   1.204   4.672   0.409  0.5046  0.1140  1.3581
  931MPD2    H113676   1.601   4.589   0.531 -1.1932 -1.0225 -0.3316
  931MPD2    H213677   1.539   0.039   0.169 -0.6924 -0.2569 -0.6611
  931MPD2    H313678   1.676   4.679   0.326 -0.0037 -0.8071  0.9058
  931MPD2     N13679   1.356   4.562   0.609 -0.4274  0.0060 -0.6113
  931MPD2    H513680   1.430   4.512   0.658 -2.0903 -1.5312  0.3376
  931MPD2    N113681   1.273   0.049   0.182 -0.7746 -0.1776 -0.5340
  931MPD2    H713682   1.301   0.076   0.088 -1.0017  1.0621 -0.2516
  932MPD2     C13683   2.778   4.025  11.276  0.2721 -0.7296  0.8901
  932MPD2    C113684   2.805   4.120  11.375 -0.1581  0.1455  0.2554
  932MPD2    C213685   2.897   4.090  11.477  0.1705  0.0959 -0.3512
  932MPD2    C313686   2.941   3.953  11.481  0.0318  0.3651  0.3573
  932MPD2    C413687   2.918   3.862  11.380  0.8837 -0.1683  0.0102
  932MPD2    C513688   2.841   3.905  11.278 -0.5090 -0.3629  0.0438
  932MPD2     H13689   2.921   4.163  11.553 -0.6604 -1.3337  1.2881
  932MPD2    H113690   2.960   3.762  11.371 -0.7725 -0.9359  0.9340
  932MPD2    H213691   2.715   4.044  11.189 -0.6849 -3.9566  0.8758
  932MPD2    H313692   2.826   3.838  11.194  1.3430 -0.5479 -0.1390
  932MPD2     N13693   3.014   3.900  11.587  0.2565 -0.0870  0.2991
  932MPD2    H513694   3.003   3.799  11.597 -2.5899  0.2789  0.7949
  932MPD2    N113695   2.753   4.253  11.371 -0.1053 -0.3867 -0.0804
  932MPD2    H713696   2.789   4.314  11.443 -2.3006 -1.9929  2.4044
  933MPD2     C13697   2.967   3.901   1.158  0.9014  0.4923 -0.0633
  933MPD2    C113698   3.072   3.892   1.248 -0.9146 -0.3776 -0.3639
  933MPD2    C213699   3.068   3.983   1.347 -0.6291 -0.5048 -0.2682
  933MPD2    C313700   2.994   4.097   1.332 -0.0171 -0.6487 -0.6426
  933MPD2    C413701   2.893   4.113   1.239  0.2047 -0.0279 -0.0609
  933MPD2    C513702   2.872   4.008   1.160  0.0646 -0.4029  0.2191
  933MPD2     H13703   3.134   3.983   1.433 -0.2800 -0.5002 -0.5370
  933MPD2    H113704   2.825   4.198   1.241  2.1465  1.5495 -0.9458
  933MPD2    H213705   2.944   3.831   1.080  0.7417 -1.2197  1.5222
  933MPD2    H313706   2.787   3.987   1.096 -0.7182 -3.3302  2.1969
  933MPD2     N13707   3.020   4.196   1.431 -0.4056  0.0735  0.7951
  933MPD2    H513708   3.096   4.181   1.497  1.6961  2.6962 -1.0391
  933MPD2    N113709   3.167   3.789   1.231 -0.0985 -0.3568  0.2077
  933MPD2    H713710   3.166   3.747   1.139  0.2518  2.3668 -1.0324
  934MPD2     C13711   4.717   0.960   1.755  0.4523  0.3166  0.3360
  934MPD2    C113712   0.069   0.890   1.682 -0.6405  0.5782  0.2379
  934MPD2    C213713   0.026   0.820   1.568  0.1992  0.4065 -0.0409
  934MPD2    C313714   4.631   0.826   1.524  0.1386 -0.5344  0.2306
  934MPD2    C413715   4.545   0.901   1.596  0.3348  0.2442  0.4180
  934MPD2    C513716   4.585   0.964   1.710 -0.5006 -0.7152 -0.3344
  934MPD2     H13717   0.098   0.771   1.503 -1.4696 -2.8924  0.6059
  934MPD2    H113718   4.438   0.898   1.578  0.5743 -0.1504 -0.9130
  934MPD2    H213719   4.733   1.007   1.851 -0.2215  0.5038  0.3589
  934MPD2    H313720   4.511   1.016   1.769  0.5426  0.0422  0.3175
  934MPD2     N13721   4.588   0.767   1.408  0.0934 -0.2291  0.3570
  934MPD2    H513722   4.488   0.776   1.391 -0.3238 -1.9373  1.7895
  934MPD2    N113723   0.206   0.868   1.719 -0.8832  0.1183 -0.7131
  934MPD2    H713724   0.250   0.806   1.652  1.0615 -2.1958  2.7112
  935MPD2     C13725   0.204   0.065   0.761  0.1954 -0.6780 -0.2287
  935MPD2    C113726   0.073   0.062   0.747 -0.1152  0.9476  0.5893
  935MPD2    C213727   4.737   0.160   0.816 -0.9671  0.0812  0.1444
  935MPD2    C313728   0.059   0.257   0.895  0.3879 -0.2565  0.3791
  935MPD2    C413729   0.198   0.260   0.897 -0.2629 -0.5436 -0.1745
  935MPD2    C513730   0.267   0.158   0.834 -0.4271 -0.2150 -0.1069
  935MPD2     H13731   4.629   0.161   0.806 -1.2832 -2.7045  3.0290
  935MPD2    H113732   0.256   0.342   0.939 -0.6810 -0.3177 -0.0366
  935MPD2    H213733   0.266   4.732   0.707 -1.8070 -1.2186 -1.8015
  935MPD2    H313734   0.374   0.167   0.824 -0.2881  0.2565  1.7269
  935MPD2     N13735   4.725   0.365   0.958  0.4319 -0.0934  0.5228
  935MPD2    H513736   0.039   0.432   1.015  0.8391  0.6999 -0.7797
  935MPD2    N113737   4.737   4.710   0.669  0.0999  0.0334 -0.0936
  935MPD2    H713738   4.636   4.722   0.672 -0.3983 -3.8025 -0.8717
  936MPD2     C13739   2.690   2.881  12.570  0.4341  0.1165  0.4363
  936MPD2    C113740   2.754   2.765  12.534  0.0836  0.3931  0.3521
  936MPD2    C213741   2.867   2.769  12.456 -0.3189  0.0506  0.1871
  936MPD2    C313742   2.917   2.881  12.405  0.6383  0.1601 -0.2245
  936MPD2    C413743   2.840   2.997  12.427 -0.5656 -0.1963 -0.0079
  936MPD2    C513744   2.725   2.995  12.504  0.0053  0.1694 -0.1997
  936MPD2     H13745   2.912   2.674  12.431  3.8410  1.6832  1.4472
  936MPD2    H113746   2.870   3.090  12.380  0.9140 -1.0365 -0.7159
  936MPD2    H213747   2.609   2.878  12.642  0.5881 -0.7090  0.5722
  936MPD2    H313748   2.668   3.087  12.512  2.3589  1.3525  3.0464
  936MPD2     N13749   3.033   2.871  12.331 -0.9996 -0.8130  0.2383
  936MPD2    H513750   3.078   2.780  12.333  1.5930  0.4591 -0.4443
  936MPD2    N113751   2.721   2.641  12.597  0.3181  0.8859  0.1246
  936MPD2    H713752   2.790   2.568  12.587  1.4600  1.9461  0.2899
  937MPD2     C13753   0.698   3.788  11.180  0.6423 -0.9178  0.5606
  937MPD2    C113754   0.747   3.889  11.265  0.4257  0.2284  1.0028
  937MPD2    C213755   0.867   3.944  11.228 -0.4897  0.1962 -0.3195
  937MPD2    C313756   0.947   3.890  11.133  0.1661  0.1706  0.4277
  937MPD2    C413757   0.900   3.782  11.057 -0.2752 -0.4465  0.3670
  937MPD2    C513758   0.780   3.728  11.095 -0.0519 -0.3567 -0.2711
  937MPD2     H13759   0.905   4.032  11.278  0.8397 -0.1831 -0.6793
  937MPD2    H113760   0.958   3.727  10.984  1.0689  2.2365 -0.5783
  937MPD2    H213761   0.602   3.740  11.191 -0.2175  0.1439 -2.4020
  937MPD2    H313762   0.756   3.636  11.042 -1.0298 -0.9921  1.2744
  937MPD2     N13763   1.068   3.957  11.098 -0.2106  0.3331 -0.0622
  937MPD2    H513764   1.083   4.040  11.154  0.9878  0.5080 -0.6507
  937MPD2    N113765   0.660   3.963  11.349 -0.0914 -0.0576  0.0809
  937MPD2    H713766   0.688   4.058  11.372  0.0915  0.3712 -1.8703
  938MPD2     C13767   3.874   0.526   0.648  0.0312 -0.5198 -0.4486
  938MPD2    C113768   3.986   0.547   0.728 -0.0890  0.4891 -0.1050
  938MPD2    C213769   4.023   0.455   0.823  0.0832 -0.4970  0.6747
  938MPD2    C313770   3.928   0.361   0.864 -0.4491 -0.0812 -0.7241
  938MPD2    C413771   3.813   0.347   0.786 -0.1780 -0.0857 -0.3946
  938MPD2    C513772   3.787   0.430   0.681 -0.0107  0.8331 -0.1138
  938MPD2     H13773   4.109   0.476   0.887  0.6595 -3.7796  0.9680
  938MPD2    H113774   3.734   0.274   0.796 -0.7731  0.8550  1.7828
  938MPD2    H213775   3.844   0.581   0.559 -0.7096 -1.9392 -1.0706
  938MPD2    H313776   3.708   0.406   0.611 -0.4308 -0.9411  0.9513
  938MPD2     N13777   3.931   0.279   0.985  0.0630  0.1615  0.0700
  938MPD2    H513778   3.860   0.207   0.996 -1.2912  1.1392 -2.1271
  938MPD2    N113779   4.068   0.666   0.701 -0.3613  0.4718  0.2228
  938MPD2    H713780   4.156   0.665   0.751  0.5439  0.9818 -1.3471
  939MPD2     C13781   0.249   1.398   0.221  0.0636  0.1365 -0.0963
  939MPD2    C113782   0.349   1.418   0.130 -0.3067  0.3056  0.4880
  939MPD2    C213783   0.385   1.309   0.054 -0.3614 -0.8771  0.4510
  939MPD2    C313784   0.314   1.186   0.062 -0.6131  0.6893 -0.6167
  939MPD2    C413785   0.205   1.174   0.151 -0.3476  0.3427  0.3497
  939MPD2    C513786   0.178   1.279   0.233 -0.3332  0.2097  0.9834
  939MPD2     H13787   0.468   1.318  17.734 -0.5687 -2.3559  0.0148
  939MPD2    H113788   0.133   1.094   0.152 -0.2196  0.2097 -1.1655
  939MPD2    H213789   0.214   1.481   0.281 -1.3091  0.4725 -1.3382
  939MPD2    H313790   0.087   1.273   0.292 -0.5472  0.6586  0.6980
  939MPD2     N13791   0.350   1.080  17.718  0.1249 -0.3930 -0.0278
  939MPD2    H513792   0.398   1.110  17.634  4.1715  1.6260  3.0132
  939MPD2    N113793   0.426   1.531   0.134 -0.3132 -1.0892  0.2705
  939MPD2    H713794   0.417   1.588   0.217  2.4881 -1.7707  1.0464
  940MPD2     C13795   3.611   2.569  13.326  0.1784 -1.0143 -0.2276
  940MPD2    C113796   3.698   2.472  13.388 -0.3357  0.4389  0.0899
  940MPD2    C213797   3.815   2.431  13.327  0.4420 -0.4965  0.3505
  940MPD2    C313798   3.843   2.478  13.198  0.1798  0.2660  0.4466
  940MPD2    C413799   3.760   2.577  13.141 -0.4667  0.5780  0.0415
  940MPD2    C513800   3.650   2.628  13.208 -0.2729 -0.9457  0.0340
  940MPD2     H13801   3.877   2.361  13.381  2.3541 -0.6451 -2.0372
  940MPD2    H113802   3.784   2.611  13.041 -3.1680  2.1135 -0.0642
  940MPD2    H213803   3.528   2.619  13.374  0.7454  0.3677 -0.7029
  940MPD2    H313804   3.601   2.716  13.167 -1.0441 -1.1344  0.5561
  940MPD2     N13805   3.953   2.433  13.121  0.3815 -0.1597 -0.3627
  940MPD2    H513806   3.968   2.472  13.028 -0.7809  2.2895  0.4733
  940MPD2    N113807   3.678   2.420  13.512  0.3311  0.2380  0.1456
  940MPD2    H713808   3.752   2.379  13.568  0.3878 -0.6711 -0.5957
  941MPD2     C13809   2.525   1.941   9.669 -0.3055  0.4390  0.2767
  941MPD2    C113810   2.587   1.904   9.789 -0.1906  0.9546 -0.1692
  941MPD2    C213811   2.546   1.792   9.857 -0.3075 -0.0215  0.8981
  941MPD2    C313812   2.448   1.716   9.809  0.3417 -0.3509  0.1204
  941MPD2    C413813   2.382   1.758   9.694 -0.4488 -0.2545 -0.1589
  941MPD2    C513814   2.418   1.866   9.621 -0.0893 -0.5942  0.5152
  941MPD2     H13815   2.610   1.751   9.934  0.2292  0.5906  0.7802
  941MPD2    H113816   2.303   1.702   9.646 -0.9138 -1.3706  1.9012
  941MPD2    H213817   2.552   2.023   9.603  1.9713 -0.0631  0.6053
  941MPD2    H313818   2.358   1.886   9.533  0.9904  0.7150  0.0752
  941MPD2     N13819   2.412   1.586   9.848  0.3792  0.2443  0.1294
  941MPD2    H513820   2.344   1.539   9.790  0.6418 -1.2687  1.0324
  941MPD2    N113821   2.702   1.974   9.821  0.2805 -0.4367  0.0678
  941MPD2    H713822   2.744   1.949   9.909 -0.8754 -1.5901  0.3038
  942MPD2     C13823   2.272   4.044   9.753 -0.3757 -0.0090 -0.3752
  942MPD2    C113824   2.300   3.908   9.749  0.1085  0.1009 -0.5508
  942MPD2    C213825   2.416   3.872   9.680  0.1191  0.2323  0.1488
  942MPD2    C313826   2.504   3.965   9.635 -0.5692 -0.2175 -0.1877
  942MPD2    C413827   2.469   4.098   9.639 -0.1247 -0.2266  0.2227
  942MPD2    C513828   2.356   4.133   9.700 -0.3722  0.4448  0.1765
  942MPD2     H13829   2.436   3.766   9.674 -0.1975 -0.0239  3.5353
  942MPD2    H113830   2.529   4.171   9.586 -4.3319  3.8762  1.0839
  942MPD2    H213831   2.183   4.081   9.802  0.0582  1.4854 -0.7265
  942MPD2    H313832   2.347   4.239   9.720 -0.0989  0.8802 -2.0338
  942MPD2     N13833   2.636   3.938   9.588 -0.9481  0.1136  0.2740
  942MPD2    H513834   2.688   4.023   9.570  1.0308 -0.6640  2.2824
  942MPD2    N113835   2.223   3.811   9.813 -0.8359  0.1364  0.1920
  942MPD2    H713836   2.255   3.715   9.803  1.2974  0.8726  0.0882
  943MPD2     C13837   1.872   2.242   9.811  0.0338 -0.2605  0.0311
  943MPD2    C113838   1.837   2.134   9.886  0.5491  0.1268 -0.5547
  943MPD2    C213839   1.812   2.154  10.022  0.1377  0.0030 -0.5632
  943MPD2    C313840   1.828   2.280  10.079 -0.2052 -0.4683  0.0275
  943MPD2    C413841   1.848   2.392  10.002 -0.4370 -0.1143 -0.1308
  943MPD2    C513842   1.869   2.368   9.868  0.0566  0.7095  0.3709
  943MPD2     H13843   1.782   2.073  10.088  2.9701 -1.0463 -0.5748
  943MPD2    H113844   1.850   2.494  10.038 -1.0732 -0.4607  0.9074
  943MPD2    H213845   1.898   2.229   9.706 -0.0814 -1.5145  0.1594
  943MPD2    H313846   1.885   2.451   9.800  1.4938  0.6814  0.6720
  943MPD2     N13847   1.812   2.284  10.222  0.4915  0.1882 -0.2632
  943MPD2    H513848   1.796   2.197  10.271  1.0137  1.9300  3.0096
  943MPD2    N113849   1.823   2.003   9.824 -0.0106  0.2578 -0.1429
  943MPD2    H713850   1.847   1.998   9.725  1.1674  2.3364  0.0228
  944MPD2     C13851   1.401   0.252  11.211 -0.6138 -0.3336  0.0061
  944MPD2    C113852   1.406   0.389  11.243 -0.4875  0.2597  0.7456
  944MPD2    C213853   1.375   0.434  11.366  0.3461 -0.0236  0.5068
  944MPD2    C313854   1.350   0.342  11.469  0.7190 -0.0087  0.7944
  944MPD2    C413855   1.335   0.209  11.435 -0.0827  0.8426 -0.0021
  944MPD2    C513856   1.369   0.163  11.311  0.2822  0.1632  0.4206
  944MPD2     H13857   1.372   0.538  11.394 -1.4094 -0.2026  1.0181
  944MPD2    H113858   1.310   0.137  11.512  1.2899  1.7358  1.2705
  944MPD2    H213859   1.420   0.214  11.112 -3.5957 -0.7086 -0.4464
  944MPD2    H313860   1.360   0.062  11.272 -0.7291  0.3066  0.2826
  944MPD2     N13861   1.331   0.391  11.603 -0.2261  0.8335  0.2020
  944MPD2    H513862   1.361   0.485  11.624  1.7139  0.2810 -0.1286
  944MPD2    N113863   1.448   0.466  11.133 -0.2910  0.1529  0.4514
  944MPD2    H713864   1.481   0.409  11.056 -1.3947 -1.5400  1.2369
    1TMC1    C113865   0.265   1.308  14.430 -0.4825 -0.3912 -0.3102
    1TMC1    C213866   0.228   1.278  14.298  0.2391  0.0931  0.1374
    1TMC1    C313867   0.320   1.208  14.225 -0.2324  0.3234  0.3490
    1TMC1    C413868   0.380   1.264  14.492  0.3564 -0.0741  0.2279
    1TMC1    C513869   0.464   1.184  14.416  0.1924  0.1637  1.1943
    1TMC1    C613870   0.429   1.156  14.286  0.1941  0.3730 -0.0836
    1TMC1     C13871   0.166   1.375  14.512  0.1690  0.2746 -0.0544
    1TMC1     O13872   0.169   1.362  14.632  0.0237  0.1385  0.3392
    1TMC1     H13873   0.129   1.288  14.255  2.0476 -1.1241 -4.3010
    1TMC1    H113874   0.407   1.303  14.589 -1.6922  0.6334  0.5189
    1TMC1    H213875   0.492   1.093  14.224 -0.8228  0.5349 -1.2797
    1TMC1    C713876   0.581   1.123  14.477  0.8261  0.3182 -0.2801
    1TMC1    C813877   0.300   1.148  14.103  0.2827 -0.0924 -0.3995
    1TMC1    O113878   0.631   1.022  14.439  0.4744  0.0626 -0.3996
    1TMC1    O213879   0.353   1.041  14.063 -0.1103 -0.3978  0.2937
    1TMC1    O313880   0.620   1.194  14.593 -0.3425  0.4377  0.0761
    1TMC1    H313881   0.592   1.289  14.594 -1.0944  0.2259 -0.6192
    1TMC1    O513882   0.233   1.231  14.021 -0.3035  0.3293  0.1660
    1TMC1    H513883   0.219   1.323  14.053 -0.9111 -0.1039  1.1543
    2MPD2     C13884   4.501   1.697  14.596 -0.2765 -0.2527 -0.4559
    2MPD2    C113885   4.515   1.673  14.460  0.3421  0.2340 -0.4987
    2MPD2    C213886   4.609   1.586  14.406  0.1885  0.0351 -0.8512
    2MPD2    C313887   4.693   1.518  14.494  0.0396  0.8175  0.9232
    2MPD2    C413888   4.685   1.549  14.625  0.1289  0.9776  0.9478
    2MPD2    C513889   4.584   1.628  14.678  0.4959  0.4632  0.4315
    2MPD2     H13890   4.615   1.563  14.301  1.0440  1.9087 -1.2148
    2MPD2    H113891   0.014   1.513  14.702  2.2848 -0.5209 -1.6286
    2MPD2    H213892   4.422   1.758  14.639 -1.2503 -1.5555 -0.3794
    2MPD2    H313893   4.577   1.654  14.783  2.3741  1.9439  0.1868
    2MPD2     N13894   0.055   1.431  14.443  0.3012 -0.3187 -0.0497
    2MPD2    H513895   0.053   1.420  14.342 -2.5223  1.5157 -0.2117
    2MPD2    N113896   4.425   1.738  14.380 -0.4082 -0.9022  0.4079
    2MPD2    H713897   4.351   1.788  14.429 -1.7841 -1.4275 -1.1392
    3TMC2    C113898   4.332   1.821  14.180  0.6698  0.3489  0.4446
    3TMC2    C213899   4.273   1.771  14.068 -0.0876 -0.4963 -1.1919
    3TMC2    C313900   4.180   1.841  13.999  0.1296 -0.0351 -0.5205
    3TMC2    C413901   4.296   1.943  14.232 -0.2054 -0.4972 -0.0810
    3TMC2    C513902   4.187   1.999  14.175 -0.3438  0.3453 -0.3594
    3TMC2    C613903   4.130   1.952  14.056 -0.2043 -0.3884 -0.3153
    3TMC2     C13904   4.438   1.748  14.240  0.2803 -0.8169 -0.4683
    3TMC2     O13905   4.512   1.692  14.163 -0.4165 -0.1503  0.5155
    3TMC2     H13906   4.292   1.675  14.022 -0.7943 -0.7531 -0.9622
    3TMC2    H113907   4.353   1.984  14.314 -1.0314  1.4229 -0.4832
    3TMC2    H213908   4.045   1.997  14.007 -0.3673  0.4266  0.7436
    3TMC2    C713909   4.148   2.134  14.224 -0.4288 -0.7674 -0.4508
    3TMC2    C813910   4.089   1.757  13.930 -0.3350 -0.5673 -0.1910
    3TMC2    O113911   4.182   2.166  14.339  0.5304 -0.1584  0.1705
    3TMC2    O213912   4.105   1.746  13.811  0.0121 -0.1074 -0.1273
    3TMC2    O513913   4.041   1.665  14.017 -0.0141 -0.4764  0.1254
    3TMC2    H513914   4.055   1.689  14.111  0.5364  0.2538 -0.1522
    4TMC2    C113915   3.657   2.777  13.643  0.2254  0.1772  0.0305
    4TMC2    C213916   3.738   2.852  13.560 -0.1432 -0.1226 -0.2832
    4TMC2    C313917   3.875   2.825  13.558  0.0751  0.6152 -0.0623
    4TMC2    C413918   3.712   2.685  13.725 -0.7754  0.1907 -0.5862
    4TMC2    C513919   3.849   2.666  13.720  0.4864  0.2566 -0.8390
    4TMC2    C613920   3.931   2.733  13.638 -0.1337  0.4205  0.0973
    4TMC2     C13921   3.517   2.771  13.630  0.1267 -0.2622 -0.4119
    4TMC2     O13922   3.449   2.719  13.719 -0.6209  0.0943 -0.0957
    4TMC2     H13923   3.697   2.914  13.481 -0.8328 -1.7884 -1.2244
    4TMC2    H113924   3.662   2.609  13.784  0.4453  0.2351  0.5124
    4TMC2    H213925   4.036   2.708  13.629  0.4400  2.1788  1.8024
    4TMC2    C713926   3.911   2.574  13.809 -0.4615  0.6503  0.1793
    4TMC2    C813927   3.955   2.922  13.488 -0.0116  0.7807  0.0668
    4TMC2    O113928   4.015   2.520  13.768 -0.3426  0.6436  0.2587
    4TMC2    O213929   3.917   3.035  13.465 -0.2555 -0.1039 -0.3410
    4TMC2    O513930   4.050   2.863  13.414 -0.2322  0.4104  0.3498
    4TMC2    H513931   4.058   2.765  13.416 -0.3633  0.3888 -0.0877
    5MPD2     C13932   3.077   2.842  13.359  0.5292  0.1249 -0.0634
    5MPD2    C113933   3.181   2.878  13.283  0.4493 -0.4859  0.3900
    5MPD2    C213934   3.310   2.857  13.328 -0.0657  0.4339  0.2112
    5MPD2    C313935   3.332   2.818  13.456 -0.2199  0.6308 -0.0437
    5MPD2    C413936   3.231   2.775  13.532  0.4006 -0.0496 -0.4367
    5MPD2    C513937   3.104   2.779  13.482 -0.4283 -0.0689 -0.1582
    5MPD2     H13938   3.395   2.883  13.266  2.2256  0.7242  3.4830
    5MPD2    H113939   3.239   2.732  13.631  0.3470 -1.3112 -0.9789
    5MPD2    H213940   2.974   2.843  13.328  0.4492 -1.4412  0.1551
    5MPD2    H313941   3.023   2.730  13.535  0.6305  0.5040  1.9820
    5MPD2     N13942   3.472   2.818  13.504 -0.1363  0.0511 -0.3939
    5MPD2    H513943   3.545   2.840  13.437 -0.6058  2.3041 -0.1713
    5MPD2    N113944   3.148   2.927  13.151  0.6754 -0.9086  0.1286
    5MPD2    H713945   3.050   2.947  13.134  1.8968  0.6057 -5.0667
    6MPD1     C13946   2.725   4.727  12.499  0.7019 -0.6090  0.3726
    6MPD1    C113947   2.834   4.677  12.435 -0.2597  0.0370  0.1339
    6MPD1    C213948   2.878   4.556  12.458 -0.0331  0.6353 -0.0265
    6MPD1    C313949   2.832   4.483  12.567 -0.0726 -0.2933  0.0117
    6MPD1    C413950   2.721   4.533  12.631  0.0326 -0.1316  0.3321
    6MPD1    C513951   2.676   4.654  12.603  0.6397  0.4278 -0.5677
    6MPD1     H13952   2.962   4.516  12.403 -0.3020  1.6910 -1.1878
    6MPD1    H113953   2.665   4.482  12.708 -2.0370  0.5167 -0.7327
    6MPD1    H213954   2.692   0.091  12.485 -1.0258 -1.2333 -0.0608
    6MPD1    H313955   2.593   4.694  12.659  1.7960 -0.1085  1.5561
    6MPD1     N13956   2.883   4.352  12.600  0.2689 -0.4535  0.1069
    6MPD1    H513957   2.830   4.304  12.672 -3.8825  1.5111 -1.6078
    6MPD1    N113958   2.886   0.013  12.328 -0.1897  0.3337 -0.3166
    6MPD1    H613959   2.873   0.114  12.339 -0.4126  0.5571 -2.6374
    6MPD1    H713960   2.986   4.733  12.315 -0.5797  0.5576 -3.6704
    7MPD2     C13961   2.909   3.748  13.100 -0.5544  0.6702 -0.0581
    7MPD2    C113962   2.913   3.717  12.970  0.3021  1.0132  0.0324
    7MPD2    C213963   2.920   3.582  12.935 -0.0611 -0.3600  0.5917
    7MPD2    C313964   2.926   3.477  13.028 -0.7291  0.2739  0.4175
    7MPD2    C413965   2.922   3.514  13.163 -0.0548 -0.3435 -0.3594
    7MPD2    C513966   2.915   3.648  13.198  0.5814  0.0745 -0.8211
    7MPD2     H13967   2.938   3.563  12.830 -1.0079  0.1955  0.3269
    7MPD2    H113968   2.911   3.435  13.237 -0.7190  0.1779  0.1006
    7MPD2    H213969   2.907   3.849  13.139 -0.5971 -0.0166  1.7408
    7MPD2    H313970   2.910   3.681  13.301 -0.1245 -2.1573 -0.1219
    7MPD2     N13971   2.939   3.341  13.001  0.2540  0.4960 -0.2086
    7MPD2    H513972   2.914   3.278  13.077 -0.7545 -0.6298 -1.4850
    7MPD2    N113973   2.918   3.804  12.861 -0.0591  0.1905 -1.3374
    7MPD2    H713974   2.924   3.762  12.769  0.5042  1.8569 -2.0690
    8TMC3    C113975   2.985   3.144  12.869  1.1124  0.4131  0.2895
    8TMC3    C213976   3.055   3.096  12.972 -0.3729 -0.7249  0.2350
    8TMC3    C313977   3.175   3.037  12.950 -0.5729 -0.4746 -0.0589
    8TMC3    C413978   3.021   3.106  12.739 -0.0033  0.4752  0.0511
    8TMC3    C513979   3.147   3.063  12.719 -1.0714 -0.3944 -0.7347
    8TMC3    C613980   3.225   3.024  12.824 -0.0026 -0.5274  0.2799
    8TMC3     C13981   2.965   3.286  12.877  0.7893 -0.2133 -0.1110
    8TMC3     O13982   2.981   3.352  12.774 -0.4748 -0.3432  0.3474
    8TMC3     H13983   3.028   3.141  13.067 -0.9004 -2.3097  0.8446
    8TMC3    H113984   2.958   3.141  12.659 -0.1056  0.4423  0.1176
    8TMC3    H213985   3.329   2.998  12.804  0.0701 -0.0419  0.0415
    8TMC3    C713986   3.224   3.130  12.611  0.3584  0.1755 -0.2634
    8TMC3    C813987   3.241   2.979  13.068  0.6807 -0.0789  1.3007
    8TMC3    O113988   3.339   3.088  12.590 -0.1353 -0.0198 -0.1691
    8TMC3    O213989   3.361   2.971  13.074  0.1617 -0.4560  0.2342
    9TMC3    C113990   3.025   4.158  12.589 -0.5416 -0.3689 -0.2431
    9TMC3    C213991   3.102   4.075  12.515 -0.5827  0.9259  0.1245
    9TMC3    C313992   3.124   3.948  12.559 -0.3894 -0.1905 -0.0754
    9TMC3    C413993   2.968   4.109  12.703 -0.3892  0.5392 -0.9584
    9TMC3    C513994   2.987   3.982  12.741  0.8693 -0.1557  0.3111
    9TMC3    C613995   3.071   3.900  12.675 -0.3669  0.8702  0.0791
    9TMC3     C13996   2.989   4.284  12.536 -0.5192  0.0507 -0.5100
    9TMC3     O13997   3.063   4.314  12.446  0.1741  0.2762  0.4972
    9TMC3     H13998   3.137   4.109  12.418  1.5244 -0.7894  0.2767
    9TMC3    H113999   2.924   4.175  12.777  1.5913  1.8924 -0.9788
    9TMC3    H214000   3.105   3.807  12.718  2.1070  1.2563 -1.0638
    9TMC3    C714001   2.933   3.937  12.866  0.4879 -0.0608 -0.2723
    9TMC3    C814002   3.197   3.852  12.484  0.6773  0.6945 -0.1914
    9TMC3    O114003   2.945   4.017  12.957 -0.5054 -0.4676  0.0745
    9TMC3    O214004   3.297   3.893  12.430  0.2181 -0.2909 -0.3913
   10MPD2     C14005   3.348   3.356  12.464 -0.0026  0.3515 -0.0398
   10MPD2    C114006   3.230   3.364  12.526 -0.2601 -0.0678  0.1520
   10MPD2    C214007   3.174   3.485  12.531 -0.0197 -0.1687  1.3213
   10MPD2    C314008   3.220   3.601  12.471 -0.7824  0.0668  0.3287
   10MPD2    C414009   3.345   3.593  12.422  0.1141 -0.6859  0.7414
   10MPD2    C514010   3.403   3.468  12.407 -0.5185  0.3870  0.3454
   10MPD2     H14011   3.075   3.495  12.574 -1.5855 -0.8413 -2.0605
   10MPD2    H114012   3.390   3.676  12.369 -0.5358  0.0807  1.3838
   10MPD2    H214013   3.402   3.262  12.455 -0.4872  0.0502  0.1559
   10MPD2    H314014   3.498   3.469  12.354 -1.6382  3.1032 -1.6267
   10MPD2     N14015   3.147   3.723  12.497  0.3206  0.0125  0.0374
   10MPD2    H514016   3.053   3.714  12.533 -0.7628  0.6571 -2.6702
   10MPD2    N114017   3.168   3.256  12.588 -0.0717  0.1530 -1.0764
   10MPD2    H714018   3.081   3.280  12.634  0.2177  0.8041 -0.8556
   11MPD2     C14019   4.029   2.400  14.260 -0.5210  0.3345 -0.3013
   11MPD2    C114020   4.042   2.336  14.134 -0.3389  0.1060  1.0707
   11MPD2    C214021   3.993   2.405  14.025  0.4875  1.1060 -0.1246
   11MPD2    C314022   3.931   2.530  14.043  0.1754 -0.2570 -0.0772
   11MPD2    C414023   3.922   2.583  14.166  0.4497 -1.0002  0.4100
   11MPD2    C514024   3.986   2.526  14.269  0.5389 -0.3980  0.2564
   11MPD2     H14025   4.004   2.357  13.929  1.2094  1.9453 -0.4612
   11MPD2    H114026   3.868   2.676  14.175  0.2767 -1.1493  0.8714
   11MPD2    H214027   4.055   2.347  14.350  1.4711  0.7022 -0.6692
   11MPD2    H314028   3.982   2.576  14.366 -0.4072  2.6011 -1.3418
   11MPD2     N14029   3.878   2.603  13.933  0.8009  0.6877  0.4724
   11MPD2    H514030   3.813   2.679  13.950  0.3504 -0.3997  3.6884
   11MPD2    N114031   4.085   2.205  14.125  0.6421 -0.1730  0.5108
   11MPD2    H714032   4.083   2.159  14.035  0.7197 -0.0439  0.4439
    1MPD1     C14033   1.692   3.773  16.996 -0.0014 -0.1623  0.1047
    1MPD1    C114034   1.718   3.883  17.078 -0.2475 -0.6455 -0.1574
    1MPD1    C214035   1.851   3.912  17.110  0.2575  0.6765 -0.2353
    1MPD1    C314036   1.954   3.839  17.064 -0.3345 -0.6443 -0.1229
    1MPD1    C414037   1.925   3.732  16.979 -0.8128 -0.6405 -0.2816
    1MPD1    C514038   1.794   3.704  16.942  0.7173 -0.3791 -0.0215
    1MPD1     H14039   1.881   3.993  17.175  2.7703 -0.3951 -0.0564
    1MPD1    H114040   2.003   3.671  16.934  1.3366  1.1890  0.9822
    1MPD1    H214041   1.590   3.752  16.965 -0.1247  0.1052  0.3249
    1MPD1    H314042   1.780   3.625  16.870  0.5640 -0.2418 -0.1418
    1MPD1     N14043   2.097   3.872  17.079  0.2470  0.3061 -0.3008
    1MPD1    H514044   2.165   3.804  17.046 -0.2857 -0.0363 -0.6953
    1MPD1    N114045   1.611   3.955  17.128 -0.2518 -0.0093 -0.2545
    1MPD1    H614046   1.630   4.055  17.124  1.9126 -0.4191 -0.5604
    1MPD1    H714047   1.520   3.937  17.088 -0.7383 -1.0395  1.3291
    2MPD1     C14048   2.686   4.642  17.231 -0.4798 -0.5789 -0.6834
    2MPD1    C114049   2.619   4.609  17.118  0.6235  0.5383 -0.5319
    2MPD1    C214050   2.561   4.485  17.118  0.1068  0.3645  0.2218
    2MPD1    C314051   2.567   4.397  17.227 -0.2490 -0.1929 -0.3004
    2MPD1    C414052   2.630   4.438  17.342  0.0902  0.7367 -0.4132
    2MPD1    C514053   2.691   4.564  17.342 -0.1894 -0.0958  0.3373
    2MPD1     H14054   2.521   4.454  17.023 -2.9977  1.4621  1.1776
    2MPD1    H114055   2.630   4.384  17.436  1.4401  2.1008  0.3707
    2MPD1    H214056   2.726   0.004  17.241 -0.1292 -0.7238 -0.6547
    2MPD1    H314057   2.727   4.606  17.435 -0.9348  1.0318  0.1080
    2MPD1     N14058   2.508   4.269  17.219  0.4872 -0.9457 -0.1460
    2MPD1    H514059   2.454   4.255  17.134  1.4040 -0.9557 -0.7317
    2MPD1    N114060   2.639   4.667  16.990  0.5404 -0.5565 -0.0225
    2MPD1    H614061   2.668   0.027  16.984 -0.8599 -0.0835  0.7103
    2MPD1    H714062   2.565   4.651  16.923 -0.9397 -2.9727  2.1823
    3TMC3    C114063   2.475   4.044  17.278 -0.7751 -0.2989 -0.1807
    3TMC3    C214064   2.551   3.938  17.235 -0.6411  0.5675  0.1239
    3TMC3    C314065   2.484   3.829  17.177  0.2384 -0.2037  1.2097
    3TMC3    C414066   2.344   4.054  17.237  0.5171 -0.2172  0.1860
    3TMC3    C514067   2.283   3.953  17.174  0.1861  0.7348 -0.0097
    3TMC3    C614068   2.351   3.838  17.150  0.7742  0.7692  0.8504
    3TMC3     C14069   2.547   4.169  17.303  0.6828  0.1859 -0.0361
    3TMC3     O14070   2.640   4.168  17.384 -0.2522  0.5248 -0.3330
    3TMC3     H14071   2.658   3.936  17.251 -0.5453  3.3447 -0.2101
    3TMC3    H114072   2.285   4.138  17.270  1.0472  0.7707 -1.4378
    3TMC3    H214073   2.315   3.767  17.076 -0.5581  1.2376  1.0473
    3TMC3    C714074   2.143   3.973  17.154 -0.3605  0.6267 -0.0491
    3TMC3    C814075   2.554   3.717  17.108 -0.3068  0.8933  0.3055
    3TMC3    O114076   2.080   4.073  17.193  0.5070 -0.2503 -0.1750
    3TMC3    O214077   2.493   3.645  17.033 -0.3708 -0.4464  0.0064
    4MPD1     C14078   2.982   3.445  17.026  0.5605 -0.2451  0.1151
    4MPD1    C114079   3.002   3.519  17.135 -0.4340 -0.5433 -0.7074
    4MPD1    C214080   2.909   3.619  17.166 -0.2613 -0.4039 -0.2695
    4MPD1    C314081   2.791   3.628  17.095 -0.2816 -0.4040 -0.5086
    4MPD1    C414082   2.764   3.537  17.000  0.7349  0.4349  0.3833
    4MPD1    C514083   2.859   3.447  16.961 -0.0569  0.0580  0.0736
    4MPD1     H14084   2.917   3.684  17.252 -3.8628  0.1381 -0.3335
    4MPD1    H114085   2.666   3.521  16.958  0.2945  0.2094  1.4832
    4MPD1    H214086   3.054   3.370  16.996  0.8291  0.6738 -1.5268
    4MPD1    H314087   2.832   3.366  16.895  1.6458 -2.2650  2.2223
    4MPD1     N14088   2.692   3.716  17.140  0.1948 -0.4272 -0.6179
    4MPD1    H514089   2.718   3.782  17.213 -1.0528 -0.9623  0.3067
    4MPD1    N114090   3.128   3.525  17.200 -0.2681  0.2099 -0.3262
    4MPD1    H614091   3.115   3.559  17.296 -2.1443 -2.2716  0.2859
    4MPD1    H714092   3.171   3.434  17.209 -1.5766 -0.4454 -0.6646
    1TCq1    O114093   3.502   3.552  10.990  0.2382  0.2555 -0.0056
    1TCq1    C114094   3.418   3.506  11.088  0.2000  0.5322 -0.2700
    1TCq1    O214095   3.438   3.506  11.209  0.5561 -0.6917 -0.3746
    1TCq1    C214096   3.324   3.426  11.016  0.2295  0.1378  0.0076
    1TCq1    C314097   3.262   3.324  11.081  0.4022  0.7421  0.2256
    1TCq1    C414098   3.153   3.271  11.033  0.0965  0.5625 -0.2865
    1TCq1    C514099   3.111   3.300  10.904 -0.3304 -0.1117  0.1594
    1TCq1    C614100   3.165   3.409  10.845 -0.0423 -0.3902  0.3456
    1TCq1    C714101   3.270   3.474  10.902 -0.2107  0.3150 -0.4349
    1TCq1    C814102   3.124   3.453  10.713  0.6108  0.6759  0.5741
    1TCq1    O414103   3.201   3.516  10.640  0.1639  0.4268 -0.1019
    1TCq1    C914104   3.129   3.135  11.086 -0.0894 -0.2409  0.0309
    1TCq1    O514105   3.206   3.082  11.172 -0.5712 -0.1256  0.6898
    1TCq1    O614106   3.041   3.075  11.020 -1.2543  0.1436  0.0261
    1TCq1    H114107   3.476   3.533  10.897  0.1184  0.7814 -0.0784
    1TCq1    H214108   3.312   3.281  11.168 -0.6285  1.7441  1.3071
    1TCq1    H314109   3.043   3.236  10.849  1.7695 -0.1858 -2.3710
    1TCq1    H414110   3.317   3.555  10.848 -0.3720  1.0130  0.4749
    2MPD1     C14111   2.836   3.279  10.316  0.6280  0.6949  0.4652
    2MPD1    C114112   2.763   3.262  10.431 -0.3432 -0.6047  0.4168
    2MPD1    C214113   2.826   3.303  10.548 -0.3021  0.0566 -0.2119
    2MPD1    C314114   2.949   3.365  10.559 -0.7270 -0.2821 -0.8558
    2MPD1    C414115   3.024   3.387  10.443  0.2758 -0.4875 -0.7329
    2MPD1    C514116   2.966   3.332  10.330 -0.3816  0.5243 -0.5032
    2MPD1     H14117   2.770   3.281  10.639 -0.8068  1.3672 -0.2127
    2MPD1    H114118   3.124   3.427  10.453  0.4902 -1.7832  2.5048
    2MPD1    H214119   2.799   3.249  10.219  1.3363 -1.4236  0.8557
    2MPD1    H314120   3.025   3.350  10.241 -1.3173  1.3223 -0.9509
    2MPD1     N14121   3.002   3.395  10.683 -0.4386  0.2462 -0.2339
    2MPD1    H514122   2.943   3.378  10.764  2.2142 -2.2770  1.1686
    2MPD1    N114123   2.645   3.183  10.438 -0.0430  0.3493 -0.4943
    2MPD1    H614124   2.578   3.223  10.504 -0.8679 -3.7255  1.1521
    2MPD1    H714125   2.587   3.168  10.356  0.5016  1.4799 -1.0794
    1TMC1    C114126   1.493   0.298  17.541 -0.5901  0.0045  0.1437
    1TMC1    C214127   1.485   0.178  17.487 -0.0230  0.0626  0.7958
    1TMC1    C314128   1.532   0.168  17.360 -0.6581 -0.7484  0.2834
    1TMC1    C414129   1.518   0.417  17.471  0.5653 -0.4456  0.3779
    1TMC1    C514130   1.552   0.397  17.337 -0.4574 -0.7576  0.0425
    1TMC1    C614131   1.551   0.271  17.278 -0.3102 -0.7592  0.0567
    1TMC1     C14132   1.421   0.303  17.665 -0.3317  0.3428 -0.0601
    1TMC1     O14133   1.426   0.207  17.738  0.5768 -0.3687  0.1273
    1TMC1     H14134   1.447   0.096  17.547  0.5523 -1.4573 -0.8990
    1TMC1    H114135   1.525   0.515  17.516 -0.2334 -1.4477  2.6796
    1TMC1    H214136   1.554   0.251  17.171 -0.4289 -0.2394 -0.0435
    1TMC1    C714137   1.595   0.507  17.259 -0.1434 -0.1021  0.1051
    1TMC1    C814138   1.540   0.039  17.299  0.7137  0.7317 -0.6131
    1TMC1    O114139   1.565   0.620  17.295 -0.3694 -0.3449 -0.5049
    1TMC1    O214140   1.511   0.014  17.179 -0.4626  0.2294  0.9404
    1TMC1    O314141   1.668   0.469  17.152 -0.2980 -0.0441  0.2562
    1TMC1    H314142   1.686   0.373  17.156 -0.0071  0.0181  0.4318
    1TMC1    O514143   1.558   4.686  17.392 -0.8306 -0.1457  0.4832
    1TMC1    H514144   1.571   4.723  17.482  3.5140  1.4820 -0.8252
    2MPD1     C14145   1.096   0.496   0.246  0.4541  0.4218 -0.0913
    2MPD1    C114146   1.083   0.576   0.136 -0.0177 -0.4041  0.2477
    2MPD1    C214147   1.175   0.555   0.030  0.0445  0.0661 -0.6399
    2MPD1    C314148   1.274   0.452   0.035 -1.6670  0.3891  0.1646
    2MPD1    C414149   1.275   0.378   0.148 -0.4120 -0.2319 -0.2382
    2MPD1    C514150   1.189   0.397   0.253 -0.2904 -0.1338  0.3965
    2MPD1     H14151   1.158   0.605  17.685 -1.1720  0.6609 -0.1024
    2MPD1    H114152   1.352   0.303   0.167  1.3771  1.4233 -1.0345
    2MPD1    H214153   1.038   0.505   0.336 -0.8964  0.1248 -0.9358
    2MPD1    H314154   1.194   0.333   0.341 -1.4629 -1.0362 -0.2010
    2MPD1     N14155   1.351   0.421  17.674  0.5679 -0.2023 -0.1790
    2MPD1    H514156   1.348   0.482  17.593 -1.6540 -1.3010 -0.9344
    2MPD1    N114157   1.004   0.692   0.145  0.1057  0.5255 -0.1518
    2MPD1    H614158   0.963   0.724   0.058  0.3439 -1.3647 -0.9509
    2MPD1    H714159   0.934   0.674   0.217  2.0206  1.2724  1.8819
    1MPD1     C14160   4.352   3.873  11.433 -0.6806  0.1561 -0.4757
    1MPD1    C114161   4.394   3.930  11.552  0.0763  0.2860  0.0549
    1MPD1    C214162   4.409   4.069  11.555  1.0053  0.3424  0.0914
    1MPD1    C314163   4.407   4.148  11.439 -0.1857 -0.0382  0.0800
    1MPD1    C414164   4.378   4.085  11.326  0.6225  0.5207  0.1171
    1MPD1    C514165   4.340   3.952  11.322 -0.3418 -0.3391  0.2882
    1MPD1     H14166   4.425   4.118  11.651  2.9541  1.2044 -0.6842
    1MPD1    H114167   4.365   4.135  11.231  0.1220  0.4241  0.1341
    1MPD1    H214168   4.335   3.767  11.421  0.1986  0.0437 -0.7519
    1MPD1    H314169   4.303   3.909  11.230 -0.1737  3.3548 -1.4901
    1MPD1     N14170   4.428   4.286  11.451  0.0240 -0.2813 -0.3477
    1MPD1    H514171   4.475   4.323  11.532  0.6961 -1.1085 -0.3551
    1MPD1    N114172   4.381   3.857  11.675  0.0809 -0.4751 -0.2501
    1MPD1    H614173   4.397   3.757  11.666 -0.6434 -0.6759  0.7097
    1MPD1    H714174   4.441   3.908  11.740 -1.1598 -1.1275  1.3925
    2MPD1     C14175   3.753   0.093  10.682 -0.1535  0.1446 -0.5928
    2MPD1    C114176   3.797   4.720  10.758  0.5551 -0.3350 -0.6873
    2MPD1    C214177   3.896   4.637  10.702  0.0233  0.3870 -0.6646
    2MPD1    C314178   3.962   4.672  10.591  0.0305 -0.2007 -0.6322
    2MPD1    C414179   3.916   0.036  10.516  0.4231 -0.0749  0.0845
    2MPD1    C514180   3.806   0.109  10.558  0.0542  0.1123 -0.4804
    2MPD1     H14181   3.921   4.547  10.757 -0.3564  1.7178  1.6699
    2MPD1    H114182   3.964   0.072  10.425 -2.4176  1.0592 -0.9698
    2MPD1    H214183   3.681   0.165  10.719 -1.6138 -1.2832 -0.6470
    2MPD1    H314184   3.779   0.199  10.504  1.0754  1.1910  0.7784
    2MPD1     N14185   4.066   4.590  10.540  0.2736  0.3957 -0.2383
    2MPD1    H514186   4.103   4.617  10.449  0.7968  0.0149 -0.1406
    2MPD1    N114187   3.718   4.685  10.870  0.1327  0.1954  0.0772
    2MPD1    H614188   3.770   4.634  10.941 -1.0635  1.4300  1.8450
    2MPD1    H714189   3.691   0.035  10.915 -0.7265  1.5783 -3.0950
    3MPD1     C14190   4.200   4.615   9.721  0.1788  0.1007  0.5866
    3MPD1    C114191   4.133   4.678   9.821 -0.6095  0.6652 -0.1202
    3MPD1    C214192   4.171   4.651   9.953  0.5256  0.5475 -0.8732
    3MPD1    C314193   4.264   4.550   9.984  0.1941 -0.9553  0.1779
    3MPD1    C414194   4.322   4.479   9.886 -0.8106 -0.4534 -0.2813
    3MPD1    C514195   4.293   4.514   9.753 -0.5249  0.2641 -0.5185
    3MPD1     H14196   4.112   4.699  10.030  0.0938  1.7311 -1.9572
    3MPD1    H114197   4.400   4.409   9.913  0.4897  1.0165 -0.2203
    3MPD1    H214198   4.180   4.624   9.615  2.6150 -0.0143  0.1124
    3MPD1    H314199   4.336   4.457   9.672  2.6326  2.4687 -0.3655
    3MPD1     N14200   4.294   4.524  10.123  0.0623  0.3760 -0.4916
    3MPD1    H514201   4.249   4.593  10.183  3.2974  0.2342  2.1148
    3MPD1    N114202   4.046   0.049   9.787  0.2522  0.8605 -0.2779
    3MPD1    H614203   3.986   0.041   9.705 -0.8771 -2.3713  0.8342
    3MPD1    H714204   3.987   0.078   9.864 -0.6472 -0.3855 -0.5054
    4MPD2     C14205   4.663   4.526  10.740 -1.0193  0.0295 -0.2551
    4MPD2    C114206   0.015   4.530  10.846 -0.5417  0.0546 -0.0193
    4MPD2    C214207   0.144   4.486  10.825 -0.0172 -0.1318 -0.2083
    4MPD2    C314208   0.182   4.428  10.706 -0.6634  0.1154 -0.8776
    4MPD2    C414209   0.099   4.430  10.598  0.0234  0.0242 -0.5348
    4MPD2    C514210   4.713   4.487  10.615 -0.7818  0.0823 -0.0351
    4MPD2     H14211   0.204   4.480  10.915 -0.3571  0.3458  0.0549
    4MPD2    H114212   0.127   4.398  10.499  2.9322 -0.2501  0.3667
    4MPD2    H214213   4.565   4.573  10.745 -0.6963  1.0956 -3.5192
    4MPD2    H314214   4.643   4.493  10.532  0.0722  0.8851 -0.6936
    4MPD2     N14215   0.303   4.359  10.679  0.0044  0.4844  0.3172
    4MPD2    H514216   0.307   4.304  10.594 -0.3007  4.0616 -2.0359
    4MPD2    N114217   4.727   4.562  10.977  0.1027  0.0037 -0.0820
    4MPD2    H714218   0.064   4.541  11.042  0.1971  0.0698 -0.1697
    5TMC3    C114219   4.598   4.611  11.170 -0.0282 -0.0916  0.0589
    5TMC3    C214220   4.487   4.559  11.232 -0.0535  0.2262 -0.0677
    5TMC3    C314221   4.491   4.487  11.347 -0.7283 -0.0881  0.5308
    5TMC3    C414222   4.720   4.593  11.227 -0.4512  0.1132 -0.1416
    5TMC3    C514223   4.726   4.511  11.335 -0.6597 -0.6248  0.4069
    5TMC3    C614224   4.615   4.474  11.406  0.5148 -0.3723 -0.3024
    5TMC3     C14225   4.605   4.594  11.026  0.2300  0.1516  0.1730
    5TMC3     O14226   4.505   4.609  10.959  0.1787 -0.4286  0.3097
    5TMC3     H14227   4.394   4.580  11.179 -0.2442 -0.5036 -0.0118
    5TMC3    H114228   0.075   4.638  11.191  0.0285  0.9079  2.0650
    5TMC3    H214229   4.612   4.412  11.495 -0.4291 -0.4227 -0.3746
    5TMC3    C714230   0.071   4.403  11.305  0.0213 -0.6164 -0.3278
    5TMC3    C814231   4.407   4.372  11.345 -1.2013 -0.0182  0.2011
    5TMC3    O114232   0.137   4.424  11.201 -0.3445  0.5326  0.3429
    5TMC3    O214233   4.334   4.359  11.248 -0.2405  0.0613  0.5458
    6TMC3    C114234   4.227   4.424  10.522 -0.1553  0.2695 -0.4691
    6TMC3    C214235   4.246   4.469  10.390 -0.6646  0.3178 -0.4443
    6TMC3    C314236   4.349   4.412  10.321  0.3606 -0.4928 -0.0117
    6TMC3    C414237   4.306   4.332  10.584  0.4041  0.5319 -0.7548
    6TMC3    C514238   4.412   4.284  10.512 -0.1852  0.5734 -0.5161
    6TMC3    C614239   4.425   4.316  10.380  0.0409 -0.2430 -0.3971
    6TMC3     C14240   4.124   4.486  10.604 -0.5330  1.1106 -0.0246
    6TMC3     O14241   4.104   4.438  10.714 -0.1632  0.7059  0.0363
    6TMC3     H14242   4.176   4.530  10.335 -0.9914 -0.2075 -0.6027
    6TMC3    H114243   4.297   4.319  10.691  1.2207  0.8392 -0.6434
    6TMC3    H214244   4.504   4.270  10.321 -0.0895  0.3513 -1.0219
    6TMC3    C714245   4.522   4.191  10.564 -0.1779 -0.3098  0.0551
    6TMC3    C814246   4.367   4.426  10.176  0.2028  0.0305 -0.1336
    6TMC3    O114247   4.612   4.161  10.485 -0.0208 -0.4940  0.8913
    6TMC3    O214248   4.436   4.338  10.127  0.1662  0.0357  0.0489
    7MPD2     C14249   0.185   3.903  11.251  0.2834  0.2855  0.3027
    7MPD2    C114250   0.248   4.015  11.198  0.1921  0.0233  0.4665
    7MPD2    C214251   0.199   4.146  11.232 -0.3060  0.5920 -1.3220
    7MPD2    C314252   0.094   4.159  11.327 -0.2600  0.5008 -0.4522
    7MPD2    C414253   0.031   4.043  11.364  0.0542 -0.0078 -0.2502
    7MPD2    C514254   0.074   3.920  11.332  0.5173  0.4432 -0.1340
    7MPD2     H14255   0.230   4.231  11.172  0.6465  0.4337 -1.0637
    7MPD2    H114256   4.686   4.056  11.433  1.0275 -2.2762  1.3467
    7MPD2    H214257   0.216   3.803  11.221 -3.8399 -0.2839 -1.9713
    7MPD2    H314258   0.035   3.828  11.374  1.0459  0.5792  0.6450
    7MPD2     N14259   0.038   4.283  11.365 -0.2908 -0.3830  0.1935
    7MPD2    H514260   4.698   4.276  11.431 -0.2435 -0.1930  0.2704
    7MPD2    N114261   0.352   3.994  11.107  0.3292 -0.0074  0.4037
    7MPD2    H714262   0.374   3.899  11.078  0.0024 -0.1564  0.6453
    8TMC3    C114263   0.492   4.085  10.932  0.2698 -0.0307 -0.3610
    8TMC3    C214264   0.441   3.981  10.859  0.1771  0.2549 -0.5926
    8TMC3    C314265   0.399   4.010  10.734  0.0395 -0.1349  0.3829
    8TMC3    C414266   0.524   4.207  10.885  0.2631 -0.2146  0.0486
    8TMC3    C514267   0.482   4.232  10.757  0.1328  0.0701  0.4732
    8TMC3    C614268   0.429   4.129  10.685  0.6334  0.1879  0.5999
    8TMC3     C14269   0.457   4.092  11.076  0.0972 -0.0010  0.0036
    8TMC3     O14270   0.459   4.201  11.133 -0.0217 -0.6753 -0.3980
    8TMC3     H14271   0.431   3.881  10.901 -1.4543  1.2154  1.3136
    8TMC3    H114272   0.585   4.273  10.945  0.2280  0.4063 -0.5937
    8TMC3    H214273   0.393   4.148  10.584  0.7221 -0.7135  0.4027
    8TMC3    C714274   0.414   4.357  10.762 -0.8427 -0.7833  0.1085
    8TMC3    C814275   0.267   3.974  10.701  0.4826  0.0985 -0.2313
    8TMC3    O114276   0.435   4.431  10.858 -0.1107  0.5380  0.3080
    8TMC3    O214277   0.235   3.993  10.586  0.5095 -0.1098 -0.6600
    9MPD2     C14278   0.005   3.907  10.936 -0.0392  1.0865  0.6798
    9MPD2    C114279   0.059   3.958  10.821  1.2329  0.1344 -0.5714
    9MPD2    C214280   4.715   4.031  10.731 -0.1112 -0.6558  0.3959
    9MPD2    C314281   4.580   4.064  10.762 -0.4229 -0.1423  0.4754
    9MPD2    C414282   4.540   4.012  10.879  0.0285  0.9151  0.1304
    9MPD2    C514283   4.608   3.931  10.971 -0.1964  0.9871 -0.4157
    9MPD2     H14284   0.016   4.060  10.634 -0.1062 -0.7030  0.3839
    9MPD2    H114285   4.448   4.053  10.919 -1.9444 -0.9007 -2.4668
    9MPD2    H214286   0.061   3.854  11.012  2.2216 -1.6066 -2.8708
    9MPD2    H314287   4.572   3.909  11.071  0.2390  1.2211 -0.2111
    9MPD2     N14288   4.499   4.150  10.685 -0.5305 -0.0025 -0.2802
    9MPD2    H514289   4.407   4.169  10.721  0.2299 -0.2282  1.7467
    9MPD2    N114290   0.198   3.950  10.813  0.5919  0.1546  0.3394
    9MPD2    H714291   0.252   3.920  10.893  0.1375 -0.3901  0.4458
    1MPD1     C14292   3.413   3.490  17.464  0.2075 -0.0515 -0.1906
    1MPD1    C114293   3.315   3.587  17.480 -0.2549  0.6577 -0.4615
    1MPD1    C214294   3.242   3.587  17.597 -0.1509 -1.1269  0.5864
    1MPD1    C314295   3.248   3.486  17.693  0.2201 -0.7437 -1.4133
    1MPD1    C414296   3.332   3.385  17.670 -0.4354  0.9527 -0.0288
    1MPD1    C514297   3.418   3.393  17.562 -0.2173 -0.2398 -0.5238
    1MPD1     H14298   3.164   3.662  17.609 -0.8286 -2.0021  1.7043
    1MPD1    H114299   3.349   3.307  17.744  0.6530 -1.9981 -3.4067
    1MPD1    H214300   3.486   3.492  17.383 -0.1605 -0.4358 -0.5345
    1MPD1    H314301   3.496   3.319  17.550 -0.8034 -0.3755 -3.4428
    1MPD1     N14302   3.164   3.469   0.055  0.0755 -0.4488  0.1408
    1MPD1    H514303   3.188   3.388   0.111 -0.5382 -2.2765 -2.2932
    1MPD1    N114304   3.328   3.701  17.397  0.1323  0.3639 -0.0836
    1MPD1    H614305   3.348   3.689  17.298 -0.6559 -0.7540 -0.1172
    1MPD1    H714306   3.250   3.765  17.404  1.5657  2.1376 -0.4101
    2TMC2    C114307   2.967   3.319   0.358  0.0852 -0.6953 -0.2790
    2TMC2    C214308   2.848   3.370   0.395 -0.2588 -0.5654 -1.0712
    2TMC2    C314309   2.798   3.486   0.336 -0.4745  0.6545 -0.1615
    2TMC2    C414310   3.045   3.394   0.274 -0.3779 -0.4401  0.2328
    2TMC2    C514311   3.004   3.513   0.221  0.6229  0.0832 -0.4322
    2TMC2    C614312   2.878   3.558   0.250 -0.2842  0.4096 -0.2783
    2TMC2     C14313   2.987   3.178   0.350 -0.1837 -0.3893  0.1254
    2TMC2     O14314   3.059   3.130   0.260 -0.1163 -0.2003  0.1379
    2TMC2     H14315   2.772   3.319   0.451 -0.3065  1.5911  0.8502
    2TMC2    H114316   3.150   3.372   0.268  0.1044  1.3440  2.2206
    2TMC2    H214317   2.858   3.661   0.221 -1.4827  0.6901  1.5681
    2TMC2    C714318   3.061   3.553   0.095  0.2516  0.1284  0.0463
    2TMC2    C814319   2.687   3.538   0.403  0.8854 -0.0402  0.2285
    2TMC2    O114320   3.009   3.646   0.041 -0.0825 -0.2041  0.1912
    2TMC2    O214321   2.685   3.541   0.523  0.1875 -0.1061  0.3007
    2TMC2    O514322   2.635   3.641   0.332  0.1491  0.0448  0.3577
    2TMC2    H514323   2.640   3.620   0.236 -2.1508  0.2497  0.1817
    3MPD1     C14324   2.933   2.716   0.585  0.7970  0.0691  0.1206
    3MPD1    C114325   2.870   2.818   0.656  0.0621  0.6165  0.2331
    3MPD1    C214326   2.864   2.941   0.604 -0.0161 -0.6373 -0.2842
    3MPD1    C314327   2.933   2.977   0.489  0.0235 -0.1229 -0.3709
    3MPD1    C414328   2.999   2.884   0.417  0.4027 -0.4258  0.0677
    3MPD1    C514329   2.997   2.758   0.470 -0.3057  0.0053  0.2371
    3MPD1     H14330   2.820   3.020   0.664 -0.3301 -0.6050 -0.5565
    3MPD1    H114331   3.069   2.900   0.336 -1.1150 -2.6436 -1.6891
    3MPD1    H214332   2.940   2.613   0.618 -2.5764 -0.1887  0.0224
    3MPD1    H314333   3.064   2.687   0.422  0.9281  1.8588 -0.7629
    3MPD1     N14334   2.921   3.114   0.454 -0.1313  0.5818 -0.1607
    3MPD1    H514335   2.875   3.180   0.515 -1.2411  0.6813 -1.1096
    3MPD1    N114336   2.797   2.790   0.771 -0.0363 -0.2465  0.0160
    3MPD1    H614337   2.753   2.866   0.822 -0.7300 -1.8947  1.8459
    3MPD1    H714338   2.862   2.740   0.831 -0.8741 -1.6514 -0.2469
    1TMC1    C114339   3.140   1.926  12.693  0.6860 -0.4627  0.3808
    1TMC1    C214340   3.109   1.795  12.726  0.7868  0.6188 -0.7992
    1TMC1    C314341   2.975   1.771  12.733 -0.0254  0.2345  0.5378
    1TMC1    C414342   3.057   2.028  12.670  0.0802 -0.3276 -0.1248
    1TMC1    C514343   2.928   1.989  12.675 -0.2652  0.1562 -0.4252
    1TMC1    C614344   2.883   1.867  12.711  0.5773  0.3405 -0.1061
    1TMC1     C14345   3.276   1.965  12.674  0.1518  0.3150 -0.0009
    1TMC1     O14346   3.312   2.038  12.583  0.5613 -0.0345  0.2099
    1TMC1     H14347   3.181   1.715  12.742 -1.1433 -1.4155 -2.3689
    1TMC1    H114348   3.083   2.131  12.650 -0.2646  0.0253  1.2723
    1TMC1    H214349   2.776   1.853  12.720  0.7513 -0.0272  1.4028
    1TMC1    C714350   2.830   2.101  12.659  0.1506  0.4282 -0.3211
    1TMC1    C814351   2.951   1.631  12.710 -0.1762 -0.4465 -0.2891
    1TMC1    O114352   2.832   2.183  12.567  0.3828 -0.3158  0.1077
    1TMC1    O214353   3.025   1.556  12.646  0.3426 -0.3311 -0.5887
    1TMC1    O314354   2.732   2.105  12.753 -0.2066 -0.5638 -0.6119
    1TMC1    H314355   2.745   2.038  12.823 -0.2116 -1.0791 -1.1042
    1TMC1    O514356   2.824   1.602  12.735  0.4897 -0.2370 -0.7837
    1TMC1    H514357   2.789   1.654  12.811 -1.8948 -1.6600 -0.9103
    2MPD2     C14358   3.577   2.003  12.699 -0.3709 -0.7789 -0.4532
    2MPD2    C114359   3.498   1.933  12.787 -0.7957  0.3548 -0.2979
    2MPD2    C214360   3.566   1.879  12.897  0.3241 -0.7584 -0.2513
    2MPD2    C314361   3.703   1.902  12.918 -0.1674  0.3919  0.0220
    2MPD2    C414362   3.771   1.983  12.833  0.2515  0.2354 -0.1107
    2MPD2    C514363   3.711   2.026  12.716  0.1273  0.7964  0.5656
    2MPD2     H14364   3.506   1.818  12.963  0.2173 -1.1922 -0.7436
    2MPD2    H114365   3.876   2.006  12.844  0.0943  0.0107  1.9701
    2MPD2    H214366   3.533   2.047  12.610 -1.6196 -0.0284  0.5219
    2MPD2    H314367   3.769   2.062  12.632  0.5364  2.1533  1.4228
    2MPD2     N14368   3.760   1.865  13.045 -0.0719  0.3122 -0.4463
    2MPD2    H514369   3.707   1.803  13.105 -0.5551  2.1241  1.0090
    2MPD2    N114370   3.362   1.914  12.774 -0.5152  0.6368 -0.0599
    2MPD2    H714371   3.310   1.865  12.846  0.7346 -0.7270 -0.0990
    3TCq1    O114372   3.928   2.005  13.669 -0.5318  0.5016  0.2589
    3TCq1    C114373   3.997   2.010  13.557 -0.2892  0.5809  0.1984
    3TCq1    O214374   4.075   2.095  13.524  0.7697  0.6813 -0.0814
    3TCq1    C214375   3.938   1.923  13.460 -0.6162 -0.3417 -1.2280
    3TCq1    C314376   3.878   1.809  13.502 -0.1648 -0.3190 -0.3844
    3TCq1    C414377   3.822   1.723  13.409 -0.6508  0.3609  0.0032
    3TCq1    C514378   3.819   1.751  13.272  0.4777  0.2566 -0.3042
    3TCq1    C614379   3.886   1.869  13.236 -0.7809 -0.0209 -0.8301
    3TCq1    C714380   3.935   1.958  13.329 -1.0364  0.7469  0.3067
    3TCq1    C814381   3.880   1.916  13.098  0.3635  0.2690  0.6723
    3TCq1    O414382   3.954   2.008  13.060 -0.2011 -0.5207 -0.4309
    3TCq1    C914383   3.763   1.600  13.444 -0.5810  0.1646  0.5042
    3TCq1    O514384   3.700   1.547  13.348 -0.0992  0.8152  0.2836
    3TCq1    O614385   3.782   1.559  13.557  0.6429 -0.0856 -0.4578
    3TCq1    H114386   3.860   1.934  13.667  0.7371 -0.6611 -1.6662
    3TCq1    H214387   3.888   1.769  13.602 -0.4859  1.1031  0.2230
    3TCq1    H314388   3.794   1.671  13.203  0.0509  0.4074 -0.3244
    3TCq1    H414389   3.979   2.050  13.293  0.2046  0.0158 -0.0854
    1MPD2     C14390   2.648   2.804  14.630 -0.8336  0.4129 -0.3932
    1MPD2    C114391   2.548   2.745  14.703 -0.4651  0.2563 -0.2062
    1MPD2    C214392   2.579   2.659  14.808  0.4128  0.9079 -0.2140
    1MPD2    C314393   2.706   2.619  14.843  0.3422  0.6084 -0.3720
    1MPD2    C414394   2.816   2.676  14.777  0.0840  0.1772 -0.0845
    1MPD2    C514395   2.782   2.768  14.678 -0.8339 -0.3205  0.7183
    1MPD2     H14396   2.498   2.604  14.855  1.2846  0.8223  1.1901
    1MPD2    H114397   2.919   2.650  14.795  0.2733  0.7267 -0.3752
    1MPD2    H214398   2.651   2.887  14.561 -1.7977 -0.4528 -1.4812
    1MPD2    H314399   2.865   2.806  14.620 -0.0599 -1.5387  1.0335
    1MPD2     N14400   2.735   2.516  14.936 -0.0606  0.2592  0.3570
    1MPD2    H514401   2.835   2.508  14.955 -0.1176  0.8064  0.8635
    1MPD2    N114402   2.420   2.794  14.678  0.1246 -0.2191 -0.2786
    1MPD2    H714403   2.412   2.872  14.614 -0.9482 -1.6675 -1.8908
    2TMC3    C114404   2.189   2.817  14.715  0.6638  0.5576 -0.8273
    2TMC3    C214405   2.088   2.778  14.799 -0.0763 -0.3099 -0.0687
    2TMC3    C314406   1.987   2.706  14.749 -0.0451 -0.0448 -0.5531
    2TMC3    C414407   2.170   2.815  14.576  0.0072  0.4642 -0.5024
    2TMC3    C514408   2.054   2.762  14.532 -0.4080  0.2008 -0.9469
    2TMC3    C614409   1.967   2.692  14.617  0.1046 -0.2772 -0.1084
    2TMC3     C14410   2.316   2.772  14.765  0.2836  0.8253 -0.1325
    2TMC3     O14411   2.316   2.730  14.881  0.2342  0.3284 -0.1960
    2TMC3     H14412   2.096   2.797  14.906 -0.3838 -2.4545  0.3267
    2TMC3    H114413   2.251   2.838  14.507 -0.3174  1.5640 -0.5170
    2TMC3    H214414   1.877   2.643  14.581 -0.8499  0.1179  1.7544
    2TMC3    C714415   2.001   2.794  14.403 -0.8736 -0.4418 -0.4753
    2TMC3    C814416   1.946   2.589  14.834  0.0983 -0.2584 -0.1785
    2TMC3    O114417   1.883   2.779  14.384  0.2177 -0.5894  0.3098
    2TMC3    O214418   1.836   2.542  14.831  0.4869  0.1783  0.6264
    3TCq1    O114419   2.401   3.610  13.608 -0.5668 -0.6947 -0.5862
    3TCq1    C114420   2.451   3.675  13.723  0.5018  0.1956 -0.0795
    3TCq1    O214421   2.546   3.751  13.724  0.1479  0.0537 -0.2250
    3TCq1    C214422   2.437   3.567  13.820  0.4569 -0.1207 -0.4102
    3TCq1    C314423   2.531   3.570  13.922 -0.4757  0.4325 -0.3272
    3TCq1    C414424   2.522   3.476  14.026  0.2288 -0.3707  0.4766
    3TCq1    C514425   2.421   3.384  14.024 -0.1023  0.4213  0.5587
    3TCq1    C614426   2.322   3.401  13.939 -0.5596  1.2389  0.8023
    3TCq1    C714427   2.328   3.484  13.831 -0.6571 -0.0247 -0.1872
    3TCq1    C814428   2.217   3.304  13.930 -0.4909 -0.1417 -0.0260
    3TCq1    O414429   2.118   3.332  13.864  0.4649 -0.0224 -0.2299
    3TCq1    C914430   2.626   3.466  14.124  0.7070  0.4307  0.1322
    3TCq1    O514431   2.724   3.538  14.108  1.1085 -0.0156 -0.0728
    3TCq1    O614432   2.598   3.396  14.222  0.7831  0.1830  0.9363
    3TCq1    H114433   2.367   3.520  13.626 -0.7204 -1.1570 -3.2901
    3TCq1    H214434   2.613   3.640  13.924  0.1560 -0.2890 -1.5345
    3TCq1    H314435   2.402   3.329  14.115  2.3391  1.3492  1.6399
    3TCq1    H414436   2.248   3.499  13.760 -0.1449  0.5894 -0.6355
    4MPD2     C14437   2.006   3.117  14.006 -0.4521 -0.2802 -0.0648
    4MPD2    C114438   2.131   3.109  14.056 -0.1869  0.1271 -0.4146
    4MPD2    C214439   2.153   3.014  14.154 -0.5435 -0.0687  0.3397
    4MPD2    C314440   2.056   2.935  14.213 -0.2582  0.0237  1.0545
    4MPD2    C414441   1.923   2.960  14.168 -0.1189 -0.6005 -0.2507
    4MPD2    C514442   1.902   3.040  14.056  0.6340  0.1025 -0.0498
    4MPD2     H14443   2.254   3.006  14.192 -0.5745 -0.4563  0.3323
    4MPD2    H114444   1.831   2.931  14.216 -0.2633  1.0490  0.4681
    4MPD2    H214445   1.987   3.179  13.920  0.6081 -0.3776 -0.3662
    4MPD2    H314446   1.802   3.044  14.016  0.9961  1.7302 -0.8042
    4MPD2     N14447   2.091   2.857  14.322  0.1816  0.6894 -0.0324
    4MPD2    H514448   2.189   2.844  14.343 -0.3639 -1.2886  1.2468
    4MPD2    N114449   2.238   3.189  14.006 -0.0566  0.4709 -0.4261
    4MPD2    H714450   2.325   3.184  14.059 -0.0639 -2.0309 -0.6662
    5TMC2    C114451   2.572   2.196  15.200 -0.7204  0.6702 -0.5529
    5TMC2    C214452   2.632   2.097  15.128 -0.2335 -0.4407  0.1929
    5TMC2    C314453   2.721   2.143  15.033 -0.2510  0.4507 -0.1473
    5TMC2    C414454   2.603   2.328  15.186 -0.8911 -0.1678  0.0481
    5TMC2    C514455   2.700   2.357  15.097  0.2790 -0.2389  0.1849
    5TMC2    C614456   2.772   2.267  15.022 -0.0825 -0.1000  0.2249
    5TMC2     C14457   2.429   2.174  15.199  0.5450 -0.0779  0.5803
    5TMC2     O14458   2.385   2.059  15.220  0.2560  0.1075 -0.1038
    5TMC2     H14459   2.591   1.997  15.125 -1.9926  0.2736  0.2165
    5TMC2    H114460   2.558   2.406  15.248 -2.2938 -0.5925 -0.4292
    5TMC2    H214461   2.832   2.298  14.937 -0.5734 -0.1269 -0.1335
    5TMC2    C714462   2.647   2.469  15.025 -0.1188  0.0160 -0.4401
    5TMC2    C814463   2.789   2.059  14.933 -0.2308  0.0366 -0.2942
    5TMC2    O114464   2.528   2.489  15.041  0.3197  0.8478  0.0120
    5TMC2    O214465   2.905   2.073  14.903 -0.4610 -0.0116  0.3196
    5TMC2    O514466   2.697   2.030  14.839  0.2869  0.1822 -0.7474
    5TMC2    H514467   2.607   2.066  14.854  2.6298  5.2500  1.0342
    6MPD2     C14468   1.981   2.317  14.970  1.1315  0.8327 -0.1302
    6MPD2    C114469   2.077   2.416  14.955  0.2379  0.1945 -0.4425
    6MPD2    C214470   2.197   2.394  15.011 -0.2496 -0.0128  0.7017
    6MPD2    C314471   2.231   2.287  15.088  0.0744 -0.3985 -0.1682
    6MPD2    C414472   2.138   2.190  15.110 -0.5584  0.0525 -0.4309
    6MPD2    C514473   2.025   2.198  15.030 -0.3267  0.0159 -0.3483
    6MPD2     H14474   2.273   2.466  14.984  2.5449 -2.6722  1.4569
    6MPD2    H114475   2.151   2.101  15.169  2.1816 -0.0278 -1.1495
    6MPD2    H214476   1.882   2.320  14.927  0.5887  1.7976  1.1567
    6MPD2    H314477   1.949   2.121  15.038 -0.7067  0.6324  1.9955
    6MPD2     N14478   2.368   2.277  15.134 -1.0129 -0.0346  0.8463
    6MPD2    H514479   2.430   2.349  15.099 -0.1892 -1.5336 -0.7946
    6MPD2    N114480   2.063   2.538  14.890  0.2764  0.6465  0.7013
    6MPD2    H714481   2.150   2.590  14.880  0.0123  1.2719  1.6739
  945NH3     N114482   1.819   0.668  13.338 -0.1896 -0.1569 -0.1677
  945NH3     H214483   1.754   0.739  13.304 -0.6191 -0.5958 -0.2686
  945NH3     H314484   1.903   0.680  13.283 -1.4347 -0.8100 -2.2323
  945NH3     H414485   1.772   0.581  13.317  1.0808 -0.7478 -0.5548
  946SOD     NA14486   3.293   4.383  17.500 -0.1015  0.2679 -0.2134
  947SOD     NA14487   3.053   2.894  10.917  0.3194  0.3161  0.2814
  948SOD     NA14488   0.309   0.428   8.598  0.0948 -0.0119 -0.2929
  949SOD     NA14489   3.955   0.710   6.054 -0.2573  0.3109  0.1440
  950SOD     NA14490   4.394   3.436  12.299  0.0672  0.1649  0.2640
  951SOD     NA14491   4.286   2.316   9.626 -0.2646  0.2267  0.0313
  952SOD     NA14492   1.796   3.528  14.920 -0.3556  0.4220 -0.4837
  953SOD     NA14493   0.057   0.667  13.681  0.2777 -0.1706  0.1752
  954SOL     OW14494   1.973   0.477   9.993  1.0201  0.5296 -0.3610
  954SOL    HW114495   1.892   0.527  10.005  1.1300  0.8368 -0.8656
  954SOL    HW214496   1.941   0.399   9.948  2.5193  0.3455 -1.0985
  955SOL     OW14497   3.217   1.919   8.411  0.1260 -0.2734  0.4677
  955SOL    HW114498   3.233   1.859   8.338  1.7172 -0.2025  0.7742
  955SOL    HW214499   3.158   1.983   8.370  3.8047  3.1331  0.5778
  956SOL     OW14500   3.355   0.903   7.474 -0.0926 -0.3023  0.6500
  956SOL    HW114501   3.305   0.954   7.409 -0.7402  0.0204  1.3915
  956SOL    HW214502   3.379   0.828   7.420 -2.4545 -0.5103 -0.1229
  957SOL     OW14503   4.352   3.851   3.026 -0.4765  0.4972  0.4074
  957SOL    HW114504   4.445   3.831   3.027 -1.3317 -3.5374  0.6641
  957SOL    HW214505   4.314   3.770   2.993  1.8735 -0.4725  0.1119
  958SOL     OW14506   1.777   3.624   4.756 -0.4201  0.1372 -0.5128
  958SOL    HW114507   1.758   3.717   4.748 -0.5049  0.2017  0.4422
  958SOL    HW214508   1.836   3.626   4.832 -1.6454 -1.9921  0.4880
  959SOL     OW14509   0.947   1.340  11.246  0.4414  0.9458 -0.4595
  959SOL    HW114510   0.916   1.395  11.318  0.3678 -0.2914  0.4458
  959SOL    HW214511   0.918   1.254  11.276  3.5839  0.0569 -0.0073
  960SOL     OW14512   2.802   2.852   6.210 -0.3987  0.0773  0.8243
  960SOL    HW114513   2.848   2.784   6.259  0.8595  0.7377  0.5568
  960SOL    HW214514   2.738   2.797   6.164 -0.5675  1.2018 -0.2960
  961SOL     OW14515   0.052   1.474  15.870  0.3250  0.0160  0.0698
  961SOL    HW114516   0.147   1.468  15.859  0.3787  0.7029  0.1779
  961SOL    HW214517   0.021   1.494  15.782  1.0234 -3.4436 -0.9689
  962SOL     OW14518   3.159   0.409   9.101  0.1371  0.4868 -0.5418
  962SOL    HW114519   3.204   0.329   9.126 -1.5965 -0.8177 -1.6325
  962SOL    HW214520   3.218   0.476   9.136  1.1068  0.6495 -2.4945
  963SOL     OW14521   1.427   3.769   9.217  0.4970 -0.7259  0.0207
  963SOL    HW114522   1.351   3.815   9.254  1.7758  1.6444 -0.2804
  963SOL    HW214523   1.398   3.738   9.131 -1.3334 -0.9418  0.7218
  964SOL     OW14524   2.256   3.565  16.275  0.4675  0.0698  0.5292
  964SOL    HW114525   2.228   3.630  16.210 -0.1305 -1.8564 -1.1189
  964SOL    HW214526   2.332   3.533  16.225 -0.5323  0.3706 -1.1811
  965SOL     OW14527   3.949   4.593  13.432  0.7208  0.6974 -0.1847
  965SOL    HW114528   3.973   4.512  13.477  0.2077  0.5534 -0.1774
  965SOL    HW214529   3.931   4.565  13.342 -0.8332  0.6325  0.1507
  966SOL     OW14530   0.462   0.333  15.488  0.0700  0.2080 -0.2202
  966SOL    HW114531   0.548   0.366  15.514  0.2247 -0.5800  0.2781
  966SOL    HW214532   0.407   0.396  15.535 -0.5576  1.0258 -2.0474
  967SOL     OW14533   0.255   0.046   9.681  0.4265 -0.0468 -0.2345
  967SOL    HW114534   0.290   0.121   9.728  1.0283  0.7155 -1.9293
  967SOL    HW214535   0.308   0.040   9.602  1.5704 -2.6459  0.7088
  968SOL     OW14536   3.452   1.822   4.642  0.0441  0.0937  0.1263
  968SOL    HW114537   3.454   1.917   4.631  0.5477  0.1404  0.6247
  968SOL    HW214538   3.525   1.802   4.583  1.6798  1.0740  1.8250
  969SOL     OW14539   2.422   1.155   5.458  0.8966  0.4992 -0.1679
  969SOL    HW114540   2.393   1.145   5.549 -0.0645 -1.2996 -0.6774
  969SOL    HW214541   2.410   1.070   5.416  0.1818  0.2011  0.6409
  970SOL     OW14542   0.809   2.650  16.746  0.4378  0.3990 -0.2653
  970SOL    HW114543   0.729   2.631  16.795 -0.1961 -1.2804 -1.9576
  970SOL    HW214544   0.790   2.733  16.701 -1.0342  0.9266  1.2768
  971SOL     OW14545   1.246   2.279  15.571 -0.1388  0.3164 -0.2792
  971SOL    HW114546   1.239   2.206  15.632  0.2338 -0.4356 -1.1307
  971SOL    HW214547   1.322   2.249  15.521  1.6862  1.9028  1.5309
  972SOL     OW14548   3.091   0.864   3.416  0.0444 -0.5148  0.5497
  972SOL    HW114549   3.061   0.788   3.365  0.1868 -0.8057  0.9066
  972SOL    HW214550   3.004   0.903   3.426 -0.1348 -1.1220  1.3570
  973SOL     OW14551   1.581   3.178   3.220  0.2399 -0.0513  0.4375
  973SOL    HW114552   1.604   3.100   3.169 -2.4137  0.0634 -0.8961
  973SOL    HW214553   1.646   3.182   3.290  2.1103 -0.5571 -1.2445
  974SOL     OW14554   3.110   2.876   1.300  0.8473 -0.2905 -0.0586
  974SOL    HW114555   3.157   2.934   1.240  0.8600  0.9374  1.1377
  974SOL    HW214556   3.111   2.931   1.378 -4.4802 -0.3883  0.0601
  975SOL     OW14557   0.908   2.151  15.097 -0.1676 -0.0521 -0.4038
  975SOL    HW114558   0.842   2.219  15.106  0.9114  0.6803  1.8224
  975SOL    HW214559   0.852   2.089  15.050  1.1292 -1.8792  0.4533
  976SOL     OW14560   4.002   0.014   9.492  0.1363  0.2782 -0.3916
  976SOL    HW114561   4.074   0.067   9.457 -0.6624  1.5952 -0.0082
  976SOL    HW214562   4.022   4.659   9.477 -0.1542  0.2262 -0.4598
  977SOL     OW14563   4.140   1.419   6.987 -0.1090 -0.5936  0.2905
  977SOL    HW114564   4.086   1.450   6.915 -0.4165 -2.4346 -0.2563
  977SOL    HW214565   4.071   1.418   7.054  0.6787 -0.8442  1.1034
  978SOL     OW14566   3.741   1.461   7.814  0.4234  0.2401  0.3332
  978SOL    HW114567   3.827   1.503   7.803  0.8041 -0.6369 -0.0267
  978SOL    HW214568   3.760   1.385   7.759 -1.8421 -0.5518  0.6606
  979SOL     OW14569   3.023   3.719   6.965  0.9687  0.4830 -0.4186
  979SOL    HW114570   2.984   3.709   6.877  1.1571 -2.0131 -0.2228
  979SOL    HW214571   2.980   3.795   7.003 -2.5327 -1.9343  0.5251
  980SOL     OW14572   0.079   2.830   1.478  0.2589 -0.6654  0.4345
  980SOL    HW114573   0.062   2.771   1.552 -0.9729  0.9319  1.4048
  980SOL    HW214574   0.110   2.911   1.518  1.5151  0.2133 -2.3708
  981SOL     OW14575   3.060   3.351   8.489 -0.1457 -0.5360  0.4810
  981SOL    HW114576   2.990   3.305   8.442 -1.4100  1.1535  0.7262
  981SOL    HW214577   3.065   3.315   8.577  1.2780 -1.0504  0.1945
  982SOL     OW14578   0.258   0.525   8.360  0.0148 -0.5278  0.0820
  982SOL    HW114579   0.290   0.615   8.360  0.0174 -0.5304 -0.4816
  982SOL    HW214580   0.172   0.530   8.319 -0.5701 -0.2189  1.3409
  983SOL     OW14581   0.710   3.602   0.646  0.6088 -0.7283  0.3039
  983SOL    HW114582   0.797   3.569   0.669  0.3455 -0.7129  1.3526
  983SOL    HW214583   0.693   3.656   0.723  1.5401  0.3284 -0.2368
  984SOL     OW14584   0.057   0.923   4.145  0.2385  0.1306  0.1665
  984SOL    HW114585   4.726   0.948   4.083  1.4940 -1.3913 -1.8287
  984SOL    HW214586   0.119   0.994   4.127  0.6889  0.0202  1.2689
  985SOL     OW14587   1.272   1.421   7.575 -0.2778 -0.4475  0.2892
  985SOL    HW114588   1.359   1.392   7.548 -0.4575 -1.4774  0.8114
  985SOL    HW214589   1.297   1.508   7.608 -1.0001  0.7925 -2.4348
  986SOL     OW14590   2.081   3.207   2.429 -0.2880  0.3591  0.0380
  986SOL    HW114591   2.088   3.177   2.339  3.5690  0.5860  0.2920
  986SOL    HW214592   2.039   3.290   2.406  1.3138  0.4763 -2.3987
  987SOL     OW14593   4.464   1.360   4.640  0.0254  0.4167  0.1522
  987SOL    HW114594   4.391   1.300   4.656  0.0631  0.0350 -1.1284
  987SOL    HW214595   4.480   1.350   4.547 -1.4891  0.1291 -0.0736
  988SOL     OW14596   3.444   4.281   9.493 -0.6119 -0.1997 -0.0775
  988SOL    HW114597   3.467   4.335   9.568 -1.7197 -1.4486  1.1545
  988SOL    HW214598   3.436   4.191   9.525  0.9042  0.0290  0.9416
  989SOL     OW14599   0.539   3.233  11.840  0.0936 -0.5389  0.0406
  989SOL    HW114600   0.603   3.230  11.769  0.5712  0.3885  0.4246
  989SOL    HW214601   0.465   3.277  11.798  0.0306 -2.1582 -1.5308
  990SOL     OW14602   1.687   0.205   1.122 -0.1189  0.1583  0.0707
  990SOL    HW114603   1.734   0.254   1.189  0.3555  1.7278 -1.4001
  990SOL    HW214604   1.597   0.225   1.148  0.1134  0.0879  0.9223
  991SOL     OW14605   4.120   4.722   1.744  0.0858  0.1993 -0.2828
  991SOL    HW114606   4.161   4.725   1.830 -1.0861 -0.3816  0.2839
  991SOL    HW214607   4.200   4.727   1.691  0.2992 -2.0664 -0.1917
  992SOL     OW14608   0.081   2.467   2.078  0.2129  0.2554  0.3216
  992SOL    HW114609   0.147   2.399   2.067  1.7994  1.4834  2.2454
  992SOL    HW214610   0.148   2.535   2.079  1.1500 -0.6674  0.1090
  993SOL     OW14611   1.679   4.690   1.253  0.2641  0.2425  0.0630
  993SOL    HW114612   1.603   4.711   1.308 -1.3192  0.9368 -2.3899
  993SOL    HW214613   1.701   0.038   1.217  1.2062 -0.3882 -0.8416
  994SOL     OW14614   1.282   2.971   8.443  0.2585 -0.0133  0.1074
  994SOL    HW114615   1.221   3.029   8.488 -2.2538 -0.9321 -2.1632
  994SOL    HW214616   1.369   3.010   8.444 -0.0990  0.7860  0.2136
  995SOL     OW14617   2.207   4.169  13.184  0.1869 -0.2191 -0.2321
  995SOL    HW114618   2.147   4.198  13.115 -0.0232  0.0852  0.0796
  995SOL    HW214619   2.153   4.121  13.247  1.4297 -1.0481  0.2027
  996SOL     OW14620   1.949   0.959   3.540  0.3711 -0.5490 -0.2947
  996SOL    HW114621   1.939   0.916   3.455 -0.6069 -1.5996  0.3537
  996SOL    HW214622   2.035   1.003   3.539  0.5344 -0.8959 -1.8523
  997SOL     OW14623   0.099   3.412   6.486 -0.4912 -0.6437 -0.4276
  997SOL    HW114624   0.182   3.364   6.489 -1.0518 -1.3901  2.6858
  997SOL    HW214625   0.085   3.405   6.580  1.0224  0.7417 -0.0899
  998SOL     OW14626   0.191   0.244   2.031  0.0575 -0.1175 -0.3280
  998SOL    HW114627   0.125   0.236   1.962  1.3083 -0.0852 -1.5228
  998SOL    HW214628   0.235   0.321   1.995 -0.2228  1.3702  2.4595
  999SOL     OW14629   3.579   4.608  15.824  0.3448  0.1872  0.3887
  999SOL    HW114630   3.671   4.628  15.840  0.5235 -0.3515  0.0427
  999SOL    HW214631   3.552   4.670  15.757 -1.0399 -1.4858 -0.6012
 1000SOL     OW14632   4.057   1.722   4.265  0.2403  0.0434  0.6962
 1000SOL    HW114633   4.112   1.786   4.218 -0.0980  0.5838  1.0365
 1000SOL    HW214634   4.090   1.638   4.232 -2.1528 -1.2817  1.6764
 1001SOL     OW14635   4.638   1.728   5.945 -0.1390  0.3489  0.0019
 1001SOL    HW114636   4.721   1.771   5.963 -0.8757  1.5570  0.4922
 1001SOL    HW214637   4.673   1.651   5.899  1.6067  1.1958 -0.0981
 1002SOL     OW14638   2.699   4.012   7.474 -0.1379  0.3863  0.0263
 1002SOL    HW114639   2.792   4.000   7.495 -0.1090  0.8758  0.1852
 1002SOL    HW214640   2.705   4.103   7.444 -0.4802  0.1367 -0.7687
 1003SOL     OW14641   3.671   3.961   7.220 -0.2692 -0.6421 -0.5460
 1003SOL    HW114642   3.649   3.957   7.314  0.5511 -0.4129 -0.3428
 1003SOL    HW214643   3.615   4.036   7.202  1.8049  1.0261 -0.1338
 1004SOL     OW14644   0.573   3.067   4.091  0.5037 -0.3193 -0.6689
 1004SOL    HW114645   0.641   3.027   4.146 -1.4779 -0.4173  1.7107
 1004SOL    HW214646   0.570   3.004   4.019 -1.7371 -0.7551 -0.1984
 1005SOL     OW14647   1.816   1.463   3.520  0.1960  0.8495 -0.3602
 1005SOL    HW114648   1.842   1.371   3.512  3.8490  1.8131  0.4821
 1005SOL    HW214649   1.782   1.472   3.430 -0.2618  0.5863 -0.2105
 1006SOL     OW14650   0.955   0.526   7.757 -0.0801 -0.6516  0.5321
 1006SOL    HW114651   0.905   0.498   7.833 -0.2338  0.3254  0.7904
 1006SOL    HW214652   1.046   0.503   7.778 -0.1066 -2.2431 -1.1609
 1007SOL     OW14653   1.197   1.750   3.712  0.0690  0.0067 -0.2900
 1007SOL    HW114654   1.200   1.817   3.779 -1.1729 -0.3904  0.1511
 1007SOL    HW214655   1.222   1.803   3.637 -2.1059  0.4201 -0.7171
 1008SOL     OW14656   4.592   2.967  15.913 -0.4558  0.9496  0.2831
 1008SOL    HW114657   4.664   2.970  15.975  0.4835  1.9069 -0.8584
 1008SOL    HW214658   4.606   2.886  15.865  1.4756  1.4801 -0.0268
 1009SOL     OW14659   1.559   1.631   3.072 -0.0733  0.3513 -0.7635
 1009SOL    HW114660   1.536   1.570   3.002 -0.0633 -0.7625  0.2085
 1009SOL    HW214661   1.615   1.698   3.033  0.5500  0.0442 -0.3902
 1010SOL     OW14662   2.830   2.474   2.257 -0.6758 -0.4692 -0.2585
 1010SOL    HW114663   2.883   2.395   2.263  0.3334  0.0669 -2.2381
 1010SOL    HW214664   2.790   2.477   2.344 -0.3683 -1.4217 -0.0823
 1011SOL     OW14665   0.439   1.184  17.477  0.2581  0.1381  0.5858
 1011SOL    HW114666   0.376   1.233  17.424  0.1119  0.1470  0.7687
 1011SOL    HW214667   0.513   1.245  17.483  0.0238  0.5649 -0.8005
 1012SOL     OW14668   2.568   3.468   5.646  0.5752  0.5262 -0.2798
 1012SOL    HW114669   2.626   3.393   5.644  0.0046  0.1031 -0.9603
 1012SOL    HW214670   2.623   3.531   5.599  0.1613 -0.7709 -2.5032
 1013SOL     OW14671   1.386   2.327   3.028 -0.6424  0.1892 -0.3225
 1013SOL    HW114672   1.308   2.345   3.080 -0.1976  1.8446 -0.2055
 1013SOL    HW214673   1.368   2.363   2.941 -0.6797  3.4254  1.0274
 1014SOL     OW14674   0.526   1.027   8.368 -0.5528  0.2410  0.5295
 1014SOL    HW114675   0.546   1.092   8.435 -1.0392  0.8699  0.0592
 1014SOL    HW214676   0.614   1.019   8.331 -0.5683 -2.6304  1.0910
 1015SOL     OW14677   1.917   0.445   4.737 -0.4513  0.1988 -0.2024
 1015SOL    HW114678   1.973   0.521   4.724 -1.5843  1.4135  1.9247
 1015SOL    HW214679   1.881   0.455   4.650 -2.9711 -0.3228  0.7890
 1016SOL     OW14680   0.305   2.721   7.704 -0.4646 -0.1598  0.0099
 1016SOL    HW114681   0.320   2.703   7.797 -0.9989  0.2835  0.1864
 1016SOL    HW214682   0.391   2.741   7.669  0.0601 -2.9094 -0.2280
 1017SOL     OW14683   2.226   4.186   4.260 -0.0186 -0.0689 -0.1887
 1017SOL    HW114684   2.147   4.158   4.213  0.5055 -0.2550 -0.9687
 1017SOL    HW214685   2.284   4.110   4.262  0.8938  0.6761  1.8536
 1018SOL     OW14686   3.405   0.481   2.755  0.3529 -0.4757 -0.3463
 1018SOL    HW114687   3.468   0.543   2.792 -0.7476 -0.2980  1.2415
 1018SOL    HW214688   3.323   0.495   2.802  0.3731 -0.9466 -0.1710
 1019SOL     OW14689   1.250   3.676   6.778  0.0939  0.1588 -0.2911
 1019SOL    HW114690   1.297   3.758   6.794 -1.6525  1.1399 -0.2760
 1019SOL    HW214691   1.297   3.654   6.697 -0.0985 -3.0649  0.4796
 1020SOL     OW14692   3.760   2.532   9.005 -0.4465 -0.4741  0.0708
 1020SOL    HW114693   3.844   2.505   9.041 -0.1769  2.6286  1.8108
 1020SOL    HW214694   3.750   2.625   9.028 -0.5252 -0.4737  0.0344
 1021SOL     OW14695   1.248   2.562   1.441 -0.0367  0.3666 -0.0129
 1021SOL    HW114696   1.319   2.621   1.466  1.3917 -0.4774 -2.0589
 1021SOL    HW214697   1.168   2.595   1.482  0.6341  1.6689  0.2429
 1022SOL     OW14698   1.103   3.399   2.761 -0.0758 -0.0524  0.5702
 1022SOL    HW114699   1.022   3.404   2.709 -0.0786  1.5229  0.7320
 1022SOL    HW214700   1.061   3.436   2.838  0.5917  1.1642  0.3466
 1023SOL     OW14701   3.758   3.477   8.006 -0.0197 -0.0468  0.0524
 1023SOL    HW114702   3.773   3.570   8.024  0.4763  0.0011 -0.6304
 1023SOL    HW214703   3.849   3.455   7.989 -0.1412  0.7160 -1.5474
 1024SOL     OW14704   2.168   3.252   1.507  0.0623 -0.4143 -0.0028
 1024SOL    HW114705   2.128   3.165   1.502 -0.1076 -0.4115  1.4245
 1024SOL    HW214706   2.096   3.309   1.480 -0.1457 -0.9268 -0.5344
 1025SOL     OW14707   1.917   3.112   7.505 -0.0827  0.1390 -0.3139
 1025SOL    HW114708   1.897   3.020   7.523 -3.7994  0.5211 -2.6482
 1025SOL    HW214709   1.938   3.100   7.412 -1.8239  1.7125 -0.9048
 1026SOL     OW14710   1.509   4.393   9.606  0.1645  0.2211 -0.2132
 1026SOL    HW114711   1.588   4.407   9.657  0.5276 -2.9417  0.1093
 1026SOL    HW214712   1.438   4.428   9.660  1.1764  1.8860  0.0201
 1027SOL     OW14713   3.576   3.098   6.413 -0.1189 -0.4901 -0.0466
 1027SOL    HW114714   3.531   3.024   6.371 -2.5454 -0.2593  2.1343
 1027SOL    HW214715   3.523   3.174   6.392  1.0798 -0.1969 -1.8966
 1028SOL     OW14716   0.518   2.718  11.938  0.0260 -0.4580 -0.2405
 1028SOL    HW114717   0.551   2.804  11.962  1.1611 -1.5250  1.9949
 1028SOL    HW214718   0.522   2.713  11.842 -0.6043 -0.2346 -0.2810
 1029SOL     OW14719   2.463   2.030   8.819  0.1616  0.1797  0.1263
 1029SOL    HW114720   2.533   1.969   8.801 -0.5280 -0.3473 -0.7918
 1029SOL    HW214721   2.507   2.080   8.888 -1.6442 -0.6088  1.8290
 1030SOL     OW14722   2.805   1.451   9.149  0.0275  0.3111  0.4241
 1030SOL    HW114723   2.778   1.377   9.202 -0.5230 -1.4790 -2.3219
 1030SOL    HW214724   2.724   1.501   9.140 -0.8641 -0.8549  2.0566
 1031SOL     OW14725   3.037   0.197   6.520 -0.7680 -0.1051  0.0523
 1031SOL    HW114726   3.015   0.260   6.452 -1.8611  0.3149  0.7968
 1031SOL    HW214727   3.033   0.116   6.469 -0.3727 -0.8042  1.1279
 1032SOL     OW14728   3.930   3.367   1.720  0.0745 -0.1341  0.6330
 1032SOL    HW114729   3.988   3.362   1.643  1.1880  0.2235  1.4377
 1032SOL    HW214730   3.998   3.368   1.787  2.0317 -0.1428 -1.3360
 1033SOL     OW14731   4.458   3.380   6.361 -0.1279  0.2984  0.3032
 1033SOL    HW114732   4.379   3.381   6.306  1.1690 -1.2952 -1.5970
 1033SOL    HW214733   4.423   3.317   6.423  0.0253  1.7671  1.8847
 1034SOL     OW14734   1.579   0.742   5.026 -0.1425 -0.2420  0.7104
 1034SOL    HW114735   1.674   0.750   5.016  0.0419 -2.7178  0.5313
 1034SOL    HW214736   1.566   0.650   5.003  0.4274 -0.7325  2.3226
 1035SOL     OW14737   4.518   2.101   0.416  0.3533 -0.4281  0.3015
 1035SOL    HW114738   4.475   2.095   0.501  0.2542 -1.4901  0.1830
 1035SOL    HW214739   4.487   2.022   0.371 -2.6617  0.4238  0.9069
 1036SOL     OW14740   3.929   4.286   5.586 -0.3265 -0.5566 -0.0628
 1036SOL    HW114741   3.940   4.191   5.597  3.9956 -0.3554 -2.5620
 1036SOL    HW214742   3.957   4.307   5.497  2.2158 -1.3206  0.5440
 1037SOL     OW14743   1.022   0.157  12.614  0.0418 -0.4693 -0.4091
 1037SOL    HW114744   1.108   0.188  12.588  1.1887 -3.6902 -0.5478
 1037SOL    HW214745   1.049   0.143  12.704  0.6708  2.5330 -0.1417
 1038SOL     OW14746   1.861   1.721   3.814  0.2579  0.1339 -0.1987
 1038SOL    HW114747   1.834   1.752   3.728  0.3176  1.0596  0.1179
 1038SOL    HW214748   1.779   1.717   3.863  0.3081 -1.0093 -0.1917
 1039SOL     OW14749   3.891   3.766  12.697 -0.2998 -0.8338  0.0507
 1039SOL    HW114750   3.965   3.733  12.646 -0.8761  0.0211 -1.3331
 1039SOL    HW214751   3.817   3.753  12.639 -1.1025 -0.1440  0.9120
 1040SOL     OW14752   2.164   4.688   0.841 -0.1100  0.0365 -0.2789
 1040SOL    HW114753   2.176   4.632   0.918 -1.8618  0.1360  0.0625
 1040SOL    HW214754   2.104   4.641   0.783  1.9895 -0.6298 -1.9310
 1041SOL     OW14755   0.618   2.398   5.481  0.5912  0.3145  0.1167
 1041SOL    HW114756   0.695   2.341   5.483  0.7612  0.5458  0.3205
 1041SOL    HW214757   0.575   2.364   5.402 -1.1822 -0.1324  1.2696
 1042SOL     OW14758   0.134   3.572   7.735 -0.2374 -0.2611  0.1452
 1042SOL    HW114759   0.115   3.493   7.785  3.3680 -1.2622 -0.0798
 1042SOL    HW214760   0.051   3.608   7.703 -0.0850  2.2857  2.6557
 1043SOL     OW14761   3.431   0.350   2.267 -0.0855 -0.3407  0.2949
 1043SOL    HW114762   3.389   0.357   2.353 -1.1833  1.7568 -0.4140
 1043SOL    HW214763   3.383   0.425   2.233 -1.1924 -0.5968  1.2990
 1044SOL     OW14764   3.151   3.191   7.442 -0.5220 -0.4106 -0.0857
 1044SOL    HW114765   3.066   3.213   7.480 -0.4437 -1.5025  0.7089
 1044SOL    HW214766   3.156   3.098   7.464  0.8490 -0.2918  0.0693
 1045SOL     OW14767   0.645   0.052   7.451 -0.2080  0.0317  0.4197
 1045SOL    HW114768   0.630   0.019   7.540  1.5306  1.8708  1.4043
 1045SOL    HW214769   0.555   0.064   7.421 -0.0176  1.1921  0.3060
 1046SOL     OW14770   3.474   0.782  15.702 -0.1411 -0.3603 -0.6661
 1046SOL    HW114771   3.560   0.814  15.677 -0.0307  0.6942  1.0209
 1046SOL    HW214772   3.422   0.862  15.708  1.3751  0.4780  1.4476
 1047SOL     OW14773   0.807   2.936   4.183  0.0448  0.1817 -0.1657
 1047SOL    HW114774   0.862   3.012   4.199  0.7530 -1.0103  2.9410
 1047SOL    HW214775   0.862   2.860   4.201  0.5302  0.1302 -1.8287
 1048SOL     OW14776   4.552   3.121   7.243  0.2117 -0.2089 -0.1918
 1048SOL    HW114777   4.477   3.132   7.302  0.4104 -1.0944  0.2249
 1048SOL    HW214778   4.582   3.211   7.226 -1.4081  0.4571  0.4033
 1049SOL     OW14779   1.615   3.798  10.816 -0.2749  0.0958  0.2221
 1049SOL    HW114780   1.680   3.867  10.801 -0.4519  0.6188  1.9022
 1049SOL    HW214781   1.615   3.771  10.908 -2.5531  0.9995  0.4769
 1050SOL     OW14782   3.311   4.601  10.903  0.6088  0.2527 -0.4625
 1050SOL    HW114783   3.344   4.647  10.980 -2.1532 -0.5331  1.2237
 1050SOL    HW214784   3.297   4.513  10.938 -1.7388  1.2479  1.1464
 1051SOL     OW14785   2.212   4.006  10.402  0.4834 -0.3436  0.8228
 1051SOL    HW114786   2.163   3.932  10.439  0.8921 -0.2173  1.6238
 1051SOL    HW214787   2.193   4.003  10.309  0.6574 -2.0143  0.8262
 1052SOL     OW14788   4.630   4.414  13.423  0.4403 -0.4854  0.0199
 1052SOL    HW114789   4.630   4.424  13.519  0.0039  1.0027 -0.1254
 1052SOL    HW214790   4.536   4.418  13.402  0.1053 -0.9018  1.4492
 1053SOL     OW14791   0.267   1.761   1.357  0.2380  0.1682  0.4633
 1053SOL    HW114792   0.350   1.723   1.329  0.5701  0.7772  0.6197
 1053SOL    HW214793   0.254   1.825   1.288  2.4515 -1.4966 -1.4902
 1054SOL     OW14794   1.078   4.223  11.180 -0.2375  0.1506 -0.5072
 1054SOL    HW114795   1.114   4.284  11.116 -1.5190  1.1987 -0.2249
 1054SOL    HW214796   1.058   4.273  11.259 -0.4245 -0.3067 -0.2613
 1055SOL     OW14797   1.935   1.815   6.980  0.3571 -0.0602 -0.0326
 1055SOL    HW114798   1.976   1.899   6.958 -0.0473  0.1932  0.1923
 1055SOL    HW214799   1.936   1.825   7.075  1.8744 -0.7482  0.0311
 1056SOL     OW14800   1.127   1.953   3.390 -0.6426  0.5084 -0.2153
 1056SOL    HW114801   1.120   1.888   3.319 -2.0496 -1.1453  1.4480
 1056SOL    HW214802   1.208   1.944   3.440 -1.4156  1.2191  1.1571
 1057SOL     OW14803   2.247   2.148   6.006 -0.4966  0.1012  0.3556
 1057SOL    HW114804   2.203   2.229   6.032 -1.6407 -0.0564 -1.0892
 1057SOL    HW214805   2.250   2.149   5.910  1.3249 -0.3454  0.4180
 1058SOL     OW14806   1.817   4.459   0.518  0.4364 -0.5061 -0.9192
 1058SOL    HW114807   1.782   4.395   0.579 -1.9825 -0.6705 -2.4543
 1058SOL    HW214808   1.847   4.530   0.575 -0.1547 -1.5338  0.6661
 1059SOL     OW14809   4.392   2.857   4.286 -0.7754 -0.2201  0.1480
 1059SOL    HW114810   4.430   2.926   4.231  1.0112 -1.3510 -0.0599
 1059SOL    HW214811   4.408   2.900   4.370 -0.1119  0.0101 -0.0908
 1060SOL     OW14812   1.982   0.848   5.381  0.7365 -0.3240  0.1402
 1060SOL    HW114813   1.928   0.836   5.459  0.7524 -0.1544  0.1774
 1060SOL    HW214814   1.954   0.770   5.334 -0.5536  0.7895 -0.9599
 1061SOL     OW14815   4.330   2.854  13.728  0.3376 -0.4538  0.5930
 1061SOL    HW114816   4.390   2.918  13.689 -0.6448  1.3369  2.0167
 1061SOL    HW214817   4.373   2.778  13.689 -1.9883 -1.7976  0.6745
 1062SOL     OW14818   4.617   3.711  14.879 -0.1062  0.0326  0.1347
 1062SOL    HW114819   4.666   3.754  14.808  0.8548 -0.7391  0.3202
 1062SOL    HW214820   4.528   3.705  14.845  0.9734 -0.9762 -2.5530
 1063SOL     OW14821   1.067   1.924   4.144  0.1083  0.6462 -0.3152
 1063SOL    HW114822   1.128   1.918   4.217  1.4344  2.1403 -1.2875
 1063SOL    HW214823   0.987   1.964   4.176 -0.4683 -0.1000 -0.8237
 1064SOL     OW14824   3.708   2.897  16.019  0.0445 -0.0406  0.6978
 1064SOL    HW114825   3.716   2.876  15.926  1.1492  0.9800  0.5507
 1064SOL    HW214826   3.758   2.824  16.056  0.9562 -0.8229 -2.0908
 1065SOL     OW14827   0.377   1.146   7.839  0.6281 -0.3541  0.5627
 1065SOL    HW114828   0.414   1.176   7.922  0.9364 -2.0339  1.0259
 1065SOL    HW214829   0.410   1.056   7.840  0.1300 -0.5345  0.9189
 1066SOL     OW14830   3.869   2.864   3.447 -0.6525 -0.2278  0.2942
 1066SOL    HW114831   3.937   2.853   3.513 -2.6353 -0.4200  2.3111
 1066SOL    HW214832   3.801   2.917   3.489  0.0991 -0.7804  2.2081
 1067SOL     OW14833   4.244   1.752   1.074  0.0503 -0.2571 -0.2152
 1067SOL    HW114834   4.148   1.759   1.076  0.0571 -0.3699  0.4251
 1067SOL    HW214835   4.269   1.839   1.043 -3.3076  0.9986  0.5792
 1068SOL     OW14836   4.221   1.081   7.448 -0.0638 -0.0930 -0.4687
 1068SOL    HW114837   4.187   1.134   7.519 -2.1545  0.9246 -2.2470
 1068SOL    HW214838   4.293   1.029   7.485 -0.5428 -0.2532  0.2237
 1069SOL     OW14839   4.612   2.330  14.310 -0.6593 -0.0504 -0.4729
 1069SOL    HW114840   4.620   2.407  14.366  2.0106 -0.6752  0.0067
 1069SOL    HW214841   4.692   2.286  14.337  0.0345  1.3344 -0.2523
 1070SOL     OW14842   0.337   0.149  17.108 -0.1871 -0.1604  0.1329
 1070SOL    HW114843   0.345   0.082  17.040 -0.6355  1.0297 -1.0851
 1070SOL    HW214844   0.431   0.151  17.128 -0.4477  0.0274  1.3320
 1071SOL     OW14845   4.075   0.699   2.911  0.8063 -0.2894  0.2644
 1071SOL    HW114846   4.039   0.680   2.998 -0.8571  0.2448 -0.3074
 1071SOL    HW214847   4.156   0.648   2.905 -0.5312 -2.5104  1.1484
 1072SOL     OW14848   3.738   0.858   7.183  0.4514 -0.4181 -0.3896
 1072SOL    HW114849   3.722   0.795   7.113  0.1054  1.3868 -1.9294
 1072SOL    HW214850   3.833   0.866   7.192  0.3372  0.6334 -0.1249
 1073SOL     OW14851   1.882   0.584  14.884 -0.3547  0.0490  0.1765
 1073SOL    HW114852   1.889   0.679  14.876 -1.6864  0.2204  1.0122
 1073SOL    HW214853   1.795   0.575  14.923 -0.7511 -1.3104 -1.0150
 1074SOL     OW14854   4.621   4.650  16.809  0.4934 -0.0838 -0.1087
 1074SOL    HW114855   4.536   4.633  16.851 -0.0723 -0.3759 -1.3682
 1074SOL    HW214856   4.687   4.662  16.878  0.2408  2.3104 -0.3039
 1075SOL     OW14857   1.051   3.759  10.697 -0.2442 -0.4907  0.3906
 1075SOL    HW114858   1.090   3.836  10.655 -2.0821 -0.2459 -0.8844
 1075SOL    HW214859   1.088   3.760  10.785  0.9725 -0.4392 -0.1314
 1076SOL     OW14860   2.499   2.382   5.615  0.2071  0.3346  0.0162
 1076SOL    HW114861   2.499   2.400   5.709 -0.5169  0.8248 -0.0774
 1076SOL    HW214862   2.415   2.335   5.613 -0.8105  2.0761  1.1381
 1077SOL     OW14863   0.669   0.821   3.622  0.0428 -0.6076 -0.2011
 1077SOL    HW114864   0.594   0.808   3.681  0.4143  4.3920  1.3792
 1077SOL    HW214865   0.724   0.748   3.651 -3.3527 -2.8509  0.5703
 1078SOL     OW14866   0.458   3.374   8.936  0.0366 -0.5105  0.1231
 1078SOL    HW114867   0.547   3.353   8.964  0.3690 -0.3165 -0.7699
 1078SOL    HW214868   0.415   3.353   9.019  0.6943  1.1276  0.8684
 1079SOL     OW14869   1.159   3.665   3.236 -0.4575  0.2570  0.9438
 1079SOL    HW114870   1.183   3.754   3.208 -0.5714 -0.0481 -0.1216
 1079SOL    HW214871   1.244   3.625   3.256 -0.4204 -0.6733 -1.0115
 1080SOL     OW14872   0.234   0.482  11.659  0.5031  0.1427 -0.0813
 1080SOL    HW114873   0.155   0.535  11.658 -0.8161 -1.8242 -1.2526
 1080SOL    HW214874   0.290   0.526  11.723 -2.8807  1.5889  1.8934
 1081SOL     OW14875   0.863   2.545  11.710 -0.0991  0.0839 -0.1954
 1081SOL    HW114876   0.889   2.637  11.711  1.7804 -0.4339 -1.5470
 1081SOL    HW214877   0.806   2.547  11.634 -0.2934  1.7692 -0.0048
 1082SOL     OW14878   2.904   2.940  11.286 -0.1244  0.8870 -0.0824
 1082SOL    HW114879   2.945   2.926  11.371  0.7605 -1.3655 -0.8873
 1082SOL    HW214880   2.979   2.974  11.236  2.4817 -2.4188  1.5958
 1083SOL     OW14881   1.951   1.400   8.657 -0.3189 -0.7891 -0.1101
 1083SOL    HW114882   1.948   1.425   8.565 -1.0604 -0.7214 -0.0691
 1083SOL    HW214883   1.923   1.483   8.697  1.8260 -0.3840  0.5791
 1084SOL     OW14884   2.953   1.753  14.445  0.1938  0.0178 -0.1754
 1084SOL    HW114885   2.930   1.760  14.538 -1.0755  0.2341 -0.4987
 1084SOL    HW214886   3.015   1.680  14.448  0.4589  0.2348 -0.3987
 1085SOL     OW14887   2.806   4.318   2.447 -0.2096  0.1446 -0.4986
 1085SOL    HW114888   2.746   4.286   2.380 -0.7430 -0.5217  0.3029
 1085SOL    HW214889   2.792   4.256   2.519 -1.7520  1.7384  0.6033
 1086SOL     OW14890   0.491   0.238   4.281  0.1627 -0.7988 -0.4723
 1086SOL    HW114891   0.419   0.211   4.224 -0.9184 -0.2697  0.6431
 1086SOL    HW214892   0.502   0.330   4.257  2.7710 -0.5964  1.5778
 1087SOL     OW14893   3.782   1.047   2.431 -0.1230 -0.5584 -0.2871
 1087SOL    HW114894   3.839   0.977   2.462 -0.2081 -0.1042  0.9028
 1087SOL    HW214895   3.852   1.107   2.405  0.6151 -1.4299 -0.2967
 1088SOL     OW14896   0.502   3.989   3.012  0.3205  0.2290  0.6412
 1088SOL    HW114897   0.433   4.023   3.069 -1.0297 -0.2386 -0.7365
 1088SOL    HW214898   0.452   3.916   2.978 -0.5733  1.0786  0.1321
 1089SOL     OW14899   1.781   4.330   2.892 -0.7086  0.5410  0.2479
 1089SOL    HW114900   1.718   4.271   2.934  0.2794 -0.5122  0.2446
 1089SOL    HW214901   1.785   4.292   2.804  0.4526  1.4243 -0.0797
 1090SOL     OW14902   3.602   3.891   8.472 -0.1702 -0.8647  0.3594
 1090SOL    HW114903   3.655   3.832   8.418  0.0087  0.7722 -1.2947
 1090SOL    HW214904   3.627   3.857   8.558  1.2057  0.1756  0.3786
 1091SOL     OW14905   3.709   3.524   4.291 -0.6421  0.1003 -0.4114
 1091SOL    HW114906   3.626   3.509   4.336 -0.4896  2.3168  0.5993
 1091SOL    HW214907   3.681   3.590   4.227  0.7300  2.7701  1.7716
 1092SOL     OW14908   1.736   1.876   1.873  0.4202 -0.2057 -0.4644
 1092SOL    HW114909   1.823   1.842   1.895  0.1192 -1.3418 -1.0533
 1092SOL    HW214910   1.747   1.924   1.791  2.7716  0.6415  0.3469
 1093SOL     OW14911   2.908   2.248   1.218 -0.0937 -0.3358  0.0486
 1093SOL    HW114912   2.905   2.260   1.313  0.4814  0.9468 -0.0968
 1093SOL    HW214913   2.971   2.316   1.192  1.8229 -1.3466  2.0254
 1094SOL     OW14914   0.791   0.336   2.635  0.4097  0.2301 -0.1785
 1094SOL    HW114915   0.808   0.279   2.560 -0.8211 -1.0948  0.5615
 1094SOL    HW214916   0.739   0.275   2.686 -2.1667  2.2583 -0.3669
 1095SOL     OW14917   1.697   0.625  15.856  0.2578 -0.0735 -0.1185
 1095SOL    HW114918   1.638   0.560  15.818 -0.1216 -0.7720  1.6712
 1095SOL    HW214919   1.671   0.611  15.947 -1.7515  3.0330 -0.2386
 1096SOL     OW14920   4.089   0.507  11.089 -0.2858 -0.0223 -0.2818
 1096SOL    HW114921   4.091   0.464  11.175 -1.9873  1.8420  0.6759
 1096SOL    HW214922   4.176   0.547  11.093  0.8193 -2.1152 -3.1612
 1097SOL     OW14923   3.812   0.557  12.438  0.2478 -0.3365  0.0691
 1097SOL    HW114924   3.877   0.530  12.503 -0.4005  0.5968  1.1121
 1097SOL    HW214925   3.758   0.478  12.444  1.0613 -0.9009 -0.0785
 1098SOL     OW14926   1.633   1.947   9.333  0.2860  0.2104  0.0696
 1098SOL    HW114927   1.647   1.853   9.346 -1.8648  0.2519  2.6301
 1098SOL    HW214928   1.662   1.980   9.418  0.2003  0.8952 -0.1705
 1099SOL     OW14929   0.025   4.644  16.423 -0.3845 -0.0858  0.6508
 1099SOL    HW114930   0.095   4.686  16.472  2.1617 -0.2156 -2.8568
 1099SOL    HW214931   4.716   4.717  16.381  0.1980 -0.3458 -0.4519
 1100SOL     OW14932   0.141   3.568   8.974 -0.3614 -0.0250 -0.2985
 1100SOL    HW114933   0.114   3.476   8.976  1.0555 -0.4735 -1.7757
 1100SOL    HW214934   0.074   3.616   8.926 -1.5803  0.5567  1.9631
 1101SOL     OW14935   1.743   2.038  16.059  0.0929 -0.5099  0.8812
 1101SOL    HW114936   1.676   1.992  16.008  0.4895  0.7180 -0.7415
 1101SOL    HW214937   1.825   2.037  16.011  0.0817  1.8688  0.7984
 1102SOL     OW14938   3.037   0.085   5.818  0.4804  0.9429 -0.3946
 1102SOL    HW114939   3.108   0.135   5.778  0.2086  0.6605 -1.2314
 1102SOL    HW214940   3.095   0.016   5.851  2.1891  1.5677 -2.1535
 1103SOL     OW14941   0.788   1.739   3.597  0.4540 -0.5650  0.1734
 1103SOL    HW114942   0.710   1.724   3.651 -0.2682  2.1528 -0.1327
 1103SOL    HW214943   0.753   1.708   3.513  2.1415  0.7590 -1.0224
 1104SOL     OW14944   0.505   0.271  15.826  0.4298 -0.6170  0.1373
 1104SOL    HW114945   0.498   0.349  15.881  0.9659  0.0844 -0.8041
 1104SOL    HW214946   0.552   0.304  15.750 -0.1473  0.8847  0.4374
 1105SOL     OW14947   2.927   4.009   2.096 -0.4219  0.0918 -0.1871
 1105SOL    HW114948   2.894   4.050   2.016 -0.9643 -1.5416 -0.7995
 1105SOL    HW214949   2.848   3.973   2.136  0.5142 -3.0716 -1.2194
 1106SOL     OW14950   4.649   0.357  15.106  0.2355 -0.1122 -0.2355
 1106SOL    HW114951   4.710   0.401  15.046 -3.0904  1.6886 -2.2773
 1106SOL    HW214952   4.701   0.336  15.184  1.1020  0.7370 -0.5728
 1107SOL     OW14953   4.432   1.912   1.619  1.0075 -0.0092 -0.0071
 1107SOL    HW114954   4.446   1.883   1.709 -0.2955  2.2865  0.9557
 1107SOL    HW214955   4.390   1.998   1.630  0.7631 -0.2568  0.9795
 1108SOL     OW14956   0.896   1.441  12.622 -0.0212 -0.3389 -0.3967
 1108SOL    HW114957   0.921   1.518  12.572  2.5818 -2.3536 -2.1944
 1108SOL    HW214958   0.964   1.378  12.597 -0.0897 -0.7350  0.4153
 1109SOL     OW14959   3.496   1.410   8.606 -0.1160  0.1519 -0.1400
 1109SOL    HW114960   3.432   1.356   8.560 -0.5601 -0.2750  0.9776
 1109SOL    HW214961   3.446   1.455   8.674  0.3110  0.1095  0.2053
 1110SOL     OW14962   3.478   1.791  17.027  0.2622  0.2218 -0.0540
 1110SOL    HW114963   3.388   1.770  17.001  0.8076  0.0442 -1.7944
 1110SOL    HW214964   3.493   1.871  16.976 -1.9497  1.0995  0.6768
 1111SOL     OW14965   3.981   1.851   0.588  0.0867 -0.4433  0.1238
 1111SOL    HW114966   4.056   1.909   0.595 -2.6106  3.4124 -3.1198
 1111SOL    HW214967   3.915   1.902   0.636 -1.2156 -0.3767 -1.7480
 1112SOL     OW14968   4.167   1.633   6.704  0.5549 -0.6189 -0.1318
 1112SOL    HW114969   4.214   1.710   6.673  0.2016 -0.2609  0.2308
 1112SOL    HW214970   4.134   1.599   6.620 -0.9207  0.5866 -0.0349
 1113SOL     OW14971   4.731   3.415   6.728  0.2358  0.6720  0.4353
 1113SOL    HW114972   4.646   3.456   6.744  0.4950  0.4219  2.4166
 1113SOL    HW214973   4.720   3.320   6.726  0.1801  0.6723  0.7063
 1114SOL     OW14974   3.773   1.368   5.828  0.0354 -0.2426  0.5003
 1114SOL    HW114975   3.754   1.416   5.909 -0.7397 -0.3048  0.3595
 1114SOL    HW214976   3.718   1.290   5.837 -2.4781  1.2942 -1.5456
 1115SOL     OW14977   2.243   1.868   4.569 -0.6742  0.4066  0.0571
 1115SOL    HW114978   2.164   1.908   4.534 -0.0660  0.6231 -1.0979
 1115SOL    HW214979   2.232   1.783   4.527  0.3557 -0.3956  1.3927
 1116SOL     OW14980   2.904   2.209   8.080 -0.1956  0.7734  0.0792
 1116SOL    HW114981   2.873   2.144   8.017 -1.2793 -1.8984  3.3455
 1116SOL    HW214982   2.938   2.266   8.011  0.5360 -0.7435 -0.8155
 1117SOL     OW14983   2.203   2.728   8.521 -0.1410  0.2021  0.0808
 1117SOL    HW114984   2.131   2.700   8.464  0.1647 -1.5100  0.5523
 1117SOL    HW214985   2.281   2.721   8.466  0.0458  1.8894  0.1095
 1118SOL     OW14986   1.476   2.226   9.053  0.5643  0.1505 -0.2306
 1118SOL    HW114987   1.506   2.164   8.986 -0.2665  1.4870 -1.8669
 1118SOL    HW214988   1.491   2.312   9.013 -0.7685 -0.1876 -1.4538
 1119SOL     OW14989   0.757   3.651   1.255  0.1086 -0.1704  0.2482
 1119SOL    HW114990   0.819   3.688   1.193 -1.5675 -0.1234 -1.3900
 1119SOL    HW214991   0.677   3.645   1.203  0.1241 -0.3682  0.2468
 1120SOL     OW14992   3.408   1.217   0.288  0.2758 -0.0494 -0.0278
 1120SOL    HW114993   3.460   1.199   0.209 -0.9070  0.3043 -0.8919
 1120SOL    HW214994   3.453   1.296   0.319 -0.1809  0.1288  0.1724
 1121SOL     OW14995   0.843   2.807   9.283 -0.1913 -0.1360  0.1300
 1121SOL    HW114996   0.865   2.778   9.194  0.2191  0.6483 -0.0227
 1121SOL    HW214997   0.765   2.754   9.297 -0.1680 -0.1289  0.2889
 1122SOL     OW14998   0.519   0.502  15.951 -1.1340  0.1326  0.2687
 1122SOL    HW114999   0.507   0.482  16.044 -3.1432 -3.3258 -0.7331
 1122SOL    HW215000   0.478   0.589  15.954 -1.8434 -0.1797 -0.3224
 1123SOL     OW15001   2.940   1.792   9.034  0.0269  0.5429  0.5616
 1123SOL    HW115002   3.006   1.813   8.968 -0.5103 -1.1247 -0.5261
 1123SOL    HW215003   2.971   1.708   9.069 -2.2130  0.4301  2.2557
 1124SOL     OW15004   3.089   4.578  15.734  0.5271  0.0565  0.1706
 1124SOL    HW115005   3.043   4.657  15.763  1.1004  0.9095 -1.2216
 1124SOL    HW215006   3.170   4.582  15.785 -0.4045 -0.3532  1.6899
 1125SOL     OW15007   0.986   1.888   4.841  0.0225 -0.2605 -0.1712
 1125SOL    HW115008   0.921   1.822   4.866 -2.0525  1.1317 -1.8874
 1125SOL    HW215009   1.046   1.880   4.915  0.4717  2.8012 -0.2139
 1126SOL     OW15010   1.277   3.282   3.413  0.1344 -0.7664 -0.2838
 1126SOL    HW115011   1.361   3.243   3.389  0.7726  1.2284 -1.2611
 1126SOL    HW215012   1.310   3.372   3.406 -2.0707 -0.0758 -1.7508
 1127SOL     OW15013   3.760   0.529   6.612 -0.4919  0.5020 -0.1027
 1127SOL    HW115014   3.795   0.543   6.700 -0.7887  0.7566 -0.0249
 1127SOL    HW215015   3.832   0.558   6.556 -0.6916 -1.9955 -1.6764
 1128SOL     OW15016   0.597   3.915   2.542 -0.0779 -0.0807  0.1930
 1128SOL    HW115017   0.597   3.974   2.618  0.8024 -0.4652  0.4905
 1128SOL    HW215018   0.508   3.882   2.554  1.6968 -4.2316  1.9180
 1129SOL     OW15019   3.356   2.027   6.102  0.1114 -0.4185 -0.1463
 1129SOL    HW115020   3.279   1.990   6.060  1.8338 -0.0931 -3.5958
 1129SOL    HW215021   3.389   1.942   6.131  0.5663  0.3946  1.7718
 1130SOL     OW15022   4.446   0.212   3.531  0.4383 -0.0743 -0.0527
 1130SOL    HW115023   4.401   0.274   3.473  0.1027 -0.4871 -0.2298
 1130SOL    HW215024   4.419   0.246   3.616 -0.2804 -0.6330 -0.0644
 1131SOL     OW15025   2.442   0.646  12.993 -0.5284 -0.3869 -0.0076
 1131SOL    HW115026   2.395   0.595  12.927  0.0010 -1.5032  0.4758
 1131SOL    HW215027   2.525   0.655  12.947 -0.3779 -0.0967  0.3268
 1132SOL     OW15028   2.863   0.076   5.487 -0.1754  0.8251 -0.2727
 1132SOL    HW115029   2.837   0.077   5.395 -1.4532  0.3123  0.0832
 1132SOL    HW215030   2.881   4.719   5.490  0.5258  0.9480 -0.6981
 1133SOL     OW15031   0.668   0.071  16.982 -0.9483 -0.3920 -0.2472
 1133SOL    HW115032   0.661   0.164  17.003 -0.2803 -0.3656 -0.1440
 1133SOL    HW215033   0.639   0.026  17.061  0.7926  0.7192  1.0271
 1134SOL     OW15034   4.031   3.207  11.133  0.0059 -0.2677 -0.6270
 1134SOL    HW115035   4.094   3.208  11.060  0.1914  1.4123 -0.4454
 1134SOL    HW215036   4.095   3.217  11.204 -2.4397  0.9145  1.3684
 1135SOL     OW15037   0.013   0.683  13.923 -0.0481 -0.1545  0.4381
 1135SOL    HW115038   4.708   0.747  13.980 -0.5773  0.5101 -0.7026
 1135SOL    HW215039   4.728   0.599  13.963  0.3256 -0.8714 -0.8391
 1136SOL     OW15040   1.558   0.060   7.705  0.0163  0.2040  0.0211
 1136SOL    HW115041   1.509   0.134   7.742 -1.5475 -0.9651  0.3032
 1136SOL    HW215042   1.619   0.051   7.778 -0.1038  2.8144  0.4394
 1137SOL     OW15043   0.828   2.415   3.519 -0.7497  0.1540 -0.4002
 1137SOL    HW115044   0.916   2.385   3.539 -0.8523  0.5307  0.6138
 1137SOL    HW215045   0.798   2.449   3.603  1.5202 -0.7226  0.7438
 1138SOL     OW15046   4.707   2.249  10.300  0.2879  0.0864 -0.3574
 1138SOL    HW115047   4.685   2.170  10.350  2.2502 -0.9947 -1.2175
 1138SOL    HW215048   0.014   2.206  10.227  2.6132  1.0468  0.5173
 1139SOL     OW15049   2.202   4.178   8.854  0.1103 -0.4840 -0.2262
 1139SOL    HW115050   2.132   4.228   8.811  0.7574  0.2019 -0.4767
 1139SOL    HW215051   2.268   4.206   8.791  0.4063  1.4979  0.9494
 1140SOL     OW15052   3.141   0.217   2.287  1.2190  0.1689 -0.7008
 1140SOL    HW115053   3.225   0.239   2.247  1.1699 -0.2263 -1.0127
 1140SOL    HW215054   3.092   0.209   2.205 -0.7157  0.9960  0.3528
 1141SOL     OW15055   2.157   3.851   0.917 -0.0794  0.5432 -0.4376
 1141SOL    HW115056   2.251   3.842   0.934  0.2433  1.9031 -1.4138
 1141SOL    HW215057   2.144   3.767   0.874 -0.5678  1.5176 -2.1698
 1142SOL     OW15058   1.668   0.895   2.416  0.0127  0.5308 -0.2227
 1142SOL    HW115059   1.666   0.879   2.322  0.7705 -0.1030 -0.1351
 1142SOL    HW215060   1.575   0.884   2.436  0.2377  2.6899  2.0145
 1143SOL     OW15061   2.064   1.940  10.039  0.3216 -0.4969  0.3895
 1143SOL    HW115062   2.106   2.025  10.056 -0.1758 -0.0309 -0.7586
 1143SOL    HW215063   1.991   1.973   9.987 -0.0151 -0.8303  0.6490
 1144SOL     OW15064   3.952   2.356  15.824  0.1462  0.2411 -0.1919
 1144SOL    HW115065   4.032   2.402  15.797 -0.0019  0.1503 -0.7874
 1144SOL    HW215066   3.894   2.388  15.755  0.9568 -1.9647 -1.8763
 1145SOL     OW15067   0.277   2.631  15.487  0.3110 -0.5936  0.1222
 1145SOL    HW115068   0.257   2.659  15.576 -0.4693  0.6089 -0.4309
 1145SOL    HW215069   0.312   2.708  15.442  0.9615 -0.6374  0.5517
 1146SOL     OW15070   2.227   1.613   7.255 -0.7001 -0.3276 -0.1144
 1146SOL    HW115071   2.247   1.692   7.206 -2.3020 -0.4054 -0.9167
 1146SOL    HW215072   2.242   1.630   7.348 -1.1124  0.1337 -0.1305
 1147SOL     OW15073   4.431   1.912  10.604  0.0394  0.6353  0.6868
 1147SOL    HW115074   4.460   1.822  10.597 -2.9130 -0.4466  2.4565
 1147SOL    HW215075   4.338   1.889  10.596  0.3140 -0.5088  0.8485
 1148SOL     OW15076   2.360   3.863   6.287  0.9673 -0.6022  0.9541
 1148SOL    HW115077   2.378   3.833   6.376 -1.5995  3.1052  2.6920
 1148SOL    HW215078   2.266   3.874   6.300  0.6962 -1.7314 -0.0480
 1149SOL     OW15079   2.823   4.492   3.403  0.2822 -0.6647  0.5235
 1149SOL    HW115080   2.900   4.469   3.454  1.1919  2.1622  0.4144
 1149SOL    HW215081   2.844   4.444   3.323  1.0336  1.4515 -0.5671
 1150SOL     OW15082   1.738   1.849  12.511  0.8383  0.5967 -0.8618
 1150SOL    HW115083   1.731   1.928  12.456  1.3541  0.7117 -0.7550
 1150SOL    HW215084   1.833   1.843  12.518  0.5360 -2.0354  0.8125
 1151SOL     OW15085   4.714   3.869   7.613  0.4036 -0.4842 -0.7989
 1151SOL    HW115086   0.053   3.857   7.669 -0.0378 -3.6306 -0.8119
 1151SOL    HW215087   0.009   3.811   7.543  0.7703  0.6234 -1.5383
 1152SOL     OW15088   2.972   0.505   4.236  0.6088 -0.2582 -0.2704
 1152SOL    HW115089   2.889   0.544   4.265 -0.6168 -2.7483 -0.3578
 1152SOL    HW215090   3.025   0.584   4.244  0.7895 -0.6149  2.0918
 1153SOL     OW15091   0.710   3.195  11.623 -0.2132 -0.0891 -0.6791
 1153SOL    HW115092   0.798   3.204  11.589  1.1294 -4.9229  1.4543
 1153SOL    HW215093   0.661   3.216  11.544  2.8931 -0.0832 -2.5822
 1154SOL     OW15094   3.799   2.802  12.791 -0.2818  0.0770  0.3702
 1154SOL    HW115095   3.761   2.859  12.858 -0.5265  0.2226  0.1082
 1154SOL    HW215096   3.725   2.798  12.730 -1.7084  1.4908  2.0107
 1155SOL     OW15097   4.119   2.898   4.355 -0.4164  0.8430  0.2873
 1155SOL    HW115098   4.211   2.870   4.351 -0.9494 -1.0865  1.2382
 1155SOL    HW215099   4.095   2.896   4.447 -0.9403  0.5811  0.1469
 1156SOL     OW15100   2.405   2.509   2.490  0.1942  0.6020  0.0708
 1156SOL    HW115101   2.461   2.576   2.530  1.0526 -0.6452  0.9729
 1156SOL    HW215102   2.330   2.488   2.545  1.0217 -0.4501  0.7905
 1157SOL     OW15103   2.590   4.670   3.809  0.0562 -0.1734 -0.3439
 1157SOL    HW115104   2.671   4.649   3.762 -0.1038 -2.7777  0.5459
 1157SOL    HW215105   2.605   4.627   3.893  0.6126 -0.4022 -0.5580
 1158SOL     OW15106   4.717   0.511   6.709  0.0881  0.0875 -0.1505
 1158SOL    HW115107   4.681   0.599   6.694 -2.5411 -1.5446 -3.4344
 1158SOL    HW215108   4.685   0.482   6.795 -0.3105 -2.2744 -1.0992
 1159SOL     OW15109   1.653   3.950   0.474 -0.0447 -0.0934  0.3760
 1159SOL    HW115110   1.661   4.045   0.483  1.8780 -0.2810  0.6831
 1159SOL    HW215111   1.559   3.937   0.458  0.0261 -1.0042  0.6794
 1160SOL     OW15112   1.156   2.555   9.078 -0.5603  0.1997  0.5945
 1160SOL    HW115113   1.120   2.483   9.130 -0.5135 -0.3854 -0.1986
 1160SOL    HW215114   1.206   2.602   9.145 -1.9685  0.7006  1.2982
 1161SOL     OW15115   4.632   2.814   2.602 -0.0031 -0.0314  0.0756
 1161SOL    HW115116   4.610   2.760   2.678  0.3764 -1.1731 -0.6122
 1161SOL    HW215117   4.724   2.790   2.597  0.3263  0.9710  1.5144
 1162SOL     OW15118   0.756   4.497   1.941 -0.0225  0.1067 -0.3110
 1162SOL    HW115119   0.804   4.523   2.019  1.3710 -1.3274 -0.6928
 1162SOL    HW215120   0.708   4.577   1.920 -1.6519 -1.0655 -1.0511
 1163SOL     OW15121   0.434   2.746   2.349 -0.3368 -0.5688 -0.2705
 1163SOL    HW115122   0.381   2.690   2.404 -1.2609  0.7499  0.1841
 1163SOL    HW215123   0.470   2.676   2.294  1.3306 -0.1940  0.3237
 1164SOL     OW15124   4.015   0.270   8.016  0.3044 -0.2095 -0.4280
 1164SOL    HW115125   4.013   0.218   8.097 -1.8550  1.7022  0.7219
 1164SOL    HW215126   3.997   0.198   7.954 -0.8052 -0.2043 -0.1037
 1165SOL     OW15127   2.154   3.870   1.475  0.2873 -0.1719 -0.1028
 1165SOL    HW115128   2.215   3.799   1.498  1.9324  1.2627 -0.0226
 1165SOL    HW215129   2.201   3.948   1.504 -1.4143  1.3282 -1.4076
 1166SOL     OW15130   1.514   4.523   7.020 -0.0032 -0.0017  0.5040
 1166SOL    HW115131   1.432   4.509   7.068 -0.5634 -1.0551 -0.7459
 1166SOL    HW215132   1.572   4.533   7.095 -0.0378 -3.6290  1.0129
 1167SOL     OW15133   0.823   1.615   6.872 -0.0035  0.1967  0.5998
 1167SOL    HW115134   0.884   1.651   6.809 -1.3399 -0.3825 -1.0272
 1167SOL    HW215135   0.887   1.604   6.942  1.1689  0.7364 -0.3892
 1168SOL     OW15136   0.196   0.400   3.428 -0.3947  0.4547  0.4971
 1168SOL    HW115137   0.183   0.420   3.521  1.6965  0.4463  0.7858
 1168SOL    HW215138   0.115   0.352   3.409  1.3724 -2.0313 -0.7617
 1169SOL     OW15139   3.073   0.432  12.000  0.1213  0.4399 -0.4434
 1169SOL    HW115140   2.978   0.434  11.993 -0.0413  1.0863  2.0237
 1169SOL    HW215141   3.090   0.508  12.055 -1.4053 -0.2350  0.9613
 1170SOL     OW15142   0.362   0.686  16.687  0.0028 -0.0207  0.1522
 1170SOL    HW115143   0.268   0.702  16.679  0.3150 -0.3128 -4.0975
 1170SOL    HW215144   0.379   0.730  16.604 -0.7685  0.5854  0.3129
 1171SOL     OW15145   0.980   0.551   2.637 -0.0482  0.5279  0.0941
 1171SOL    HW115146   0.918   0.485   2.667  0.2502  0.3503  0.3204
 1171SOL    HW215147   0.983   0.601   2.718  0.1507  2.4635 -1.1170
 1172SOL     OW15148   2.815   2.531   3.820 -0.0568 -0.1141  0.4481
 1172SOL    HW115149   2.781   2.570   3.900 -2.1183 -0.4827 -0.2386
 1172SOL    HW215150   2.749   2.466   3.794  0.3521 -0.2261 -0.3135
 1173SOL     OW15151   0.778   2.609  15.209  0.7350 -0.4501 -0.1121
 1173SOL    HW115152   0.862   2.582  15.171  1.8467 -0.9899  2.7348
 1173SOL    HW215153   0.705   2.579  15.153  2.2174 -0.8141 -1.8612
 1174SOL     OW15154   2.493   4.142  13.361 -0.5184  0.3650  0.3236
 1174SOL    HW115155   2.476   4.178  13.448 -0.0847 -0.0480  0.5776
 1174SOL    HW215156   2.441   4.065  13.378 -2.5959  1.4440 -1.0925
 1175SOL     OW15157   0.664   1.658   3.373  0.1576  0.0642  0.0341
 1175SOL    HW115158   0.650   1.564   3.357  0.4704  0.5303 -2.9089
 1175SOL    HW215159   0.600   1.692   3.311  2.5215  1.1243 -1.8233
 1176SOL     OW15160   3.990   2.741   3.232  0.2535 -0.1988 -0.1163
 1176SOL    HW115161   3.936   2.757   3.155  0.0211 -0.7142 -0.0604
 1176SOL    HW215162   3.957   2.818   3.277 -1.4437 -0.5518 -0.7706
 1177SOL     OW15163   1.838   1.000   8.500  0.6476  0.9556  0.1559
 1177SOL    HW115164   1.880   0.921   8.533 -1.8144 -0.5038 -0.2290
 1177SOL    HW215165   1.901   1.064   8.535  0.7324  0.7244  0.4296
 1178SOL     OW15166   1.056   3.850   8.950  0.4614  0.4583  0.3267
 1178SOL    HW115167   0.962   3.848   8.930  0.2420  0.5834  1.3253
 1178SOL    HW215168   1.063   3.796   9.029  1.4205 -1.3326 -0.9849
 1179SOL     OW15169   1.293   3.924   2.203  0.4157 -0.2923 -0.3477
 1179SOL    HW115170   1.305   4.000   2.146 -2.0261 -0.8596 -1.6094
 1179SOL    HW215171   1.342   3.945   2.282  0.7016 -0.2774 -0.5264
 1180SOL     OW15172   3.824   3.808   2.182 -0.5664 -0.0569  0.2927
 1180SOL    HW115173   3.905   3.808   2.233 -0.7699 -1.2274  0.6292
 1180SOL    HW215174   3.756   3.849   2.235  1.4946 -0.7095  3.4864
 1181SOL     OW15175   1.974   4.394  13.845 -0.4145 -0.1315 -0.2416
 1181SOL    HW115176   1.970   4.489  13.853 -2.4556 -0.2160 -0.3190
 1181SOL    HW215177   1.897   4.376  13.899  0.8739 -0.0611  1.6427
 1182SOL     OW15178   0.602   1.379   8.909  0.7103 -0.2164  0.1775
 1182SOL    HW115179   0.603   1.284   8.911  1.3454 -0.2745 -2.9323
 1182SOL    HW215180   0.509   1.401   8.896  0.8018  0.1856  0.2025
 1183SOL     OW15181   2.355   2.770   1.077  0.2745 -0.6956 -0.0367
 1183SOL    HW115182   2.399   2.747   1.158  2.1127  0.3824 -0.7280
 1183SOL    HW215183   2.265   2.791   1.102  0.3730 -1.7070  1.1576
 1184SOL     OW15184   0.691   3.274   9.002 -0.2141  0.2492 -0.1664
 1184SOL    HW115185   0.736   3.220   9.067  1.8153 -0.7010 -2.3979
 1184SOL    HW215186   0.702   3.213   8.929  1.9070  0.2458  0.1781
 1185SOL     OW15187   3.694   3.340   1.963 -0.6985 -0.5022  0.1276
 1185SOL    HW115188   3.687   3.422   2.012 -2.0549 -1.2772  1.2384
 1185SOL    HW215189   3.760   3.291   2.012 -0.5325 -0.4426 -0.0402
 1186SOL     OW15190   0.919   1.458   8.706  0.1665  0.6818  0.5235
 1186SOL    HW115191   0.857   1.388   8.684  0.5213  0.4164  0.3759
 1186SOL    HW215192   0.997   1.405   8.724 -0.2763 -0.4107 -0.7910
 1187SOL     OW15193   2.321   1.434   9.626 -0.2709 -0.2250 -0.0506
 1187SOL    HW115194   2.361   1.354   9.659  0.1837 -0.9563 -2.3166
 1187SOL    HW215195   2.403   1.468   9.590 -1.2053  0.9172 -1.1070
 1188SOL     OW15196   4.638   4.491   9.323 -0.3874 -0.3236  0.1389
 1188SOL    HW115197   4.705   4.454   9.267 -0.3587  1.7889 -1.1956
 1188SOL    HW215198   4.566   4.488   9.260  1.0255 -1.7882 -1.3927
 1189SOL     OW15199   3.558   3.213  10.307  0.0001  0.0382 -0.1933
 1189SOL    HW115200   3.514   3.248  10.384  1.8485  2.5405 -0.2740
 1189SOL    HW215201   3.483   3.199  10.248 -1.4430  0.3286  1.5805
 1190SOL     OW15202   1.745   0.846   2.157  0.1030 -0.0129 -0.0988
 1190SOL    HW115203   1.795   0.894   2.091 -1.1580  1.0937 -0.2270
 1190SOL    HW215204   1.665   0.832   2.107 -0.5362  0.0707  0.9104
 1191SOL     OW15205   0.020   1.527   2.338  0.4009 -0.7341 -0.3229
 1191SOL    HW115206   0.109   1.529   2.374  1.3139  1.2185 -2.7189
 1191SOL    HW215207   4.711   1.509   2.419 -0.9987  1.2374 -0.7110
 1192SOL     OW15208   4.063   1.136  12.740  0.1226  0.7527  0.6717
 1192SOL    HW115209   4.105   1.166  12.821  1.6633  0.6548 -0.0995
 1192SOL    HW215210   4.106   1.180  12.667 -0.6559 -1.1237 -0.9051
 1193SOL     OW15211   3.221   0.655  12.414  0.1996  0.2562 -0.6014
 1193SOL    HW115212   3.270   0.653  12.496 -1.4176  1.2188  0.3950
 1193SOL    HW215213   3.187   0.742  12.433 -0.6454 -0.2228  0.1013
 1194SOL     OW15214   0.209   2.383  11.461 -0.2840  0.6543  0.0525
 1194SOL    HW115215   0.229   2.402  11.369 -0.4732  0.6328  0.0089
 1194SOL    HW215216   0.285   2.345  11.505 -1.0916  0.3805  1.2004
 1195SOL     OW15217   1.959   0.282   8.609  0.3272  0.0504  0.4136
 1195SOL    HW115218   2.013   0.334   8.668 -0.1867 -0.7324  1.5712
 1195SOL    HW215219   1.895   0.252   8.674 -0.8541 -0.3233 -0.9225
 1196SOL     OW15220   4.588   1.245   5.559  0.2367 -0.3129  0.1284
 1196SOL    HW115221   4.682   1.256   5.542 -0.0123  2.2124  0.4387
 1196SOL    HW215222   4.544   1.270   5.478 -0.9082  0.3151  0.9489
 1197SOL     OW15223   2.903   2.437  12.498  0.5280  0.3098  0.4874
 1197SOL    HW115224   2.848   2.361  12.520 -0.5912  0.6929 -0.9132
 1197SOL    HW215225   2.957   2.405  12.425  1.7462  0.7433  1.2180
 1198SOL     OW15226   4.375   1.981  14.811  0.0886  0.1629  0.2715
 1198SOL    HW115227   4.304   1.917  14.811  0.7848 -0.5786  2.9872
 1198SOL    HW215228   4.356   2.027  14.893 -0.0373 -0.9129  0.8366
 1199SOL     OW15229   3.114   2.206   7.145  0.3194 -0.0016  0.4829
 1199SOL    HW115230   3.023   2.210   7.118  1.7003  3.0072 -3.7750
 1199SOL    HW215231   3.143   2.294   7.120  0.1622  0.3667  1.5732
 1200SOL     OW15232   1.393   0.304   7.636 -0.1882  0.4733  0.0910
 1200SOL    HW115233   1.456   0.358   7.588 -0.5835  1.2676  0.4642
 1200SOL    HW215234   1.310   0.309   7.590  0.7717  1.0790 -1.5701
 1201SOL     OW15235   2.711   4.512  16.392 -0.1371  0.2344 -0.5188
 1201SOL    HW115236   2.791   4.472  16.426  0.2888  1.3872 -0.1653
 1201SOL    HW215237   2.644   4.489  16.457 -1.3021  0.0205 -1.7899
 1202SOL     OW15238   2.153   0.239   6.956 -0.1059 -0.1469 -0.3052
 1202SOL    HW115239   2.248   0.232   6.943  0.0941  0.8476  0.6148
 1202SOL    HW215240   2.147   0.211   7.047  0.4721 -1.8068 -0.7708
 1203SOL     OW15241   1.616   0.039   2.423  0.6146  0.4831  0.7635
 1203SOL    HW115242   1.542   0.100   2.429 -1.5146 -1.8082 -2.3648
 1203SOL    HW215243   1.591   4.703   2.477 -1.6660  0.8902  0.2610
 1204SOL     OW15244   4.355   4.603  17.515  0.2897 -0.5611  0.2675
 1204SOL    HW115245   4.278   4.657  17.494 -1.6719 -3.3387  0.2796
 1204SOL    HW215246   4.371   4.563  17.429 -1.7757 -1.5660  0.3631
 1205SOL     OW15247   1.407   2.684  11.496 -0.5806 -0.3453 -0.2324
 1205SOL    HW115248   1.491   2.671  11.452 -0.9182 -1.6748 -0.4825
 1205SOL    HW215249   1.443   2.720  11.576 -2.0014  0.9228 -0.1673
 1206SOL     OW15250   1.894   4.438   6.789 -0.4336 -0.0355 -0.1400
 1206SOL    HW115251   1.953   4.408   6.719 -1.6060 -0.2119 -1.0578
 1206SOL    HW215252   1.956   4.493   6.837  0.3008  2.1437 -3.5386
 1207SOL     OW15253   1.310   0.299   9.344 -0.0293  0.4535 -0.4965
 1207SOL    HW115254   1.400   0.290   9.375 -0.3698  1.0320  0.6788
 1207SOL    HW215255   1.321   0.367   9.278  1.8083  0.1926 -0.4487
 1208SOL     OW15256   3.644   0.147   4.945  0.0984 -0.0625  0.4335
 1208SOL    HW115257   3.735   0.148   4.918  0.1100 -2.1884  0.4366
 1208SOL    HW215258   3.654   0.109   5.032 -0.5396  1.2572  1.0922
 1209SOL     OW15259   3.505   1.266   6.865 -0.5553  0.1821 -0.3656
 1209SOL    HW115260   3.551   1.183   6.856 -2.4119 -1.0588  1.5351
 1209SOL    HW215261   3.414   1.251   6.839 -1.5555  0.4143  3.0755
 1210SOL     OW15262   3.209   3.856   5.669  0.6929  0.8003 -0.7898
 1210SOL    HW115263   3.263   3.918   5.621  0.1971 -0.3275 -2.8004
 1210SOL    HW215264   3.167   3.906   5.738 -0.8035 -0.2618 -0.9192
 1211SOL     OW15265   1.405   1.859   6.607  0.5431 -0.8738  0.4264
 1211SOL    HW115266   1.372   1.810   6.682  0.1289  1.6450  1.8905
 1211SOL    HW215267   1.350   1.937   6.620  0.8316 -0.1421 -2.8456
 1212SOL     OW15268   1.611   0.782   4.320 -0.0599 -0.0520 -0.0100
 1212SOL    HW115269   1.598   0.821   4.407 -1.5795 -0.5248 -0.0282
 1212SOL    HW215270   1.617   0.689   4.343  2.7654  0.0200 -0.4739
 1213SOL     OW15271   2.635   0.275   2.823  0.1658 -0.3347 -0.2051
 1213SOL    HW115272   2.701   0.339   2.851  1.6390 -0.2566 -3.9526
 1213SOL    HW215273   2.654   0.194   2.872  1.7924  0.4610  0.4861
 1214SOL     OW15274   4.183   1.537  15.169 -0.2024  0.1868 -0.4439
 1214SOL    HW115275   4.089   1.522  15.155 -0.2951 -0.1275  0.4988
 1214SOL    HW215276   4.210   1.467  15.228 -2.0797 -0.3547 -0.2289
 1215SOL     OW15277   3.362   2.304   0.019 -0.4774 -0.4449 -0.1322
 1215SOL    HW115278   3.411   2.335   0.096 -1.4679 -0.2050  0.3994
 1215SOL    HW215279   3.329   2.384  17.727 -0.2266  0.6997  1.9115
 1216SOL     OW15280   0.860   1.671   1.494  0.4340  0.0383 -0.1926
 1216SOL    HW115281   0.851   1.656   1.399 -1.4409  1.3803 -0.2292
 1216SOL    HW215282   0.840   1.585   1.530  1.0195 -0.2112 -0.4472
 1217SOL     OW15283   4.508   4.371  12.773 -0.1630  0.1101  0.1123
 1217SOL    HW115284   4.561   4.292  12.783 -0.0128 -0.1106 -2.4482
 1217SOL    HW215285   4.499   4.389  12.680  0.6445 -1.4280 -0.2588
 1218SOL     OW15286   2.943   2.116  16.933  0.4892  0.0279  0.0566
 1218SOL    HW115287   2.968   2.083  16.846  2.8944 -1.6991  1.4219
 1218SOL    HW215288   2.874   2.180  16.914 -0.3831 -0.7516  0.5930
 1219SOL     OW15289   1.723   3.095   4.575 -0.1758  0.5425 -0.1721
 1219SOL    HW115290   1.752   3.186   4.566  0.3725  0.2547 -1.2765
 1219SOL    HW215291   1.654   3.100   4.642  0.5018 -3.8469  0.8570
 1220SOL     OW15292   3.033   1.893   2.258 -0.6398 -0.6739 -0.5690
 1220SOL    HW115293   2.961   1.896   2.322  0.6299  2.2447  0.7258
 1220SOL    HW215294   3.110   1.926   2.304  0.0844 -0.9229 -1.6075
 1221SOL     OW15295   0.441   3.494   3.945  0.0787  0.0603 -0.2857
 1221SOL    HW115296   0.465   3.587   3.937  1.4488 -0.3656 -1.1536
 1221SOL    HW215297   0.525   3.460   3.977 -0.4126 -0.7862  0.0775
 1222SOL     OW15298   0.958   4.564   5.759  0.0208 -0.0801  0.5202
 1222SOL    HW115299   1.009   4.624   5.705  0.9071  0.6599  2.1977
 1222SOL    HW215300   0.937   4.623   5.831  1.7498  2.0723 -0.7435
 1223SOL     OW15301   1.124   1.436   2.451  0.6716  0.4815  0.0082
 1223SOL    HW115302   1.176   1.514   2.431 -0.0361  0.7591 -0.7229
 1223SOL    HW215303   1.104   1.417   2.359 -2.0098 -0.9040  0.8789
 1224SOL     OW15304   0.856   4.200   6.351 -0.0908  0.1101 -0.5069
 1224SOL    HW115305   0.932   4.153   6.318 -0.5438 -0.3465 -0.8857
 1224SOL    HW215306   0.794   4.128   6.354 -1.7565  1.5050 -1.6631
 1225SOL     OW15307   1.562   4.374   4.191 -0.3429  0.2798  0.5352
 1225SOL    HW115308   1.476   4.335   4.208 -0.2228 -0.8133 -1.3788
 1225SOL    HW215309   1.611   4.304   4.149  3.5384  2.0198  2.1893
 1226SOL     OW15310   2.435   2.891   5.503  0.6258 -0.3859  0.2372
 1226SOL    HW115311   2.501   2.930   5.445  0.4923 -0.2525  0.1755
 1226SOL    HW215312   2.367   2.955   5.483  2.0719  0.9355 -0.5434
 1227SOL     OW15313   2.403   2.617   1.375 -0.6981 -0.4496 -0.4167
 1227SOL    HW115314   2.403   2.652   1.464 -1.2305 -0.8387 -0.2619
 1227SOL    HW215315   2.476   2.660   1.330  0.3147 -0.7167  0.9850
 1228SOL     OW15316   3.060   3.931   8.218 -0.0196  0.1017  0.7035
 1228SOL    HW115317   3.068   3.919   8.313 -0.6749 -2.7890  0.3887
 1228SOL    HW215318   3.145   3.897   8.192  0.1924 -0.1195  1.7015
 1229SOL     OW15319   1.768   0.224  17.100  0.4743  0.0918 -0.1575
 1229SOL    HW115320   1.820   0.198  17.024  0.4204 -0.9519  0.1695
 1229SOL    HW215321   1.786   0.148  17.155  0.2228 -0.8932 -1.4289
 1230SOL     OW15322   0.832   2.223   8.766 -0.0233  0.1029  0.2965
 1230SOL    HW115323   0.854   2.313   8.790  2.2534  0.2669 -2.3623
 1230SOL    HW215324   0.737   2.212   8.772  0.0653 -0.1454  1.2189
 1231SOL     OW15325   2.194   3.670   5.085 -0.1535 -0.5119  0.7333
 1231SOL    HW115326   2.219   3.676   5.177 -1.5650  2.3709  0.9320
 1231SOL    HW215327   2.276   3.646   5.043 -1.5581 -0.4633 -2.0586
 1232SOL     OW15328   0.893   1.092  11.333 -0.0096 -0.2640  0.3105
 1232SOL    HW115329   0.806   1.063  11.307  0.3110 -0.7448 -0.2243
 1232SOL    HW215330   0.896   1.056  11.422 -1.0620 -1.2040 -0.0461
 1233SOL     OW15331   1.429   3.565   7.082  0.5964 -0.2225  0.2805
 1233SOL    HW115332   1.463   3.553   7.171 -0.4564  0.0322  0.7156
 1233SOL    HW215333   1.336   3.581   7.097  0.6601  1.0186 -0.6470
 1234SOL     OW15334   3.549   3.040   2.037 -0.0099 -0.2291  0.0147
 1234SOL    HW115335   3.471   3.074   2.080  0.4537  2.3799 -1.1744
 1234SOL    HW215336   3.628   3.075   2.078  2.0263 -2.0464 -2.3481
 1235SOL     OW15337   3.864   4.371   3.812 -0.1509 -0.1236  0.0117
 1235SOL    HW115338   3.904   4.393   3.896 -1.7982  0.8782  0.5412
 1235SOL    HW215339   3.929   4.408   3.752 -0.7905  1.3699  0.2154
 1236SOL     OW15340   3.000   2.618   0.048 -0.2017  0.6699 -0.2800
 1236SOL    HW115341   2.988   2.525   0.029 -0.1040  0.3846  1.1003
 1236SOL    HW215342   2.926   2.660   0.003  0.2173  0.7024 -0.9438
 1237SOL     OW15343   0.582   0.501   5.674 -0.4782  0.6846 -0.0320
 1237SOL    HW115344   0.614   0.500   5.584  0.7583  0.0113  0.4196
 1237SOL    HW215345   0.595   0.412   5.708  1.1890  0.5763 -0.9626
 1238SOL     OW15346   2.328   1.449   6.674  0.3373 -0.2439 -0.7441
 1238SOL    HW115347   2.420   1.426   6.660  1.5417  2.4538  2.5986
 1238SOL    HW215348   2.292   1.433   6.587 -2.3618 -0.9794  0.4867
 1239SOL     OW15349   1.291   4.057   4.527 -0.9793 -0.1140  0.0419
 1239SOL    HW115350   1.207   4.072   4.485 -1.5000  0.9551  1.4423
 1239SOL    HW215351   1.343   4.131   4.496  0.2344 -1.1417 -0.3785
 1240SOL     OW15352   3.912   2.075   2.954  0.1857 -0.3132  0.6104
 1240SOL    HW115353   3.899   2.047   2.864 -1.1136 -2.6796  1.5135
 1240SOL    HW215354   3.844   2.142   2.956  0.3969 -0.0616 -1.1576
 1241SOL     OW15355   0.223   2.503   4.358  0.6684 -0.4975 -1.1153
 1241SOL    HW115356   0.181   2.441   4.298  1.3252 -0.6370 -1.4325
 1241SOL    HW215357   0.222   2.581   4.302  0.5129  1.5839  1.7672
 1242SOL     OW15358   0.349   3.077  12.182 -0.0755 -0.0274 -0.3090
 1242SOL    HW115359   0.257   3.103  12.195 -0.1629 -0.8413  0.7349
 1242SOL    HW215360   0.348   3.091  12.087 -0.3071  3.0695  0.1533
 1243SOL     OW15361   0.354   3.290  12.623 -0.2920 -0.9681  0.2731
 1243SOL    HW115362   0.378   3.240  12.546  2.0200 -0.0927  0.4132
 1243SOL    HW215363   0.417   3.246  12.680  2.2071  1.0359 -0.9257
 1244SOL     OW15364   2.029   1.361   5.118 -0.0577 -0.7933 -0.0813
 1244SOL    HW115365   2.035   1.314   5.201  2.0577 -0.2374  0.0996
 1244SOL    HW215366   2.125   1.362   5.110  0.0070  2.8180  1.0173
 1245SOL     OW15367   2.161   1.403   1.478 -0.3799 -0.6663 -0.0584
 1245SOL    HW115368   2.255   1.392   1.465 -0.5659  0.3700 -2.2795
 1245SOL    HW215369   2.161   1.442   1.566  4.4509 -0.8228 -0.0125
 1246SOL     OW15370   4.492   2.409   9.882 -0.1327 -0.0637  0.0811
 1246SOL    HW115371   4.500   2.395   9.976  2.3077 -1.6435 -0.3443
 1246SOL    HW215372   4.503   2.503   9.869 -0.1953  0.2824  2.6148
 1247SOL     OW15373   1.301   1.081   4.669  0.3230 -0.3264  0.4033
 1247SOL    HW115374   1.385   1.065   4.711 -0.4372 -2.7464  0.9752
 1247SOL    HW215375   1.268   0.998   4.634  1.2299  0.0831 -1.4162
 1248SOL     OW15376   4.002   4.455   1.958  0.1870 -0.2504  0.1115
 1248SOL    HW115377   4.025   4.381   1.901  0.9320 -0.5334  0.7853
 1248SOL    HW215378   3.918   4.483   1.921  0.1127  3.2844  2.9662
 1249SOL     OW15379   2.529   2.180  12.273  0.6570  0.5688  0.0550
 1249SOL    HW115380   2.520   2.201  12.366 -1.1022 -1.3731  0.3097
 1249SOL    HW215381   2.624   2.188  12.267  0.8215 -0.0180  1.9329
 1250SOL     OW15382   0.721   1.533  12.852 -0.5012  0.9754  0.0518
 1250SOL    HW115383   0.767   1.548  12.770 -0.5910  2.0534  0.1867
 1250SOL    HW215384   0.655   1.471  12.821  0.2218 -1.3290  3.0948
 1251SOL     OW15385   3.648   0.082  17.179 -0.7134  0.2595  0.2506
 1251SOL    HW115386   3.653   0.070  17.084  1.3181 -0.6454  0.4706
 1251SOL    HW215387   3.624   0.175  17.176  0.0989  0.4376 -0.9384
 1252SOL     OW15388   1.042   4.366   5.957 -0.2106 -0.7899  0.3624
 1252SOL    HW115389   1.013   4.424   5.887 -0.0498  0.0759  1.0109
 1252SOL    HW215390   1.135   4.375   5.936 -0.0610 -0.5045  1.1237
 1253SOL     OW15391   1.046   1.556   8.348 -0.0604  0.2505  0.4681
 1253SOL    HW115392   1.062   1.588   8.259 -1.8001 -1.6756 -0.5463
 1253SOL    HW215393   1.138   1.559   8.374  0.3027  2.0220 -1.0254
 1254SOL     OW15394   1.565   1.617   1.401  0.4679  0.0244 -0.1027
 1254SOL    HW115395   1.583   1.689   1.340 -0.4739  1.1990  1.0110
 1254SOL    HW215396   1.577   1.657   1.486 -0.2919  1.9019 -0.8666
 1255SOL     OW15397   3.500   1.458   7.452  0.3725  0.0902 -0.1564
 1255SOL    HW115398   3.428   1.463   7.390  1.4932  2.8653 -1.2198
 1255SOL    HW215399   3.467   1.378   7.493  1.0499 -0.2241 -0.2300
 1256SOL     OW15400   1.607   4.293   9.081  0.1133  0.2288  0.1115
 1256SOL    HW115401   1.589   4.355   9.152 -1.1740 -0.8153  0.6909
 1256SOL    HW215402   1.685   4.333   9.042 -0.5155  0.3820 -0.9947
 1257SOL     OW15403   0.548   1.578   4.776  0.0552  0.2081  0.1321
 1257SOL    HW115404   0.570   1.633   4.851 -0.0654  0.2418  0.1428
 1257SOL    HW215405   0.499   1.646   4.729  0.1925  1.1801  1.3777
 1258SOL     OW15406   0.202   3.006  10.512 -0.6338  0.3401 -0.1199
 1258SOL    HW115407   0.191   2.952  10.589 -2.4618 -0.3895 -0.9011
 1258SOL    HW215408   0.164   3.091  10.536 -1.1294  0.2380 -0.5317
 1259SOL     OW15409   1.698   4.495  16.400 -0.1127 -0.1303  0.0721
 1259SOL    HW115410   1.667   4.406  16.418 -0.2273 -0.5807 -2.3419
 1259SOL    HW215411   1.688   4.506  16.305 -2.1066 -0.4367  0.2277
 1260SOL     OW15412   4.176   1.668  13.566 -0.3182  0.3306 -0.1437
 1260SOL    HW115413   4.160   1.703  13.654  0.0339  0.9734 -0.3331
 1260SOL    HW215414   4.229   1.589  13.575  2.0763  2.1650  2.0324
 1261SOL     OW15415   4.270   1.193   8.457 -0.3282 -0.2918 -0.1477
 1261SOL    HW115416   4.315   1.193   8.541 -0.9426  3.3719  0.1825
 1261SOL    HW215417   4.296   1.111   8.415 -1.3985 -0.9443  0.4576
 1262SOL     OW15418   1.865   2.017   4.975  0.5765 -0.5064 -0.0463
 1262SOL    HW115419   1.835   1.959   4.905  0.7893  0.8328 -1.2558
 1262SOL    HW215420   1.959   2.003   4.970  0.6367  0.6925 -2.1203
 1263SOL     OW15421   2.792   2.241   5.703 -0.0168  0.2168 -0.3127
 1263SOL    HW115422   2.721   2.207   5.758  1.2876  0.3606  1.4602
 1263SOL    HW215423   2.742   2.294   5.640  0.9842 -0.6506 -1.8198
 1264SOL     OW15424   4.198   2.858  17.186 -0.1383 -0.3931 -0.3509
 1264SOL    HW115425   4.193   2.768  17.218  1.3168 -0.8445 -1.4128
 1264SOL    HW215426   4.132   2.849  17.117 -1.6813  1.1871  0.8944
 1265SOL     OW15427   3.194   2.248   4.852  0.2909 -0.5648 -0.0551
 1265SOL    HW115428   3.220   2.241   4.944  0.7207  1.6766  0.0079
 1265SOL    HW215429   3.207   2.341   4.834 -1.0031 -0.3061  0.3430
 1266SOL     OW15430   4.412   2.120  12.098  0.5107  0.2559  0.7539
 1266SOL    HW115431   4.378   2.077  12.019 -0.1263 -1.2876  1.8779
 1266SOL    HW215432   4.469   2.046  12.115 -0.5207 -0.4352  1.1520
 1267SOL     OW15433   4.272   2.987   1.993  0.2333 -0.4936 -0.4233
 1267SOL    HW115434   4.214   2.911   1.993 -1.2074  0.5900  1.2199
 1267SOL    HW215435   4.264   3.038   1.912 -0.6227  3.0864  1.9312
 1268SOL     OW15436   2.703   3.036   8.543 -0.3701 -0.0392  0.0752
 1268SOL    HW115437   2.798   3.043   8.551 -0.3654  1.6157 -1.5433
 1268SOL    HW215438   2.694   2.942   8.559 -2.5153 -0.1587 -1.7199
 1269SOL     OW15439   4.378   3.962  12.603  0.2131  0.3383 -0.2243
 1269SOL    HW115440   4.289   3.993  12.617  0.5348  1.2767 -0.2934
 1269SOL    HW215441   4.351   3.889  12.548 -1.0566 -0.2432  1.1575
 1270SOL     OW15442   0.576   4.031   3.958  0.1838  0.2483  0.3458
 1270SOL    HW115443   0.517   3.963   3.991  0.2561  0.8294  1.6797
 1270SOL    HW215444   0.584   4.005   3.867 -0.7968 -1.6443  0.7907
 1271SOL     OW15445   3.553   0.498  14.829  0.5400 -0.3189 -0.0589
 1271SOL    HW115446   3.628   0.472  14.775  1.2252 -3.2756  2.2756
 1271SOL    HW215447   3.482   0.447  14.790  0.9953  0.3327 -1.7506
 1272SOL     OW15448   1.262   2.375  15.189 -0.1532 -0.5214  0.5655
 1272SOL    HW115449   1.316   2.300  15.162  2.0994  1.5696 -0.7868
 1272SOL    HW215450   1.308   2.397  15.270  0.9286 -1.8726  0.3228
 1273SOL     OW15451   0.017   1.600   9.786  0.5034  0.2575  0.3051
 1273SOL    HW115452   0.002   1.663   9.716  0.6156 -1.5217 -1.3073
 1273SOL    HW215453   0.051   1.525   9.738  0.5093  1.3450 -1.4003
 1274SOL     OW15454   4.061   2.103   8.928  0.6613  0.7333  0.3633
 1274SOL    HW115455   4.095   2.035   8.986 -0.4335  1.2972  1.6608
 1274SOL    HW215456   4.089   2.072   8.842  0.3872 -0.3404  0.6611
 1275SOL     OW15457   3.295   1.801   5.336 -0.0681 -0.0713  0.2573
 1275SOL    HW115458   3.352   1.731   5.369 -0.1796 -0.7013 -0.8884
 1275SOL    HW215459   3.254   1.819   5.421  2.4660  2.1972  0.9745
 1276SOL     OW15460   1.629   2.468   5.213 -0.3928  0.3268  0.3120
 1276SOL    HW115461   1.661   2.425   5.293  0.2762  2.8346  1.3848
 1276SOL    HW215462   1.565   2.404   5.180  1.5634 -2.6297  2.2158
 1277SOL     OW15463   1.751   1.110   7.935  0.5760  0.2484 -0.3695
 1277SOL    HW115464   1.841   1.126   7.907  0.7230 -1.1776 -0.7443
 1277SOL    HW215465   1.763   1.102   8.030 -0.1395  0.6734 -0.2431
 1278SOL     OW15466   3.722   0.151  12.736 -0.2229 -0.6118 -0.1774
 1278SOL    HW115467   3.671   0.230  12.751 -1.5867 -1.2888 -1.1744
 1278SOL    HW215468   3.808   0.184  12.764 -0.4675  0.6387 -0.8977
 1279SOL     OW15469   0.593   0.459  10.234 -0.0225 -0.8251  0.2816
 1279SOL    HW115470   0.507   0.456  10.192 -0.9342  0.6234  2.0451
 1279SOL    HW215471   0.590   0.396  10.306 -2.1814 -0.2322  0.7160
 1280SOL     OW15472   0.555   1.132   3.029 -0.1616 -0.2373  0.4514
 1280SOL    HW115473   0.554   1.127   3.125  2.2343  1.2512  0.5699
 1280SOL    HW215474   0.630   1.186   3.006  1.3372 -2.1039  0.9433
 1281SOL     OW15475   0.558   2.811   6.860  0.2590  0.2161  0.5171
 1281SOL    HW115476   0.641   2.853   6.886 -1.3121  1.7568  3.0596
 1281SOL    HW215477   0.500   2.859   6.919  0.1092 -0.1731  0.6881
 1282SOL     OW15478   4.581   2.791   3.800  0.7209 -0.7776 -0.6062
 1282SOL    HW115479   4.493   2.760   3.819  0.6252 -0.1062  0.0629
 1282SOL    HW215480   4.622   2.722   3.747 -2.0538 -1.5327 -1.7862
 1283SOL     OW15481   0.168   0.501   9.763 -0.0624  0.4438  0.2331
 1283SOL    HW115482   0.080   0.485   9.796 -0.5101  0.0665 -1.1791
 1283SOL    HW215483   0.153   0.586   9.723 -0.7202  0.8852  1.4097
 1284SOL     OW15484   1.136   1.480   3.649 -0.0476  0.5949 -0.7199
 1284SOL    HW115485   1.096   1.466   3.563 -0.4601 -0.4096 -0.3658
 1284SOL    HW215486   1.137   1.574   3.665 -0.4434  0.4003  0.4288
 1285SOL     OW15487   0.787   3.961   7.644  0.3018  0.1020  0.5588
 1285SOL    HW115488   0.778   3.896   7.714 -1.0464 -1.5000 -1.0850
 1285SOL    HW215489   0.775   3.903   7.568 -0.8172 -0.9265  1.5164
 1286SOL     OW15490   1.584   0.495   3.039 -0.2189  0.3790 -0.4216
 1286SOL    HW115491   1.639   0.459   2.970 -0.3146  0.4361 -0.5295
 1286SOL    HW215492   1.518   0.427   3.048 -0.6928  0.8640 -0.1945
 1287SOL     OW15493   2.765   3.171   3.879 -0.2318 -0.3462 -0.7689
 1287SOL    HW115494   2.712   3.167   3.958 -0.5914 -4.1348 -1.2014
 1287SOL    HW215495   2.704   3.149   3.809 -1.2670  1.5708 -0.4653
 1288SOL     OW15496   3.517   1.305   3.891  0.1790 -0.2549  0.2397
 1288SOL    HW115497   3.585   1.316   3.824  0.1704 -0.6126  0.1724
 1288SOL    HW215498   3.459   1.248   3.840  0.5484  0.2310 -0.7329
 1289SOL     OW15499   0.989   2.738   4.851  0.1893  0.1077 -0.2530
 1289SOL    HW115500   0.934   2.756   4.775 -1.3445 -0.3493  0.7495
 1289SOL    HW215501   1.080   2.760   4.830  0.8697 -0.6952  1.8497
 1290SOL     OW15502   0.595   3.314   6.096 -0.0705 -0.4588  0.6601
 1290SOL    HW115503   0.608   3.303   6.191  0.1675  1.0658  0.7992
 1290SOL    HW215504   0.527   3.253   6.070  0.1828 -0.4460 -0.0215
 1291SOL     OW15505   1.010   1.146   0.245 -0.1747 -0.3244  0.4827
 1291SOL    HW115506   1.055   1.083   0.189  0.7602  0.5559  0.2402
 1291SOL    HW215507   1.004   1.104   0.331 -0.9534 -2.8321 -0.8012
 1292SOL     OW15508   2.432   3.200   4.561 -0.5215  0.0483 -0.4022
 1292SOL    HW115509   2.502   3.146   4.598 -0.3330 -1.6502 -3.2515
 1292SOL    HW215510   2.364   3.133   4.548  1.4674 -1.7060 -1.5937
 1293SOL     OW15511   1.477   0.031   8.172 -0.1998  0.0634  0.2118
 1293SOL    HW115512   1.440   4.685   8.200 -0.0354 -0.2224 -0.4325
 1293SOL    HW215513   1.446   0.088   8.243  1.2207  0.1320  0.7735
 1294SOL     OW15514   0.119   3.392   3.066 -0.3644 -0.2057 -0.6558
 1294SOL    HW115515   0.182   3.461   3.043  0.2286  0.2407  2.3726
 1294SOL    HW215516   0.115   3.341   2.984  3.6788 -0.2037 -0.8565
 1295SOL     OW15517   1.497   3.906   1.959 -0.1742 -0.4424 -0.2423
 1295SOL    HW115518   1.466   3.852   1.886 -2.4832  1.1771 -0.4857
 1295SOL    HW215519   1.477   3.855   2.038  0.1181  1.5454  1.1311
 1296SOL     OW15520   0.985   3.374   5.258 -0.4544  0.1305 -0.5279
 1296SOL    HW115521   0.897   3.391   5.291  0.1875  3.1413 -0.3572
 1296SOL    HW215522   1.046   3.377   5.331 -2.4149  1.4848  1.0588
 1297SOL     OW15523   3.343   2.894   8.072 -0.4091  0.2480  0.2255
 1297SOL    HW115524   3.336   2.848   7.988  3.5790  0.8843 -0.4373
 1297SOL    HW215525   3.404   2.962   8.043 -0.8360  0.1773 -0.8474
 1298SOL     OW15526   0.152   4.074   7.243 -0.4156  0.0755  0.2025
 1298SOL    HW115527   0.178   4.042   7.157 -0.4453  1.6299 -0.3966
 1298SOL    HW215528   0.199   4.018   7.305 -3.6650 -0.5554  2.1191
 1299SOL     OW15529   4.191   3.233   1.539  0.0700  0.5161  0.3740
 1299SOL    HW115530   4.170   3.303   1.476 -3.4392  0.1231  1.0824
 1299SOL    HW215531   4.228   3.176   1.472 -4.2063 -2.5224  0.5475
 1300SOL     OW15532   2.851   0.276   7.116 -0.0203 -0.5637 -0.0564
 1300SOL    HW115533   2.783   0.323   7.069  0.3442 -0.9835 -1.0048
 1300SOL    HW215534   2.861   0.200   7.059  3.3539 -1.4233  1.6625
 1301SOL     OW15535   1.111   1.959   9.958  0.1924 -0.2393 -0.2313
 1301SOL    HW115536   1.138   1.890  10.018  0.5742 -1.2410 -1.5567
 1301SOL    HW215537   1.185   2.014   9.981  1.4277 -0.7244 -3.0244
 1302SOL     OW15538   3.154   0.785  15.491  0.1494  0.0006  0.0196
 1302SOL    HW115539   3.185   0.698  15.518 -0.5362 -0.4350 -0.5993
 1302SOL    HW215540   3.122   0.822  15.573  0.0322  1.3734 -0.6505
 1303SOL     OW15541   0.180   2.734   2.792 -0.4399  0.6218 -0.0263
 1303SOL    HW115542   0.175   2.639   2.781  2.0970  0.5109 -0.4406
 1303SOL    HW215543   0.248   2.738   2.859 -0.4743  1.2078 -0.0286
 1304SOL     OW15544   0.917   2.481   8.858  0.3231 -0.1683  0.0206
 1304SOL    HW115545   1.009   2.509   8.865 -1.1149  4.4011  0.5702
 1304SOL    HW215546   0.879   2.523   8.781  0.8249 -0.3275 -0.3204
 1305SOL     OW15547   3.590   1.666   6.434  0.5585  0.5419 -0.0042
 1305SOL    HW115548   3.672   1.714   6.448  0.4569  0.7757 -0.2111
 1305SOL    HW215549   3.597   1.588   6.490 -0.2218  0.8709  0.5501
 1306SOL     OW15550   3.394   0.625   5.806  0.0873 -0.3952  0.1721
 1306SOL    HW115551   3.420   0.600   5.717 -1.0937  0.8338 -0.5196
 1306SOL    HW215552   3.398   0.720   5.812 -0.9450 -0.3153 -0.3461
 1307SOL     OW15553   4.491   3.473   8.307 -0.3951  0.3093 -0.0970
 1307SOL    HW115554   4.445   3.471   8.391 -0.2031 -0.8350 -0.0093
 1307SOL    HW215555   4.446   3.396   8.271 -0.4759  1.0289 -1.5221
 1308SOL     OW15556   2.802   3.775   9.001 -0.6621 -0.2899  0.5005
 1308SOL    HW115557   2.743   3.849   9.021 -0.4135  0.0232  0.0727
 1308SOL    HW215558   2.795   3.784   8.906  0.1741 -1.0427  0.3750
 1309SOL     OW15559   1.232   3.339   0.703  0.2500 -0.0292 -0.2206
 1309SOL    HW115560   1.292   3.385   0.763 -0.2665  1.6036 -0.9572
 1309SOL    HW215561   1.218   3.263   0.758  1.1636 -0.3857 -0.4804
 1310SOL     OW15562   2.851   4.712  13.476  0.2391 -0.1483 -0.5633
 1310SOL    HW115563   2.927   4.654  13.470 -0.4199 -0.9325 -1.1802
 1310SOL    HW215564   2.785   4.650  13.506  0.9367  0.4429  2.2557
 1311SOL     OW15565   3.690   3.258  15.138 -0.7684 -0.1691 -0.1483
 1311SOL    HW115566   3.636   3.216  15.205 -0.9327  2.2136  1.2310
 1311SOL    HW215567   3.657   3.348  15.134  1.3973  0.6929  1.4538
 1312SOL     OW15568   4.468   1.003  13.691  0.3503 -0.0219 -0.1542
 1312SOL    HW115569   4.386   1.041  13.659  1.1834  0.9486 -1.1589
 1312SOL    HW215570   4.494   1.072  13.752 -2.0992  1.4211 -0.7475
 1313SOL     OW15571   0.527   0.205  17.404 -0.4271  0.2447  0.2784
 1313SOL    HW115572   0.454   0.266  17.410  1.1757  2.3047 -1.1945
 1313SOL    HW215573   0.571   0.225  17.487 -2.9672 -0.1057  1.6924
 1314SOL     OW15574   1.152   2.193   3.877 -0.0271  0.0856 -0.1110
 1314SOL    HW115575   1.170   2.265   3.937  0.6328  1.2000 -1.6483
 1314SOL    HW215576   1.057   2.186   3.872  0.0168  0.1073 -0.9556
 1315SOL     OW15577   2.396   0.600   5.529  0.0456 -0.7324  0.3714
 1315SOL    HW115578   2.486   0.567   5.531  0.7846  1.2284 -0.7011
 1315SOL    HW215579   2.393   0.650   5.447  0.2300 -3.0500 -1.0626
 1316SOL     OW15580   2.020   4.680   3.042 -0.2023 -0.4963 -0.5389
 1316SOL    HW115581   2.003   4.683   2.948  0.6850  1.7997 -0.6140
 1316SOL    HW215582   2.091   4.615   3.044 -1.6983 -2.0451  2.2760
 1317SOL     OW15583   0.455   4.651   6.644  0.5057  0.5796 -0.3704
 1317SOL    HW115584   0.434   0.001   6.610 -1.9295 -0.5944 -1.9144
 1317SOL    HW215585   0.395   4.646   6.718  1.1242  0.2511  0.1043
 1318SOL     OW15586   1.257   1.276   6.054 -0.6468 -0.4162  0.1081
 1318SOL    HW115587   1.190   1.213   6.028 -1.3288 -0.2415  1.4065
 1318SOL    HW215588   1.323   1.266   5.985  0.8189  1.6463  1.1961
 1319SOL     OW15589   1.990   2.864   3.142 -0.4164 -0.1549 -1.4422
 1319SOL    HW115590   1.987   2.803   3.069 -0.0442  1.0934 -2.5045
 1319SOL    HW215591   2.030   2.934   3.090 -2.5837  1.8777 -0.4081
 1320SOL     OW15592   2.773   3.378  10.882 -0.6273  0.1738  0.0123
 1320SOL    HW115593   2.718   3.421  10.947 -0.4510  3.8386 -2.2735
 1320SOL    HW215594   2.723   3.400  10.803 -0.0758 -0.4208 -0.5094
 1321SOL     OW15595   2.130   4.457   8.373  0.0484  0.0631 -0.0078
 1321SOL    HW115596   2.064   4.515   8.336  0.1921  0.0103 -0.3416
 1321SOL    HW215597   2.192   4.523   8.405  1.4047 -0.8267 -0.8142
 1322SOL     OW15598   2.881   4.376   0.088 -0.0598  0.0054  0.1496
 1322SOL    HW115599   2.823   4.451   0.075  2.6927  2.1856  0.4964
 1322SOL    HW215600   2.832   4.313   0.141  0.7736 -0.4311  0.3929
 1323SOL     OW15601   2.824   1.210   1.871 -0.2018 -0.2332  0.2162
 1323SOL    HW115602   2.841   1.259   1.790 -0.2693 -1.1788 -0.3762
 1323SOL    HW215603   2.916   1.189   1.886  0.5174  2.1938 -0.7877
 1324SOL     OW15604   2.141   1.376  12.950  0.1476  0.2171  1.0062
 1324SOL    HW115605   2.234   1.364  12.935  0.2493  0.7202  1.2243
 1324SOL    HW215606   2.119   1.285  12.968  0.7286  0.6552  3.9285
 1325SOL     OW15607   2.813   4.443   6.387  0.1115  0.0541  0.0742
 1325SOL    HW115608   2.805   4.434   6.292  1.0777 -0.3434  0.0326
 1325SOL    HW215609   2.721   4.454   6.411  0.0574 -0.2525  0.0038
 1326SOL     OW15610   2.964   4.430   4.462 -0.4251  0.2266 -0.5000
 1326SOL    HW115611   2.912   4.456   4.539 -0.0996 -1.3633  0.2578
 1326SOL    HW215612   2.913   4.469   4.391 -1.3086 -2.5632 -1.3673
 1327SOL     OW15613   0.828   3.907   9.133  0.4808 -0.2593  0.0221
 1327SOL    HW115614   0.836   3.986   9.080  1.5531 -0.3291  0.0906
 1327SOL    HW215615   0.857   3.932   9.220  2.0335 -2.2957  0.0768
 1328SOL     OW15616   0.070   2.167  13.828  0.0172  0.3435  0.6897
 1328SOL    HW115617   0.008   2.206  13.766  0.3801 -0.4573 -0.1833
 1328SOL    HW215618   0.063   2.231  13.898  3.5783  1.0777  0.3492
 1329SOL     OW15619   1.511   4.711   1.740  0.2877 -0.5903  0.3061
 1329SOL    HW115620   1.549   4.661   1.812  1.6733 -1.3505 -0.9542
 1329SOL    HW215621   1.553   4.675   1.662 -0.6571  1.0753 -0.9724
 1330SOL     OW15622   1.200   3.634  12.608 -0.3221 -0.3229  0.4246
 1330SOL    HW115623   1.251   3.559  12.638 -0.0248  0.1752  1.1620
 1330SOL    HW215624   1.118   3.618  12.655 -1.2810  0.5368 -0.9494
 1331SOL     OW15625   3.911   4.202   8.987  0.2336 -0.3457  0.4303
 1331SOL    HW115626   3.852   4.189   8.913 -0.7261  0.0989  1.1061
 1331SOL    HW215627   3.852   4.233   9.056 -0.4781 -2.2020  0.6712
 1332SOL     OW15628   0.232   1.856   2.329 -0.3454 -0.6830  0.0181
 1332SOL    HW115629   0.225   1.822   2.240 -1.1922 -1.8384  0.5316
 1332SOL    HW215630   0.295   1.791   2.360  3.0183  2.2190 -0.6202
 1333SOL     OW15631   4.293   2.971   3.223 -0.0771 -0.7700 -0.0510
 1333SOL    HW115632   4.251   3.007   3.145 -0.8673 -3.3443 -0.8243
 1333SOL    HW215633   4.267   2.880   3.206 -1.3046 -0.6817  1.3298
 1334SOL     OW15634   3.130   3.006   1.539  0.0004 -0.3990 -0.4409
 1334SOL    HW115635   3.040   2.987   1.566 -0.9636  0.6376 -2.8587
 1334SOL    HW215636   3.174   2.993   1.622  1.5822  2.5140 -0.8157
 1335SOL     OW15637   1.076   2.790   4.040 -0.2420 -0.5311 -0.2183
 1335SOL    HW115638   1.114   2.878   4.034 -1.9809  0.2417  0.1487
 1335SOL    HW215639   1.139   2.728   4.003 -0.7045 -2.7883  2.8112
 1336SOL     OW15640   2.950   4.570  12.819  0.2978  0.1938 -0.3886
 1336SOL    HW115641   2.878   4.556  12.758 -0.2506  0.4880  0.1946
 1336SOL    HW215642   2.899   4.598  12.895  0.6289  2.2385 -0.9329
 1337SOL     OW15643   3.563   3.516  15.146 -0.7626  0.2436  0.2983
 1337SOL    HW115644   3.546   3.597  15.194  1.5251  1.0183 -0.1951
 1337SOL    HW215645   3.550   3.547  15.056  4.3647  0.1359 -0.4792
 1338SOL     OW15646   0.545   4.709  17.663  0.1214  0.0727 -0.8709
 1338SOL    HW115647   0.559   4.615  17.677 -1.1757  0.0902  0.7202
 1338SOL    HW215648   0.580   0.011  17.743 -2.1300  0.1978  0.0562
 1339SOL     OW15649   2.584   1.764   2.439 -0.0103 -0.0002 -0.3487
 1339SOL    HW115650   2.673   1.796   2.448  0.0045 -0.3912  0.8530
 1339SOL    HW215651   2.535   1.831   2.390 -0.9501 -1.4268 -1.3889
 1340SOL     OW15652   0.081   0.892   0.456  0.1589  0.2926 -0.0233
 1340SOL    HW115653   0.039   0.968   0.495 -0.4740 -0.0515 -0.0269
 1340SOL    HW215654   0.005   0.856   0.409 -0.0689 -0.3429  0.8401
 1341SOL     OW15655   4.706   2.484   7.745  0.1728 -0.3056 -0.4574
 1341SOL    HW115656   4.680   2.576   7.754 -0.0072 -0.4016 -0.0223
 1341SOL    HW215657   4.622   2.445   7.769  0.5786 -0.7117  0.2874
 1342SOL     OW15658   2.939   0.483   7.708 -0.3950  0.0807 -0.3586
 1342SOL    HW115659   2.904   0.496   7.796 -0.0175  0.9101 -0.3280
 1342SOL    HW215660   3.000   0.411   7.724 -1.9812 -0.9481  0.9431
 1343SOL     OW15661   0.294   1.353   9.205  0.0379 -0.0807  0.3132
 1343SOL    HW115662   0.267   1.296   9.277  2.1202 -0.9170  0.4384
 1343SOL    HW215663   0.373   1.393   9.242 -0.0221 -0.9254  1.3595
 1344SOL     OW15664   1.909   1.197  10.898 -0.3635 -0.1730 -0.0417
 1344SOL    HW115665   1.840   1.176  10.960 -2.4118  0.7751 -1.9994
 1344SOL    HW215666   1.890   1.290  10.887  0.6407  0.3989  3.0009
 1345SOL     OW15667   2.120   4.024   8.188  0.8589 -0.2513  0.2972
 1345SOL    HW115668   2.063   4.092   8.225 -0.9103  0.2735 -3.3810
 1345SOL    HW215669   2.201   4.072   8.169  0.7953 -0.2424  0.0372
 1346SOL     OW15670   0.854   3.178   7.849 -0.0370  0.0645  0.6112
 1346SOL    HW115671   0.922   3.219   7.903  0.5275  2.0214 -1.5327
 1346SOL    HW215672   0.905   3.122   7.790 -0.4787 -0.4888  0.7603
 1347SOL     OW15673   3.973   1.464   2.789  0.5947 -0.2962  0.4170
 1347SOL    HW115674   4.010   1.496   2.707 -0.4366  0.0152  0.0813
 1347SOL    HW215675   4.020   1.509   2.859 -1.2201  1.7232  0.3209
 1348SOL     OW15676   2.497   0.746   2.736 -0.1482 -0.8291  0.4110
 1348SOL    HW115677   2.462   0.798   2.664 -3.2881 -2.7297  0.5614
 1348SOL    HW215678   2.578   0.707   2.701 -0.8501 -0.2224 -1.8997
 1349SOL     OW15679   3.889   2.822   7.250 -0.1057  0.4292 -0.3342
 1349SOL    HW115680   3.871   2.902   7.202 -0.0319  0.4798 -0.2766
 1349SOL    HW215681   3.974   2.807   7.207  0.2620 -0.0475  0.5651
 1350SOL     OW15682   4.573   1.247   9.153  0.7034 -0.3903 -0.7004
 1350SOL    HW115683   4.556   1.176   9.091 -1.0473 -0.0310 -0.6382
 1350SOL    HW215684   4.487   1.245   9.197  0.6941  1.6155 -0.6486
 1351SOL     OW15685   2.092   1.702   4.399  0.6652 -0.3260  0.0773
 1351SOL    HW115686   2.162   1.649   4.361  1.6501  1.4827 -0.6285
 1351SOL    HW215687   2.020   1.640   4.402  1.3111 -1.0346  0.7540
 1352SOL     OW15688   3.980   3.868   4.825 -0.1967  0.0586  0.6673
 1352SOL    HW115689   3.890   3.841   4.812  0.5032 -1.8462 -0.2674
 1352SOL    HW215690   4.017   3.858   4.737 -0.8545  1.6946  0.2097
 1353SOL     OW15691   4.163   1.828   6.285 -0.0377 -0.0541  0.1323
 1353SOL    HW115692   4.140   1.877   6.364  0.9316 -0.7286  0.8427
 1353SOL    HW215693   4.254   1.858   6.279 -0.0226 -0.1245  0.0201
 1354SOL     OW15694   2.246   1.848  10.492 -0.4478  0.6404  0.2205
 1354SOL    HW115695   2.197   1.926  10.519  0.0032  0.4027  1.6815
 1354SOL    HW215696   2.247   1.855  10.396  0.1537 -2.0121  0.0268
 1355SOL     OW15697   1.798   4.104   8.062 -0.1708  0.6249  0.0414
 1355SOL    HW115698   1.862   4.034   8.064 -1.1994 -0.2557  1.6132
 1355SOL    HW215699   1.854   4.181   8.048  1.6108 -0.5978  0.4495
 1356SOL     OW15700   2.465   3.033  14.084 -0.5103  0.6302  0.0753
 1356SOL    HW115701   2.467   3.078  14.169 -1.2636  0.2919  0.2704
 1356SOL    HW215702   2.551   3.044  14.043 -0.7460  0.4341 -0.4613
 1357SOL     OW15703   1.814   0.625  11.755 -0.0782 -0.5424  0.6261
 1357SOL    HW115704   1.787   0.717  11.758 -1.0048 -0.7445 -1.8933
 1357SOL    HW215705   1.839   0.617  11.847  0.1882  0.9037  0.6762
 1358SOL     OW15706   4.337   0.314  11.216  0.4555 -0.0932 -0.3088
 1358SOL    HW115707   4.307   0.361  11.294  2.3858  1.2643 -0.3826
 1358SOL    HW215708   4.372   0.237  11.260 -1.8303 -1.2966 -0.5951
 1359SOL     OW15709   4.326   1.074   6.874  0.4284 -0.6973  0.0766
 1359SOL    HW115710   4.415   1.057   6.843 -0.1086 -2.4703 -0.4744
 1359SOL    HW215711   4.338   1.165   6.903 -0.2557 -0.2221 -1.1271
 1360SOL     OW15712   4.161   3.025   5.811  0.3236  0.1993 -0.0637
 1360SOL    HW115713   4.074   3.065   5.814  1.1546  2.0804 -0.8544
 1360SOL    HW215714   4.216   3.097   5.780 -0.3297  0.6227 -0.2276
 1361SOL     OW15715   2.886   1.532   3.165 -0.2480 -0.3419  0.4953
 1361SOL    HW115716   2.861   1.467   3.099  2.2377 -0.6394 -0.1601
 1361SOL    HW215717   2.802   1.533   3.211 -0.2523 -3.4615  0.5590
 1362SOL     OW15718   4.212   4.162   2.426 -0.2617 -0.4416 -0.0253
 1362SOL    HW115719   4.153   4.108   2.478 -2.8611  1.0352 -1.4470
 1362SOL    HW215720   4.289   4.105   2.422  0.0694  0.0515 -0.7142
 1363SOL     OW15721   4.170   0.728   4.308  0.2921  0.1546 -0.2249
 1363SOL    HW115722   4.262   0.722   4.282 -0.0217  2.1984 -1.8004
 1363SOL    HW215723   4.168   0.822   4.326  0.2372  0.1552 -0.2358
 1364SOL     OW15724   2.097   2.394   3.857 -0.0250  0.0302  0.2727
 1364SOL    HW115725   2.184   2.382   3.819 -1.3017 -1.1941 -2.2720
 1364SOL    HW215726   2.128   2.418   3.944  3.0316 -1.4226 -0.4164
 1365SOL     OW15727   0.140   1.781   9.983 -0.1459  0.4648 -0.1164
 1365SOL    HW115728   0.099   1.726   9.916 -1.8364  0.4860  0.8991
 1365SOL    HW215729   0.087   1.859   9.970  2.2747  1.8384 -1.6944
 1366SOL     OW15730   3.024   1.470   8.561  0.7743 -0.0727  0.1036
 1366SOL    HW115731   2.994   1.541   8.505 -2.7171 -1.3328  0.3637
 1366SOL    HW215732   3.069   1.414   8.499  0.4448 -1.0220  0.7167
 1367SOL     OW15733   3.196   1.117   2.952  0.3052 -0.2598  0.1089
 1367SOL    HW115734   3.282   1.140   2.917 -0.2946  1.3048 -0.3754
 1367SOL    HW215735   3.144   1.104   2.872  1.4935 -1.8003 -0.4185
 1368SOL     OW15736   3.854   0.246   8.873  0.1578 -0.3626 -0.3653
 1368SOL    HW115737   3.828   0.290   8.954 -0.0122  0.9753 -1.1544
 1368SOL    HW215738   3.868   0.320   8.814  0.7833  0.7113  1.1035
 1369SOL     OW15739   4.515   3.605   6.747 -0.1857 -0.1225  0.2686
 1369SOL    HW115740   4.546   3.653   6.670  1.6864 -2.3025 -0.3216
 1369SOL    HW215741   4.463   3.674   6.789 -0.1173 -0.0095  0.1647
 1370SOL     OW15742   1.118   1.563   2.912 -0.2593 -0.0309  0.1781
 1370SOL    HW115743   1.125   1.528   2.823  1.8144 -0.1167  0.3581
 1370SOL    HW215744   1.033   1.606   2.909 -0.7291 -0.8842  1.1633
 1371SOL     OW15745   4.653   0.345   7.513 -0.1374 -0.4645 -0.2249
 1371SOL    HW115746   4.730   0.389   7.475 -0.8804  1.3211  0.3481
 1371SOL    HW215747   4.650   0.259   7.471 -0.2267 -0.5839  0.0230
 1372SOL     OW15748   0.352   0.965   8.167  0.5563  0.0194 -0.2657
 1372SOL    HW115749   0.430   0.990   8.216  1.8041 -0.9527 -1.7714
 1372SOL    HW215750   0.289   1.034   8.188  0.3714 -0.3442  0.4042
 1373SOL     OW15751   1.239   0.691   4.326  0.5704  0.3590  0.1855
 1373SOL    HW115752   1.222   0.724   4.238  2.6713  0.2259 -0.2546
 1373SOL    HW215753   1.319   0.642   4.307 -0.3208 -0.5988 -1.0782
 1374SOL     OW15754   3.820   0.604   6.883 -0.1933 -0.4441 -0.3076
 1374SOL    HW115755   3.857   0.691   6.872 -0.1298 -0.4935 -0.4816
 1374SOL    HW215756   3.736   0.620   6.927  0.3694  0.2671  0.4908
 1375SOL     OW15757   0.722   0.704   5.161  0.1645 -0.0319  0.1474
 1375SOL    HW115758   0.746   0.659   5.080  1.3254 -0.3255  0.6557
 1375SOL    HW215759   0.756   0.790   5.138  0.5530 -0.8037 -2.1631
 1376SOL     OW15760   2.989   0.410   3.630  0.3029 -0.1284 -0.0288
 1376SOL    HW115761   2.937   0.399   3.709  0.1567 -1.4563 -0.3183
 1376SOL    HW215762   2.946   0.487   3.592 -0.7187 -0.7665 -0.1599
 1377SOL     OW15763   2.803   2.754   4.946 -0.1835  0.0157 -0.1929
 1377SOL    HW115764   2.851   2.836   4.939 -1.4725  0.7566 -0.3956
 1377SOL    HW215765   2.729   2.767   5.006 -0.3585  0.7549 -0.5705
 1378SOL     OW15766   0.647   3.071   7.257 -0.4185 -0.4263  0.1674
 1378SOL    HW115767   0.739   3.093   7.267 -0.8213  1.2832  0.0569
 1378SOL    HW215768   0.652   2.975   7.259  1.1843 -0.3537 -0.5748
 1379SOL     OW15769   0.626   3.337   4.078 -0.7980 -0.7165  0.6603
 1379SOL    HW115770   0.606   3.244   4.065 -0.4137 -0.8670  1.1637
 1379SOL    HW215771   0.716   3.339   4.046 -1.3208  1.6261 -0.7000
 1380SOL     OW15772   3.094   3.866  15.616  0.2686 -0.4128 -0.1020
 1380SOL    HW115773   3.092   3.927  15.689  2.1944  0.7239 -1.0167
 1380SOL    HW215774   3.064   3.785  15.658  1.0940 -1.2430 -1.0929
 1381SOL     OW15775   4.535   2.455   5.843  0.6291 -0.2008 -0.1852
 1381SOL    HW115776   4.588   2.396   5.789 -1.1235 -1.7756 -0.1577
 1381SOL    HW215777   4.469   2.401   5.886  1.8057 -0.7079  1.0070
 1382SOL     OW15778   2.069   3.034   5.706 -0.7993 -0.4284 -0.3639
 1382SOL    HW115779   2.155   3.075   5.716 -0.4840 -1.5577  1.5222
 1382SOL    HW215780   2.010   3.092   5.756  1.8106  1.8861  0.0597
 1383SOL     OW15781   3.704   1.722   8.314  0.4501 -0.1772  0.1648
 1383SOL    HW115782   3.789   1.763   8.295  1.3827 -2.0103  0.4465
 1383SOL    HW215783   3.699   1.666   8.236  1.2388 -0.3133  0.2119
 1384SOL     OW15784   2.446   2.125  14.823 -0.0449  0.2178  0.0331
 1384SOL    HW115785   2.436   2.208  14.775  2.2080  1.8959  2.4181
 1384SOL    HW215786   2.352   2.109  14.831  0.3161 -1.7600  0.1010
 1385SOL     OW15787   1.004   4.605   3.423 -0.3125 -0.0400 -0.2778
 1385SOL    HW115788   0.932   4.665   3.405  1.1097  1.4723 -0.8772
 1385SOL    HW215789   1.062   4.663   3.472 -1.6801  0.0817  1.2043
 1386SOL     OW15790   2.807   2.336   8.311 -0.6178  0.9057 -0.1121
 1386SOL    HW115791   2.811   2.255   8.362 -0.1202  1.1909  0.3004
 1386SOL    HW215792   2.835   2.309   8.224 -1.2367 -1.0711  0.3118
 1387SOL     OW15793   1.057   0.250   2.354 -0.1704  0.3489  0.4120
 1387SOL    HW115794   1.072   0.328   2.407  0.4344 -0.0338  0.8023
 1387SOL    HW215795   1.048   0.296   2.270  0.1670  0.2342  0.3116
 1388SOL     OW15796   3.729   4.033   5.971  0.5040  0.2312 -0.3528
 1388SOL    HW115797   3.696   4.056   6.058  1.8039  1.7580 -0.2535
 1388SOL    HW215798   3.823   4.045   5.984 -0.1724  3.1879  1.7826
 1389SOL     OW15799   3.144   0.592   7.317  0.1594  0.2745  0.1870
 1389SOL    HW115800   3.087   0.514   7.318  1.8968 -0.9695  1.6070
 1389SOL    HW215801   3.130   0.617   7.408  3.2452  1.1821  0.4147
 1390SOL     OW15802   3.552   1.658  10.618  0.1420  0.2749 -0.1688
 1390SOL    HW115803   3.457   1.654  10.611  0.1342  0.0074  0.0973
 1390SOL    HW215804   3.570   1.567  10.593  0.2648  0.1643  0.3273
 1391SOL     OW15805   1.921   3.052  15.077  0.4418  0.1278  0.0564
 1391SOL    HW115806   1.925   3.126  15.137  1.2877 -0.4786  0.7440
 1391SOL    HW215807   1.958   3.090  14.998  1.0975 -0.5734  0.0293
 1392SOL     OW15808   3.110   4.070   4.542 -0.5822  0.3940  0.3019
 1392SOL    HW115809   3.079   4.041   4.456  0.5080 -2.0632  0.7492
 1392SOL    HW215810   3.027   4.078   4.588 -0.6210 -0.9489  0.4738
 1393SOL     OW15811   2.902   2.915  15.258 -0.3412  0.2146 -0.2392
 1393SOL    HW115812   2.814   2.904  15.294 -0.0049  2.4837  1.2619
 1393SOL    HW215813   2.901   3.003  15.221  2.0154  0.3753  0.0823
 1394SOL     OW15814   2.752   4.588   5.157  0.6829 -0.5069 -0.1793
 1394SOL    HW115815   2.763   4.593   5.062  1.4399  0.7077 -0.0271
 1394SOL    HW215816   2.755   4.679   5.187 -3.8925  0.0411 -1.2591
 1395SOL     OW15817   2.143   2.270   8.759 -0.3356 -0.7741  0.0119
 1395SOL    HW115818   2.218   2.239   8.709 -0.9488 -0.0081 -1.3920
 1395SOL    HW215819   2.075   2.237   8.700 -0.8045 -1.0576  0.7066
 1396SOL     OW15820   0.604   1.461  14.560  0.1372  0.8784 -0.1340
 1396SOL    HW115821   0.697   1.482  14.568  0.2463 -1.0128  3.3521
 1396SOL    HW215822   0.570   1.540  14.516 -2.2203 -0.5931 -0.9252
 1397SOL     OW15823   1.684   0.430   6.398 -0.0354  0.0483  0.6009
 1397SOL    HW115824   1.653   0.493   6.334 -0.2246 -1.0997 -0.4495
 1397SOL    HW215825   1.624   0.445   6.471 -1.3882 -1.0932 -0.2643
 1398SOL     OW15826   1.160   1.429   5.178  0.4105  0.3397 -0.3003
 1398SOL    HW115827   1.110   1.506   5.149 -0.7312 -0.5590 -0.7348
 1398SOL    HW215828   1.094   1.363   5.153 -0.8415  0.8141  1.7328
 1399SOL     OW15829   2.424   0.752   4.108  0.0521 -0.0951  0.0658
 1399SOL    HW115830   2.352   0.767   4.048  0.7356  1.9624 -0.2362
 1399SOL    HW215831   2.410   0.662   4.137  2.7192 -0.5848 -0.1390
 1400SOL     OW15832   0.980   1.482   7.076 -0.2774  0.4210  0.3186
 1400SOL    HW115833   0.988   1.415   7.009  0.7812  1.1154 -0.2453
 1400SOL    HW215834   1.068   1.520   7.082  0.1212 -0.0989 -2.2866
 1401SOL     OW15835   0.893   1.583   5.671  0.5899  0.0288 -0.3598
 1401SOL    HW115836   0.928   1.500   5.703  1.6964  0.2978 -0.8898
 1401SOL    HW215837   0.916   1.586   5.578  0.4604  1.2133 -0.3574
 1402SOL     OW15838   3.675   2.530  10.090  0.0692 -0.3146 -0.0058
 1402SOL    HW115839   3.589   2.493  10.110  0.1866  0.0434  1.1901
 1402SOL    HW215840   3.658   2.620  10.118 -1.6553 -0.7051  0.2088
 1403SOL     OW15841   3.087   2.251   7.502 -0.1278 -0.4662 -0.2533
 1403SOL    HW115842   3.179   2.277   7.514 -0.8853  2.5124 -0.7827
 1403SOL    HW215843   3.097   2.157   7.491 -0.1115 -0.5090  0.1381
 1404SOL     OW15844   1.649   0.268   6.182  0.2940  0.2902  0.3086
 1404SOL    HW115845   1.734   0.270   6.136  1.6640 -0.9413  2.7850
 1404SOL    HW215846   1.667   0.322   6.259 -0.9952  1.5681 -0.2914
 1405SOL     OW15847   2.625   1.559   3.287  0.0549 -0.4212  0.2382
 1405SOL    HW115848   2.684   1.572   3.362 -1.3674  0.8532  1.1364
 1405SOL    HW215849   2.547   1.516   3.323 -1.9476  1.3018 -2.1138
 1406SOL     OW15850   4.558   0.227   2.934 -0.4478  0.1698  0.3141
 1406SOL    HW115851   4.516   0.242   2.849 -1.2437 -0.0711  0.6625
 1406SOL    HW215852   4.637   0.281   2.923 -0.6320  0.2414 -0.6469
 1407SOL     OW15853   3.592   3.122   2.844  0.2935  0.0683  0.3601
 1407SOL    HW115854   3.564   3.060   2.776 -0.4265 -0.8769  1.5197
 1407SOL    HW215855   3.612   3.202   2.795 -2.2484  0.3778 -0.2012
 1408SOL     OW15856   1.198   2.697  12.275  0.1151  0.3923 -0.1558
 1408SOL    HW115857   1.269   2.683  12.212  0.0571  0.6350 -0.2762
 1408SOL    HW215858   1.209   2.785  12.311  1.4180  0.6512 -1.1923
 1409SOL     OW15859   1.124   3.293   1.615  0.8069  0.0447 -0.4498
 1409SOL    HW115860   1.085   3.337   1.691  1.1057 -0.8302  0.2109
 1409SOL    HW215861   1.054   3.230   1.606 -0.1129  1.2489 -1.6656
 1410SOL     OW15862   0.865   2.361  15.394 -0.0277  0.3527  0.4545
 1410SOL    HW115863   0.771   2.378  15.391  0.1163  0.8281 -1.5806
 1410SOL    HW215864   0.893   2.418  15.322  1.6884 -1.3275 -0.1994
 1411SOL     OW15865   4.568   2.109   2.954 -0.0233  0.2243 -0.1704
 1411SOL    HW115866   4.579   2.020   2.987  0.4289  0.2426 -0.2685
 1411SOL    HW215867   4.650   2.155   2.970 -0.7968  1.5174  0.0233
 1412SOL     OW15868   0.747   0.175   2.324 -0.4419  0.1529 -0.2908
 1412SOL    HW115869   0.835   0.144   2.344 -0.2356  0.8436 -0.1252
 1412SOL    HW215870   0.766   0.238   2.255  0.1123  1.3771  0.9712
 1413SOL     OW15871   1.626   1.880  15.377 -0.2167  0.2335  0.4938
 1413SOL    HW115872   1.643   1.817  15.447  3.7467 -1.3739 -1.9897
 1413SOL    HW215873   1.535   1.901  15.400 -1.0520  0.3133 -2.9565
 1414SOL     OW15874   2.912   1.363   6.713 -0.3433  0.0604 -0.4991
 1414SOL    HW115875   2.859   1.286   6.691  0.9983 -0.5439 -1.6057
 1414SOL    HW215876   2.999   1.325   6.729 -0.0819  1.4957  1.5897
 1415SOL     OW15877   3.571   2.748   5.478 -0.1636  0.2780  0.6018
 1415SOL    HW115878   3.544   2.796   5.400 -0.1234  0.2463  0.5679
 1415SOL    HW215879   3.626   2.677   5.444 -0.7375 -1.0892  2.5788
 1416SOL     OW15880   1.912   0.317   2.380 -0.0783 -0.1620  0.5363
 1416SOL    HW115881   1.908   0.251   2.449 -0.2916 -1.8788 -1.1023
 1416SOL    HW215882   1.827   0.360   2.376  0.9026  1.8081  1.0406
 1417SOL     OW15883   2.906   2.673   1.075 -0.0660  0.3913 -0.1198
 1417SOL    HW115884   2.900   2.755   1.125  0.1780  0.3953 -0.0971
 1417SOL    HW215885   2.815   2.650   1.056 -0.1387  0.3586  0.2829
 1418SOL     OW15886   2.794   4.279  11.884 -0.2766  0.2801 -0.0521
 1418SOL    HW115887   2.772   4.186  11.874 -1.6211  0.3719  1.9820
 1418SOL    HW215888   2.814   4.286  11.978 -0.9916 -0.0922  0.1294
 1419SOL     OW15889   4.613   4.732  15.500 -0.3931  0.1508  0.5193
 1419SOL    HW115890   4.695   4.736  15.550 -0.6718 -1.5961  1.1082
 1419SOL    HW215891   4.580   4.644  15.518  0.4295 -0.3669 -0.5096
 1420SOL     OW15892   1.606   0.659   3.831  0.2225 -0.6329  0.3344
 1420SOL    HW115893   1.622   0.693   3.919 -0.6661 -0.9705  0.6261
 1420SOL    HW215894   1.671   0.710   3.783  0.1433  0.2868  1.1966
 1421SOL     OW15895   3.690   0.653   3.116  0.0151 -0.0475 -0.4882
 1421SOL    HW115896   3.669   0.746   3.124 -0.8287 -0.2477 -0.3965
 1421SOL    HW215897   3.607   0.632   3.073  0.5443 -1.4959 -0.8109
 1422SOL     OW15898   1.918   0.026   4.165 -0.6764  0.3384 -0.1349
 1422SOL    HW115899   1.879   4.709   4.097  0.5035 -2.7857  1.7465
 1422SOL    HW215900   1.950   4.690   4.216 -0.1349  0.3123 -0.5125
 1423SOL     OW15901   4.190   2.867   5.033 -0.6610  0.1197  0.0610
 1423SOL    HW115902   4.253   2.936   5.015  1.7404 -1.9100  0.6047
 1423SOL    HW215903   4.225   2.830   5.114 -0.2704 -0.2756 -0.2862
 1424SOL     OW15904   4.601   1.082   9.384 -0.0772  0.0709 -0.4974
 1424SOL    HW115905   4.616   1.135   9.305 -0.5796 -0.1980 -0.7705
 1424SOL    HW215906   4.642   1.130   9.456  0.5999  0.0910 -0.8941
 1425SOL     OW15907   4.691   1.675   6.556  0.1000 -0.0718 -0.2430
 1425SOL    HW115908   4.626   1.724   6.607  2.0942  1.8043  0.5115
 1425SOL    HW215909   4.724   1.617   6.625 -0.8169 -0.5752 -0.2159
 1426SOL     OW15910   4.152   4.451   3.752  0.2225 -0.3306  0.3527
 1426SOL    HW115911   4.192   4.365   3.763  0.9305 -0.2139 -1.2946
 1426SOL    HW215912   4.115   4.462   3.840 -0.7735  1.5540 -0.3027
 1427SOL     OW15913   3.989   2.283   3.296  0.1487 -0.6892  0.3134
 1427SOL    HW115914   4.019   2.353   3.355  0.3816 -0.3083 -0.2593
 1427SOL    HW215915   3.946   2.336   3.229  0.3924 -0.8617  0.0241
 1428SOL     OW15916   2.064   2.959   6.538 -0.5167 -0.6750  0.3809
 1428SOL    HW115917   2.128   3.029   6.549 -0.8856 -0.3324  0.3112
 1428SOL    HW215918   1.990   3.011   6.510  0.2526  0.8372  1.1906
 1429SOL     OW15919   4.158   3.289   3.460  0.2980 -0.3380  0.4250
 1429SOL    HW115920   4.225   3.277   3.528  0.8884 -1.1089 -0.2977
 1429SOL    HW215921   4.208   3.336   3.394  1.9002 -1.9627  0.4835
 1430SOL     OW15922   0.796   3.058   8.802  0.5584 -0.6336  0.6801
 1430SOL    HW115923   0.879   3.014   8.783  1.2582 -0.1450  2.5498
 1430SOL    HW215924   0.738   2.988   8.830  1.2123 -2.1086 -1.6884
 1431SOL     OW15925   0.881   1.995   3.522  0.7315  0.2529 -0.1538
 1431SOL    HW115926   0.955   1.986   3.462  1.2961  0.5530  0.5058
 1431SOL    HW215927   0.867   1.903   3.545  0.1114  0.5155  0.4984
 1432SOL     OW15928   2.298   1.713   2.119 -0.1194  0.1234  0.0372
 1432SOL    HW115929   2.257   1.682   2.201  0.2841 -1.9558 -0.5398
 1432SOL    HW215930   2.336   1.795   2.150  0.8569 -0.9653  1.7542
 1433SOL     OW15931   4.012   1.080   6.280 -0.6469  0.1319  0.1113
 1433SOL    HW115932   3.920   1.079   6.255 -0.7475  0.7441  0.4659
 1433SOL    HW215933   4.020   1.167   6.319 -0.7296  1.1403 -2.1516
 1434SOL     OW15934   3.592   2.009   2.587  0.0989 -0.5338  0.6522
 1434SOL    HW115935   3.656   1.962   2.640  0.4392  0.0180  0.7216
 1434SOL    HW215936   3.577   2.091   2.633  0.2039 -1.4007  2.2557
 1435SOL     OW15937   4.109   0.346  10.746  0.2772 -0.3464 -0.3486
 1435SOL    HW115938   4.049   0.365  10.819  0.8017 -1.4642  0.3722
 1435SOL    HW215939   4.106   0.251  10.749  0.8470 -0.3870 -1.0461
 1436SOL     OW15940   3.634   2.442  16.721 -0.3030 -0.1002  0.5733
 1436SOL    HW115941   3.611   2.357  16.686  1.4219 -1.0251  1.6576
 1436SOL    HW215942   3.705   2.451  16.658 -1.7916 -0.1265 -1.0941
 1437SOL     OW15943   3.312   3.765  17.108 -0.0667 -0.7753  0.5351
 1437SOL    HW115944   3.298   3.749  17.015 -0.3385  2.8303 -0.0362
 1437SOL    HW215945   3.223   3.796  17.125 -1.3524 -4.6597  0.8940
 1438SOL     OW15946   3.159   0.660   8.881 -0.3833  0.2759  0.0593
 1438SOL    HW115947   3.176   0.598   8.952 -0.7190  0.2197  0.0889
 1438SOL    HW215948   3.242   0.707   8.892  0.1056 -0.4567 -0.4820
 1439SOL     OW15949   0.303   3.363  11.138 -0.2817  0.2258  1.3150
 1439SOL    HW115950   0.386   3.316  11.130  0.0242  0.7301  1.4748
 1439SOL    HW215951   0.338   3.444  11.176  1.6973  0.4320 -0.9131
 1440SOL     OW15952   3.802   4.238   6.268 -0.3667  0.0289 -0.2492
 1440SOL    HW115953   3.888   4.196   6.281 -0.6205 -0.3198  0.2775
 1440SOL    HW215954   3.750   4.159   6.279  1.0644 -0.7466  0.9656
 1441SOL     OW15955   1.162   2.562   8.690  0.4942  0.0334  0.3679
 1441SOL    HW115956   1.195   2.618   8.621  2.0296 -0.2630  0.8738
 1441SOL    HW215957   1.210   2.605   8.761 -0.5281  0.8745  0.5492
 1442SOL     OW15958   2.161   0.013  15.315  1.1430 -0.2818 -0.1316
 1442SOL    HW115959   2.114   0.071  15.255 -1.3642 -1.0665  1.0768
 1442SOL    HW215960   2.234   0.055  15.360  0.0847  1.9782 -0.5103
 1443SOL     OW15961   3.468   4.243   1.301 -0.0129 -0.5502 -0.3599
 1443SOL    HW115962   3.393   4.299   1.282  0.1136 -0.6545 -1.1451
 1443SOL    HW215963   3.522   4.249   1.223 -0.2034 -0.4833 -0.4868
 1444SOL     OW15964   4.495   3.116   5.700  0.0594  0.1897  0.5717
 1444SOL    HW115965   4.572   3.162   5.732 -0.3894  0.4970  1.1969
 1444SOL    HW215966   4.452   3.185   5.650 -0.8703 -0.4390  0.5040
 1445SOL     OW15967   1.390   3.510   7.609  0.0197  0.2064  0.3044
 1445SOL    HW115968   1.454   3.534   7.676 -0.9078  0.2543  1.1744
 1445SOL    HW215969   1.396   3.415   7.603  2.0225  0.2909  1.1157
 1446SOL     OW15970   0.387   4.714  12.312  0.1968  0.5477  0.3626
 1446SOL    HW115971   0.475   4.700  12.346 -0.8202 -1.5710  2.1104
 1446SOL    HW215972   0.338   0.006  12.389 -2.5254  2.0791 -1.9787
 1447SOL     OW15973   2.316   0.770  13.691 -0.2720 -0.2633  0.7178
 1447SOL    HW115974   2.294   0.799  13.780 -1.1854  1.9325 -0.2037
 1447SOL    HW215975   2.268   0.837  13.642 -0.5568 -1.1196 -0.1620
 1448SOL     OW15976   1.054   4.680   1.937 -0.3456 -0.4933 -0.2471
 1448SOL    HW115977   1.078   0.023   1.982 -2.7230  0.7806 -1.2647
 1448SOL    HW215978   0.961   4.699   1.929 -0.1708  0.9451  1.2278
 1449SOL     OW15979   2.598   3.279  17.729 -0.6001  0.0698  0.4133
 1449SOL    HW115980   2.689   3.293  17.702 -0.6706  2.9278  1.6323
 1449SOL    HW215981   2.604   3.187   0.008  2.3114 -0.2197 -1.2255
 1450SOL     OW15982   2.518   0.429  13.939 -0.4398  0.2940 -0.2818
 1450SOL    HW115983   2.614   0.429  13.936 -0.5032  0.2594 -2.3165
 1450SOL    HW215984   2.503   0.458  13.849  0.0247 -1.5320 -0.9545
 1451SOL     OW15985   1.421   3.128  10.610 -0.2634 -0.0471  0.4725
 1451SOL    HW115986   1.373   3.046  10.624  0.7427 -1.0345 -1.8030
 1451SOL    HW215987   1.509   3.092  10.596 -0.4373 -0.8606  1.4382
 1452SOL     OW15988   3.328   0.450  10.434 -0.4587  0.5245 -0.1012
 1452SOL    HW115989   3.275   0.441  10.513 -2.2020 -1.8885 -1.5226
 1452SOL    HW215990   3.276   0.387  10.383  0.9759  1.9225 -3.3017
 1453SOL     OW15991   1.927   4.498  16.577  0.1528 -0.0939 -1.0274
 1453SOL    HW115992   1.863   4.521  16.509 -0.7323  0.3197 -0.0536
 1453SOL    HW215993   2.004   4.494  16.521 -0.7497  2.4440 -2.4565
 1454SOL     OW15994   0.874   3.641  16.092  0.0519 -0.4214 -0.0039
 1454SOL    HW115995   0.810   3.694  16.045  0.6703  2.0589  1.9166
 1454SOL    HW215996   0.884   3.702  16.166  1.6386  0.4739 -0.9448
 1455SOL     OW15997   0.779   2.447   6.053  0.2022  0.0709  0.1408
 1455SOL    HW115998   0.690   2.446   6.088  0.1994 -1.1287  0.0914
 1455SOL    HW215999   0.786   2.353   6.037  2.8860  0.5833 -1.7530
 1456SOL     OW16000   0.336   1.994   8.379  0.9093 -0.1164  0.6705
 1456SOL    HW116001   0.251   1.964   8.409  0.9633  0.7571  1.6808
 1456SOL    HW216002   0.387   1.914   8.368 -0.8907 -1.0772 -0.7350
 1457SOL     OW16003   3.423   1.855   6.627  0.4114 -0.9516 -0.0707
 1457SOL    HW116004   3.420   1.763   6.602 -3.4058 -0.1081 -2.6508
 1457SOL    HW216005   3.464   1.857   6.714 -2.3634  0.7841  1.2078
 1458SOL     OW16006   0.796   4.245  15.722 -1.0701  0.3865 -0.7388
 1458SOL    HW116007   0.768   4.172  15.778 -2.1099  1.6821  0.4425
 1458SOL    HW216008   0.839   4.304  15.783 -0.0368 -0.8572 -0.2561
 1459SOL     OW16009   4.070   2.411   1.625 -0.4597 -0.0528 -0.0572
 1459SOL    HW116010   4.047   2.490   1.575 -0.4701  0.9344  1.5299
 1459SOL    HW216011   4.125   2.362   1.563 -0.0836 -0.8541  0.9223
 1460SOL     OW16012   4.278   0.314  10.539 -0.5770 -1.0666  0.1583
 1460SOL    HW116013   4.273   0.389  10.479  1.0970 -1.5952 -0.6484
 1460SOL    HW216014   4.211   0.333  10.604 -1.7129 -0.5263 -1.1748
 1461SOL     OW16015   3.856   2.483  17.267  0.2231 -0.1769 -0.1719
 1461SOL    HW116016   3.870   2.453  17.177  1.2838 -1.2816  0.3449
 1461SOL    HW216017   3.781   2.540  17.258  0.1618  0.0057  1.5221
 1462SOL     OW16018   4.636   2.024  10.459  0.1012 -0.8034 -0.1711
 1462SOL    HW116019   4.564   2.017  10.522  0.6882 -0.2289  0.5754
 1462SOL    HW216020   4.713   2.034  10.516 -0.5103 -1.0559  0.6930
 1463SOL     OW16021   1.348   2.993   6.240  0.3933 -0.5746  0.2289
 1463SOL    HW116022   1.281   3.053   6.208 -0.3357 -2.6277 -2.0890
 1463SOL    HW216023   1.387   2.959   6.159  0.1944  1.3484 -0.6618
 1464SOL     OW16024   1.186   2.587   6.736  0.0248  0.0390  0.8743
 1464SOL    HW116025   1.135   2.570   6.656  1.8904 -0.6287 -0.1619
 1464SOL    HW216026   1.258   2.525   6.746 -1.4408 -1.7030  0.6078
 1465SOL     OW16027   0.908   3.139   2.455  0.0104 -0.0739 -0.4808
 1465SOL    HW116028   0.857   3.201   2.403  0.1622 -0.7110 -1.3821
 1465SOL    HW216029   0.870   3.158   2.541  0.8492 -0.4762 -0.0273
 1466SOL     OW16030   0.760   2.502   2.851  0.2583 -0.1522 -0.3001
 1466SOL    HW116031   0.690   2.455   2.897  0.3971 -0.7529 -0.7074
 1466SOL    HW216032   0.829   2.498   2.917 -3.0589 -1.4574  3.1352
 1467SOL     OW16033   2.948   2.224   2.370  0.0792 -0.6977 -0.2019
 1467SOL    HW116034   2.934   2.256   2.460  4.7463  0.1941  0.2050
 1467SOL    HW216035   3.015   2.156   2.371  0.0522 -0.7064  1.2513
 1468SOL     OW16036   1.130   3.772   4.669  0.3145 -0.0896 -0.8012
 1468SOL    HW116037   1.218   3.798   4.699 -1.4282  2.8258  1.8684
 1468SOL    HW216038   1.147   3.711   4.597  1.3007  0.4571 -1.0437
 1469SOL     OW16039   0.797   4.372   9.002 -0.3150  0.0003 -0.6442
 1469SOL    HW116040   0.882   4.330   8.996  0.6318  1.6539  0.8819
 1469SOL    HW216041   0.738   4.307   9.039  0.1439  0.1528  0.3833
 1470SOL     OW16042   0.662   2.852  16.411  0.3661  0.4817 -0.0780
 1470SOL    HW116043   0.733   2.914  16.393 -1.9336  2.8211 -1.2274
 1470SOL    HW216044   0.667   2.836  16.505 -3.2550  0.1896  0.0731
 1471SOL     OW16045   1.659   4.728  17.661  0.0464  0.0417 -0.2014
 1471SOL    HW116046   1.729   4.675  17.698 -1.2124 -1.4422  0.0269
 1471SOL    HW216047   1.625   0.051  17.727  0.7721  1.3666 -1.0362
 1472SOL     OW16048   0.284   0.336   2.986 -0.4613  0.6369 -0.0648
 1472SOL    HW116049   0.272   0.241   2.994 -1.8225  0.8495  0.4142
 1472SOL    HW216050   0.213   0.369   3.041  0.3461  3.1812 -0.5728
 1473SOL     OW16051   1.483   0.553   9.585 -0.1415  0.0108  0.0386
 1473SOL    HW116052   1.549   0.580   9.521  0.0534  1.4511  0.8529
 1473SOL    HW216053   1.507   0.621   9.647 -1.3941  0.1273  0.3985
 1474SOL     OW16054   2.897   0.101   3.710 -0.5008 -0.2399  0.2075
 1474SOL    HW116055   2.938   0.050   3.640 -1.0964  2.1530 -1.8653
 1474SOL    HW216056   2.827   0.154   3.673 -0.3201 -0.6666 -0.7417
 1475SOL     OW16057   4.183   4.410   4.391 -0.0349  0.0414 -0.1975
 1475SOL    HW116058   4.179   4.367   4.306 -0.5115  0.9773 -0.6486
 1475SOL    HW216059   4.255   4.362   4.431  1.0525  2.2415  0.4717
 1476SOL     OW16060   0.111   3.327   4.571  0.1522 -0.2772  0.0056
 1476SOL    HW116061   0.162   3.249   4.548  1.5095  0.4249  0.6709
 1476SOL    HW216062   0.132   3.343   4.663 -1.8739  4.2034 -0.2991
 1477SOL     OW16063   0.361   4.562   5.625 -0.3346  0.8121  0.0581
 1477SOL    HW116064   0.328   4.504   5.557  3.1515  3.3536 -3.8029
 1477SOL    HW216065   0.407   4.622   5.566 -1.7982  1.0231 -0.8696
 1478SOL     OW16066   2.654   3.056  11.166 -0.2994 -0.0464 -0.3589
 1478SOL    HW116067   2.684   3.058  11.076  0.1581  2.1781 -0.1528
 1478SOL    HW216068   2.735   3.041  11.213  1.3111  3.4378 -2.0216
 1479SOL     OW16069   2.244   3.806   7.424 -0.0953 -0.1697 -0.2244
 1479SOL    HW116070   2.317   3.867   7.436 -1.2533  0.7048  2.2224
 1479SOL    HW216071   2.245   3.806   7.328 -0.7953  1.0594 -0.2372
 1480SOL     OW16072   2.331   0.669   8.021  0.1247  0.1986 -0.6192
 1480SOL    HW116073   2.263   0.686   8.086  1.2773  0.6723  0.4629
 1480SOL    HW216074   2.315   0.578   7.996 -0.1321 -0.0008  0.2638
 1481SOL     OW16075   3.043   2.391   4.165  0.0828  0.4108 -0.0028
 1481SOL    HW116076   2.947   2.389   4.172  0.0380  0.3586 -0.5994
 1481SOL    HW216077   3.051   2.423   4.075  1.4013 -0.8006 -0.3182
 1482SOL     OW16078   2.167   2.916   5.066 -0.4213 -0.0289  0.0633
 1482SOL    HW116079   2.088   2.960   5.096 -1.4894 -2.1216  0.2931
 1482SOL    HW216080   2.188   2.858   5.139 -1.1753 -0.5587 -0.1446
 1483SOL     OW16081   2.253   0.843   3.927  0.3269  0.1025  0.1954
 1483SOL    HW116082   2.159   0.826   3.920  0.3377 -0.1051  0.5678
 1483SOL    HW216083   2.258   0.932   3.891 -2.4152  0.7467  1.3798
 1484SOL     OW16084   1.499   1.315  10.622  0.1962  0.4810 -0.2663
 1484SOL    HW116085   1.592   1.312  10.643  0.7644  4.2915 -2.3099
 1484SOL    HW216086   1.466   1.326  10.711 -1.7560  2.7716 -1.2691
 1485SOL     OW16087   4.398   3.163   2.327 -0.3765  0.5751  0.9737
 1485SOL    HW116088   4.422   3.073   2.352 -1.0819  0.3610  0.8620
 1485SOL    HW216089   4.333   3.186   2.392 -0.0862  0.9852  1.1214
 1486SOL     OW16090   3.333   1.479   8.200 -0.0078 -0.3460  0.1156
 1486SOL    HW116091   3.400   1.431   8.249  2.6249  0.2283 -2.9838
 1486SOL    HW216092   3.331   1.420   8.125  2.6402 -1.3866  0.8750
 1487SOL     OW16093   0.852   2.689   7.042  0.2002 -0.0774  0.5687
 1487SOL    HW116094   0.866   2.774   7.002  0.3056  0.4404  1.7168
 1487SOL    HW216095   0.937   2.645   7.033  0.0637 -0.1162 -0.5856
 1488SOL     OW16096   3.779   3.438  11.484 -0.4314  0.5573  0.2764
 1488SOL    HW116097   3.719   3.371  11.450 -1.7116  2.4385 -1.1554
 1488SOL    HW216098   3.732   3.516  11.456 -0.4541 -0.4741 -2.5417
 1489SOL     OW16099   2.028   3.544   2.908 -0.3382 -0.1765 -0.0493
 1489SOL    HW116100   1.956   3.607   2.907  0.8854  1.2220  0.8023
 1489SOL    HW216101   2.057   3.545   2.817  0.9569 -0.9959  0.3597
 1490SOL     OW16102   2.356   2.992   1.925 -0.1744  0.4357  0.0077
 1490SOL    HW116103   2.347   2.957   2.013  0.8917 -0.7877 -0.3796
 1490SOL    HW216104   2.287   3.058   1.916 -1.1514 -0.3498  1.8103
 1491SOL     OW16105   3.599   0.071   8.353 -0.0966 -0.1197  0.3525
 1491SOL    HW116106   3.516   0.119   8.351 -0.4765 -0.7735  0.3078
 1491SOL    HW216107   3.623   0.084   8.261  0.1362  0.9769  0.5683
 1492SOL     OW16108   1.916   4.637   8.287  0.3234 -0.0985 -0.2013
 1492SOL    HW116109   1.836   4.595   8.319 -1.1782  1.1203 -2.4016
 1492SOL    HW216110   1.899   4.728   8.310 -0.1935 -0.0686 -0.7126
 1493SOL     OW16111   0.485   2.863   1.574  0.4397 -0.5527 -0.3583
 1493SOL    HW116112   0.451   2.790   1.625  3.0120 -0.3214  1.6834
 1493SOL    HW216113   0.462   2.940   1.626  4.4714  0.5299 -0.1640
 1494SOL     OW16114   1.889   1.612  10.471 -0.0564  0.3112  0.0535
 1494SOL    HW116115   1.810   1.610  10.417 -0.9881 -1.1217  1.4703
 1494SOL    HW216116   1.919   1.696  10.435  0.0393  0.6032  0.8057
 1495SOL     OW16117   0.271   2.269   7.146  0.2184 -0.5019 -0.0913
 1495SOL    HW116118   0.232   2.348   7.106 -1.3061 -0.0261  2.3442
 1495SOL    HW216119   0.272   2.293   7.239  0.7690  2.3289 -0.8121
 1496SOL     OW16120   1.824   0.970   6.486  0.3415 -0.6419  0.2474
 1496SOL    HW116121   1.808   0.999   6.397 -0.7303 -0.0309  0.6421
 1496SOL    HW216122   1.891   0.902   6.483  0.2049 -0.8517  1.7819
 1497SOL     OW16123   1.359   3.421   8.619  0.2426  0.5171 -0.0374
 1497SOL    HW116124   1.306   3.494   8.589 -0.9179 -0.4106 -0.2509
 1497SOL    HW216125   1.404   3.462   8.693  0.3359  2.8692 -1.4124
 1498SOL     OW16126   0.999   1.064   3.643 -0.1822 -0.7060 -0.3466
 1498SOL    HW116127   1.027   1.149   3.677  0.5887 -1.1783  0.2314
 1498SOL    HW216128   0.904   1.072   3.641 -0.0284  0.4534 -2.1335
 1499SOL     OW16129   2.396   0.082   2.908  0.3207 -0.1031  0.2470
 1499SOL    HW116130   2.479   0.035   2.921  0.8545  0.4851 -1.1365
 1499SOL    HW216131   2.339   0.009   2.883 -0.7441  1.0612 -0.7651
 1500SOL     OW16132   3.323   2.676   1.566 -0.2511  0.5226  0.2180
 1500SOL    HW116133   3.341   2.583   1.574 -1.7759 -0.0095 -2.2797
 1500SOL    HW216134   3.339   2.716   1.651 -0.1932  2.0427 -0.4907
 1501SOL     OW16135   2.128   1.733   3.756  0.9632  0.2994  0.2080
 1501SOL    HW116136   2.042   1.748   3.795 -0.0021 -1.4271 -1.2980
 1501SOL    HW216137   2.182   1.722   3.835  2.2956 -0.9292 -0.8730
 1502SOL     OW16138   0.285   4.681  14.966  0.0501 -0.1232  0.9471
 1502SOL    HW116139   0.321   0.029  14.987 -2.0144  0.8333  0.6437
 1502SOL    HW216140   0.219   4.665  15.033 -0.8035  1.1781  0.4112
 1503SOL     OW16141   0.931   2.555  15.852 -0.1147 -0.2808 -0.5288
 1503SOL    HW116142   0.942   2.503  15.773 -3.0624 -1.2835 -0.2600
 1503SOL    HW216143   0.962   2.486  15.910  0.5285  0.6856  0.2818
 1504SOL     OW16144   3.576   1.283   2.368  0.2110 -0.7111  0.6624
 1504SOL    HW116145   3.554   1.269   2.276  1.3081 -0.1897  0.3268
 1504SOL    HW216146   3.669   1.295   2.350  0.0808 -0.6571  0.0383
 1505SOL     OW16147   3.823   3.540   2.139 -0.0690  0.1030 -0.5356
 1505SOL    HW116148   3.829   3.636   2.142 -0.0449  0.0713  0.4714
 1505SOL    HW216149   3.886   3.519   2.070 -0.4952 -0.2491 -0.8165
 1506SOL     OW16150   3.640   0.498   3.650  0.7820  0.4407 -0.0824
 1506SOL    HW116151   3.563   0.544   3.619  0.4244 -1.0391 -1.4294
 1506SOL    HW216152   3.608   0.416   3.687 -1.4425  0.9258 -0.9664
 1507SOL     OW16153   2.589   3.184   7.507 -0.2055 -0.1266 -0.2225
 1507SOL    HW116154   2.651   3.166   7.578 -0.7471  0.9628  0.5133
 1507SOL    HW216155   2.505   3.153   7.541 -0.0934  0.4914  0.6089
 1508SOL     OW16156   0.763   0.090   1.823  0.8325  0.1242  0.1937
 1508SOL    HW116157   0.789   0.039   1.747 -0.5040  1.8463 -1.4220
 1508SOL    HW216158   0.808   0.169   1.792  2.0362 -1.1422 -1.2647
 1509SOL     OW16159   0.350   2.187   3.832  0.0417 -0.3838 -0.4860
 1509SOL    HW116160   0.286   2.133   3.878  0.7343 -0.7532  0.0611
 1509SOL    HW216161   0.427   2.164   3.885 -0.7224 -3.2975 -0.6137
 1510SOL     OW16162   3.682   0.987   2.820 -0.1568 -0.0238 -0.2186
 1510SOL    HW116163   3.677   1.020   2.730 -2.7343  0.4037  0.0974
 1510SOL    HW216164   3.775   0.968   2.835 -0.1257  0.5466  0.3346
 1511SOL     OW16165   1.401   4.378   3.937 -0.9287 -0.2928 -0.0732
 1511SOL    HW116166   1.491   4.356   3.957 -0.4113  0.2933 -1.7395
 1511SOL    HW216167   1.403   4.366   3.842 -1.7078  0.6994 -0.2259
 1512SOL     OW16168   1.162   2.923   6.775  0.4625  0.4852 -0.1055
 1512SOL    HW116169   1.083   2.880   6.742  1.3582 -0.1475 -1.4457
 1512SOL    HW216170   1.219   2.846   6.780 -0.5919 -0.2922 -0.0547
 1513SOL     OW16171   3.509   1.946  10.136 -0.6571 -0.3771 -0.5501
 1513SOL    HW116172   3.499   1.866  10.187  0.7702  0.4333  0.9925
 1513SOL    HW216173   3.428   1.932  10.087 -0.6285 -1.2930 -0.3369
 1514SOL     OW16174   1.992   4.240   3.363  0.1664 -0.5870  0.2959
 1514SOL    HW116175   2.044   4.181   3.308 -0.5614 -0.2423 -0.7595
 1514SOL    HW216176   1.914   4.244   3.309 -0.3820  2.0434  1.2881
 1515SOL     OW16177   2.642   3.919   4.158 -0.1131  0.1217 -0.3986
 1515SOL    HW116178   2.706   3.855   4.128  0.5964  0.6417  0.0004
 1515SOL    HW216179   2.685   3.933   4.243 -0.2450 -1.9601 -0.0032
 1516SOL     OW16180   2.935   1.553  11.211  0.3082  0.0630  0.1091
 1516SOL    HW116181   2.975   1.575  11.296 -0.1857 -1.1199  0.6580
 1516SOL    HW216182   2.978   1.617  11.155  0.8364  1.0652  1.6378
 1517SOL     OW16183   2.829   0.747   4.611  0.4921 -0.1539  0.3386
 1517SOL    HW116184   2.798   0.738   4.701  1.4657  0.8357  0.7754
 1517SOL    HW216185   2.871   0.833   4.621  1.7539 -0.6885 -0.3582
 1518SOL     OW16186   3.772   1.092   3.305  0.2929 -0.0761 -0.4815
 1518SOL    HW116187   3.695   1.111   3.252 -0.5874  0.5921  1.0635
 1518SOL    HW216188   3.725   1.046   3.373  0.5397  0.8678  0.3314
 1519SOL     OW16189   4.371   1.281   9.386 -0.5907 -0.2083 -0.1337
 1519SOL    HW116190   4.449   1.285   9.441 -0.0300  0.5171 -0.9826
 1519SOL    HW216191   4.368   1.375   9.367 -1.3207  0.1446  1.7547
 1520SOL     OW16192   1.023   2.218  17.188 -0.1613 -0.0524  0.0725
 1520SOL    HW116193   1.021   2.266  17.271  2.7569  0.1750 -0.0098
 1520SOL    HW216194   0.963   2.267  17.131  0.5474 -0.9289 -1.4172
 1521SOL     OW16195   3.550   0.623   6.447 -0.1533  0.3229  0.0461
 1521SOL    HW116196   3.498   0.573   6.383 -0.6364 -0.0226  0.7147
 1521SOL    HW216197   3.566   0.559   6.516  0.1481  2.0367  1.5373
 1522SOL     OW16198   2.583   2.816   7.003 -0.3641 -0.2219  0.1858
 1522SOL    HW116199   2.540   2.731   7.014  1.2021 -0.9218  0.8669
 1522SOL    HW216200   2.556   2.860   7.083 -0.1262 -1.1463  0.7707
 1523SOL     OW16201   3.899   4.113   0.209 -0.2438 -0.5440 -0.1784
 1523SOL    HW116202   3.827   4.177   0.210  0.7502  0.5999 -2.0452
 1523SOL    HW216203   3.929   4.125   0.299  0.3882 -1.4465 -0.2760
 1524SOL     OW16204   3.402   2.921   1.374  0.1219 -0.3805 -0.7720
 1524SOL    HW116205   3.317   2.941   1.413  1.1031  0.2322  1.0176
 1524SOL    HW216206   3.430   2.842   1.419 -2.5131 -0.2158  1.1166
 1525SOL     OW16207   1.779   0.420   9.455 -0.0977  0.2508 -0.1723
 1525SOL    HW116208   1.780   0.360   9.530  1.4647  1.3250  0.6649
 1525SOL    HW216209   1.847   0.480   9.485 -0.8141  1.3618 -0.7697
 1526SOL     OW16210   1.200   0.666   8.001  0.7328  0.1673  0.1460
 1526SOL    HW116211   1.179   0.616   7.922 -0.7317 -1.0897  1.3673
 1526SOL    HW216212   1.295   0.676   7.989  0.5894 -1.2514 -2.0498
 1527SOL     OW16213   1.377   4.467   5.131 -0.3964  0.1818 -0.2245
 1527SOL    HW116214   1.414   4.445   5.216 -0.3582  0.1237 -0.2558
 1527SOL    HW216215   1.349   4.382   5.098  3.4725 -1.1352 -0.1198
 1528SOL     OW16216   4.591   3.970   3.972 -0.0226  0.9384  0.0879
 1528SOL    HW116217   4.686   3.979   3.966  0.0442  0.0206 -0.2016
 1528SOL    HW216218   4.589   3.893   4.028  0.5730  1.9522  1.4869
 1529SOL     OW16219   4.674   3.100   4.624  0.0619  0.4037 -0.5464
 1529SOL    HW116220   4.715   3.115   4.539 -2.5522  1.8958 -1.5215
 1529SOL    HW216221   4.586   3.078   4.594 -1.2219  0.9344  2.8668
 1530SOL     OW16222   2.779   1.957  12.964 -0.1147 -0.2826  0.0480
 1530SOL    HW116223   2.866   1.955  13.005 -0.4430  0.2983  0.7591
 1530SOL    HW216224   2.736   1.913  13.038  2.1559 -1.1563  0.8573
 1531SOL     OW16225   2.301   3.705   4.346 -0.0639  0.0884  0.6772
 1531SOL    HW116226   2.346   3.640   4.400  0.8070 -0.0504 -0.2215
 1531SOL    HW216227   2.239   3.654   4.295 -1.0247 -0.9829  2.9229
 1532SOL     OW16228   3.978   1.502   0.721 -0.2038 -0.0256 -0.5520
 1532SOL    HW116229   4.009   1.427   0.669  1.3717 -0.8960  1.6579
 1532SOL    HW216230   3.891   1.518   0.686  0.4651  2.4331 -1.0494
 1533SOL     OW16231   4.339   1.206   8.735  0.5277  0.5685  0.3254
 1533SOL    HW116232   4.265   1.161   8.776  1.7643 -0.5866  1.2597
 1533SOL    HW216233   4.306   1.293   8.711  0.5610  0.3282 -0.5989
 1534SOL     OW16234   2.436   2.638   0.773  0.5297 -0.0551 -0.2933
 1534SOL    HW116235   2.439   2.544   0.792  2.1879  0.2944  1.1828
 1534SOL    HW216236   2.396   2.663   0.857 -0.4013 -1.3123 -0.3478
 1535SOL     OW16237   3.613   1.642   0.155 -0.2164  0.5344 -0.0153
 1535SOL    HW116238   3.704   1.663   0.135 -0.3848 -0.5937 -1.9196
 1535SOL    HW216239   3.588   1.720   0.204 -3.5183 -0.0577 -0.7661
 1536SOL     OW16240   3.231   0.418  13.086 -0.4472 -0.0243 -0.3813
 1536SOL    HW116241   3.153   0.470  13.068 -0.9526 -0.5062  0.4454
 1536SOL    HW216242   3.275   0.404  13.002 -2.4362 -0.9479 -1.2473
 1537SOL     OW16243   3.289   3.527  10.190  0.0086  0.3677 -0.5573
 1537SOL    HW116244   3.238   3.591  10.140 -2.6316 -0.6750  0.7989
 1537SOL    HW216245   3.382   3.537  10.171  0.0428  1.4300  0.1542
 1538SOL     OW16246   1.419   2.459   3.294  0.0907  0.0047  0.5287
 1538SOL    HW116247   1.434   2.489   3.384 -0.8157  1.0074  0.3417
 1538SOL    HW216248   1.470   2.378   3.288 -1.7390 -1.1821  0.8118
 1539SOL     OW16249   1.601   3.626  16.321  0.2466  0.0554 -0.0042
 1539SOL    HW116250   1.594   3.693  16.388 -1.3085  0.4670 -0.6005
 1539SOL    HW216251   1.509   3.619  16.294  0.0118 -0.5063  0.9429
 1540SOL     OW16252   4.634   1.290   2.248 -0.1402  0.5408 -0.0307
 1540SOL    HW116253   4.663   1.344   2.322 -0.2576  0.5642 -0.0017
 1540SOL    HW216254   4.686   1.321   2.174 -1.4029  1.2504 -0.6157
 1541SOL     OW16255   3.070   1.390   2.835  0.6414  0.3461 -0.0674
 1541SOL    HW116256   3.104   1.404   2.923  2.0513 -1.2640 -0.3677
 1541SOL    HW216257   2.986   1.433   2.850  1.0263  0.8710  0.5652
 1542SOL     OW16258   2.654   3.056   3.626 -0.1475  0.2186  0.4620
 1542SOL    HW116259   2.595   3.129   3.607 -1.4761 -1.4033 -1.5650
 1542SOL    HW216260   2.726   3.080   3.567 -1.8818  2.2899 -0.8013
 1543SOL     OW16261   3.224   0.940   0.858 -0.3446  0.3113  0.5943
 1543SOL    HW116262   3.313   0.905   0.852 -0.9814 -1.4535  1.6220
 1543SOL    HW216263   3.201   0.943   0.765 -0.3484 -2.9512  0.5037
 1544SOL     OW16264   3.810   0.554  13.788  0.1114 -0.5997  0.0069
 1544SOL    HW116265   3.719   0.577  13.769  1.0931  1.2874 -2.3232
 1544SOL    HW216266   3.813   0.482  13.725  0.9637  0.4748 -1.1571
 1545SOL     OW16267   0.383   2.125  11.400  0.1254  0.8256  0.0787
 1545SOL    HW116268   0.338   2.173  11.331 -0.1849 -0.5406 -0.6668
 1545SOL    HW216269   0.474   2.119  11.371 -0.4874 -0.0948 -1.6490
 1546SOL     OW16270   3.082   2.088  14.661 -0.0118  0.5729 -0.0007
 1546SOL    HW116271   3.010   2.144  14.689  0.7850  2.3839 -1.5273
 1546SOL    HW216272   3.144   2.082  14.735  0.8419  0.1564 -0.7461
 1547SOL     OW16273   3.322   0.754  10.465  0.0785  0.4062 -0.0882
 1547SOL    HW116274   3.278   0.672  10.441  0.9915  0.1936 -1.0509
 1547SOL    HW216275   3.413   0.735  10.440 -0.8701 -0.5379 -2.8987
 1548SOL     OW16276   4.308   0.402  15.330 -0.0771  0.5482 -0.0621
 1548SOL    HW116277   4.312   0.363  15.243 -1.2020 -2.3536  1.1880
 1548SOL    HW216278   4.375   0.343  15.365 -2.7934 -1.8485  1.0108
 1549SOL     OW16279   4.467   1.176   4.123 -0.3950  0.1700  0.1111
 1549SOL    HW116280   4.450   1.256   4.074 -1.1837 -1.2753 -1.9757
 1549SOL    HW216281   4.381   1.168   4.165 -0.5528 -1.8060 -0.5952
 1550SOL     OW16282   3.651   1.694  13.976  0.7295 -0.0630 -0.1337
 1550SOL    HW116283   3.581   1.743  14.019 -1.0492 -0.7742 -2.1867
 1550SOL    HW216284   3.661   1.624  14.040 -1.0965  0.6294  0.9204
 1551SOL     OW16285   3.614   0.380   7.334 -0.4293 -0.1335  0.4115
 1551SOL    HW116286   3.574   0.302   7.295 -1.1944 -0.2786  1.4914
 1551SOL    HW216287   3.553   0.441   7.292  2.6523  1.5966 -1.4911
 1552SOL     OW16288   3.747   0.297   8.187  0.4379 -0.0809 -0.2929
 1552SOL    HW116289   3.721   0.227   8.126  0.3161 -1.8758  1.8229
 1552SOL    HW216290   3.801   0.355   8.133  1.0103 -0.0298  0.3429
 1553SOL     OW16291   1.203   2.884  14.537  0.1842  0.3049  0.3336
 1553SOL    HW116292   1.159   2.848  14.460 -0.5106 -0.1769  0.9481
 1553SOL    HW216293   1.169   2.973  14.529 -1.0591 -0.0900  1.1868
 1554SOL     OW16294   4.497   2.180   3.273 -0.2703 -0.0282  0.7757
 1554SOL    HW116295   4.521   2.176   3.366 -0.5293  1.6325  0.9133
 1554SOL    HW216296   4.570   2.228   3.233  0.2672 -0.9504  0.6587
 1555SOL     OW16297   0.974   3.956   0.939  0.0031 -0.2549  0.2333
 1555SOL    HW116298   0.979   3.915   1.026  0.7410  1.8639  1.2008
 1555SOL    HW216299   0.882   3.971   0.921  0.6364  2.2721 -0.9461
 1556SOL     OW16300   2.294   3.839   2.699 -0.1045 -0.1975 -0.2001
 1556SOL    HW116301   2.266   3.827   2.790 -0.0687  0.9763 -0.0279
 1556SOL    HW216302   2.292   3.935   2.700 -1.8790 -0.2123 -1.8797
 1557SOL     OW16303   3.608   0.102   3.542  0.6295  0.5685 -0.0612
 1557SOL    HW116304   3.678   0.103   3.478 -2.0158 -2.3615 -3.0001
 1557SOL    HW216305   3.640   0.156   3.614  1.5784  0.2972 -0.2870
 1558SOL     OW16306   4.713   4.160   8.446  0.0048 -0.1302 -0.4775
 1558SOL    HW116307   4.624   4.160   8.411 -0.8974  0.0856  1.8426
 1558SOL    HW216308   0.015   4.087   8.399  1.0612  1.8256 -2.6690
 1559SOL     OW16309   4.404   1.729  16.826 -0.3598  0.1453 -0.4000
 1559SOL    HW116310   4.465   1.659  16.848  2.7429  3.3326  1.1447
 1559SOL    HW216311   4.454   1.807  16.802 -0.9030  0.7619  0.4579
 1560SOL     OW16312   3.447   1.295   9.210 -0.1527 -0.4537 -0.2059
 1560SOL    HW116313   3.376   1.330   9.264  2.3107 -1.1163  3.4305
 1560SOL    HW216314   3.525   1.309   9.263  0.7581  1.0463 -1.9212
 1561SOL     OW16315   2.107   3.801   0.624 -0.4728 -0.1571  0.1251
 1561SOL    HW116316   2.199   3.803   0.598 -0.7714  2.0240 -0.7023
 1561SOL    HW216317   2.103   3.706   0.635  0.9914 -0.2329 -0.0221
 1562SOL     OW16318   1.833   1.188  15.639  0.1496 -0.6000  0.2758
 1562SOL    HW116319   1.823   1.143  15.555 -2.5669  0.4569  0.0559
 1562SOL    HW216320   1.923   1.167  15.664 -0.3457 -2.6442  0.3288
 1563SOL     OW16321   1.235   2.406  16.225  0.3564  0.3100 -0.0904
 1563SOL    HW116322   1.146   2.404  16.260  0.4952  0.5543  0.2693
 1563SOL    HW216323   1.254   2.499  16.215 -1.0478  0.7401  1.2705
 1564SOL     OW16324   3.810   4.485   7.750  0.3684  0.1469  0.2209
 1564SOL    HW116325   3.724   4.518   7.777 -1.0017 -3.3973  0.1733
 1564SOL    HW216326   3.842   4.560   7.701  0.4385  0.2799  0.4694
 1565SOL     OW16327   4.439   2.787   7.924 -0.0995 -0.0688 -0.0189
 1565SOL    HW116328   4.417   2.795   7.832  1.0192  1.6797 -0.1227
 1565SOL    HW216329   4.502   2.856   7.944  0.2500  0.6062 -3.5766
 1566SOL     OW16330   0.008   2.059   8.973 -0.5020 -0.2590  0.6514
 1566SOL    HW116331   0.065   1.982   8.969 -1.6222 -0.9529 -2.1015
 1566SOL    HW216332   0.074   2.120   9.006  0.6784 -2.6493  2.7434
 1567SOL     OW16333   1.396   1.821   6.119  0.6004  0.3296 -0.1744
 1567SOL    HW116334   1.431   1.908   6.102 -2.3595  1.8804  1.6813
 1567SOL    HW216335   1.452   1.782   6.186  1.0204  2.1207  0.5109
 1568SOL     OW16336   0.685   4.489   8.755 -0.3333  0.6746 -0.0527
 1568SOL    HW116337   0.777   4.514   8.742 -0.1499  1.3331  2.4975
 1568SOL    HW216338   0.701   4.455   8.844 -0.2528  0.0208 -0.3193
 1569SOL     OW16339   2.246   4.391   2.145  0.8789  0.7344 -0.3330
 1569SOL    HW116340   2.181   4.460   2.162  4.2643  3.3819  2.0288
 1569SOL    HW216341   2.308   4.443   2.094  1.1417  0.9055  0.1530
 1570SOL     OW16342   1.178   0.536  12.710  0.3045  0.2062  0.3805
 1570SOL    HW116343   1.172   0.570  12.799  3.2033 -0.2311  0.7465
 1570SOL    HW216344   1.270   0.519  12.690 -0.6279 -1.4576 -2.5431
 1571SOL     OW16345   3.969   1.314   7.220  0.1022  0.2811 -0.1654
 1571SOL    HW116346   3.894   1.259   7.197  1.1676 -0.6435 -1.4277
 1571SOL    HW216347   4.007   1.258   7.287 -0.1830  0.8303  0.4592
 1572SOL     OW16348   1.536   2.935   6.423 -0.0976 -0.9718  0.0675
 1572SOL    HW116349   1.474   2.950   6.352 -1.6124 -1.7566  1.2350
 1572SOL    HW216350   1.484   2.871   6.471 -0.8247 -0.7000 -0.3677
 1573SOL     OW16351   2.018   3.767   5.802  0.1476 -0.4250 -0.7820
 1573SOL    HW116352   2.088   3.816   5.759 -0.8494  0.1952 -1.6944
 1573SOL    HW216353   2.009   3.694   5.740 -1.0502  0.2654 -1.4246
 1574SOL     OW16354   2.625   2.579   1.012 -0.4297 -0.1504 -0.0294
 1574SOL    HW116355   2.640   2.487   1.034  1.3038  0.1845  0.1717
 1574SOL    HW216356   2.581   2.569   0.927  2.4812  1.4095 -1.7007
 1575SOL     OW16357   4.091   2.956   7.952 -0.2205 -0.1471 -0.1250
 1575SOL    HW116358   4.107   2.886   8.014  0.0938 -0.4136 -0.5109
 1575SOL    HW216359   4.069   2.900   7.877 -0.2809 -1.8341  1.1662
 1576SOL     OW16360   0.056   0.186   5.045 -0.3784  0.1586  0.4057
 1576SOL    HW116361   0.100   0.243   5.107 -0.0816  1.4415 -0.9769
 1576SOL    HW216362   0.124   0.155   4.986 -0.1229 -1.5758  1.6216
 1577SOL     OW16363   0.838   4.456   4.639  0.6811  0.5599  0.1895
 1577SOL    HW116364   0.748   4.489   4.642  0.1208 -0.9311 -0.4110
 1577SOL    HW216365   0.880   4.531   4.681  0.4094  0.2922  0.9444
 1578SOL     OW16366   4.728   2.921   7.257 -0.5821  0.1537 -0.4105
 1578SOL    HW116367   4.694   2.880   7.337 -1.1293 -0.6205 -1.0468
 1578SOL    HW216368   4.657   2.984   7.248 -1.9014 -1.1298  1.0960
 1579SOL     OW16369   0.178   4.170   6.117 -0.0103 -0.2303  0.5509
 1579SOL    HW116370   0.260   4.206   6.153 -1.5818  2.8303  1.1333
 1579SOL    HW216371   0.214   4.105   6.058 -0.0814  1.1881 -1.0326
 1580SOL     OW16372   2.757   4.241  13.562  0.0564  0.0524  0.0070
 1580SOL    HW116373   2.762   4.206  13.651  0.5339 -1.8074 -0.7417
 1580SOL    HW216374   2.664   4.252  13.541  0.9302  3.7619 -1.8017
 1581SOL     OW16375   2.638   3.442   7.813  0.0139  0.6158 -0.0373
 1581SOL    HW116376   2.552   3.454   7.772 -0.7961 -2.4630  0.7838
 1581SOL    HW216377   2.665   3.532   7.832  1.4363  0.2409 -0.3002
 1582SOL     OW16378   2.996   3.972   4.319 -0.0762  0.1656  0.7961
 1582SOL    HW116379   2.953   3.888   4.308  1.1424 -0.0948 -2.0604
 1582SOL    HW216380   2.973   4.008   4.234  2.7544  1.2119  0.4632
 1583SOL     OW16381   1.495   2.060  10.262 -0.1949  0.4544 -0.4468
 1583SOL    HW116382   1.469   2.068  10.170 -1.2961  0.5909 -0.1262
 1583SOL    HW216383   1.409   2.081  10.298  0.5201  1.0892  0.8915
 1584SOL     OW16384   0.235   1.775   2.047  0.6636 -0.3967  0.3600
 1584SOL    HW116385   0.206   1.832   1.976 -0.1010 -3.3127 -1.6970
 1584SOL    HW216386   0.238   1.689   2.003 -0.2625 -0.8372  1.1612
 1585SOL     OW16387   4.229   3.484   3.684 -0.1938  0.5524 -0.5013
 1585SOL    HW116388   4.275   3.490   3.600 -1.0283  0.9492 -0.9377
 1585SOL    HW216389   4.284   3.422   3.732 -1.0890  0.2543  0.1365
 1586SOL     OW16390   1.387   3.078   9.553  0.5838 -0.0067  0.6192
 1586SOL    HW116391   1.417   3.014   9.617  1.9072 -1.6028 -1.5843
 1586SOL    HW216392   1.330   3.022   9.500  0.1516  1.2219 -0.2029
 1587SOL     OW16393   3.918   2.321  13.619 -0.4187  0.1115  0.0487
 1587SOL    HW116394   3.977   2.246  13.617  1.6222  1.7683 -2.0369
 1587SOL    HW216395   3.969   2.375  13.680  0.8059 -1.2133  0.1865
 1588SOL     OW16396   3.561   4.602   2.414 -0.0177  0.2133 -0.2662
 1588SOL    HW116397   3.493   4.666   2.435 -1.2152 -1.4164  0.8815
 1588SOL    HW216398   3.511   4.520   2.424 -0.1794  0.5252  1.5818
 1589SOL     OW16399   0.343   4.036   2.384 -0.0246  0.4062 -0.2285
 1589SOL    HW116400   0.304   4.121   2.363 -0.2046  0.2804 -0.4064
 1589SOL    HW216401   0.388   4.014   2.302  0.6988  1.3442 -0.0794
 1590SOL     OW16402   0.765   3.120   1.884  0.2634  0.0127  0.5654
 1590SOL    HW116403   0.813   3.057   1.831 -1.6268 -0.8321 -0.1383
 1590SOL    HW216404   0.782   3.077   1.968  1.0596 -0.6346  0.0812
 1591SOL     OW16405   3.586   1.838   2.943 -0.5685 -0.1795  0.3697
 1591SOL    HW116406   3.641   1.776   2.896 -0.8060 -0.4635  0.4709
 1591SOL    HW216407   3.501   1.799   2.928 -1.0365  1.2670 -0.7447
 1592SOL     OW16408   2.082   3.790   2.238 -0.5964 -0.3898  0.0182
 1592SOL    HW116409   2.164   3.837   2.249 -0.0410 -1.2421 -0.4417
 1592SOL    HW216410   2.019   3.861   2.230  0.7751  0.5136 -2.6980
 1593SOL     OW16411   1.263   1.386   9.209  0.3697  0.1597 -0.2272
 1593SOL    HW116412   1.296   1.405   9.297  0.7352 -0.4829 -0.2277
 1593SOL    HW216413   1.325   1.438   9.159  1.5909  2.3356  3.5520
 1594SOL     OW16414   4.534   3.664   5.945  0.1649  0.2969 -0.5286
 1594SOL    HW116415   4.567   3.755   5.942  0.5285  0.1627 -0.7104
 1594SOL    HW216416   4.505   3.671   6.035  0.6588  1.8944 -0.4818
 1595SOL     OW16417   0.509   0.939  10.332  0.3675 -0.4313  0.0637
 1595SOL    HW116418   0.569   0.869  10.305  1.9989  0.9335  0.1490
 1595SOL    HW216419   0.464   0.958  10.250  0.6643 -0.9982 -0.2322
 1596SOL     OW16420   2.412   2.678   8.361 -0.3539 -0.1299  0.5559
 1596SOL    HW116421   2.462   2.638   8.289 -0.2425  1.9191 -0.5013
 1596SOL    HW216422   2.432   2.768   8.336  2.1068 -0.7684  0.2519
 1597SOL     OW16423   0.947   0.378   4.406  0.0318 -0.2391 -0.2765
 1597SOL    HW116424   0.860   0.338   4.407  0.2478 -0.7067 -0.3637
 1597SOL    HW216425   0.996   0.306   4.367  1.8411  0.6694  0.2823
 1598SOL     OW16426   3.613   2.911  15.004  0.6051 -0.1237  0.0070
 1598SOL    HW116427   3.564   2.864  15.071  1.5938 -1.2448 -0.0622
 1598SOL    HW216428   3.705   2.887  15.013  0.8413  0.2124 -1.4979
 1599SOL     OW16429   2.816   1.073   2.124 -0.2990 -0.0221 -0.5330
 1599SOL    HW116430   2.816   1.122   2.042  2.3489  1.3668  0.3282
 1599SOL    HW216431   2.849   1.139   2.184 -0.8346 -0.7586  0.5705
 1600SOL     OW16432   4.074   3.166   8.656 -0.2209 -0.0628  0.4620
 1600SOL    HW116433   4.075   3.112   8.576  0.5228  1.2469 -0.4123
 1600SOL    HW216434   4.056   3.099   8.723 -0.5432 -1.4047 -0.9579
 1601SOL     OW16435   1.175   1.162   8.239  0.3801  0.0693 -0.2136
 1601SOL    HW116436   1.171   1.240   8.184  2.6403  0.5946  0.3649
 1601SOL    HW216437   1.135   1.093   8.186  2.0829 -0.0948 -1.2892
 1602SOL     OW16438   4.701   0.244   8.675 -0.3056  0.3025 -0.4481
 1602SOL    HW116439   0.057   0.258   8.660  0.5777 -1.7404  3.2062
 1602SOL    HW216440   4.688   0.299   8.752  0.1054  0.7990 -0.7324
 1603SOL     OW16441   1.852   4.161   0.596  0.7944 -0.0577  0.3104
 1603SOL    HW116442   1.943   4.137   0.609  0.6387  0.4900  2.4992
 1603SOL    HW216443   1.837   4.159   0.691  2.1573  0.7945  0.5313
 1604SOL     OW16444   2.815   1.259  10.105 -0.2989  0.2179 -0.4049
 1604SOL    HW116445   2.886   1.194  10.104  0.2337  0.7912  0.2079
 1604SOL    HW216446   2.858   1.341  10.131 -1.3111  0.5807  0.1082
 1605SOL     OW16447   4.489   3.033   4.098 -0.0695 -0.2203  0.0740
 1605SOL    HW116448   4.449   2.987   4.024 -0.8260  1.1860 -0.4067
 1605SOL    HW216449   4.506   3.122   4.066  1.4886 -0.1506  1.1019
 1606SOL     OW16450   1.259   4.061   2.919  0.2561 -0.3907 -0.0310
 1606SOL    HW116451   1.242   3.995   2.851  0.8598  0.4969 -1.0380
 1606SOL    HW216452   1.180   4.113   2.905 -0.1650 -1.2117 -0.7524
 1607SOL     OW16453   3.851   1.241   3.965  0.3796 -0.6700 -0.2918
 1607SOL    HW116454   3.816   1.155   3.987  0.7702 -0.4554  1.2019
 1607SOL    HW216455   3.801   1.312   4.007 -0.5814 -1.0858 -0.7343
 1608SOL     OW16456   4.370   3.600   7.651  0.7552 -0.3414  0.5245
 1608SOL    HW116457   4.441   3.577   7.711 -0.0677  0.1222  1.6607
 1608SOL    HW216458   4.305   3.538   7.684  0.6809 -1.6519 -2.0197
 1609SOL     OW16459   3.428   0.934   4.690 -0.1264 -0.2185  0.1742
 1609SOL    HW116460   3.487   0.963   4.760  0.4813  0.7697 -0.7527
 1609SOL    HW216461   3.380   1.005   4.648 -0.3940 -0.3417  0.2706
 1610SOL     OW16462   0.397   0.717  14.289  0.0896 -0.1899 -0.2099
 1610SOL    HW116463   0.431   0.632  14.318  0.3205 -0.2730 -0.7245
 1610SOL    HW216464   0.329   0.684  14.230  0.1512  0.2430 -0.5209
 1611SOL     OW16465   3.023   4.544   6.551 -0.0906 -1.0771  0.0393
 1611SOL    HW116466   3.032   4.449   6.554 -0.0955 -1.1473 -1.9152
 1611SOL    HW216467   2.952   4.549   6.487 -0.2496  0.3459  0.3197
 1612SOL     OW16468   1.483   1.994  11.810  0.0594  0.4976  0.5416
 1612SOL    HW116469   1.476   1.965  11.901 -1.1526  1.3848  0.7373
 1612SOL    HW216470   1.398   1.957  11.783 -0.3147  1.6957  0.0554
 1613SOL     OW16471   0.802   3.398   8.218 -0.0566 -0.1315  0.5309
 1613SOL    HW116472   0.867   3.341   8.177 -0.5238 -1.3685  1.5083
 1613SOL    HW216473   0.729   3.376   8.159 -0.2522 -2.6285  1.6759
 1614SOL     OW16474   0.762   4.645   0.120  0.1188  0.1182  0.1594
 1614SOL    HW116475   0.686   4.641   0.178  1.6459  0.4240  2.1791
 1614SOL    HW216476   0.828   4.605   0.176  1.0145  2.1139  0.5566
 1615SOL     OW16477   1.099   3.193   8.750  0.0111  0.6399 -0.3899
 1615SOL    HW116478   1.108   3.286   8.770 -0.3971  0.5745  0.0919
 1615SOL    HW216479   1.113   3.153   8.836 -2.8964 -0.4509 -0.4268
 1616SOL     OW16480   2.450   4.275  13.110 -0.3755 -0.2103  0.1847
 1616SOL    HW116481   2.490   4.275  13.198  0.4682 -0.6545 -0.1955
 1616SOL    HW216482   2.362   4.245  13.130  0.6021 -2.1156  1.6999
 1617SOL     OW16483   4.062   1.733   8.518 -0.0000 -0.1822 -0.0123
 1617SOL    HW116484   4.043   1.743   8.424 -0.9348 -0.6001  0.1383
 1617SOL    HW216485   4.052   1.825   8.542 -1.1273 -0.3094 -0.0155
 1618SOL     OW16486   4.665   2.715   4.426 -0.1712  0.1175  0.4133
 1618SOL    HW116487   4.678   2.764   4.507  0.7795  3.0560 -1.5263
 1618SOL    HW216488   4.698   2.782   4.366  1.9078 -1.6612 -0.4210
 1619SOL     OW16489   1.569   1.717   3.856  0.0013  0.4639 -0.4129
 1619SOL    HW116490   1.600   1.632   3.824  2.3500  1.4417 -0.6794
 1619SOL    HW216491   1.518   1.688   3.932 -0.0453  1.1925 -0.1655
 1620SOL     OW16492   0.927   4.382   3.264  1.1693 -0.0602 -0.1406
 1620SOL    HW116493   0.956   4.456   3.317  0.5939  0.1419 -0.1070
 1620SOL    HW216494   0.859   4.338   3.315  0.6889  0.3326 -0.4380
 1621SOL     OW16495   2.127   1.040  14.218 -0.9636 -0.1243  0.3190
 1621SOL    HW116496   2.129   1.088  14.135  0.6483  1.4669  1.2783
 1621SOL    HW216497   2.178   1.098  14.275 -1.1100  1.7940 -1.5094
 1622SOL     OW16498   2.063   1.799   7.926  0.3117  0.0703  0.1420
 1622SOL    HW116499   2.065   1.892   7.948  1.1430 -0.0109  0.4105
 1622SOL    HW216500   2.085   1.797   7.833  0.0015  0.8888  0.0512
 1623SOL     OW16501   1.499   0.484  15.764  0.3141  0.0354  0.7724
 1623SOL    HW116502   1.478   0.398  15.729  1.4322  0.4231 -0.8464
 1623SOL    HW216503   1.453   0.551  15.713 -0.6912 -0.7912  0.6136
 1624SOL     OW16504   0.540   2.349   4.622  0.2814  0.1067 -0.8562
 1624SOL    HW116505   0.503   2.351   4.534  1.0029 -0.3812 -1.1741
 1624SOL    HW216506   0.490   2.418   4.666 -0.7547  1.0975 -3.5992
 1625SOL     OW16507   0.905   1.364   6.293  0.1137  0.6053  0.2160
 1625SOL    HW116508   0.997   1.386   6.280  0.0355 -0.5444 -2.2226
 1625SOL    HW216509   0.910   1.328   6.382 -0.1214  1.4743  0.5750
 1626SOL     OW16510   0.307   4.401   1.478 -0.4124  0.1349 -0.3895
 1626SOL    HW116511   0.273   4.321   1.519 -0.3912  0.7504  0.8339
 1626SOL    HW216512   0.389   4.418   1.524 -0.2448 -2.3218  0.2502
 1627SOL     OW16513   1.023   1.152  16.467  0.4544 -0.4588 -0.0959
 1627SOL    HW116514   1.024   1.060  16.440 -0.6655 -0.3272 -0.5930
 1627SOL    HW216515   0.960   1.142  16.539  1.2280 -2.5786  0.2799
 1628SOL     OW16516   3.434   3.459  16.515  0.0490  0.3624  0.3150
 1628SOL    HW116517   3.520   3.431  16.483 -0.4301 -0.1544 -0.5239
 1628SOL    HW216518   3.374   3.409  16.460 -0.0894  0.1490  0.6598
 1629SOL     OW16519   1.865   2.397   9.491 -0.0981  0.3308  0.6312
 1629SOL    HW116520   1.792   2.445   9.529 -0.7783  0.5203 -0.9311
 1629SOL    HW216521   1.849   2.421   9.400  0.7278 -1.3627  0.0444
 1630SOL     OW16522   1.352   4.163  12.021 -0.8613  0.0444 -0.3727
 1630SOL    HW116523   1.329   4.194  12.109 -1.0401 -1.7089  0.1998
 1630SOL    HW216524   1.447   4.173  12.020 -0.9142  0.2731 -3.5925
 1631SOL     OW16525   4.037   3.592  12.548 -0.4328 -0.0036 -0.6259
 1631SOL    HW116526   3.995   3.522  12.597 -0.8322  0.4468 -0.3219
 1631SOL    HW216527   4.014   3.566  12.458 -1.1265 -2.7213  0.3373
 1632SOL     OW16528   1.211   2.606  16.008  0.2576  0.1448  0.7169
 1632SOL    HW116529   1.169   2.524  15.980  1.0982 -0.1529  0.3217
 1632SOL    HW216530   1.282   2.609  15.943 -0.3042  1.0288  0.1471
 1633SOL     OW16531   1.053   1.286   6.555 -0.0891 -0.1965  0.1193
 1633SOL    HW116532   1.126   1.227   6.537  0.6510  0.3452  1.3452
 1633SOL    HW216533   1.096   1.364   6.589  1.3277 -0.4528 -1.0999
 1634SOL     OW16534   2.297   2.105  12.168 -0.0876  0.4945  0.4645
 1634SOL    HW116535   2.334   2.054  12.096 -1.5837  1.7301 -1.1924
 1634SOL    HW216536   2.371   2.137  12.219 -0.3549 -0.1746  1.2659
 1635SOL     OW16537   3.719   1.222   5.460 -0.2726 -0.4590  0.9250
 1635SOL    HW116538   3.677   1.151   5.412 -0.6870  0.2900  0.1635
 1635SOL    HW216539   3.645   1.283   5.462  0.6051  0.6332  0.3532
 1636SOL     OW16540   1.346   0.782   6.046  0.4148 -0.9277  0.3473
 1636SOL    HW116541   1.361   0.823   6.131  0.8415  0.5522 -0.4555
 1636SOL    HW216542   1.397   0.847   5.999  0.0372 -1.0723 -0.2647
 1637SOL     OW16543   4.393   1.944   9.426  0.2382 -0.1498  0.0745
 1637SOL    HW116544   4.461   1.947   9.358  0.2757  2.0612  0.2223
 1637SOL    HW216545   4.417   1.870   9.481  0.0169  0.6705  1.2526
 1638SOL     OW16546   4.265   1.848   1.412 -0.2303 -0.0086 -1.1946
 1638SOL    HW116547   4.329   1.867   1.481 -0.3316 -1.7356 -0.6200
 1638SOL    HW216548   4.242   1.760   1.440  0.8431 -0.2147 -0.9648
 1639SOL     OW16549   3.149   3.377   5.632 -0.4875 -0.7336  0.1135
 1639SOL    HW116550   3.190   3.306   5.583 -1.1454 -1.0125 -0.0324
 1639SOL    HW216551   3.138   3.444   5.565  1.2975 -0.4333  0.1126
 1640SOL     OW16552   0.187   2.486   7.015  0.1502  0.2713  0.3181
 1640SOL    HW116553   0.185   2.580   7.035 -1.1832  0.3958 -0.3523
 1640SOL    HW216554   0.261   2.471   6.956  0.4575 -0.2221  0.8372
 1641SOL     OW16555   4.288   3.605   8.861 -0.5174 -0.1359  0.1143
 1641SOL    HW116556   4.234   3.539   8.818 -1.1663  0.6882 -0.3340
 1641SOL    HW216557   4.254   3.599   8.951  0.5352 -0.8896  0.4623
 1642SOL     OW16558   3.507   2.037   2.066 -0.1969 -0.0130  0.0474
 1642SOL    HW116559   3.472   2.125   2.051  0.6061  0.5048  1.1727
 1642SOL    HW216560   3.543   2.046   2.155  0.5237 -3.1063  0.0548
 1643SOL     OW16561   3.238   4.207   5.780 -0.5053 -0.0036 -0.5130
 1643SOL    HW116562   3.169   4.148   5.810 -0.7537 -0.9375 -2.8841
 1643SOL    HW216563   3.298   4.209   5.854 -0.7550  0.9608 -0.3348
 1644SOL     OW16564   3.944   4.018   7.184 -0.2964  0.2481 -0.2778
 1644SOL    HW116565   3.853   3.993   7.164  0.9516 -2.2010 -2.9359
 1644SOL    HW216566   3.941   4.010   7.279 -0.1882  2.0454 -0.1281
 1645SOL     OW16567   1.441   1.595   9.185  0.3065 -0.3500  0.0546
 1645SOL    HW116568   1.447   1.680   9.141 -0.1457  0.0182  0.7010
 1645SOL    HW216569   1.533   1.569   9.177  0.8595  1.3454  0.7714
 1646SOL     OW16570   1.442   1.719   8.105 -0.2793  0.5496  0.2990
 1646SOL    HW116571   1.498   1.735   8.029 -0.2390 -3.0974 -0.4369
 1646SOL    HW216572   1.477   1.638   8.143 -0.2239  0.0218 -0.8868
 1647SOL     OW16573   2.939   4.735   2.352  0.3440 -0.2377  0.0031
 1647SOL    HW116574   2.992   4.701   2.425 -0.1006  0.0720  0.4748
 1647SOL    HW216575   2.958   0.091   2.352  0.9459 -0.3760 -2.5907
 1648SOL     OW16576   0.006   2.720   4.908 -0.1999 -0.2177  0.6228
 1648SOL    HW116577   4.698   2.683   4.983 -0.5462  1.1017  1.0709
 1648SOL    HW216578   0.042   2.642   4.865  0.9624 -0.4421  1.9956
 1649SOL     OW16579   0.574   2.275   7.083  0.6740  0.2788 -0.0768
 1649SOL    HW116580   0.613   2.357   7.053 -3.1104  2.2116  0.2791
 1649SOL    HW216581   0.482   2.296   7.070  0.2248 -1.9093 -0.3047
 1650SOL     OW16582   3.608   1.465   1.076 -0.0558  0.0708  0.0464
 1650SOL    HW116583   3.542   1.457   1.145 -2.9865  1.3871 -2.5893
 1650SOL    HW216584   3.657   1.384   1.089  2.1753  1.4294  0.0318
 1651SOL     OW16585   0.926   3.230  15.683 -0.0718  0.3402  0.3508
 1651SOL    HW116586   0.834   3.233  15.711 -0.5853 -1.5862 -1.2013
 1651SOL    HW216587   0.938   3.306  15.626 -1.2260  1.2986  1.3707
 1652SOL     OW16588   4.160   2.977   6.139 -0.0516 -0.6008 -0.1110
 1652SOL    HW116589   4.136   2.897   6.185  0.1574 -0.2519  0.5960
 1652SOL    HW216590   4.073   2.999   6.105 -0.2937 -0.2437  0.7550
 1653SOL     OW16591   3.079   2.873  10.131 -0.1202  0.2883 -0.6431
 1653SOL    HW116592   3.018   2.830  10.191 -0.1825  0.9316 -0.2462
 1653SOL    HW216593   3.160   2.881  10.181  1.2799  1.2472 -3.0550
 1654SOL     OW16594   3.405   1.895   2.448 -0.2896  0.2330  0.4772
 1654SOL    HW116595   3.416   1.814   2.399  1.2036  0.2508  0.7866
 1654SOL    HW216596   3.483   1.917   2.499 -0.4154  0.8965  0.3860
 1655SOL     OW16597   0.390   4.406   3.315  0.2233 -0.1947  0.1115
 1655SOL    HW116598   0.390   4.454   3.232 -0.1354 -1.3399 -0.5564
 1655SOL    HW216599   0.482   4.384   3.335  0.2837 -0.6001 -0.5857
 1656SOL     OW16600   3.336   0.838  13.296  0.2049 -0.1926 -0.4116
 1656SOL    HW116601   3.336   0.775  13.224  2.5125  0.2523 -0.7858
 1656SOL    HW216602   3.245   0.869  13.299  0.8647  1.7602 -0.2519
 1657SOL     OW16603   1.794   1.991  10.328  0.1216 -0.1237  0.5064
 1657SOL    HW116604   1.858   1.923  10.309  0.3764  0.4266 -0.6269
 1657SOL    HW216605   1.724   1.976  10.264  0.0371  3.1822 -0.1724
 1658SOL     OW16606   1.542   4.341   7.743  0.0822 -0.4984  0.1597
 1658SOL    HW116607   1.632   4.373   7.741  0.3789 -1.3669 -0.2293
 1658SOL    HW216608   1.550   4.283   7.667 -2.1179  2.3897 -2.2396
 1659SOL     OW16609   3.609   3.175  15.951 -0.0232  0.1258  0.0656
 1659SOL    HW116610   3.622   3.147  15.861  0.0342 -1.0957  0.4517
 1659SOL    HW216611   3.620   3.091  15.996 -0.5990 -0.9676 -1.8445
 1660SOL     OW16612   3.810   1.738   6.926 -0.2704 -0.3446  0.2797
 1660SOL    HW116613   3.830   1.720   7.018 -0.3309 -4.0932 -0.4230
 1660SOL    HW216614   3.719   1.710   6.915 -0.5293  0.6215 -0.0871
 1661SOL     OW16615   0.395   1.446   3.506 -0.2926 -0.0483  0.1965
 1661SOL    HW116616   0.367   1.404   3.425 -1.8527 -0.3508  0.8975
 1661SOL    HW216617   0.486   1.415   3.501  0.3029  1.4931  1.3471
 1662SOL     OW16618   2.996   3.590   1.771  0.6685  0.5011 -0.1082
 1662SOL    HW116619   3.020   3.660   1.831 -0.3167  0.2164  0.6242
 1662SOL    HW216620   2.908   3.572   1.803  0.0523 -2.0201 -3.1450
 1663SOL     OW16621   2.986   0.209   3.090  0.2510 -0.0294 -0.0374
 1663SOL    HW116622   2.988   0.114   3.098 -0.6904  0.0624  1.3927
 1663SOL    HW216623   2.967   0.242   3.178  1.1762  0.2012  0.0811
 1664SOL     OW16624   1.808   3.182  16.938  0.1531 -0.2436 -0.0239
 1664SOL    HW116625   1.872   3.141  16.880 -1.0952  1.0348 -2.3148
 1664SOL    HW216626   1.783   3.258  16.886 -0.2748  0.0573  0.6273
 1665SOL     OW16627   0.626   0.267   3.334 -0.1561  0.1918 -0.2565
 1665SOL    HW116628   0.609   0.314   3.252 -3.4496 -0.3804  0.1090
 1665SOL    HW216629   0.535   0.246   3.355 -0.0271 -1.0628 -0.9120
 1666SOL     OW16630   0.892   1.683   4.189 -0.1512 -0.3534  0.1860
 1666SOL    HW116631   0.971   1.703   4.238  0.2609  1.6510 -1.2717
 1666SOL    HW216632   0.920   1.708   4.101  0.6279  0.5242  0.6858
 1667SOL     OW16633   0.667   4.469   7.247 -0.0126  0.1173  0.1437
 1667SOL    HW116634   0.734   4.520   7.293 -0.0622 -0.3939  0.7808
 1667SOL    HW216635   0.645   4.405   7.314  0.9119  0.6440  0.9444
 1668SOL     OW16636   1.674   4.581   2.884 -0.4569 -0.3667 -0.3858
 1668SOL    HW116637   1.623   4.597   2.804 -0.0997  1.0258 -0.3290
 1668SOL    HW216638   1.725   4.501   2.866 -0.6948 -0.8310  1.0251
 1669SOL     OW16639   1.620   0.883   5.717  0.2645 -0.4777 -0.2525
 1669SOL    HW116640   1.679   0.853   5.648 -0.1757 -0.0401 -0.8222
 1669SOL    HW216641   1.591   0.794   5.741 -0.3127 -0.7181 -1.8359
 1670SOL     OW16642   3.507   1.410   1.663  0.2518 -0.0650 -0.0220
 1670SOL    HW116643   3.426   1.460   1.676 -0.0216 -0.6782  0.6597
 1670SOL    HW216644   3.487   1.327   1.619  0.7365  1.2064 -2.6061
 1671SOL     OW16645   3.877   0.701  13.112  0.1868  0.5658  0.2475
 1671SOL    HW116646   3.954   0.758  13.106  1.2398 -0.9373 -0.7013
 1671SOL    HW216647   3.881   0.665  13.201  1.9770 -0.1807 -0.1299
 1672SOL     OW16648   2.333   3.850  10.106  0.6132  0.2244  0.4292
 1672SOL    HW116649   2.331   3.929  10.159  1.2278  0.9199 -0.5954
 1672SOL    HW216650   2.398   3.878  10.042  1.9188 -0.6962  1.3583
 1673SOL     OW16651   4.149   3.438   8.643  0.5699  0.1180 -0.6761
 1673SOL    HW116652   4.069   3.464   8.598 -0.9544  0.0440  2.0255
 1673SOL    HW216653   4.131   3.344   8.649  1.7120 -0.0029  1.0244
 1674SOL     OW16654   0.613   1.804   7.734 -0.0200  0.0708  0.4803
 1674SOL    HW116655   0.538   1.792   7.676 -1.3733  0.7404  2.1103
 1674SOL    HW216656   0.680   1.822   7.668 -0.6089  0.3237 -0.0449
 1675SOL     OW16657   2.504   3.838   3.605 -0.1069  0.3524 -0.1358
 1675SOL    HW116658   2.547   3.873   3.683 -1.6435  1.6524  0.1461
 1675SOL    HW216659   2.583   3.824   3.553 -0.8009 -0.7180 -0.8885
 1676SOL     OW16660   0.771   3.130  16.801 -0.6444  0.0271 -0.4281
 1676SOL    HW116661   0.818   3.162  16.878 -2.2953 -1.5577  1.2428
 1676SOL    HW216662   0.705   3.198  16.787 -0.7690 -0.0738 -0.3338
 1677SOL     OW16663   3.489   2.771   6.928  0.2122 -0.6535 -0.0464
 1677SOL    HW116664   3.446   2.781   7.013 -1.1530 -0.7557 -0.7320
 1677SOL    HW216665   3.555   2.840   6.920 -0.5698  0.0804 -0.2124
 1678SOL     OW16666   3.865   2.312  16.589 -0.2396  0.5538 -0.1405
 1678SOL    HW116667   3.922   2.318  16.513  0.2969 -0.1754  0.2118
 1678SOL    HW216668   3.888   2.233  16.638 -0.2889  0.9029  0.4440
 1679SOL     OW16669   1.369   2.969   1.916  0.1502 -0.8716 -0.1234
 1679SOL    HW116670   1.350   3.060   1.894 -1.3817 -0.8896  1.0568
 1679SOL    HW216671   1.345   2.950   2.007  0.1490  0.6934  0.1970
 1680SOL     OW16672   4.590   2.452  16.892  0.1622  0.4836 -0.6015
 1680SOL    HW116673   4.684   2.455  16.876  0.2607 -1.3795 -0.4387
 1680SOL    HW216674   4.571   2.544  16.906  1.0696  0.2317  2.0949
 1681SOL     OW16675   2.445   2.181   6.186 -0.9275 -0.1836 -0.0187
 1681SOL    HW116676   2.384   2.158   6.116 -1.8203  0.4960  0.5357
 1681SOL    HW216677   2.419   2.269   6.214 -1.9986 -0.9255  1.3342
 1682SOL     OW16678   0.745   2.597   8.618 -0.0276 -0.7292 -0.0539
 1682SOL    HW116679   0.696   2.679   8.623  0.0125 -0.6835 -0.4519
 1682SOL    HW216680   0.674   2.541   8.587  0.4862 -0.7723 -1.1331
 1683SOL     OW16681   2.726   1.745   6.166 -0.3748 -0.4767 -0.2575
 1683SOL    HW116682   2.636   1.730   6.196 -0.9629  3.4783 -0.0254
 1683SOL    HW216683   2.699   1.820   6.112  0.1186 -0.7863 -0.9278
 1684SOL     OW16684   2.375   2.877   3.334 -0.2808  0.0584  0.0701
 1684SOL    HW116685   2.453   2.822   3.328 -0.7697 -0.9488  2.9484
 1684SOL    HW216686   2.341   2.889   3.245  1.5987 -0.8384 -0.7665
 1685SOL     OW16687   1.768   3.244  17.209  0.1320  0.1171 -0.1560
 1685SOL    HW116688   1.841   3.306  17.207  0.9200 -0.7822  1.1004
 1685SOL    HW216689   1.777   3.205  17.122 -0.6453  2.0401 -1.1180
 1686SOL     OW16690   2.942   2.968   4.936  0.0155 -0.3346 -0.2701
 1686SOL    HW116691   2.988   2.999   5.014  0.4878  2.4213 -1.6360
 1686SOL    HW216692   3.011   2.988   4.872 -0.0649  2.5855  0.5672
 1687SOL     OW16693   4.141   2.023   3.270 -0.0061 -0.1504 -0.2855
 1687SOL    HW116694   4.081   2.097   3.267 -0.5738 -0.6414 -1.0159
 1687SOL    HW216695   4.210   2.053   3.329 -0.8556 -1.2374  1.2853
 1688SOL     OW16696   2.526   3.226   5.813  0.1023 -0.1338 -0.7877
 1688SOL    HW116697   2.517   3.306   5.865 -1.9114 -0.6762 -0.3136
 1688SOL    HW216698   2.461   3.173   5.860  2.5921 -0.9990  1.6879
 1689SOL     OW16699   2.059   1.543   8.148  0.1488  0.3818  0.2920
 1689SOL    HW116700   2.145   1.580   8.131  1.5067 -2.1510  1.7109
 1689SOL    HW216701   2.044   1.503   8.062 -0.3305  1.4245 -0.1103
 1690SOL     OW16702   2.716   4.705   2.172  0.2983 -0.3020 -0.1639
 1690SOL    HW116703   2.806   4.714   2.203  0.9531 -0.1823 -2.0974
 1690SOL    HW216704   2.678   0.055   2.181  0.5891  0.0151 -2.1064
 1691SOL     OW16705   3.440   2.123   4.140  0.1321 -0.1442 -0.0445
 1691SOL    HW116706   3.425   2.117   4.234  0.7680 -0.4994  0.0357
 1691SOL    HW216707   3.536   2.115   4.141  0.1026 -0.3212  2.0677
 1692SOL     OW16708   3.712   3.449  13.342 -0.5700 -0.1370  0.2639
 1692SOL    HW116709   3.710   3.378  13.278 -0.6720 -0.7844  0.9810
 1692SOL    HW216710   3.772   3.400  13.399  2.5005  1.3801 -1.6778
 1693SOL     OW16711   2.840   2.525   8.986  0.0402  0.0703 -0.0045
 1693SOL    HW116712   2.806   2.478   9.062  1.6021  0.2884  0.8304
 1693SOL    HW216713   2.881   2.455   8.935 -1.3491 -0.7149 -0.0277
 1694SOL     OW16714   1.173   3.078   4.545  0.9568 -0.0124  0.5631
 1694SOL    HW116715   1.189   3.056   4.453  1.4550 -0.9569  0.8807
 1694SOL    HW216716   1.255   3.047   4.584  1.2372 -1.4392 -1.1601
 1695SOL     OW16717   0.692   2.782   7.837 -0.1496 -0.1791 -0.2052
 1695SOL    HW116718   0.684   2.734   7.920 -0.0239 -0.6516 -0.4696
 1695SOL    HW216719   0.787   2.780   7.829 -0.5129 -2.5623 -3.5224
 1696SOL     OW16720   3.480   3.629   1.699  0.0784 -0.0018  0.3342
 1696SOL    HW116721   3.519   3.653   1.784 -2.1157  0.6808  1.1478
 1696SOL    HW216722   3.451   3.538   1.701  1.2091 -0.3081  3.0448
 1697SOL     OW16723   3.555   0.398   7.708 -0.3335 -0.0168  0.2668
 1697SOL    HW116724   3.478   0.341   7.707 -0.5304  0.2602 -0.2140
 1697SOL    HW216725   3.615   0.347   7.654  0.2560 -0.3301  1.2163
 1698SOL     OW16726   2.521   0.066  16.421  0.5713  0.1827 -0.4221
 1698SOL    HW116727   2.594   0.004  16.416 -0.1348 -0.6978  0.0252
 1698SOL    HW216728   2.563   0.149  16.401  0.7943  0.1622 -0.0460
 1699SOL     OW16729   3.068   0.124   8.157  0.4600 -0.4995 -0.4857
 1699SOL    HW116730   3.134   0.064   8.191  0.3915 -1.3091 -1.7738
 1699SOL    HW216731   3.116   0.183   8.099  0.2089  1.5565  1.3875
 1700SOL     OW16732   4.345   1.202  15.767  0.1084 -0.0669  0.1222
 1700SOL    HW116733   4.423   1.163  15.730  0.9143  1.1899  0.4717
 1700SOL    HW216734   4.283   1.164  15.705  0.8877  0.8321 -1.2020
 1701SOL     OW16735   3.236   3.008  17.719 -0.3361  0.1425  0.3719
 1701SOL    HW116736   3.250   2.921   0.007 -0.4374 -0.9953 -2.2968
 1701SOL    HW216737   3.323   3.042  17.700 -1.2584  1.4337 -1.5509
 1702SOL     OW16738   1.662   3.787   5.899 -0.1177  0.2428  0.0176
 1702SOL    HW116739   1.624   3.729   5.832  2.4447 -0.7298 -0.6057
 1702SOL    HW216740   1.622   3.870   5.871  1.8143  0.7841 -1.1424
 1703SOL     OW16741   0.328   1.922   3.005  0.6248 -0.1367  0.8012
 1703SOL    HW116742   0.369   1.965   2.930 -1.2368  0.3917  0.1072
 1703SOL    HW216743   0.254   1.879   2.962  1.9736 -1.0391 -0.6402
 1704SOL     OW16744   0.617   3.750   9.604  0.2164  0.3020 -0.0476
 1704SOL    HW116745   0.674   3.812   9.650  1.6236 -1.5772  0.7544
 1704SOL    HW216746   0.549   3.744   9.671 -0.3035  0.3916 -0.5671
 1705SOL     OW16747   1.387   1.070  14.164 -0.4768  0.0263  0.2067
 1705SOL    HW116748   1.449   1.092  14.233  0.5164 -0.2371 -0.5990
 1705SOL    HW216749   1.339   0.992  14.193  1.1724 -0.6709  1.0475
 1706SOL     OW16750   4.660   2.499   2.296  0.1971  0.4307  0.1912
 1706SOL    HW116751   4.597   2.477   2.228 -0.5498  2.8492  0.0814
 1706SOL    HW216752   0.004   2.516   2.248 -0.6967 -0.4823 -1.6461
 1707SOL     OW16753   3.946   3.248  16.851 -0.5253 -0.2496 -0.2462
 1707SOL    HW116754   4.002   3.171  16.863 -1.8303 -1.4457 -1.8713
 1707SOL    HW216755   3.935   3.287  16.938  1.3955 -0.5737  0.1565
 1708SOL     OW16756   0.886   4.413   7.651 -0.2175  0.3578 -0.5052
 1708SOL    HW116757   0.838   4.342   7.695  0.9596 -0.1228  0.0070
 1708SOL    HW216758   0.969   4.415   7.697 -0.0417 -0.4035 -0.7808
 1709SOL     OW16759   4.129   2.424   7.822  0.2970 -0.6923 -0.4144
 1709SOL    HW116760   4.131   2.453   7.913 -0.7552  1.3703 -1.0384
 1709SOL    HW216761   4.044   2.380   7.821 -1.4189  2.5689 -1.0445
 1710SOL     OW16762   1.631   3.538  10.925 -1.1811  0.4319 -0.5412
 1710SOL    HW116763   1.695   3.584  10.871  0.9298 -1.5333  0.2801
 1710SOL    HW216764   1.593   3.592  10.994 -0.4138 -1.5963  1.4868
 1711SOL     OW16765   2.580   0.923   8.010  0.8700 -0.3771  0.7271
 1711SOL    HW116766   2.521   0.921   8.085 -0.8214 -1.2229 -0.6272
 1711SOL    HW216767   2.604   0.830   8.015 -1.0822 -1.0963 -3.3852
 1712SOL     OW16768   3.558   1.284  11.007 -0.3612 -0.0477  0.1355
 1712SOL    HW116769   3.536   1.252  10.919  4.1283  2.1900 -1.8139
 1712SOL    HW216770   3.569   1.378  10.989 -2.0732  0.3846  1.2969
 1713SOL     OW16771   1.980   2.535   6.902  0.1449  0.0488 -0.0897
 1713SOL    HW116772   2.041   2.498   6.965 -1.0960 -1.4038  0.2588
 1713SOL    HW216773   1.945   2.605   6.957  0.1562 -0.8423  1.0565
 1714SOL     OW16774   4.568   0.732   6.819 -0.4183 -0.3008 -0.0045
 1714SOL    HW116775   4.557   0.827   6.814  2.7426  0.0826  0.1778
 1714SOL    HW216776   4.539   0.715   6.909  1.4548  0.4663  0.7395
 1715SOL     OW16777   2.142   2.286  12.975 -0.4487 -0.1274  0.1202
 1715SOL    HW116778   2.186   2.369  12.991  0.6827 -0.5955 -0.6513
 1715SOL    HW216779   2.122   2.305  12.884 -3.4115 -3.5115  0.0569
 1716SOL     OW16780   3.739   4.228   5.215 -0.0510  0.2847  0.5803
 1716SOL    HW116781   3.776   4.167   5.152 -1.1205  0.2166  0.0092
 1716SOL    HW216782   3.805   4.236   5.284  1.3153 -1.6601 -0.5277
 1717SOL     OW16783   1.922   0.841   3.273  0.0696  0.3028 -0.2661
 1717SOL    HW116784   1.840   0.891   3.270 -0.7011 -0.9218  0.4505
 1717SOL    HW216785   1.884   0.753   3.279  0.0641  0.4723  2.1299
 1718SOL     OW16786   2.621   1.330  14.684  0.5977 -0.2992  0.0125
 1718SOL    HW116787   2.610   1.357  14.593  2.0240 -1.9221 -0.6284
 1718SOL    HW216788   2.545   1.378  14.717  0.3471 -0.4768 -0.3079
 1719SOL     OW16789   4.662   1.183   7.521 -0.5795  0.2445  0.4465
 1719SOL    HW116790   4.729   1.213   7.582 -0.0005  0.1909 -0.1687
 1719SOL    HW216791   4.720   1.174   7.446 -0.4231  0.5041  0.5380
 1720SOL     OW16792   2.464   3.105  17.573  0.0694  0.0045 -0.1588
 1720SOL    HW116793   2.513   3.170  17.624  0.9440 -0.4813 -0.3743
 1720SOL    HW216794   2.401   3.074  17.637  0.2288  0.3540  0.1702
 1721SOL     OW16795   0.514   4.400   3.696 -0.6328 -0.1893  0.4904
 1721SOL    HW116796   0.444   4.335   3.697  0.1221 -1.0176  0.2615
 1721SOL    HW216797   0.592   4.344   3.698  0.4015  1.1939 -0.5623
 1722SOL     OW16798   3.444   2.359   9.002 -0.0637  0.0644  0.6079
 1722SOL    HW116799   3.428   2.386   9.092 -0.3399  0.4987  0.4292
 1722SOL    HW216800   3.391   2.279   8.993 -0.4807  0.5853 -1.5958
 1723SOL     OW16801   3.380   2.102   4.694 -0.7171 -0.2666  0.0803
 1723SOL    HW116802   3.417   2.090   4.781 -1.7181  1.5484  0.7484
 1723SOL    HW216803   3.305   2.159   4.712 -1.3352 -0.7078 -1.0615
 1724SOL     OW16804   2.568   4.403   2.261 -0.1114  0.1187 -0.0477
 1724SOL    HW116805   2.537   4.443   2.180 -1.0918  1.0802  0.8120
 1724SOL    HW216806   2.537   4.467   2.325 -1.1658  1.0083 -1.4428
 1725SOL     OW16807   4.544   2.979   8.456  0.0712  0.4495 -0.0023
 1725SOL    HW116808   4.579   3.030   8.529  0.0080 -1.3113  1.2684
 1725SOL    HW216809   4.590   3.005   8.376 -0.9508  1.1882 -0.3509
 1726SOL     OW16810   4.267   3.815   1.076 -0.0457  0.2802  0.0336
 1726SOL    HW116811   4.209   3.756   1.028  0.5281  0.4093 -0.8262
 1726SOL    HW216812   4.346   3.760   1.076 -0.5177 -0.3948 -0.9523
 1727SOL     OW16813   1.842   3.071  16.440 -0.1386 -0.2544  0.2204
 1727SOL    HW116814   1.780   3.121  16.493  1.1644  1.5994 -0.0250
 1727SOL    HW216815   1.789   3.012  16.386  0.6806 -1.1783  0.4379
 1728SOL     OW16816   1.511   1.758  12.351 -0.2323  0.3453 -0.4964
 1728SOL    HW116817   1.467   1.703  12.416 -0.3368  0.0667 -0.8030
 1728SOL    HW216818   1.580   1.806  12.397 -1.6515  1.4255  0.5235
 1729SOL     OW16819   4.218   1.202   5.243  0.1838  0.0622 -0.1908
 1729SOL    HW116820   4.169   1.192   5.324 -0.0024  3.6996  0.1470
 1729SOL    HW216821   4.155   1.180   5.174  0.0047  0.1756 -0.0637
 1730SOL     OW16822   0.233   2.596   9.321 -0.2916 -0.4381 -0.5997
 1730SOL    HW116823   0.261   2.555   9.403  0.5247  1.4222  0.0615
 1730SOL    HW216824   0.306   2.576   9.263  0.6379 -1.4982  0.9478
 1731SOL     OW16825   1.834   2.752   6.978  0.2901 -0.2787  0.2329
 1731SOL    HW116826   1.807   2.800   7.056  0.4276 -0.0268  0.1264
 1731SOL    HW216827   1.752   2.749   6.927  1.1807 -0.9394 -1.1603
 1732SOL     OW16828   1.993   1.944   8.884 -0.6206 -0.3112  0.1771
 1732SOL    HW116829   2.084   1.965   8.907 -1.0447  0.9292  0.7008
 1732SOL    HW216830   1.965   1.900   8.964 -0.0485  0.4309  0.7867
 1733SOL     OW16831   4.183   2.223   3.615  0.1708  0.5680  0.1115
 1733SOL    HW116832   4.239   2.168   3.670  1.9949  2.6355  0.2996
 1733SOL    HW216833   4.240   2.300   3.606  0.9021 -0.0970 -0.9596
 1734SOL     OW16834   1.168   2.379   3.182 -0.4541  0.9135  0.2104
 1734SOL    HW116835   1.129   2.313   3.239 -0.1277  1.5962  1.2255
 1734SOL    HW216836   1.245   2.401   3.235 -0.4855 -1.8247  1.3712
 1735SOL     OW16837   4.252   4.083  12.326  0.4238  0.1944 -0.3162
 1735SOL    HW116838   4.279   4.002  12.282 -1.2184 -1.4792  1.7718
 1735SOL    HW216839   4.167   4.076  12.368 -0.5989  2.1960 -2.0386
 1736SOL     OW16840   2.321   2.588   1.934 -0.4442 -0.5257  0.5830
 1736SOL    HW116841   2.377   2.611   2.008  0.3441  1.0016 -0.4837
 1736SOL    HW216842   2.254   2.655   1.923  0.4351 -0.1020 -2.1404
 1737SOL     OW16843   2.804   1.603  10.096 -0.2378  0.1992 -0.2634
 1737SOL    HW116844   2.714   1.579  10.073  1.0742 -2.5597 -2.6116
 1737SOL    HW216845   2.840   1.542  10.160 -0.6983  0.5610  0.3343
 1738SOL     OW16846   3.222   2.313   3.415  0.2238  0.1670 -0.2529
 1738SOL    HW116847   3.231   2.314   3.511 -2.8040  2.6046  0.0216
 1738SOL    HW216848   3.297   2.255   3.399  0.9327  1.3064 -1.0393
 1739SOL     OW16849   0.544   1.424   6.503 -0.3269 -0.4178 -0.5455
 1739SOL    HW116850   0.464   1.377   6.527  0.0221 -1.1450 -0.8048
 1739SOL    HW216851   0.596   1.348   6.475  0.2476 -0.9941  2.0889
 1740SOL     OW16852   4.514   3.064  10.678  0.6457 -0.0870 -0.1359
 1740SOL    HW116853   4.513   3.102  10.766  1.7359  1.9907 -1.0241
 1740SOL    HW216854   4.571   2.994  10.709  1.1930  1.6839  2.8871
 1741SOL     OW16855   0.817   1.226   6.650 -0.5021  0.0110  0.2646
 1741SOL    HW116856   0.902   1.240   6.607  0.0892  4.0153  2.7214
 1741SOL    HW216857   0.795   1.137   6.621 -1.8251  0.7510 -0.9578
 1742SOL     OW16858   3.856   2.252   0.901 -0.0601 -0.4056  0.3677
 1742SOL    HW116859   3.762   2.247   0.920 -0.5436 -3.2065 -2.8921
 1742SOL    HW216860   3.883   2.343   0.913 -0.3278 -0.4043  0.9932
 1743SOL     OW16861   4.505   2.494   6.366 -0.0063 -0.4369  0.1150
 1743SOL    HW116862   4.535   2.458   6.282  3.5299 -1.3069  1.7537
 1743SOL    HW216863   4.412   2.474   6.360 -0.1564 -0.3444  2.0487
 1744SOL     OW16864   1.148   3.948  17.359  0.0565 -0.2305 -0.7596
 1744SOL    HW116865   1.216   3.959  17.292  0.4299 -0.1349 -0.3589
 1744SOL    HW216866   1.207   3.961  17.433 -0.5666  1.5934 -0.5793
 1745SOL     OW16867   2.677   1.829  13.177  0.2341  0.0229 -0.7783
 1745SOL    HW116868   2.588   1.849  13.206  0.8095 -1.5482  2.0726
 1745SOL    HW216869   2.720   1.823  13.262  0.4766 -1.8562 -1.0116
 1746SOL     OW16870   1.958   4.348   8.023  0.3135 -0.4290 -0.8075
 1746SOL    HW116871   1.990   4.358   7.933  0.2670 -2.2034 -1.0268
 1746SOL    HW216872   1.887   4.409   8.005 -0.3139 -1.2211 -1.0479
 1747SOL     OW16873   1.325   4.572   8.294 -0.3106 -0.0028  0.2572
 1747SOL    HW116874   1.258   4.522   8.246 -0.0695  0.9042 -1.0173
 1747SOL    HW216875   1.378   4.509   8.344 -0.9737 -1.4804 -0.8772
 1748SOL     OW16876   0.119   3.922   2.496  0.1780 -0.1043  0.4075
 1748SOL    HW116877   0.082   3.917   2.408  0.1013  0.2583  0.4227
 1748SOL    HW216878   0.194   3.971   2.463  0.4438 -1.4836 -1.0760
 1749SOL     OW16879   3.057   4.592   3.918  0.3682 -0.3564 -0.6422
 1749SOL    HW116880   3.140   4.639   3.928 -1.3308  2.0272  2.2646
 1749SOL    HW216881   3.016   4.635   3.993 -1.9180 -1.3093 -1.3716
 1750SOL     OW16882   4.258   1.473   7.252  0.2412 -0.3979 -0.2418
 1750SOL    HW116883   4.206   1.416   7.195 -0.8353  2.2909 -1.9809
 1750SOL    HW216884   4.293   1.413   7.318 -0.3380  0.7417  1.1044
 1751SOL     OW16885   2.044   3.500   8.289  0.1433  0.2731  0.0845
 1751SOL    HW116886   2.069   3.459   8.206  1.1144  1.6392 -0.3038
 1751SOL    HW216887   2.125   3.509   8.339  0.1817 -2.4035  0.4878
 1752SOL     OW16888   4.509   3.413   4.106  0.2964 -0.3306  0.3082
 1752SOL    HW116889   4.475   3.498   4.079  2.1980  0.2915 -0.0914
 1752SOL    HW216890   4.540   3.425   4.196  0.6157  0.7513  0.0470
 1753SOL     OW16891   0.552   2.700   9.335  0.1527  0.1367  0.0660
 1753SOL    HW116892   0.512   2.642   9.271 -0.8072  0.6626  0.1972
 1753SOL    HW216893   0.596   2.634   9.390 -0.0191  1.5777  1.9298
 1754SOL     OW16894   1.968   1.480   7.103  0.0658  0.0687  0.3577
 1754SOL    HW116895   2.051   1.520   7.128  0.7458 -0.4170 -1.0942
 1754SOL    HW216896   1.932   1.466   7.190  0.8921  0.2023  0.7179
 1755SOL     OW16897   3.096   1.836   7.778  0.3774  0.3700  0.0800
 1755SOL    HW116898   3.143   1.919   7.778  2.4058 -0.7762  0.1279
 1755SOL    HW216899   3.045   1.827   7.697 -0.4808  3.3293  0.3180
 1756SOL     OW16900   2.053   4.300   2.840 -0.1508  0.4751  0.1187
 1756SOL    HW116901   2.058   4.384   2.793 -0.3036  0.1493 -0.4730
 1756SOL    HW216902   1.966   4.313   2.878  0.4712  1.5954  1.1659
 1757SOL     OW16903   4.712   3.683   8.792  0.0899  0.1861 -1.1407
 1757SOL    HW116904   4.683   3.677   8.701 -0.3450 -1.0327 -0.9233
 1757SOL    HW216905   4.646   3.743   8.827 -2.1590 -3.5641  1.0241
 1758SOL     OW16906   3.418   3.852  13.876  0.1878 -0.0782  0.3018
 1758SOL    HW116907   3.401   3.844  13.969  1.3489  2.7848  0.7479
 1758SOL    HW216908   3.394   3.765  13.845  1.2551 -0.5483  0.7891
 1759SOL     OW16909   0.429   4.488   0.597 -0.2843  0.1649  0.4825
 1759SOL    HW116910   0.346   4.536   0.590 -0.9465 -1.1188 -0.4301
 1759SOL    HW216911   0.484   4.545   0.543 -0.2998 -0.1604  0.1273
 1760SOL     OW16912   3.329   0.017   2.814  0.2239  0.3200  0.3467
 1760SOL    HW116913   3.375   0.100   2.821  1.3612 -0.5136  2.6002
 1760SOL    HW216914   3.387   4.701   2.868 -1.3995 -2.7891 -0.9649
 1761SOL     OW16915   1.614   2.447  16.297 -0.1163  0.9708 -0.6263
 1761SOL    HW116916   1.612   2.384  16.368 -2.1941  0.1874 -1.3703
 1761SOL    HW216917   1.661   2.396  16.232  0.9630  0.7579  0.3258
 1762SOL     OW16918   2.366   4.350   3.057  0.3552 -0.0744 -0.2515
 1762SOL    HW116919   2.367   4.263   3.017 -0.5314 -0.2066  0.0262
 1762SOL    HW216920   2.338   4.329   3.146 -1.1398  1.9021 -0.2786
 1763SOL     OW16921   2.398   1.398  12.844  0.3973 -0.0498  0.3763
 1763SOL    HW116922   2.473   1.389  12.903  0.6423  0.7436  0.1945
 1763SOL    HW216923   2.434   1.423  12.759  3.1198 -0.8181  1.3132
 1764SOL     OW16924   0.049   1.506   5.866  0.0917 -0.0512  0.1635
 1764SOL    HW116925   0.124   1.544   5.911 -1.1936  2.9668 -0.2470
 1764SOL    HW216926   0.035   1.428   5.919  1.7721 -0.6815 -0.3376
 1765SOL     OW16927   1.598   2.856   8.272  0.1357  0.8736  0.0741
 1765SOL    HW116928   1.663   2.814   8.328 -0.2899  1.1826  0.8103
 1765SOL    HW216929   1.529   2.790   8.261 -0.5126  1.8083 -1.4355
 1766SOL     OW16930   2.824   2.474   6.850  0.9432  0.2035  0.2931
 1766SOL    HW116931   2.752   2.440   6.797  2.0260 -1.2624 -0.2205
 1766SOL    HW216932   2.889   2.470   6.780 -0.6821  0.2070 -1.2202
 1767SOL     OW16933   1.356   0.589   4.668 -0.2132 -0.1904  0.3202
 1767SOL    HW116934   1.318   0.624   4.749  0.8370  1.4580  0.1158
 1767SOL    HW216935   1.292   0.603   4.599 -2.2973  1.2863  2.5484
 1768SOL     OW16936   3.431   2.695   7.850  0.6063 -0.4396 -0.1393
 1768SOL    HW116937   3.491   2.724   7.782  0.9397 -2.1345 -0.5630
 1768SOL    HW216938   3.499   2.666   7.912 -0.4520 -0.2000  1.1436
 1769SOL     OW16939   1.368   2.305   4.657  0.3243  0.6284 -0.3938
 1769SOL    HW116940   1.354   2.268   4.570 -1.1925 -1.4318  0.7327
 1769SOL    HW216941   1.450   2.265   4.685  0.8789  0.4501 -2.3226
 1770SOL     OW16942   3.096   2.804  14.410 -0.1047  0.1232  0.5957
 1770SOL    HW116943   3.101   2.890  14.368  1.3296  0.1021  0.7061
 1770SOL    HW216944   3.100   2.818  14.504  2.4074 -2.6765  0.9144
 1771SOL     OW16945   1.754   0.205   3.139  0.1211 -0.2941  0.3285
 1771SOL    HW116946   1.850   0.214   3.132  0.5034 -4.0145  1.2211
 1771SOL    HW216947   1.745   0.156   3.220  2.8219  1.3621  1.6613
 1772SOL     OW16948   1.501   2.586   5.920 -0.0096  0.0350 -0.9671
 1772SOL    HW116949   1.441   2.516   5.946  0.9903 -0.7364 -0.7130
 1772SOL    HW216950   1.582   2.537   5.932 -1.7426 -2.4290  0.8386
 1773SOL     OW16951   2.551   4.570   6.981  0.5751 -0.3412  0.1180
 1773SOL    HW116952   2.578   4.579   6.889 -0.3228  0.7068 -0.0333
 1773SOL    HW216953   2.492   4.495   6.973 -0.4944  0.4369  0.8690
 1774SOL     OW16954   1.139   0.055   3.563 -0.0639 -0.1674  0.1087
 1774SOL    HW116955   1.138   0.049   3.659  0.5599 -0.5619  0.0862
 1774SOL    HW216956   1.202   0.127   3.555 -0.1482 -0.0261  0.6599
 1775SOL     OW16957   2.842   1.893   6.969  0.1851  0.4019 -0.0462
 1775SOL    HW116958   2.931   1.868   6.992  0.0902  2.8958  2.9980
 1775SOL    HW216959   2.824   1.974   7.017 -1.0964  0.2290 -0.2399
 1776SOL     OW16960   1.375   3.086   5.907 -0.0015 -0.9179 -0.2463
 1776SOL    HW116961   1.468   3.089   5.931 -0.0137 -0.1017 -0.3135
 1776SOL    HW216962   1.363   3.102   5.814 -0.5045  0.6412  0.0893
 1777SOL     OW16963   3.112   4.242   4.809 -0.2126  0.7248 -0.2861
 1777SOL    HW116964   3.158   4.177   4.862 -0.2279  1.9857  1.2834
 1777SOL    HW216965   3.178   4.311   4.814 -0.0092  0.4044  1.3225
 1778SOL     OW16966   4.692   0.956   2.497  0.4955 -0.3478 -0.3086
 1778SOL    HW116967   4.689   0.860   2.500  1.1883 -0.3747 -0.4645
 1778SOL    HW216968   0.015   0.975   2.569  0.4231 -1.8068  0.1379
 1779SOL     OW16969   1.676   0.461   2.406  0.2884  0.1866 -0.1932
 1779SOL    HW116970   1.686   0.522   2.333 -0.1569 -0.4643 -0.7991
 1779SOL    HW216971   1.689   0.513   2.486  0.0695 -1.7901  1.1158
 1780SOL     OW16972   1.981   0.800   3.911  0.1552 -0.8340 -0.4414
 1780SOL    HW116973   1.988   0.719   3.861  0.2053 -1.6206  0.8312
 1780SOL    HW216974   1.921   0.852   3.858 -0.3017  0.5086  1.3726
 1781SOL     OW16975   3.300   4.429   9.924  0.2501  0.1447  0.1712
 1781SOL    HW116976   3.219   4.478   9.914  0.3486  0.6519  1.8423
 1781SOL    HW216977   3.269   4.346   9.960 -0.1957 -0.2518 -1.1208
 1782SOL     OW16978   3.618   2.512   2.254  0.2865 -0.2550 -0.1802
 1782SOL    HW116979   3.652   2.433   2.213  0.3579  0.2720 -1.1517
 1782SOL    HW216980   3.569   2.551   2.182  1.3400 -1.3676 -1.4846
 1783SOL     OW16981   3.493   4.600  10.715 -0.1584 -1.0490  0.1108
 1783SOL    HW116982   3.572   4.630  10.759 -0.2376 -1.4218  0.5088
 1783SOL    HW216983   3.429   4.614  10.784  0.3029 -2.1592  0.7656
 1784SOL     OW16984   2.290   1.322  17.622 -0.2547  0.0755  0.2174
 1784SOL    HW116985   2.358   1.366  17.673  0.8544 -2.0525  0.5378
 1784SOL    HW216986   2.215   1.326  17.681 -0.2531 -1.7987  0.3430
 1785SOL     OW16987   4.638   1.375  16.725  0.3166  0.5040  0.2948
 1785SOL    HW116988   4.600   1.423  16.652 -2.4491 -0.5115  1.0718
 1785SOL    HW216989   4.676   1.298  16.684  1.3168  0.1316  1.9243
 1786SOL     OW16990   3.724   1.627   9.037  0.2456  0.0950  0.2027
 1786SOL    HW116991   3.720   1.537   9.004 -1.0456  0.1190  0.3250
 1786SOL    HW216992   3.649   1.620   9.096  1.5654 -1.9651  1.6321
 1787SOL     OW16993   1.511   1.080   4.026  0.2015 -0.0575 -0.3225
 1787SOL    HW116994   1.441   1.128   4.070  1.6809  1.5006  0.3048
 1787SOL    HW216995   1.485   1.100   3.936  1.0462  3.0480  0.1383
 1788SOL     OW16996   0.297   3.818   7.393 -0.3780 -0.5483 -0.0013
 1788SOL    HW116997   0.283   3.752   7.460 -3.0308  0.3748  0.3672
 1788SOL    HW216998   0.225   3.789   7.337 -1.1324  0.5295  0.3985
 1789SOL     OW16999   4.462   0.173   8.348 -0.4249 -0.1222  0.2029
 1789SOL    HW117000   4.448   0.258   8.391  0.4120  0.8415 -1.4328
 1789SOL    HW217001   4.396   0.114   8.384  1.1287 -2.1884 -0.3461
 1790SOL     OW17002   4.243   2.608   6.416  0.0705 -0.2066  0.1200
 1790SOL    HW117003   4.228   2.518   6.386 -0.7476 -0.0085 -0.0653
 1790SOL    HW217004   4.183   2.659   6.361  0.1205  0.3417  0.5735
 1791SOL     OW17005   0.642   4.556   7.681 -0.5676  0.5339  0.4068
 1791SOL    HW117006   0.627   4.558   7.775 -1.9660 -1.1537  0.2187
 1791SOL    HW217007   0.730   4.520   7.669 -1.0496 -0.4138 -0.3012
 1792SOL     OW17008   1.628   1.562   7.524  0.0059 -0.2902 -0.3180
 1792SOL    HW117009   1.568   1.577   7.598 -0.1506  0.3157 -0.5743
 1792SOL    HW217010   1.624   1.642   7.473 -1.6599  0.2863  0.6927
 1793SOL     OW17011   4.180   3.462   3.249  0.5321  0.1637  0.1416
 1793SOL    HW117012   4.263   3.453   3.202  0.0852 -0.0622 -0.5893
 1793SOL    HW217013   4.129   3.532   3.209  0.4830 -0.3959 -0.7606
 1794SOL     OW17014   2.136   1.547   3.527 -0.1979 -0.6511 -0.8231
 1794SOL    HW117015   2.115   1.599   3.604 -1.4653 -1.0254 -0.9066
 1794SOL    HW217016   2.046   1.537   3.497 -0.5220  0.6435 -0.2636
 1795SOL     OW17017   4.664   3.181  14.816  0.2554 -0.2111  0.6066
 1795SOL    HW117018   4.696   3.217  14.734 -0.0967 -0.5117  0.3412
 1795SOL    HW217019   4.606   3.252  14.844 -1.9435 -2.6816  2.3169
 1796SOL     OW17020   1.107   1.899  11.526  0.5204  0.2515  0.1167
 1796SOL    HW117021   1.185   1.945  11.555 -0.1472  0.5850  1.4170
 1796SOL    HW217022   1.143   1.856  11.449 -0.3189  0.3385 -0.3265
 1797SOL     OW17023   1.735   2.772  10.031  0.5073 -0.2348 -0.1886
 1797SOL    HW117024   1.803   2.762   9.965 -0.1034  1.6196 -1.0877
 1797SOL    HW217025   1.784   2.812  10.103  1.8256 -1.8178 -0.2074
 1798SOL     OW17026   0.704   1.481   9.130  0.2111  0.0344 -0.3009
 1798SOL    HW117027   0.679   1.464   9.040 -0.1485 -1.7584  0.1357
 1798SOL    HW217028   0.734   1.399   9.170 -2.5204 -1.4304 -1.2210
 1799SOL     OW17029   4.673   0.871   8.728  0.1364 -0.5340  0.2169
 1799SOL    HW117030   4.621   0.951   8.717  1.3746 -0.0084 -1.6671
 1799SOL    HW217031   4.640   0.816   8.658 -1.0403  3.0670 -2.0297
 1800SOL     OW17032   2.769   1.602   6.632 -0.2069 -0.6114  0.3126
 1800SOL    HW117033   2.792   1.578   6.721  1.7902 -1.0265 -0.3226
 1800SOL    HW217034   2.676   1.577   6.627 -0.2009 -0.2980 -1.4801
 1801SOL     OW17035   2.392   3.869  13.450 -0.0731  0.0365  0.3305
 1801SOL    HW117036   2.440   3.808  13.505 -1.3930 -2.4295 -1.2858
 1801SOL    HW217037   2.314   3.820  13.424 -0.4413  1.5695 -1.4711
 1802SOL     OW17038   1.421   2.788   1.425  0.2861 -0.2249  0.2450
 1802SOL    HW117039   1.441   2.812   1.515 -1.0331  1.0305  0.1881
 1802SOL    HW217040   1.355   2.852   1.399  0.2135 -0.3805  0.0452
 1803SOL     OW17041   2.065   1.302   6.049 -0.1484 -0.8665  0.1592
 1803SOL    HW117042   2.065   1.289   5.954  1.6516 -1.2130  0.2070
 1803SOL    HW217043   2.139   1.250   6.079  0.3497 -1.2594 -1.7502
 1804SOL     OW17044   1.493   4.084   7.043  0.5940  0.0989  0.1478
 1804SOL    HW117045   1.551   4.012   7.069 -0.3302 -0.3524  0.9584
 1804SOL    HW217046   1.530   4.153   7.097  0.8751  0.3460 -0.3573
 1805SOL     OW17047   3.139   0.879   8.106 -0.7072  0.2293 -0.5752
 1805SOL    HW117048   3.145   0.967   8.143 -0.8604  0.0391 -0.1042
 1805SOL    HW217049   3.044   0.888   8.097 -0.6607  0.9598 -0.2801
 1806SOL     OW17050   1.923   3.979   3.547 -0.3585 -0.1953 -0.8197
 1806SOL    HW117051   1.952   4.021   3.467  0.1724 -1.4657 -1.2928
 1806SOL    HW217052   2.010   3.963   3.583 -0.9274 -0.6210  0.3775
 1807SOL     OW17053   0.001   1.782   3.934 -0.3147  0.2789  0.3459
 1807SOL    HW117054   0.019   1.691   3.957 -1.9121  1.2161  5.1141
 1807SOL    HW217055   4.649   1.801   3.961 -0.0545  1.6058  0.2991
 1808SOL     OW17056   1.422   1.044   2.113 -0.2084  0.0373  0.3921
 1808SOL    HW117057   1.483   0.987   2.066 -0.8126 -0.7224  0.5396
 1808SOL    HW217058   1.343   0.992   2.121  0.1243 -0.8744 -2.3589
 1809SOL     OW17059   2.954   2.206  11.464  0.4279  0.7421 -0.0115
 1809SOL    HW117060   2.963   2.148  11.389  1.2933  0.0139  0.6567
 1809SOL    HW217061   2.986   2.149  11.533  0.2488 -0.3315 -0.8267
 1810SOL     OW17062   2.909   3.582   7.181 -0.1558  0.1499  0.6454
 1810SOL    HW117063   2.976   3.631   7.134  0.9510 -0.1505  1.9416
 1810SOL    HW217064   2.877   3.535   7.103 -1.4800  3.0300 -0.5435
 1811SOL     OW17065   1.168   1.991   7.110 -0.0908 -0.2986  0.1077
 1811SOL    HW117066   1.131   1.989   7.199  1.4434 -0.8851  0.7429
 1811SOL    HW217067   1.189   2.082   7.088  2.5417 -0.9310 -0.0464
 1812SOL     OW17068   1.426   1.155  13.292  0.3964  0.0318 -0.1217
 1812SOL    HW117069   1.409   1.199  13.376  2.1710 -0.5181  0.5256
 1812SOL    HW217070   1.404   1.066  13.319 -1.9076  0.1709 -1.5813
 1813SOL     OW17071   0.534   0.410   4.666  0.0148 -0.1826  0.5217
 1813SOL    HW117072   0.469   0.377   4.604  0.8636  0.5380 -0.7485
 1813SOL    HW217073   0.555   0.336   4.723 -1.4264 -0.1776  1.0643
 1814SOL     OW17074   2.321   1.741   3.947  0.0867  0.0248  0.4966
 1814SOL    HW117075   2.414   1.738   3.925 -0.2040 -0.8795 -0.5704
 1814SOL    HW217076   2.290   1.651   3.956  0.5620 -0.1244  0.6088
 1815SOL     OW17077   3.386   0.399   3.337 -0.0224 -0.1406  0.2703
 1815SOL    HW117078   3.356   0.310   3.356  0.0534 -0.5090 -1.3177
 1815SOL    HW217079   3.324   0.436   3.400 -0.9843 -1.4887  0.1310
 1816SOL     OW17080   0.030   2.094   1.330 -0.1683 -1.1043  0.2818
 1816SOL    HW117081   4.726   2.142   1.401  1.5188 -2.3274  2.0724
 1816SOL    HW217082   4.718   2.013   1.338 -0.3475 -1.0269 -0.0331
 1817SOL     OW17083   2.597   1.723   3.869  0.5656  0.0228 -0.2244
 1817SOL    HW117084   2.639   1.775   3.937 -1.3390  0.0252  0.9464
 1817SOL    HW217085   2.616   1.635   3.902 -0.4234 -0.7278 -1.6731
 1818SOL     OW17086   4.156   1.072  10.675 -0.1762  0.3344  0.0150
 1818SOL    HW117087   4.100   1.149  10.665  1.2286  1.5230  1.1879
 1818SOL    HW217088   4.157   1.047  10.768  2.1851 -2.0688 -0.6691
 1819SOL     OW17089   3.507   2.078   1.699  0.2895  0.2773 -0.1125
 1819SOL    HW117090   3.423   2.103   1.659  0.7149  0.3507 -0.9583
 1819SOL    HW217091   3.477   2.066   1.789  0.6867  0.0619 -0.0116
 1820SOL     OW17092   2.307   0.237   3.215  0.6034 -0.6632 -0.0755
 1820SOL    HW117093   2.353   0.257   3.133  1.1856 -1.6424  0.0177
 1820SOL    HW217094   2.341   0.315   3.259 -3.8366  1.4975 -0.4446
 1821SOL     OW17095   2.380   4.616   7.995  0.4928 -0.1043  0.2454
 1821SOL    HW117096   2.303   4.642   8.046 -0.3370 -1.2465 -0.4071
 1821SOL    HW217097   2.335   4.565   7.928 -1.1682  0.7374  0.7249
 1822SOL     OW17098   3.500   0.608   8.514  0.2033  0.0166  0.2871
 1822SOL    HW117099   3.472   0.670   8.446 -0.5246  0.3604  0.9037
 1822SOL    HW217100   3.550   0.656   8.580 -0.9219 -0.7764  1.7278
 1823SOL     OW17101   2.094   0.278   0.589 -0.3402  0.3237 -0.0989
 1823SOL    HW117102   2.044   0.204   0.554 -0.4166 -0.0411  0.7907
 1823SOL    HW217103   2.090   0.249   0.680  0.1485 -2.1160 -0.8556
 1824SOL     OW17104   4.711   4.112   8.718  0.1818 -0.1773  0.2658
 1824SOL    HW117105   4.712   4.120   8.623  1.6043 -1.6638  0.1654
 1824SOL    HW217106   0.043   4.047   8.727 -0.0789 -0.0398  3.3814
 1825SOL     OW17107   3.883   3.656   3.395  1.2104 -0.4393 -0.1101
 1825SOL    HW117108   3.789   3.648   3.414  1.7925 -2.4397  1.9284
 1825SOL    HW217109   3.879   3.722   3.326 -1.5119  2.3335  2.6791
 1826SOL     OW17110   4.350   2.167   9.794  0.4141  0.2081 -0.0112
 1826SOL    HW117111   4.390   2.093   9.841 -0.2682  0.9783  1.7513
 1826SOL    HW217112   4.390   2.235   9.848  1.5668 -0.2670 -0.2702
 1827SOL     OW17113   4.656   4.084  17.497 -0.1038  0.6507 -0.3690
 1827SOL    HW117114   0.002   4.079  17.543 -0.6261  0.7673  0.5866
 1827SOL    HW217115   4.604   4.135  17.559  2.1112  0.1009  1.9019
 1828SOL     OW17116   4.722   1.030   7.231 -0.3176  0.0724  0.2461
 1828SOL    HW117117   0.014   1.029   7.140  0.6474  1.1205  0.5430
 1828SOL    HW217118   4.653   0.965   7.246  0.6008 -1.0320 -0.2428
 1829SOL     OW17119   1.220   4.070   7.280 -0.1763 -0.2301 -0.5244
 1829SOL    HW117120   1.310   4.042   7.292  0.1586  0.9769 -0.2987
 1829SOL    HW217121   1.173   4.010   7.338 -0.0585  0.6273  0.4541
 1830SOL     OW17122   4.106   3.791   7.921  0.4084 -0.0237  0.2692
 1830SOL    HW117123   4.063   3.844   7.988  1.6101 -0.7046  1.5848
 1830SOL    HW217124   4.197   3.820   7.931  0.5279  0.0319 -0.9963
 1831SOL     OW17125   4.614   4.359   3.123 -0.5023 -0.0635 -1.0225
 1831SOL    HW117126   4.609   4.380   3.216  1.7422 -0.3571 -0.8280
 1831SOL    HW217127   4.583   4.269   3.128 -1.1843  0.3433  1.9167
 1832SOL     OW17128   1.127   2.663  17.693  0.5847 -0.3731 -0.0760
 1832SOL    HW117129   1.062   2.670  17.624 -1.6649  0.2445  2.1052
 1832SOL    HW217130   1.188   2.602  17.651 -0.1155  0.3443 -2.0918
 1833SOL     OW17131   0.000   0.185   3.848 -0.3108  0.3412  0.1574
 1833SOL    HW117132   4.665   0.142   3.893  0.0101 -1.5976 -1.1654
 1833SOL    HW217133   0.045   0.102   3.831  0.0512  0.3937  0.8241
 1834SOL     OW17134   1.104   4.288   2.119 -0.4336 -0.1574  0.5076
 1834SOL    HW117135   1.149   4.347   2.179  0.9910 -1.5196  0.8026
 1834SOL    HW217136   1.088   4.204   2.163 -0.8272 -1.0123 -1.2467
 1835SOL     OW17137   0.731   0.802   0.465 -0.0340 -0.5650  0.1117
 1835SOL    HW117138   0.667   0.872   0.448 -0.9230 -1.3885  0.0563
 1835SOL    HW217139   0.761   0.829   0.552 -1.8756  0.2897  0.4788
 1836SOL     OW17140   0.379   2.291   7.901 -0.1254  1.1429 -0.5221
 1836SOL    HW117141   0.443   2.303   7.971 -2.6079 -1.2175  2.1630
 1836SOL    HW217142   0.311   2.349   7.937 -2.8508 -0.7182 -2.6849
 1837SOL     OW17143   0.376   0.739  15.673 -0.0116  0.4768 -0.8334
 1837SOL    HW117144   0.377   0.821  15.625  1.2853  0.2790 -1.1344
 1837SOL    HW217145   0.282   0.738  15.692 -0.1873  0.6191 -1.7196
 1838SOL     OW17146   2.398   3.683   6.090 -1.0032  0.1420  0.2586
 1838SOL    HW117147   2.379   3.754   6.151  0.8117 -0.9654  2.1123
 1838SOL    HW217148   2.394   3.613   6.155  0.7819 -1.3209 -1.2231
 1839SOL     OW17149   2.964   3.233   1.874 -0.4366  0.4284 -0.0427
 1839SOL    HW117150   2.962   3.268   1.785  1.0595  0.3371 -0.0992
 1839SOL    HW217151   2.934   3.146   1.848 -1.3188  0.1542  1.8928
 1840SOL     OW17152   4.591   3.750   2.717  0.1714 -0.4617 -0.0216
 1840SOL    HW117153   4.644   3.685   2.763  0.3826 -0.7924 -0.7287
 1840SOL    HW217154   4.503   3.721   2.742 -1.3439  2.5324 -1.7881
 1841SOL     OW17155   2.884   0.331   2.092  0.3554  0.1391  0.4501
 1841SOL    HW117156   2.893   0.239   2.064  0.0154  0.3301 -0.2811
 1841SOL    HW217157   2.946   0.369   2.030 -0.9741  0.3611 -0.7354
 1842SOL     OW17158   4.130   3.385   1.312 -0.3747 -0.2059 -0.3458
 1842SOL    HW117159   4.110   3.343   1.228 -1.7011  0.4960 -0.3859
 1842SOL    HW217160   4.050   3.349   1.352 -0.1134 -0.6778 -0.2472
 1843SOL     OW17161   2.153   2.264   4.634 -0.0122  0.2745 -0.2452
 1843SOL    HW117162   2.155   2.224   4.547 -0.4715  0.2284 -0.2361
 1843SOL    HW217163   2.161   2.356   4.609  0.1193  0.1332 -0.7339
 1844SOL     OW17164   0.217   1.765   5.534  0.4566 -0.7362 -0.4259
 1844SOL    HW117165   0.221   1.801   5.445 -3.4213  0.6307 -0.0799
 1844SOL    HW217166   0.307   1.757   5.564  1.0430 -1.7592 -2.4645
 1845SOL     OW17167   4.574   2.279   5.326 -0.0017  0.2023  0.1463
 1845SOL    HW117168   4.500   2.247   5.276 -0.1843 -0.5431  0.8886
 1845SOL    HW217169   4.631   2.202   5.328 -0.1543  0.0544 -1.4616
 1846SOL     OW17170   3.870   1.114   1.639 -0.2479 -0.0653 -0.5688
 1846SOL    HW117171   3.909   1.129   1.726 -0.8353 -2.4455  0.1017
 1846SOL    HW217172   3.866   1.019   1.641 -1.2241 -0.0330 -1.2754
 1847SOL     OW17173   0.401   3.132   6.169 -0.1917  0.0961 -1.1951
 1847SOL    HW117174   0.409   3.109   6.261 -1.0081  1.8178 -0.6991
 1847SOL    HW217175   0.322   3.085   6.140 -0.8368  0.0693  0.6343
 1848SOL     OW17176   2.009   0.468   6.991  0.4416 -0.6735  0.1962
 1848SOL    HW117177   2.064   0.510   7.058 -1.4928  0.2511  1.2000
 1848SOL    HW217178   2.054   0.384   6.984  2.5775  0.5716 -1.0554
 1849SOL     OW17179   1.002   3.972  14.264  0.1190  0.1899 -0.0152
 1849SOL    HW117180   0.996   3.955  14.358  3.4669  1.9006  0.5166
 1849SOL    HW217181   0.911   3.986  14.239 -0.2287 -3.3699 -0.7080
 1850SOL     OW17182   3.060   1.202   8.769 -0.3187 -0.0125  0.2347
 1850SOL    HW117183   3.088   1.143   8.699  2.0898  0.7399  0.5478
 1850SOL    HW217184   2.974   1.225   8.734 -0.5900  1.1587  1.6668
 1851SOL     OW17185   0.531   1.387   7.943  0.5285 -0.4113 -0.1477
 1851SOL    HW117186   0.584   1.390   7.864 -0.2116  1.7098 -0.5529
 1851SOL    HW217187   0.574   1.458   7.990 -2.1232  1.1697 -0.1347
 1852SOL     OW17188   0.359   0.916   7.368 -0.2553  0.1972  0.6835
 1852SOL    HW117189   0.440   0.892   7.323 -0.4982 -2.9183  1.9006
 1852SOL    HW217190   0.373   1.010   7.383 -2.0674  0.4004  1.1565
 1853SOL     OW17191   2.884   2.226  17.299  0.2613 -0.3629  0.0623
 1853SOL    HW117192   2.952   2.169  17.263  0.3833 -0.2044  0.0409
 1853SOL    HW217193   2.848   2.255  17.216  1.0794 -1.6166 -0.7381
 1854SOL     OW17194   0.997   0.041   8.977  0.3422 -0.4774  0.0841
 1854SOL    HW117195   0.918   0.041   8.923 -1.2409  0.0080  2.3642
 1854SOL    HW217196   0.971   4.702   9.029  1.8622 -0.5731  0.7005
 1855SOL     OW17197   1.794   1.040   8.883 -0.1796  0.0636  0.3306
 1855SOL    HW117198   1.833   1.082   8.960  0.3842  1.9683 -0.9912
 1855SOL    HW217199   1.710   1.085   8.880 -1.1388 -1.7791 -0.7071
 1856SOL     OW17200   2.119   2.749   4.767 -0.1957  0.1202 -0.3230
 1856SOL    HW117201   2.122   2.787   4.855  0.0665  0.6842 -0.5777
 1856SOL    HW217202   2.047   2.798   4.726  0.3070 -1.3423 -2.9366
 1857SOL     OW17203   0.151   2.171   3.341 -0.0837 -0.0373 -0.1994
 1857SOL    HW117204   0.210   2.202   3.272  0.9275 -1.4390  0.0430
 1857SOL    HW217205   0.203   2.186   3.420  0.4170 -0.2484 -0.4912
 1858SOL     OW17206   0.006   2.479   4.792  0.4128  0.1517 -0.0429
 1858SOL    HW117207   4.713   2.398   4.831 -0.4594  0.2548 -0.5135
 1858SOL    HW217208   0.023   2.453   4.701  0.9813  1.5904 -0.3505
 1859SOL     OW17209   0.944   1.620   9.249 -1.1360  0.4215  0.3710
 1859SOL    HW117210   0.856   1.615   9.284  0.1504 -3.6242  3.0235
 1859SOL    HW217211   0.961   1.531   9.221  1.8328  0.3931  2.1561
 1860SOL     OW17212   1.831   3.775   1.996 -0.1882  0.1770  0.1321
 1860SOL    HW117213   1.795   3.813   1.916 -0.3093  2.0554  1.0742
 1860SOL    HW217214   1.854   3.854   2.045  0.3132  0.2026 -0.1391
 1861SOL     OW17215   4.154   3.793   7.546 -0.6096 -0.0271  0.2772
 1861SOL    HW117216   4.229   3.749   7.586 -0.8875 -0.8613 -0.1003
 1861SOL    HW217217   4.160   3.741   7.465 -1.0570  1.0485 -0.4459
 1862SOL     OW17218   1.797   0.133   2.876 -0.1688 -0.2243 -0.4953
 1862SOL    HW117219   1.751   0.151   2.958  0.2159 -1.7668  0.0728
 1862SOL    HW217220   1.790   0.038   2.868  0.0794 -0.1134 -1.9977
 1863SOL     OW17221   3.522   2.098   3.676  0.0960  0.3064 -0.6990
 1863SOL    HW117222   3.482   2.039   3.740 -0.4772  1.6521  0.1946
 1863SOL    HW217223   3.543   2.043   3.600  1.9211 -0.2036  0.1583
 1864SOL     OW17224   0.374   3.499   4.305  0.4360  0.4204  0.8935
 1864SOL    HW117225   0.338   3.473   4.220  2.8917 -0.1520  0.0469
 1864SOL    HW217226   0.292   3.531   4.343 -0.4958 -1.0393  0.1199
 1865SOL     OW17227   0.252   2.020   5.909  0.6584 -0.2784 -0.5256
 1865SOL    HW117228   0.314   2.068   5.855  1.6642 -0.8993  0.0854
 1865SOL    HW217229   0.185   1.996   5.845  0.4293 -0.0132 -0.3850
 1866SOL     OW17230   1.526   3.139   7.950 -0.2686 -0.6145 -0.1368
 1866SOL    HW117231   1.595   3.178   8.003 -0.6859  3.9154 -2.9028
 1866SOL    HW217232   1.548   3.046   7.960 -1.2563 -0.8459 -0.0873
 1867SOL     OW17233   1.559   2.203   6.317  0.1098 -0.2626  0.3853
 1867SOL    HW117234   1.623   2.139   6.348 -1.9031 -1.6976  1.6296
 1867SOL    HW217235   1.486   2.190   6.378 -0.3661 -0.7638 -0.2695
 1868SOL     OW17236   3.898   3.790  12.311  0.4552 -0.1172 -0.1555
 1868SOL    HW117237   3.887   3.819  12.221  1.5166  2.1897  0.4709
 1868SOL    HW217238   3.923   3.871  12.356 -0.0231  0.2113 -0.4846
 1869SOL     OW17239   0.735   1.924   2.872  0.2755  0.1586 -0.6567
 1869SOL    HW117240   0.655   1.927   2.923  0.4457  0.4193 -0.4014
 1869SOL    HW217241   0.739   2.012   2.834  1.6357  0.5546  0.3845
 1870SOL     OW17242   0.344   1.132   3.760 -0.4265 -0.1319  0.8541
 1870SOL    HW117243   0.266   1.172   3.798 -1.4690 -0.8343 -0.5386
 1870SOL    HW217244   0.299   1.079   3.694 -1.8470  2.8222 -0.5223
 1871SOL     OW17245   0.177   1.563   3.038 -0.9311  0.2705 -0.3613
 1871SOL    HW117246   0.132   1.529   2.960  0.4517 -1.6941 -0.2831
 1871SOL    HW217247   0.149   1.654   3.045 -1.1864  0.1145  0.5915
 1872SOL     OW17248   2.269   0.456   8.294  0.3998  0.0876 -0.0213
 1872SOL    HW117249   2.227   0.384   8.246 -0.8031  0.5326  0.3656
 1872SOL    HW217250   2.207   0.528   8.282 -1.9637 -1.4813  2.8480
 1873SOL     OW17251   2.988   0.934   6.103  0.0046  0.0204  0.1680
 1873SOL    HW117252   2.913   0.905   6.154 -0.5985 -0.0502 -0.7447
 1873SOL    HW217253   2.937   0.979   6.036  0.3086  1.9990  1.2726
 1874SOL     OW17254   0.248   2.388  15.415 -0.6502  0.2969  0.5943
 1874SOL    HW117255   0.262   2.481  15.431  2.1902  0.0153 -0.2214
 1874SOL    HW217256   0.240   2.344  15.499  1.8972  0.3149  0.8209
 1875SOL     OW17257   3.653   3.841   3.550  0.2940 -0.0602 -0.3348
 1875SOL    HW117258   3.570   3.798   3.568 -0.3219  1.3357  0.1114
 1875SOL    HW217259   3.636   3.891   3.471 -2.3711 -3.8536 -2.1681
 1876SOL     OW17260   1.031   3.090   7.628  0.2795 -0.0784 -0.4798
 1876SOL    HW117261   1.036   3.153   7.556 -2.7848 -1.8234 -2.2174
 1876SOL    HW217262   0.981   3.021   7.583  1.0928  0.4151 -2.1517
 1877SOL     OW17263   2.568   2.692   9.022 -0.5649 -0.4653 -0.2880
 1877SOL    HW117264   2.568   2.691   9.118 -0.5055 -2.4109 -0.2900
 1877SOL    HW217265   2.652   2.649   9.007  0.0032  0.7271 -0.4997
 1878SOL     OW17266   3.017   1.294   7.754  0.5100  0.7093  0.0868
 1878SOL    HW117267   3.095   1.330   7.713  1.1810 -0.2141  0.5537
 1878SOL    HW217268   3.041   1.201   7.752  1.9093  1.1076 -0.9385
 1879SOL     OW17269   2.501   3.763   3.268  0.1930  0.1297 -0.1682
 1879SOL    HW117270   2.570   3.766   3.334  0.6130  2.8707 -0.7149
 1879SOL    HW217271   2.516   3.852   3.234 -0.6150 -0.2206 -1.4325
 1880SOL     OW17272   4.546   0.760   8.115  0.2776  0.1991 -0.5712
 1880SOL    HW117273   4.602   0.797   8.183  1.3380  1.3795 -2.0952
 1880SOL    HW217274   4.493   0.836   8.090 -0.6223 -0.7808 -1.6101
 1881SOL     OW17275   1.981   1.970   4.517 -0.0603 -0.0732 -0.2884
 1881SOL    HW117276   1.968   1.901   4.452 -1.2498 -1.3980  1.3517
 1881SOL    HW217277   1.894   1.990   4.551 -1.5873 -1.1544 -3.5338
 1882SOL     OW17278   0.998   2.375  15.645 -0.6949  0.0173  0.3315
 1882SOL    HW117279   0.939   2.369  15.569  1.5543  0.4989 -1.4731
 1882SOL    HW217280   1.082   2.351  15.603 -1.1090  0.1328 -0.5676
 1883SOL     OW17281   1.789   0.471   4.517  0.2929  0.3857  0.0137
 1883SOL    HW117282   1.747   0.477   4.431 -0.6989  0.0311  0.4787
 1883SOL    HW217283   1.720   0.457   4.581  0.5916 -2.1048 -0.2275
 1884SOL     OW17284   3.033   2.438   8.637 -0.0624  0.0846  0.0919
 1884SOL    HW117285   2.988   2.408   8.716  0.8970  0.1217  0.6595
 1884SOL    HW217286   2.963   2.425   8.573  0.2630  0.7060 -0.3944
 1885SOL     OW17287   0.313   3.887   8.978 -0.1112  0.1310  0.4021
 1885SOL    HW117288   0.309   3.793   8.965 -0.0802  0.2013 -0.1124
 1885SOL    HW217289   0.403   3.887   9.009 -0.1060 -1.6941  0.3987
 1886SOL     OW17290   2.887   3.197   6.840  0.3603  1.2995  0.3250
 1886SOL    HW117291   2.833   3.127   6.803  1.3930  1.0440 -0.7122
 1886SOL    HW217292   2.915   3.157   6.923  0.7045  1.7492  0.4210
 1887SOL     OW17293   0.705   2.617   8.062  0.5597  0.0135  0.2108
 1887SOL    HW117294   0.718   2.551   7.994 -0.0466  0.2462 -0.1344
 1887SOL    HW217295   0.792   2.610   8.101  1.7107  1.0799 -2.1399
 1888SOL     OW17296   0.775   0.945   9.516  0.0298 -0.1119  0.5700
 1888SOL    HW117297   0.718   1.004   9.468  1.1775 -0.6258 -1.4306
 1888SOL    HW217298   0.773   0.870   9.456  1.0061  1.1585 -1.0355
 1889SOL     OW17299   2.126   2.147   3.218  0.2751 -0.0220 -0.1212
 1889SOL    HW117300   2.113   2.090   3.294 -1.3170  1.5772  0.8131
 1889SOL    HW217301   2.221   2.154   3.219  0.1194  1.7952  1.6422
 1890SOL     OW17302   4.120   2.474   2.997  0.1014 -0.3048  0.0757
 1890SOL    HW117303   4.160   2.390   3.020  1.2247 -0.2761 -1.7899
 1890SOL    HW217304   4.042   2.472   3.053 -0.4042  2.8050 -0.5473
 1891SOL     OW17305   4.436   0.234  10.252  0.4709  0.5465 -0.0161
 1891SOL    HW117306   4.509   0.243  10.313 -0.4124 -2.9610  1.5776
 1891SOL    HW217307   4.383   0.309  10.279  0.4462  0.6031 -0.2195
 1892SOL     OW17308   3.108   4.707   7.608  0.2317 -0.2162  0.0281
 1892SOL    HW117309   3.081   4.619   7.581 -1.7458  0.2038  0.6447
 1892SOL    HW217310   3.197   4.710   7.574  0.6665  0.1425  1.2014
 1893SOL     OW17311   3.882   4.175  12.146 -0.0078 -0.0750 -0.3649
 1893SOL    HW117312   3.828   4.190  12.068 -0.8263 -3.0095 -0.3391
 1893SOL    HW217313   3.870   4.260  12.189 -1.3621 -0.1309 -0.6234
 1894SOL     OW17314   3.961   0.347   3.003 -0.4341 -0.2075 -0.3373
 1894SOL    HW117315   4.057   0.350   3.008 -0.4199  0.4657 -0.9925
 1894SOL    HW217316   3.952   0.254   3.025 -1.3987 -0.6252 -2.4175
 1895SOL     OW17317   4.708   1.786   0.782  0.1458  0.7810  0.3227
 1895SOL    HW117318   0.046   1.843   0.768  0.4726  1.0586  3.2099
 1895SOL    HW217319   4.709   1.730   0.704  0.8690 -0.4403  1.2133
 1896SOL     OW17320   2.523   0.197   3.977  0.4877  0.1304 -0.2469
 1896SOL    HW117321   2.532   0.120   3.921 -1.7396  0.2848 -0.7971
 1896SOL    HW217322   2.486   0.265   3.922  0.8839 -0.2940 -1.0413
 1897SOL     OW17323   0.335   4.607  10.047 -0.1903  0.6422 -0.1611
 1897SOL    HW117324   0.418   4.633  10.087 -1.7414  2.2632  1.9874
 1897SOL    HW217325   0.314   4.697  10.021  1.2787  0.6132 -1.4695
 1898SOL     OW17326   4.012   0.853   7.132  0.5856 -0.2848  0.0314
 1898SOL    HW117327   4.003   0.816   7.220  1.9245 -2.0214 -0.5705
 1898SOL    HW217328   4.085   0.911   7.152  1.3537 -0.7190 -1.5630
 1899SOL     OW17329   3.291   4.243   6.775 -0.3329  0.6413 -0.2388
 1899SOL    HW117330   3.278   4.205   6.863  2.8637  0.5532  0.1996
 1899SOL    HW217331   3.360   4.189   6.736  0.2166  1.7538 -0.7733
 1900SOL     OW17332   2.201   2.932   2.550  0.1229  0.1048 -0.5211
 1900SOL    HW117333   2.263   2.996   2.515  1.1468 -0.8815 -0.5177
 1900SOL    HW217334   2.219   2.855   2.495  1.3191  1.5411 -2.1422
 1901SOL     OW17335   1.964   3.441  13.675 -0.0752  0.4874  0.5307
 1901SOL    HW117336   2.003   3.385  13.742  1.2657  1.7693  0.8294
 1901SOL    HW217337   2.043   3.439  13.621 -0.8061  1.1904 -0.5581
 1902SOL     OW17338   3.693   1.387   1.859  0.2873  0.0125  0.4113
 1902SOL    HW117339   3.749   1.456   1.824 -0.6932  0.3119 -0.5484
 1902SOL    HW217340   3.625   1.382   1.793 -0.3799  0.0857  1.0984
 1903SOL     OW17341   2.557   2.124   4.737  0.7428 -0.1002 -0.6135
 1903SOL    HW117342   2.608   2.198   4.769 -1.4656  0.9152  0.5444
 1903SOL    HW217343   2.467   2.150   4.756  0.6524 -0.6076 -0.3371
 1904SOL     OW17344   2.833   3.443   4.365  0.5968 -0.1132 -0.4117
 1904SOL    HW117345   2.775   3.492   4.423  1.1608  0.3266 -0.2283
 1904SOL    HW217346   2.882   3.391   4.428  0.2041  1.8859  1.5253
 1905SOL     OW17347   1.370   0.837  11.441  0.1400 -0.3314  0.6395
 1905SOL    HW117348   1.283   0.859  11.407 -0.5503 -2.9353  0.6788
 1905SOL    HW217349   1.396   0.776  11.372 -1.2946 -1.1281  0.8038
 1906SOL     OW17350   4.659   2.105   8.716 -0.1254 -0.0414  0.6944
 1906SOL    HW117351   0.009   2.094   8.678 -1.3762  0.2847 -2.2478
 1906SOL    HW217352   4.687   2.081   8.805  0.1388 -2.9531 -0.1906
 1907SOL     OW17353   2.531   3.172   1.824 -0.9971  0.2975  0.4258
 1907SOL    HW117354   2.483   3.114   1.882  2.7186 -0.4784  2.6835
 1907SOL    HW217355   2.465   3.240   1.807  0.9778  2.1153 -0.0391
 1908SOL     OW17356   1.866   2.583   8.659  0.1991  0.8117 -0.2833
 1908SOL    HW117357   1.876   2.654   8.722  0.2235  0.2649  0.3252
 1908SOL    HW217358   1.837   2.633   8.583  0.9167  0.4660 -0.7856
 1909SOL     OW17359   0.653   0.928   9.879  0.4302 -0.2407 -0.9099
 1909SOL    HW117360   0.732   0.899   9.834 -0.3538 -0.9180 -1.8853
 1909SOL    HW217361   0.696   0.945   9.962 -1.0715  2.1637 -0.6282
 1910SOL     OW17362   4.150   2.566  12.355 -0.5619  0.5472  0.0663
 1910SOL    HW117363   4.239   2.599  12.368  0.3941 -1.5057 -1.2565
 1910SOL    HW217364   4.132   2.515  12.434 -1.0204  0.5865 -0.0147
 1911SOL     OW17365   4.396   4.534   2.448 -0.0690 -0.2035  0.1380
 1911SOL    HW117366   4.397   4.547   2.543  1.2003 -2.3001  0.4265
 1911SOL    HW217367   4.464   4.467   2.434  1.3462  1.3430 -0.3424
 1912SOL     OW17368   1.560   0.938  17.012 -0.3680  0.0284 -0.5260
 1912SOL    HW117369   1.541   1.032  17.022 -0.1683  0.0076  0.0768
 1912SOL    HW217370   1.477   0.912  16.973 -0.0150 -1.5339 -0.2109
 1913SOL     OW17371   1.093   4.220  10.454 -0.2777 -0.3363 -0.0338
 1913SOL    HW117372   1.054   4.205  10.368  0.9205 -1.7957 -0.3176
 1913SOL    HW217373   1.134   4.306  10.443 -1.9587  0.2732 -1.4314
 1914SOL     OW17374   0.915   3.674   9.706 -0.3427  0.8079 -0.2759
 1914SOL    HW117375   0.856   3.599   9.719 -2.0318  2.1347 -0.2575
 1914SOL    HW217376   0.987   3.649   9.763  0.3107  2.6623 -0.2854
 1915SOL     OW17377   2.991   3.914   7.202 -0.1642 -0.0077 -0.1109
 1915SOL    HW117378   3.084   3.934   7.193  0.1364 -0.1274  2.5143
 1915SOL    HW217379   2.967   3.953   7.286 -1.9188 -1.3570  0.0159
 1916SOL     OW17380   2.535   0.984   6.369 -0.7702  0.4980 -0.2304
 1916SOL    HW117381   2.503   0.936   6.293  0.4473 -0.0216 -0.4278
 1916SOL    HW217382   2.493   0.938   6.442 -0.7193  1.3481  0.3365
 1917SOL     OW17383   0.667   3.899   5.594  0.0440 -0.3839 -0.3641
 1917SOL    HW117384   0.673   3.879   5.687  1.9631 -0.6421 -0.5381
 1917SOL    HW217385   0.589   3.852   5.566  1.3439 -2.0661 -1.1647
 1918SOL     OW17386   1.213   3.193  10.919  0.4180 -0.8681 -0.5178
 1918SOL    HW117387   1.149   3.222  10.854  1.9531  2.3322 -0.6513
 1918SOL    HW217388   1.295   3.233  10.889 -1.3673  1.6743 -2.0072
 1919SOL     OW17389   1.742   1.773   2.620  0.0678  0.3218  0.3338
 1919SOL    HW117390   1.795   1.814   2.688  0.4711  2.5109 -1.2939
 1919SOL    HW217391   1.665   1.744   2.670 -0.8271 -1.3687 -1.9922
 1920SOL     OW17392   4.630   0.317   4.471 -0.3172 -0.5046 -0.6679
 1920SOL    HW117393   4.657   0.255   4.404  0.6654 -1.0872  0.2813
 1920SOL    HW217394   4.677   0.286   4.548 -1.3750 -0.7690 -0.1319
 1921SOL     OW17395   0.544   1.399   1.736 -0.1090 -0.3618 -0.1733
 1921SOL    HW117396   0.523   1.306   1.748  0.6297 -0.6055 -0.7377
 1921SOL    HW217397   0.620   1.392   1.794 -0.3388 -0.3105  0.1330
 1922SOL     OW17398   2.144   0.906   6.024  0.2016 -0.5580 -0.0014
 1922SOL    HW117399   2.204   0.831   6.031 -1.5190 -1.9170  0.1871
 1922SOL    HW217400   2.079   0.865   5.967 -1.0782  1.1258  0.2729
 1923SOL     OW17401   0.943   0.049  13.907 -0.3512  0.5811  0.0677
 1923SOL    HW117402   0.889   0.111  13.857 -1.5296 -0.8470 -0.4251
 1923SOL    HW217403   0.970   4.728  13.837 -1.1226  0.3833 -0.0650
 1924SOL     OW17404   3.575   4.039  11.555 -0.1084 -0.0419 -0.1852
 1924SOL    HW117405   3.620   3.957  11.575  0.0489 -0.6398 -3.0231
 1924SOL    HW217406   3.503   4.055  11.616 -0.6821 -2.9444 -0.0825
 1925SOL     OW17407   1.142   2.488   6.135  0.3189  0.1384  0.1858
 1925SOL    HW117408   1.066   2.498   6.076  1.0408  1.0047 -0.5951
 1925SOL    HW217409   1.188   2.570   6.122 -0.6337  0.7386  0.5796
 1926SOL     OW17410   4.691   0.267   3.336  0.3782 -0.0947 -0.3648
 1926SOL    HW117411   4.698   0.174   3.314  3.4250  0.4265 -1.5069
 1926SOL    HW217412   4.614   0.252   3.392 -1.5169 -1.1625 -3.2759
 1927SOL     OW17413   0.126   4.280  11.935 -0.5940  0.6682 -0.2556
 1927SOL    HW117414   0.050   4.232  11.969  1.7297 -1.6780  1.6050
 1927SOL    HW217415   0.175   4.303  12.013 -0.1378  0.3497 -0.4427
 1928SOL     OW17416   0.509   0.760  11.305  0.2001  0.0961 -0.3831
 1928SOL    HW117417   0.571   0.763  11.379  1.6021 -0.7672 -1.5313
 1928SOL    HW217418   0.461   0.680  11.326 -2.7216  1.3226 -2.3629
 1929SOL     OW17419   0.107   1.933  16.802 -0.5070 -0.3769 -0.4701
 1929SOL    HW117420   0.036   1.982  16.844  0.2452  1.1727 -1.0292
 1929SOL    HW217421   0.162   1.928  16.880 -1.9637 -1.9901  0.4762
 1930SOL     OW17422   3.122   0.364   7.091  0.8573 -0.3275  0.0627
 1930SOL    HW117423   3.031   0.341   7.110  0.4327  0.9762 -0.4159
 1930SOL    HW217424   3.111   0.414   7.010 -2.4222  0.1459  0.8369
 1931SOL     OW17425   1.537   0.171   5.188 -0.0877 -0.3609 -0.0835
 1931SOL    HW117426   1.485   0.126   5.121 -0.4572  1.5778 -1.0963
 1931SOL    HW217427   1.550   0.106   5.257 -1.9561 -0.8544 -0.1907
 1932SOL     OW17428   3.662   0.191  11.020  0.3019 -0.0529  0.0042
 1932SOL    HW117429   3.574   0.207  10.986  0.5394 -0.5090 -0.8587
 1932SOL    HW217430   3.689   0.281  11.039  3.2660 -0.5858 -1.5230
 1933SOL     OW17431   0.326   0.574   4.573  0.2055 -0.0972  0.7768
 1933SOL    HW117432   0.334   0.485   4.537  1.7918  0.0715  0.7207
 1933SOL    HW217433   0.369   0.563   4.657 -1.8718 -0.7718  1.7578
 1934SOL     OW17434   3.485   4.161   7.155  0.2798 -0.5169  0.2605
 1934SOL    HW117435   3.390   4.163   7.158  0.3533  1.2928  2.0261
 1934SOL    HW217436   3.494   4.147   7.061 -1.9030  1.8242 -0.2863
 1935SOL     OW17437   1.088   4.562  11.926 -0.1483 -0.1937 -0.3458
 1935SOL    HW117438   1.099   4.491  11.989 -0.1981  1.0054  0.9975
 1935SOL    HW217439   1.115   4.639  11.976  0.3370 -1.8536  1.9093
 1936SOL     OW17440   0.509   3.414   6.432 -0.3615 -0.3008 -0.1818
 1936SOL    HW117441   0.496   3.431   6.526 -1.8942 -0.7338 -0.3205
 1936SOL    HW217442   0.417   3.404   6.408 -0.3574 -0.4818 -0.1199
 1937SOL     OW17443   0.141   0.942   9.051 -0.0655  0.1108 -0.1864
 1937SOL    HW117444   0.166   0.938   9.143 -0.5231  3.1050  0.0915
 1937SOL    HW217445   0.047   0.960   9.054 -0.2721 -0.2832 -3.8497
 1938SOL     OW17446   0.519   4.018   4.984 -0.4259 -0.3866 -0.3972
 1938SOL    HW117447   0.515   3.952   4.915 -2.1172  1.3509 -1.9597
 1938SOL    HW217448   0.611   4.025   5.008 -0.8457  2.2147  0.4640
 1939SOL     OW17449   1.260   2.523   3.568 -0.3404 -0.1333 -0.4480
 1939SOL    HW117450   1.316   2.575   3.626 -0.4486 -0.5429  0.0189
 1939SOL    HW217451   1.216   2.597   3.525 -0.6133 -0.0437 -0.0115
 1940SOL     OW17452   2.191   1.168   7.211  0.4636 -0.5705 -0.1235
 1940SOL    HW117453   2.242   1.247   7.197  0.1721 -0.4908 -0.7319
 1940SOL    HW217454   2.130   1.179   7.138  0.1906 -1.7279 -0.0830
 1941SOL     OW17455   0.992   1.924   7.366 -0.1496  0.3006  0.1059
 1941SOL    HW117456   0.924   1.928   7.434 -0.5542 -2.2846 -0.1528
 1941SOL    HW217457   1.007   2.015   7.342 -0.3365  0.3539  0.1891
 1942SOL     OW17458   3.994   0.705   7.639 -0.2015  0.2230  0.6751
 1942SOL    HW117459   3.945   0.646   7.696 -0.8874  0.5526  0.4278
 1942SOL    HW217460   4.085   0.684   7.658 -0.0124  0.5854  0.1623
 1943SOL     OW17461   0.813   1.815  16.400 -0.2067 -0.0692  0.1701
 1943SOL    HW117462   0.843   1.809  16.490 -1.5260 -1.1972  0.5439
 1943SOL    HW217463   0.806   1.910  16.390 -0.3799 -0.1152 -0.1548
 1944SOL     OW17464   0.237   1.392   4.890 -0.2132  1.1745 -0.1045
 1944SOL    HW117465   0.313   1.367   4.838 -0.7293 -0.0342 -0.2706
 1944SOL    HW217466   0.185   1.313   4.879 -0.2030  1.3517 -1.3839
 1945SOL     OW17467   0.749   3.054  13.792 -0.3920 -0.2903  0.3767
 1945SOL    HW117468   0.793   2.977  13.756 -2.4173 -0.1752 -2.3333
 1945SOL    HW217469   0.821   3.117  13.790  0.7581 -1.8075 -5.2115
 1946SOL     OW17470   3.692   3.708   7.435  0.1978  0.4858  0.5488
 1946SOL    HW117471   3.749   3.778   7.467 -1.0399  1.4612  0.6007
 1946SOL    HW217472   3.608   3.751   7.451 -0.7496 -0.0756 -2.9381
 1947SOL     OW17473   3.420   3.062  15.508 -0.3584  0.2730 -0.6880
 1947SOL    HW117474   3.350   3.099  15.563 -0.5005  1.0609 -1.4100
 1947SOL    HW217475   3.393   3.093  15.422  0.6466 -3.9089 -2.5256
 1948SOL     OW17476   2.880   2.957   2.771 -0.0253  0.4475  0.1827
 1948SOL    HW117477   2.930   3.023   2.819 -1.6765  0.9192  1.2507
 1948SOL    HW217478   2.821   3.009   2.717  0.5133  1.1743  0.2999
 1949SOL     OW17479   4.278   0.368  12.533 -0.0944  0.4895  0.0042
 1949SOL    HW117480   4.252   0.301  12.595  0.1790 -0.2627 -0.6932
 1949SOL    HW217481   4.364   0.340  12.502  0.1196  0.7868  0.3255
 1950SOL     OW17482   0.406   1.753   7.522  0.0298 -0.3621  0.2433
 1950SOL    HW117483   0.327   1.699   7.520  0.5214 -1.0631 -0.3276
 1950SOL    HW217484   0.438   1.729   7.435 -1.1393  0.5103 -0.4372
 1951SOL     OW17485   4.054   2.310   9.551 -0.3287  0.7122 -0.4315
 1951SOL    HW117486   4.012   2.275   9.472 -0.1677  0.1603 -0.2681
 1951SOL    HW217487   3.998   2.385   9.572 -2.0754 -1.3563  2.2578
 1952SOL     OW17488   1.747   3.404   5.236 -0.4962 -0.3145 -0.2606
 1952SOL    HW117489   1.795   3.371   5.313  0.3178 -3.4410 -2.0779
 1952SOL    HW217490   1.787   3.489   5.222  1.7835 -1.6675 -2.0431
 1953SOL     OW17491   3.096   2.764   7.794 -0.7033 -0.1740  0.3249
 1953SOL    HW117492   3.060   2.843   7.835  0.6069  1.4619 -1.6905
 1953SOL    HW217493   3.049   2.696   7.842 -0.9980  0.1284  0.4659
 1954SOL     OW17494   4.148   0.957  10.906  0.6531  0.2610 -0.3426
 1954SOL    HW117495   4.178   0.875  10.947 -0.3301 -0.3137 -0.7598
 1954SOL    HW217496   4.053   0.951  10.921  1.1683  0.1246  2.9579
 1955SOL     OW17497   4.582   1.258  16.023  0.0574  0.2677  0.2339
 1955SOL    HW117498   4.527   1.314  16.078  0.4553 -0.3127  1.2334
 1955SOL    HW217499   4.626   1.322  15.967 -0.0381 -1.6112 -1.9626
 1956SOL     OW17500   2.636   3.347   5.350  0.2536 -0.0557  0.6177
 1956SOL    HW117501   2.689   3.333   5.429 -0.5748  1.5865  1.4598
 1956SOL    HW217502   2.703   3.338   5.282 -1.4048  1.1546 -1.1713
 1957SOL     OW17503   3.771   0.227  17.466 -0.5511  0.4121  0.2474
 1957SOL    HW117504   3.819   0.162  17.416  2.8356  1.9816  1.4296
 1957SOL    HW217505   3.697   0.242  17.406  2.1802  1.5800 -2.8170
 1958SOL     OW17506   0.469   1.847  11.755  0.0654  0.0184  0.2641
 1958SOL    HW117507   0.516   1.764  11.745 -4.3437 -2.5115  0.2684
 1958SOL    HW217508   0.433   1.869  11.669  0.5507  0.2046  0.1116
 1959SOL     OW17509   1.741   0.475  15.222 -0.4564  0.3697 -0.0287
 1959SOL    HW117510   1.716   0.536  15.291 -1.0330 -0.4928  0.5148
 1959SOL    HW217511   1.735   0.516  15.135  0.2157  2.9626  1.1707
 1960SOL     OW17512   3.693   3.698  12.474 -0.2894  0.0922  0.2086
 1960SOL    HW117513   3.767   3.712  12.416 -0.7897  2.7331  0.2079
 1960SOL    HW217514   3.675   3.791  12.489 -0.6583  0.2814 -1.3999
 1961SOL     OW17515   2.396   4.725   2.147  0.6580  0.4208 -0.0738
 1961SOL    HW117516   2.423   0.078   2.155  1.1429  0.2516  0.1991
 1961SOL    HW217517   2.351   4.724   2.062 -0.2908 -3.4189  0.4783
 1962SOL     OW17518   0.594   2.057  11.880  0.1074 -0.2432  0.5923
 1962SOL    HW117519   0.549   1.978  11.851 -0.3214 -0.3134  1.4505
 1962SOL    HW217520   0.531   2.117  11.841  1.1286 -0.6697 -1.7130
 1963SOL     OW17521   1.030   3.401   5.658  0.4072  0.0890 -0.6777
 1963SOL    HW117522   1.010   3.340   5.587 -1.9864 -1.4327  1.3123
 1963SOL    HW217523   0.954   3.458   5.653 -0.5303 -1.2460 -1.8302
 1964SOL     OW17524   1.786   1.486   1.391 -0.1604  0.6878  0.3964
 1964SOL    HW117525   1.700   1.527   1.393  0.5500  2.1366  0.9045
 1964SOL    HW217526   1.841   1.561   1.413 -0.1715  1.0409 -0.7688
 1965SOL     OW17527   4.087   3.282   4.033 -0.0759  0.0220 -0.1448
 1965SOL    HW117528   4.117   3.355   4.088  0.3924 -1.8196  2.0197
 1965SOL    HW217529   3.995   3.289   4.059  0.4632 -0.1866  1.8283
 1966SOL     OW17530   3.219   3.284   5.908  0.0456  0.1942  0.0361
 1966SOL    HW117531   3.225   3.352   5.841  2.3084 -0.5803 -0.5701
 1966SOL    HW217532   3.267   3.321   5.981 -0.0051  0.4978 -0.0853
 1967SOL     OW17533   2.755   2.782   4.525  0.0666 -0.2847 -0.1731
 1967SOL    HW117534   2.682   2.792   4.587 -0.1646 -0.7109 -0.3773
 1967SOL    HW217535   2.706   2.798   4.444  0.6878  2.4652 -0.0169
 1968SOL     OW17536   2.250   0.813   4.951  0.8191  0.3764 -0.1944
 1968SOL    HW117537   2.243   0.908   4.942 -0.1293  0.1640 -1.7757
 1968SOL    HW217538   2.280   0.780   4.866 -0.0039 -0.3144 -0.2144
 1969SOL     OW17539   4.586   4.000   3.693 -0.1205 -0.0790  0.6922
 1969SOL    HW117540   4.615   4.092   3.690 -0.2902 -0.0557 -0.0194
 1969SOL    HW217541   4.564   3.984   3.785 -0.1400 -2.4012  0.2686
 1970SOL     OW17542   1.097   4.052  12.200  0.2873 -0.1825  0.5934
 1970SOL    HW117543   1.102   4.139  12.160  2.7750 -1.1335 -1.1694
 1970SOL    HW217544   1.120   4.061  12.292 -1.4222  1.7939  0.8262
 1971SOL     OW17545   2.384   3.693  11.965 -0.1005  0.1229 -0.0900
 1971SOL    HW117546   2.385   3.737  11.880  0.1316  1.1011  0.4254
 1971SOL    HW217547   2.335   3.616  11.937  1.3540 -1.0482  0.5767
 1972SOL     OW17548   3.411   1.872  17.282  0.0877  0.4086 -0.0036
 1972SOL    HW117549   3.445   1.853  17.195 -0.5755  0.4135 -0.2666
 1972SOL    HW217550   3.318   1.867  17.258  0.3649  0.0534 -0.9892
 1973SOL     OW17551   0.863   1.259  10.907 -0.6896  0.1365  0.8783
 1973SOL    HW117552   0.821   1.330  10.957  0.7525  0.6374  1.3623
 1973SOL    HW217553   0.835   1.179  10.951  1.7522 -0.6490  0.9866
 1974SOL     OW17554   4.211   1.229   9.101  0.1857 -0.1321 -0.4650
 1974SOL    HW117555   4.257   1.302   9.057  0.7118 -1.6643 -2.4638
 1974SOL    HW217556   4.256   1.223   9.185  0.8617 -0.6211 -0.8618
 1975SOL     OW17557   2.803   4.460   1.117 -0.6006  0.1711  0.0958
 1975SOL    HW117558   2.813   4.414   1.200 -1.1554 -0.0514  0.0368
 1975SOL    HW217559   2.858   4.537   1.132  1.4324 -0.5591 -3.5689
 1976SOL     OW17560   3.741   1.553   7.511 -0.2972  0.0193  0.9977
 1976SOL    HW117561   3.787   1.472   7.532  0.8183  1.0914  2.6592
 1976SOL    HW217562   3.648   1.529   7.502  0.2106 -1.6585  0.2012
 1977SOL     OW17563   2.361   4.206   6.974  0.3679 -0.7019 -0.5074
 1977SOL    HW117564   2.371   4.172   7.063  0.0925  0.2776 -0.1084
 1977SOL    HW217565   2.409   4.139   6.926  0.6341 -1.5618  0.9385
 1978SOL     OW17566   1.100   4.264  10.826  0.0685 -0.1940  0.2077
 1978SOL    HW117567   1.135   4.291  10.911 -1.5919 -1.2539  1.2187
 1978SOL    HW217568   1.152   4.315  10.763 -0.6803  1.4384  0.8902
 1979SOL     OW17569   2.811   0.756   1.895  0.7440  0.0601 -0.4511
 1979SOL    HW117570   2.787   0.753   1.987  0.9840 -0.3399 -0.4002
 1979SOL    HW217571   2.905   0.741   1.895  0.7992  0.3928 -0.7773
 1980SOL     OW17572   2.266   1.707   8.882  0.3446 -0.2595 -0.3589
 1980SOL    HW117573   2.280   1.797   8.911  0.0722 -0.4036  0.2212
 1980SOL    HW217574   2.261   1.658   8.964  0.1195  1.8352  0.8774
 1981SOL     OW17575   1.797   0.901  16.823  0.3692 -0.1044 -0.5442
 1981SOL    HW117576   1.725   0.864  16.874  0.8306  0.0536  0.2319
 1981SOL    HW217577   1.784   0.991  16.855  0.6590 -0.0495 -0.5808
 1982SOL     OW17578   3.151   4.330   5.551  0.3792  0.9718  0.4857
 1982SOL    HW117579   3.206   4.378   5.489  0.4470  1.3125  0.8068
 1982SOL    HW217580   3.210   4.309   5.624 -1.5593  2.7890  2.5743
 1983SOL     OW17581   4.582   0.014   3.950 -0.6524 -0.3637  0.3078
 1983SOL    HW117582   4.530   4.683   3.908  2.2161 -0.6220 -2.7298
 1983SOL    HW217583   4.566   0.005   4.045  1.2876  1.4329  0.7990
 1984SOL     OW17584   3.622   2.020   6.524 -0.0978  0.6717 -0.1788
 1984SOL    HW117585   3.541   1.976   6.549 -0.7493  0.3582 -2.8476
 1984SOL    HW217586   3.603   2.113   6.515  1.0558  0.8409 -0.8663
 1985SOL     OW17587   0.244   2.176  12.158 -0.3737  0.0428  0.2677
 1985SOL    HW117588   0.330   2.210  12.132 -0.4303 -0.5538 -0.6934
 1985SOL    HW217589   0.250   2.102  12.097 -2.0966 -0.9468  1.3027
 1986SOL     OW17590   0.573   2.082   3.147  0.4783 -0.4101  0.4213
 1986SOL    HW117591   0.602   2.070   3.237  2.5001  1.3098 -0.0146
 1986SOL    HW217592   0.509   2.011   3.138  0.4991 -0.4319  0.4468
 1987SOL     OW17593   0.264   1.550  14.818 -0.2398 -0.4046  0.3198
 1987SOL    HW117594   0.235   1.637  14.790  0.8663 -0.2558 -0.3783
 1987SOL    HW217595   0.231   1.481  14.760 -0.9278  0.3888 -0.2429
 1988SOL     OW17596   0.370   0.214  15.053  0.5269 -0.0602  0.0947
 1988SOL    HW117597   0.445   0.273  15.058  0.8868 -0.6142  1.3952
 1988SOL    HW217598   0.332   0.238  14.969 -0.9902  0.1729  0.8458
 1989SOL     OW17599   2.708   3.592  16.605  0.4287 -0.0799  0.3137
 1989SOL    HW117600   2.719   3.613  16.698 -1.7073 -0.1296  0.5904
 1989SOL    HW217601   2.651   3.666  16.584  1.3517  0.9265  1.3713
 1990SOL     OW17602   3.794   4.325   6.649 -0.9290  1.0479 -0.0416
 1990SOL    HW117603   3.840   4.408   6.635 -0.2070  0.9204  1.5968
 1990SOL    HW217604   3.822   4.262   6.582  1.1888  1.5316  0.3857
 1991SOL     OW17605   4.495   0.567   3.399  0.4156 -0.1094  0.0606
 1991SOL    HW117606   4.427   0.575   3.466 -1.4899  0.1303 -1.9088
 1991SOL    HW217607   4.467   0.499   3.338  0.6663  1.2647 -1.5891
 1992SOL     OW17608   0.750   3.401   5.407  0.3424 -0.5230  0.4039
 1992SOL    HW117609   0.735   3.475   5.467 -0.3304  0.2556 -0.7341
 1992SOL    HW217610   0.662   3.363   5.400  0.1051 -0.0485  0.8304
 1993SOL     OW17611   4.178   3.776   2.048 -0.0620  0.2418  0.0464
 1993SOL    HW117612   4.162   3.867   2.024  1.5104  0.5815  0.2260
 1993SOL    HW217613   4.134   3.763   2.132 -2.5340  1.1131 -1.1324
 1994SOL     OW17614   3.206   1.681   9.927  0.2226 -0.2833 -0.4276
 1994SOL    HW117615   3.128   1.646   9.885 -1.6006  2.0146  1.0276
 1994SOL    HW217616   3.273   1.642   9.871  1.4700  1.8753 -0.4242
 1995SOL     OW17617   0.144   3.722   4.048  0.0988 -0.7035  0.7164
 1995SOL    HW117618   0.078   3.723   4.117 -0.8015 -0.0877 -0.1673
 1995SOL    HW217619   0.173   3.813   4.050  0.6546 -0.8657 -0.2186
 1996SOL     OW17620   1.652   4.071   1.414 -0.5510  0.4434  0.2431
 1996SOL    HW117621   1.742   4.088   1.443  0.2179 -0.8078 -1.3530
 1996SOL    HW217622   1.661   3.976   1.401 -0.7489  0.2723  1.4199
 1997SOL     OW17623   3.528   0.907   3.133 -0.0238 -0.4537  0.3373
 1997SOL    HW117624   3.463   0.871   3.193 -0.1642 -1.0351 -0.1655
 1997SOL    HW217625   3.547   0.996   3.164  0.3947 -0.3937 -0.0901
 1998SOL     OW17626   2.173   3.901   9.037  0.3342 -0.1016  0.5872
 1998SOL    HW117627   2.230   3.838   9.082  1.0359  0.2745  0.2109
 1998SOL    HW217628   2.227   3.975   9.062 -1.3520  1.4742 -0.4318
 1999SOL     OW17629   2.452   2.529   7.037 -0.1825  0.4686 -0.1633
 1999SOL    HW117630   2.456   2.479   6.956 -1.8140  0.0700 -0.0120
 1999SOL    HW217631   2.543   2.529   7.066 -0.4366  1.5506  0.6540
 2000SOL     OW17632   4.013   2.438  16.088 -0.9699 -0.1468 -0.0466
 2000SOL    HW117633   4.093   2.450  16.037 -1.6205  0.3166 -0.9542
 2000SOL    HW217634   3.962   2.391  16.023 -2.3242  3.8721 -1.8608
 2001SOL     OW17635   3.271   0.081   3.418  0.0757  0.7634 -0.5202
 2001SOL    HW117636   3.363   0.055   3.412  0.1092  0.9713 -0.9490
 2001SOL    HW217637   3.270   0.095   3.323 -1.2300  0.8402 -0.4873
 2002SOL     OW17638   1.038   4.314  15.304 -0.0447 -0.0547 -0.0906
 2002SOL    HW117639   0.979   4.360  15.244 -0.4232  0.1021  0.4038
 2002SOL    HW217640   0.972   4.313  15.373 -2.7870  2.0246 -2.6848
 2003SOL     OW17641   2.332   1.574   3.335 -0.4300 -0.2290 -0.3735
 2003SOL    HW117642   2.292   1.653   3.298  0.1103 -0.5871 -1.7553
 2003SOL    HW217643   2.256   1.539   3.381 -1.3648  0.2421 -1.5619
 2004SOL     OW17644   1.447   3.315   4.139  0.8183 -0.1250 -0.0535
 2004SOL    HW117645   1.505   3.345   4.209 -0.3730  2.8844 -0.3327
 2004SOL    HW217646   1.489   3.363   4.068 -0.7014 -0.7677 -1.3813
 2005SOL     OW17647   1.524   2.805  15.989  0.2431  0.0878  0.2147
 2005SOL    HW117648   1.610   2.769  16.012  0.9871  1.9675  0.3046
 2005SOL    HW217649   1.485   2.728  15.948 -1.4689  2.4733 -2.5712
 2006SOL     OW17650   2.722   3.258   1.173 -0.0197 -0.3723 -0.1140
 2006SOL    HW117651   2.646   3.206   1.199  0.0937 -0.1348  0.7051
 2006SOL    HW217652   2.788   3.230   1.237 -0.0078  0.4670  0.2454
 2007SOL     OW17653   0.615   2.897   8.911 -0.0326 -0.2429 -0.1816
 2007SOL    HW117654   0.606   2.934   8.999 -2.3110 -1.3445  0.0385
 2007SOL    HW217655   0.527   2.865   8.893 -0.6968  1.9596 -0.8037
 2008SOL     OW17656   0.689   3.324   7.618  0.1429  0.1263 -0.1362
 2008SOL    HW117657   0.765   3.380   7.604  1.6917 -1.8100  0.5932
 2008SOL    HW217658   0.715   3.281   7.699 -3.0062 -0.1138  0.7618
 2009SOL     OW17659   3.234   2.764   4.756 -0.5268  0.1054  0.2265
 2009SOL    HW117660   3.263   2.740   4.844 -2.3963 -0.8425  0.5988
 2009SOL    HW217661   3.164   2.700   4.741 -1.3452  1.3334 -1.2052
 2010SOL     OW17662   3.016   3.964  17.356  0.0949  0.2424 -0.2759
 2010SOL    HW117663   2.943   3.908  17.384  1.5630 -1.7079 -0.2868
 2010SOL    HW217664   3.026   3.933  17.266 -0.2606  1.6602 -0.7906
 2011SOL     OW17665   0.457   1.659   2.330 -0.6034 -0.8188  0.4259
 2011SOL    HW117666   0.462   1.679   2.236  0.3012  0.3055  0.7127
 2011SOL    HW217667   0.491   1.570   2.340  3.2686  0.5110 -0.9520
 2012SOL     OW17668   0.782   3.188   3.768 -0.0999  0.3978 -0.3124
 2012SOL    HW117669   0.746   3.103   3.794  1.8147 -0.0901  0.8108
 2012SOL    HW217670   0.870   3.178   3.806  0.0425 -1.4553 -1.1227
 2013SOL     OW17671   2.887   1.902   0.720 -0.2974  0.0224 -0.7258
 2013SOL    HW117672   2.841   1.986   0.712 -0.9095 -0.3529 -1.0966
 2013SOL    HW217673   2.821   1.848   0.678 -2.5184  2.6452 -0.6673
 2014SOL     OW17674   4.633   4.354   1.873  0.1049  0.3454  0.1344
 2014SOL    HW117675   4.690   4.424   1.840 -0.2381  0.8173  0.5483
 2014SOL    HW217676   4.567   4.354   1.803  0.0610 -2.2752  0.1778
 2015SOL     OW17677   4.229   2.429  17.397  0.0062  0.0079  0.8410
 2015SOL    HW117678   4.305   2.437  17.340 -0.6622  1.6520  0.1811
 2015SOL    HW217679   4.169   2.480  17.342 -0.8865 -0.9892  0.8752
 2016SOL     OW17680   4.702   4.562   7.481 -0.3746  0.1868 -0.4255
 2016SOL    HW117681   0.003   4.523   7.560  0.3378  2.0079  0.1236
 2016SOL    HW217682   0.020   4.526   7.412  0.3199 -0.1272  0.2990
 2017SOL     OW17683   0.065   1.110   6.988 -0.2602  0.1178 -0.0844
 2017SOL    HW117684   0.134   1.164   7.026 -1.8370  0.0895  2.7858
 2017SOL    HW217685   4.735   1.178   6.997  0.7826  1.0141  1.0210
 2018SOL     OW17686   1.649   3.901   9.675 -0.0826  0.0733 -0.7980
 2018SOL    HW117687   1.665   3.927   9.765 -2.2174 -0.7787 -0.1828
 2018SOL    HW217688   1.562   3.940   9.661 -0.9411 -1.0037  1.6526
 2019SOL     OW17689   2.750   3.022  17.607 -0.3763  0.0115 -0.5882
 2019SOL    HW117690   2.828   3.064  17.644  0.1466 -0.1135 -1.5496
 2019SOL    HW217691   2.697   3.009  17.686  1.9771 -1.0672  0.8191
 2020SOL     OW17692   1.873   0.578   9.138  0.6368 -0.0673  0.3788
 2020SOL    HW117693   1.895   0.503   9.194  0.7403  0.8059  1.5027
 2020SOL    HW217694   1.858   0.646   9.204  0.2910 -1.6134  1.9115
 2021SOL     OW17695   2.863   4.064  13.354 -0.2829 -0.0647 -0.1515
 2021SOL    HW117696   2.951   4.060  13.392 -0.3538  2.4187  0.3020
 2021SOL    HW217697   2.827   4.141  13.397  0.1743 -0.4257  0.8680
 2022SOL     OW17698   2.681   0.158   6.533 -0.3108 -0.4845  0.9859
 2022SOL    HW117699   2.746   0.123   6.593  0.2344 -1.0861  0.0476
 2022SOL    HW217700   2.734   0.155   6.453  1.4995 -0.9565  2.2133
 2023SOL     OW17701   0.867   3.505  17.466  0.3622  0.2203  0.2590
 2023SOL    HW117702   0.834   3.415  17.475 -1.6230  1.1013  1.5778
 2023SOL    HW217703   0.808   3.559  17.518  1.2588  1.6962 -0.2475
 2024SOL     OW17704   4.630   0.308   2.182 -0.1607 -0.8418 -0.0704
 2024SOL    HW117705   4.605   0.395   2.212  1.2569  0.0787 -1.5619
 2024SOL    HW217706   4.572   0.294   2.107  2.3882  0.0336 -2.1943
 2025SOL     OW17707   1.399   0.499  13.970  0.3457  0.6234 -0.0175
 2025SOL    HW117708   1.459   0.572  13.989 -0.0784  1.1901 -0.8517
 2025SOL    HW217709   1.451   0.431  14.013 -1.0166 -1.0150 -0.9845
 2026SOL     OW17710   1.782   2.896   2.508 -0.6144  0.2234  0.3057
 2026SOL    HW117711   1.710   2.938   2.461  0.1456 -1.5542 -2.3852
 2026SOL    HW217712   1.824   2.974   2.545 -0.4675  0.5206 -0.4990
 2027SOL     OW17713   2.681   3.715   7.241  0.2780 -0.2248  0.1251
 2027SOL    HW117714   2.766   3.680   7.269  0.3476  1.8726  2.5834
 2027SOL    HW217715   2.664   3.726   7.335 -1.5037  0.6487 -0.3075
 2028SOL     OW17716   3.545   2.886  12.621  0.1367  0.0527 -0.0897
 2028SOL    HW117717   3.498   2.835  12.687 -1.4706  0.6062 -0.8281
 2028SOL    HW217718   3.474   2.948  12.607 -1.1565 -1.0830  1.4648
 2029SOL     OW17719   1.649   1.125   6.912 -0.3030 -0.1188  0.3673
 2029SOL    HW117720   1.680   1.138   7.002 -0.5932  1.6664  0.2103
 2029SOL    HW217721   1.644   1.218   6.888 -0.2987 -0.8848 -2.5508
 2030SOL     OW17722   1.921   3.293  15.234  0.1787 -0.1570  0.6831
 2030SOL    HW117723   1.982   3.366  15.221  1.4169 -1.0839  1.2610
 2030SOL    HW217724   1.945   3.244  15.313 -0.4681  0.1187  1.0445
 2031SOL     OW17725   1.921   2.930  11.724  0.1258  0.3521 -0.8855
 2031SOL    HW117726   1.981   2.872  11.676 -1.2086 -2.1449  0.5091
 2031SOL    HW217727   1.984   2.985  11.770  0.2989 -2.4025  2.1058
 2032SOL     OW17728   1.972   0.940  13.784  0.0617  0.5267 -0.6420
 2032SOL    HW117729   1.994   0.949  13.691 -2.6235 -1.3263 -1.4426
 2032SOL    HW217730   2.052   0.970  13.827 -0.1735 -2.0247  1.5520
 2033SOL     OW17731   3.381   2.816   6.316 -0.5153 -0.4133  0.0278
 2033SOL    HW117732   3.353   2.828   6.407 -0.4841 -3.5902  0.4845
 2033SOL    HW217733   3.461   2.768   6.334  1.2077  2.2708 -0.5763
 2034SOL     OW17734   1.177   0.072   9.427  0.3734 -0.2518  0.2555
 2034SOL    HW117735   1.220   0.004   9.374  1.7030 -0.5002  1.6603
 2034SOL    HW217736   1.221   0.149   9.391  1.0033 -0.8449 -0.2422
 2035SOL     OW17737   1.569   1.100  11.936 -0.5205  0.2251 -0.3241
 2035SOL    HW117738   1.623   1.179  11.937 -1.1055  0.6393 -1.4016
 2035SOL    HW217739   1.502   1.124  11.871  0.4039  0.9957 -0.9879
 2036SOL     OW17740   2.546   0.417   5.819  0.7770 -0.2342  0.4870
 2036SOL    HW117741   2.470   0.475   5.811 -1.2429 -3.3350 -2.9295
 2036SOL    HW217742   2.621   0.476   5.820  0.1255  0.6088  0.6776
 2037SOL     OW17743   4.491   4.408   9.109 -0.2048 -0.0038  0.1667
 2037SOL    HW117744   4.562   4.432   9.049  0.4462  0.7343  1.2295
 2037SOL    HW217745   4.416   4.396   9.052  0.2533 -2.2151  0.0182
 2038SOL     OW17746   2.051   0.321   5.808 -0.3027 -0.5279  0.4912
 2038SOL    HW117747   2.129   0.277   5.774 -0.1085  0.1494  0.0725
 2038SOL    HW217748   2.002   0.248   5.847 -2.2188 -0.1503 -1.2013
 2039SOL     OW17749   3.663   0.981   6.429  0.2760 -0.4102  0.8193
 2039SOL    HW117750   3.642   1.036   6.505 -0.6737 -1.0465  1.0202
 2039SOL    HW217751   3.650   0.896   6.473  1.5740 -0.5457  0.9435
 2040SOL     OW17752   1.759   3.046   8.549  0.3688 -0.2371  0.5711
 2040SOL    HW117753   1.817   3.030   8.623 -0.7862  0.3324  1.6107
 2040SOL    HW217754   1.801   3.126   8.518 -0.2619  0.5069  1.6366
 2041SOL     OW17755   3.752   4.054   3.977  0.4688  0.4745  0.3051
 2041SOL    HW117756   3.810   4.041   3.902  0.2509 -0.4690  0.2916
 2041SOL    HW217757   3.673   4.011   3.945 -0.6370  1.1915  2.0688
 2042SOL     OW17758   0.317   2.383  14.700  0.0032 -0.4168  0.3178
 2042SOL    HW117759   0.316   2.478  14.702 -3.6216 -0.4372 -0.3965
 2042SOL    HW217760   0.387   2.353  14.758  0.3435 -2.8164 -1.2790
 2043SOL     OW17761   3.277   3.185   5.508 -0.5417 -0.0582  0.1477
 2043SOL    HW117762   3.333   3.140   5.572  0.9048  1.3645 -0.1296
 2043SOL    HW217763   3.340   3.213   5.441 -1.6018  0.8975 -0.4415
 2044SOL     OW17764   2.753   4.008  10.915 -0.3250 -0.2408  0.1128
 2044SOL    HW117765   2.807   4.086  10.904 -2.5226  1.3968  0.9369
 2044SOL    HW217766   2.825   3.945  10.921 -1.7805 -1.8753  0.5831
 2045SOL     OW17767   3.401   0.805   4.335 -0.3176 -0.0660  0.9340
 2045SOL    HW117768   3.334   0.874   4.334 -0.1398  0.0915  0.1386
 2045SOL    HW217769   3.477   0.861   4.350 -0.5592  0.7555 -0.9049
 2046SOL     OW17770   0.997   2.652  12.484 -0.1440  0.4861 -0.4708
 2046SOL    HW117771   1.030   2.669  12.396  0.1526  0.8337 -0.2904
 2046SOL    HW217772   0.996   2.742  12.516  1.0042  0.7251 -1.1077
 2047SOL     OW17773   1.453   3.738   8.596  0.5441  0.2308  0.0026
 2047SOL    HW117774   1.519   3.759   8.529 -0.1415 -0.4365 -0.8833
 2047SOL    HW217775   1.502   3.675   8.650  3.0134  1.7387 -0.4568
 2048SOL     OW17776   3.715   3.345  12.239 -0.1608  0.2345 -0.1079
 2048SOL    HW117777   3.660   3.380  12.169 -2.3071  0.2037  1.5740
 2048SOL    HW217778   3.675   3.261  12.261 -1.8490  1.0983  0.1257
 2049SOL     OW17779   1.204   3.682   0.629 -0.3866 -0.3686 -0.0917
 2049SOL    HW117780   1.271   3.635   0.579 -0.9209 -0.5232 -0.6624
 2049SOL    HW217781   1.193   3.755   0.568 -0.5196 -1.5962 -1.5416
 2050SOL     OW17782   0.402   0.492  13.874 -0.1222  0.0911 -0.5587
 2050SOL    HW117783   0.483   0.542  13.886 -0.6621  0.4501  1.6737
 2050SOL    HW217784   0.393   0.452  13.961  2.5761 -1.4050 -0.9587
 2051SOL     OW17785   4.603   2.266   2.024  0.0314  0.2881  0.4901
 2051SOL    HW117786   4.536   2.320   2.067 -1.0826 -0.3880 -0.4156
 2051SOL    HW217787   4.679   2.315   2.056 -1.2005  1.4626  1.6355
 2052SOL     OW17788   4.530   0.547   2.277  0.4117  0.0601  0.5190
 2052SOL    HW117789   4.450   0.518   2.322 -0.6272  1.3710 -0.4908
 2052SOL    HW217790   4.509   0.640   2.269  0.6843  0.1619  1.0253
 2053SOL     OW17791   4.133   1.411   4.992  0.2938  0.4870  0.1351
 2053SOL    HW117792   4.050   1.457   5.009 -0.9319 -2.6301  2.5218
 2053SOL    HW217793   4.189   1.451   5.059 -0.1990 -0.4740  1.1197
 2054SOL     OW17794   1.763   1.798   2.967 -0.1516  0.2637  0.0332
 2054SOL    HW117795   1.823   1.799   3.042  2.3169 -0.2606 -1.9238
 2054SOL    HW217796   1.832   1.804   2.901  0.4765 -1.4380  0.5281
 2055SOL     OW17797   0.817   3.119   4.924  0.4044  0.5194  0.1998
 2055SOL    HW117798   0.779   3.126   5.011  0.3931  0.5335  0.1938
 2055SOL    HW217799   0.873   3.197   4.920  1.2251 -0.1351 -1.3578
 2056SOL     OW17800   4.137   3.573  10.788  0.0718  0.2291  0.1095
 2056SOL    HW117801   4.125   3.529  10.703  0.5932  0.9090 -0.3168
 2056SOL    HW217802   4.230   3.590  10.773 -0.2667 -0.0368 -2.3951
 2057SOL     OW17803   0.382   2.928  14.832 -0.8675  0.9456  0.5660
 2057SOL    HW117804   0.451   2.916  14.897 -1.8566  1.5123  1.7258
 2057SOL    HW217805   0.317   2.978  14.881 -1.1134  1.9526 -0.7886
 2058SOL     OW17806   2.262   4.489   0.291  0.2159 -0.6785 -0.1711
 2058SOL    HW117807   2.333   4.425   0.294 -2.0811 -3.2124 -0.1792
 2058SOL    HW217808   2.215   4.463   0.370  1.3013  2.0267  1.3702
 2059SOL     OW17809   0.609   1.857   5.350  0.2773 -0.4272  0.3931
 2059SOL    HW117810   0.595   1.944   5.314  0.3910 -0.5307  0.0988
 2059SOL    HW217811   0.702   1.876   5.362  0.8255 -2.4928 -0.5652
 2060SOL     OW17812   0.324   3.554  12.577  0.0829  0.0484  0.2262
 2060SOL    HW117813   0.371   3.474  12.601  2.4955  0.9743 -1.4710
 2060SOL    HW217814   0.236   3.518  12.587  1.0377 -1.5377  2.9982
 2061SOL     OW17815   2.553   1.559   5.715 -0.0540  0.0775  0.6229
 2061SOL    HW117816   2.557   1.546   5.809  0.3723  1.0481  0.7305
 2061SOL    HW217817   2.645   1.548   5.692 -0.4158 -0.9857 -0.3540
 2062SOL     OW17818   0.981   3.734  17.244  0.5519 -0.0191  0.6269
 2062SOL    HW117819   1.047   3.796  17.274  0.4958 -0.0464  0.8083
 2062SOL    HW217820   0.979   3.751  17.150 -1.6622  1.2386  0.9083
 2063SOL     OW17821   4.646   2.557   1.530  0.1255  0.2570 -0.1891
 2063SOL    HW117822   4.670   2.611   1.455 -1.1977 -0.7331 -1.3163
 2063SOL    HW217823   4.706   2.595   1.595 -0.2917 -1.1630  1.0197
 2064SOL     OW17824   1.456   1.569  13.600 -0.8526 -0.1536  0.9780
 2064SOL    HW117825   1.390   1.554  13.667 -0.3421  0.3229  1.5817
 2064SOL    HW217826   1.399   1.554  13.524  2.0823 -1.0593 -1.0717
 2065SOL     OW17827   1.098   0.796   7.509  0.4564 -0.2475 -0.2704
 2065SOL    HW117828   1.048   0.834   7.581  1.4267 -1.2337  0.9131
 2065SOL    HW217829   1.045   0.726   7.471  2.0152 -0.8213 -1.4165
 2066SOL     OW17830   2.434   3.219   3.108 -0.3132 -0.2800  0.2927
 2066SOL    HW117831   2.506   3.169   3.070  0.8844  2.3018 -0.8555
 2066SOL    HW217832   2.459   3.308   3.084  0.2141 -0.2021  1.1207
 2067SOL     OW17833   0.728   4.028   4.779 -0.1153 -0.2647  0.4630
 2067SOL    HW117834   0.735   3.959   4.846 -1.6926 -1.2370 -0.3685
 2067SOL    HW217835   0.813   4.011   4.738 -0.7852  2.4101 -1.9789
 2068SOL     OW17836   4.481   0.578   7.046 -0.1205  0.4403  0.3406
 2068SOL    HW117837   4.410   0.528   7.086  0.4994 -1.1541 -0.5460
 2068SOL    HW217838   4.556   0.520   7.057 -0.8264 -0.1988  1.7407
 2069SOL     OW17839   1.100   1.221   8.670  0.6261  0.4959  0.1031
 2069SOL    HW117840   1.181   1.268   8.690  1.0100  0.1173 -0.5526
 2069SOL    HW217841   1.126   1.163   8.599 -0.5316 -1.0372  0.9377
 2070SOL     OW17842   3.436   0.187   6.788 -0.3605 -0.5016  0.4775
 2070SOL    HW117843   3.469   0.102   6.816  1.4512 -0.0481 -0.2619
 2070SOL    HW217844   3.343   0.180   6.811 -0.5176 -0.0249  0.0041
 2071SOL     OW17845   0.516   1.566  10.748 -0.3347  0.4422 -0.5593
 2071SOL    HW117846   0.520   1.481  10.704 -0.1785  0.9974 -1.6236
 2071SOL    HW217847   0.428   1.563  10.785 -0.9698  0.3072 -2.0772
 2072SOL     OW17848   2.763   1.066  11.360 -0.4327  0.6422 -0.0905
 2072SOL    HW117849   2.809   1.041  11.440  0.1091  2.8952  0.2957
 2072SOL    HW217850   2.831   1.090  11.297  0.0405  1.4174  0.7157
 2073SOL     OW17851   0.322   1.546   1.909 -0.3654  0.7636  0.5788
 2073SOL    HW117852   0.320   1.483   1.981  0.8473 -0.4525 -0.4618
 2073SOL    HW217853   0.301   1.486   1.837 -1.8962 -0.0879  1.7450
 2074SOL     OW17854   0.433   2.515   2.735  0.3545  1.0787  0.0153
 2074SOL    HW117855   0.517   2.547   2.702  0.7594 -0.8491 -0.7654
 2074SOL    HW217856   0.386   2.512   2.651 -0.4139  0.5122  0.4769
 2075SOL     OW17857   3.380   4.456  13.095  0.3776 -0.3588 -0.2911
 2075SOL    HW117858   3.351   4.501  13.174  1.0751  0.0862 -0.2907
 2075SOL    HW217859   3.303   4.470  13.040 -1.2102 -0.0814  2.0037
 2076SOL     OW17860   1.175   2.974   0.430 -0.7373  0.2323  0.2970
 2076SOL    HW117861   1.194   3.063   0.458  0.1084 -0.2998  1.4008
 2076SOL    HW217862   1.177   2.994   0.336 -2.2117 -3.6286 -0.5576
 2077SOL     OW17863   2.824   4.549   4.250 -0.0527  0.3071 -0.3907
 2077SOL    HW117864   2.899   4.554   4.192 -1.7012 -1.6778 -2.6939
 2077SOL    HW217865   2.794   4.638   4.272  1.0668  1.2880 -2.8199
 2078SOL     OW17866   4.050   2.150   7.163 -0.1318 -0.3904  0.0242
 2078SOL    HW117867   3.970   2.198   7.183 -0.3674 -1.8134  2.4623
 2078SOL    HW217868   4.105   2.182   7.235 -0.2352  2.2147 -1.0541
 2079SOL     OW17869   3.619   0.850  16.820 -0.0289  0.1458  0.1832
 2079SOL    HW117870   3.643   0.840  16.728 -2.4224  0.2729 -0.4625
 2079SOL    HW217871   3.536   0.895  16.806  0.0492  0.4476  0.6775
 2080SOL     OW17872   3.168   1.508   7.627  1.0256 -0.2762 -0.1603
 2080SOL    HW117873   3.217   1.583   7.594 -0.0777 -0.3276 -1.9112
 2080SOL    HW217874   3.101   1.499   7.559 -0.5079  0.4469  1.2350
 2081SOL     OW17875   0.754   0.060   8.858 -0.1687 -0.1419  0.1519
 2081SOL    HW117876   0.721   0.148   8.839 -0.4397 -0.7040 -1.9544
 2081SOL    HW217877   0.702   0.038   8.935  1.1402 -0.0280  1.0664
 2082SOL     OW17878   4.591   2.348  13.793  0.5041  0.1278 -0.1163
 2082SOL    HW117879   4.576   2.439  13.818  1.5463  0.5951 -1.1526
 2082SOL    HW217880   4.540   2.351  13.712  1.0162 -2.2539 -0.5306
 2083SOL     OW17881   3.535   3.633   6.883  0.2328  0.3965 -0.3911
 2083SOL    HW117882   3.548   3.637   6.978  1.2502  0.8866 -0.5493
 2083SOL    HW217883   3.512   3.541   6.875  0.0315  0.4380 -0.2822
 2084SOL     OW17884   1.136   4.409   8.053  0.0422 -0.0127 -0.5885
 2084SOL    HW117885   1.225   4.374   8.046 -0.9959 -1.9373 -4.2974
 2084SOL    HW217886   1.117   4.428   7.961  0.0536  0.5776 -0.4677
 2085SOL     OW17887   1.772   4.447   7.675  0.0547 -0.1251  0.6998
 2085SOL    HW117888   1.856   4.491   7.659  0.9203 -3.1783 -3.0900
 2085SOL    HW217889   1.711   4.505   7.630  0.4328 -0.6204 -0.4333
 2086SOL     OW17890   0.962   4.524   0.299 -0.0828  1.0052 -0.4815
 2086SOL    HW117891   0.997   4.561   0.379  1.0442 -0.0255 -0.4912
 2086SOL    HW217892   1.000   4.436   0.297 -2.0861  0.1457 -0.3352
 2087SOL     OW17893   2.486   0.988   6.741 -0.4282  0.0382  0.2573
 2087SOL    HW117894   2.518   1.075   6.765  2.9512 -1.6370  1.8736
 2087SOL    HW217895   2.537   0.941   6.807 -1.0376 -1.8946 -0.6503
 2088SOL     OW17896   0.983   3.109   3.950  0.2059  0.6204 -0.3656
 2088SOL    HW117897   1.078   3.098   3.943  0.0856 -1.7879  1.7303
 2088SOL    HW217898   0.964   3.159   4.029  2.4840 -0.9566  1.1900
 2089SOL     OW17899   1.972   3.599   5.307 -0.0946 -0.1752  0.3073
 2089SOL    HW117900   1.988   3.511   5.274 -1.5458  0.0582 -0.9884
 2089SOL    HW217901   2.051   3.643   5.277 -0.4490 -0.2788 -0.7547
 2090SOL     OW17902   1.248   3.587   5.969  0.2570  0.4651  0.0592
 2090SOL    HW117903   1.278   3.585   5.878  0.4695 -0.9997  0.1572
 2090SOL    HW217904   1.225   3.680   5.967  0.3311  0.5139  1.7704
 2091SOL     OW17905   1.109   3.065  16.192  0.0257 -0.3827  0.3152
 2091SOL    HW117906   1.140   3.006  16.124  0.3779  2.1310 -1.6864
 2091SOL    HW217907   1.182   3.123  16.212 -1.3395  1.6642 -0.6483
 2092SOL     OW17908   4.014   2.952   0.491 -0.0643  0.8407 -0.6955
 2092SOL    HW117909   4.062   3.034   0.479  1.6148  0.0150  0.4418
 2092SOL    HW217910   4.079   2.885   0.513 -0.1495  1.5660  1.7681
 2093SOL     OW17911   1.128   2.654   0.215  0.1362 -0.3678  0.1973
 2093SOL    HW117912   1.047   2.705   0.223  0.6719  0.5873 -0.5043
 2093SOL    HW217913   1.134   2.653   0.120 -0.0203  0.6017  0.1801
 2094SOL     OW17914   0.497   0.176   1.820 -0.3708  0.0496  0.3207
 2094SOL    HW117915   0.451   0.102   1.861  0.6303 -0.7476  0.0180
 2094SOL    HW217916   0.581   0.135   1.797 -1.0143  0.0742 -2.0676
 2095SOL     OW17917   2.790   2.644   5.276 -0.0945  0.0249 -0.0828
 2095SOL    HW117918   2.861   2.625   5.215  0.8150 -1.7035  1.5209
 2095SOL    HW217919   2.789   2.570   5.337  0.3335  0.0590 -0.0368
 2096SOL     OW17920   0.498   4.529   4.874  0.1731  0.5441  0.7287
 2096SOL    HW117921   0.539   4.443   4.889  0.2117  0.3827 -0.3135
 2096SOL    HW217922   0.577   4.583   4.870  0.6927 -0.0842  2.3100
 2097SOL     OW17923   3.200   1.254   4.160  0.5751 -0.0058 -0.0271
 2097SOL    HW117924   3.276   1.223   4.110 -0.0529 -1.4796 -0.0666
 2097SOL    HW217925   3.233   1.344   4.162  2.4151 -0.6914  0.7365
 2098SOL     OW17926   0.566   2.391   1.530  0.1962  0.5681 -0.2405
 2098SOL    HW117927   0.582   2.486   1.537 -0.2146  0.5857  0.5507
 2098SOL    HW217928   0.647   2.353   1.563 -0.3359 -0.0649  0.3479
 2099SOL     OW17929   4.522   1.830   2.320  0.2830  0.2281 -0.1761
 2099SOL    HW117930   4.562   1.916   2.334  2.5651 -0.6563 -1.2086
 2099SOL    HW217931   4.576   1.788   2.253 -1.3276  0.4253 -1.6021
 2100SOL     OW17932   3.202   0.871   3.681  0.7295 -0.5172 -0.2363
 2100SOL    HW117933   3.120   0.865   3.731  2.2900 -1.6853  2.2366
 2100SOL    HW217934   3.175   0.866   3.590 -2.2162  2.7787  0.4791
 2101SOL     OW17935   3.294   0.731   6.592  0.1038  1.2644  0.5389
 2101SOL    HW117936   3.262   0.738   6.502 -1.3987  0.6993  1.0241
 2101SOL    HW217937   3.380   0.695   6.570 -0.0982  0.3642  1.2187
 2102SOL     OW17938   1.146   2.134   0.272 -0.3806  0.4336  0.1495
 2102SOL    HW117939   1.185   2.150   0.186  4.1665 -0.4310  2.0491
 2102SOL    HW217940   1.162   2.220   0.312 -1.5256 -0.4131  2.3739
 2103SOL     OW17941   4.732   2.752  11.184  0.2294 -0.0568 -0.5167
 2103SOL    HW117942   0.035   2.692  11.247 -1.2261 -0.7521 -0.2496
 2103SOL    HW217943   4.736   2.837  11.228 -0.5610  0.4909 -1.5108
 2104SOL     OW17944   2.073   3.373   5.190  0.1018  0.2251  0.0407
 2104SOL    HW117945   2.040   3.290   5.224 -0.9823 -0.2403 -2.1107
 2104SOL    HW217946   2.167   3.364   5.206  0.3212  2.1276 -0.1837
 2105SOL     OW17947   3.891   3.163   4.483  0.0099  0.2713  0.2184
 2105SOL    HW117948   3.950   3.088   4.490  1.0973  1.0352 -0.6242
 2105SOL    HW217949   3.866   3.157   4.391  1.5188 -1.0376 -0.1096
 2106SOL     OW17950   3.847   3.153  12.981  0.4364  0.0161  0.0085
 2106SOL    HW117951   3.905   3.080  13.005 -2.0897 -0.9918  3.0657
 2106SOL    HW217952   3.863   3.158  12.887 -1.9344 -4.0073 -0.6368
 2107SOL     OW17953   2.512   0.569   8.374  0.1677  0.0131  0.1166
 2107SOL    HW117954   2.435   0.517   8.353  0.0956  0.1209  0.1165
 2107SOL    HW217955   2.481   0.599   8.460 -1.2706 -1.0115 -0.0420
 2108SOL     OW17956   4.679   4.494   9.737 -0.6395  0.0671  0.4221
 2108SOL    HW117957   0.034   4.507   9.758 -0.0837 -1.1139 -1.2801
 2108SOL    HW217958   4.654   4.560   9.801 -0.0463 -0.4211  1.1636
 2109SOL     OW17959   2.501   2.695   3.642  0.2568 -0.0766 -0.1983
 2109SOL    HW117960   2.564   2.746   3.693  0.0799  1.2077 -1.2597
 2109SOL    HW217961   2.567   2.633   3.610  1.8189  1.3854  0.1774
 2110SOL     OW17962   3.683   3.256   8.168  0.2094  0.2759 -0.3421
 2110SOL    HW117963   3.600   3.295   8.197  0.7649  1.0681  0.1707
 2110SOL    HW217964   3.686   3.301   8.083 -1.2208  1.4857  0.2387
 2111SOL     OW17965   1.096   3.294   3.742 -0.0471  0.2364 -0.4445
 2111SOL    HW117966   1.129   3.221   3.794  0.7806  0.2311 -0.9911
 2111SOL    HW217967   1.107   3.265   3.651 -1.9600 -1.1071 -0.2664
 2112SOL     OW17968   4.031   2.138   6.286  0.2912 -0.1643 -0.0285
 2112SOL    HW117969   4.076   2.124   6.369  0.7841 -1.2546 -0.4789
 2112SOL    HW217970   3.950   2.090   6.303  0.8217 -0.6300  1.1710
 2113SOL     OW17971   2.848   1.404  15.404  0.0260 -0.0716  0.3648
 2113SOL    HW117972   2.831   1.366  15.318  0.8882 -0.7896  0.5218
 2113SOL    HW217973   2.780   1.470  15.418 -0.4280 -0.5311  0.3098
 2114SOL     OW17974   3.681   1.511  10.288  0.7627 -0.2467  0.1702
 2114SOL    HW117975   3.646   1.596  10.315 -0.4695 -0.9061  0.6526
 2114SOL    HW217976   3.642   1.493  10.203  1.1501  1.8427 -0.4531
 2115SOL     OW17977   1.157   3.728   0.892 -0.2698  0.9899  0.2837
 2115SOL    HW117978   1.121   3.817   0.892  2.1834  1.9992  0.5547
 2115SOL    HW217979   1.193   3.718   0.804  3.5421  0.4006  1.8903
 2116SOL     OW17980   2.329   1.948   1.781 -0.2787  0.0752 -0.4655
 2116SOL    HW117981   2.391   1.906   1.721 -0.6773  1.9072 -2.1581
 2116SOL    HW217982   2.381   2.026   1.798  0.8125 -0.5510 -0.9029
 2117SOL     OW17983   3.086   4.467  17.489 -0.2884  0.1916  0.0056
 2117SOL    HW117984   3.027   4.421  17.428  0.7197 -0.8593 -0.1890
 2117SOL    HW217985   3.068   4.554  17.454  1.6882  0.7386  0.3652
 2118SOL     OW17986   0.735   2.329   2.577 -0.1083  0.3943 -0.0496
 2118SOL    HW117987   0.782   2.405   2.610  0.9698 -0.7243  0.9959
 2118SOL    HW217988   0.690   2.369   2.503  1.0405  0.2046 -0.8546
 2119SOL     OW17989   2.839   3.786   6.048  0.5663  1.1879  0.3752
 2119SOL    HW117990   2.791   3.729   5.988  1.6847 -0.2337  0.8147
 2119SOL    HW217991   2.913   3.801   5.988  1.4111  1.2589  1.4307
 2120SOL     OW17992   3.965   4.445   7.437 -0.0706 -0.8388  0.3975
 2120SOL    HW117993   3.984   4.410   7.350 -1.2041  1.2819 -0.6921
 2120SOL    HW217994   3.870   4.452   7.433 -0.1233 -1.7469  0.0133
 2121SOL     OW17995   2.608   4.135   4.024 -0.1014  0.2384  0.4876
 2121SOL    HW117996   2.619   4.068   4.091 -2.1398  0.1056  0.6889
 2121SOL    HW217997   2.603   4.206   4.088 -1.6396  0.0962  0.5247
 2122SOL     OW17998   3.354   0.965   3.377 -0.4644 -0.1421  0.1991
 2122SOL    HW117999   3.273   0.914   3.371 -1.0851  0.9249 -0.4869
 2122SOL    HW218000   3.315   1.036   3.427  1.7669  1.4483 -0.3457
 2123SOL     OW18001   3.261   3.239  10.226  0.2564  0.5923  0.3715
 2123SOL    HW118002   3.208   3.263  10.150 -0.0333  0.9601  0.6875
 2123SOL    HW218003   3.299   3.323  10.251 -1.4586  2.0097 -1.8162
 2124SOL     OW18004   2.020   0.086  10.165 -0.3476  0.2224  0.0238
 2124SOL    HW118005   2.108   0.099  10.201  0.2401 -1.2654 -0.8596
 2124SOL    HW218006   1.977   0.044  10.239  0.4777  0.0679  0.4203
 2125SOL     OW18007   3.464   3.406   8.277 -0.1963  0.0403  0.2406
 2125SOL    HW118008   3.385   3.390   8.225 -1.4508  0.6098  1.9654
 2125SOL    HW218009   3.430   3.378   8.362 -0.4404  0.1630  0.1810
 2126SOL     OW18010   0.538   3.270   3.649 -0.3853 -0.2758  0.5693
 2126SOL    HW118011   0.537   3.222   3.566  1.6721 -0.8529  0.8900
 2126SOL    HW218012   0.624   3.252   3.688 -0.1941 -1.2096 -0.2729
 2127SOL     OW18013   1.188   1.733   6.383  0.4956  0.1768  0.5391
 2127SOL    HW118014   1.191   1.654   6.437  2.2261 -1.4219 -1.9014
 2127SOL    HW218015   1.282   1.740   6.366  0.3522 -0.4797 -0.4940
 2128SOL     OW18016   3.995   2.424   2.441  0.8554 -0.5633 -0.2876
 2128SOL    HW118017   4.003   2.519   2.427 -2.6023 -0.3128 -0.5994
 2128SOL    HW218018   3.926   2.415   2.507  0.8953  0.4877 -0.0970
 2129SOL     OW18019   3.514   3.363   6.379  0.7068 -0.1012 -0.0391
 2129SOL    HW118020   3.593   3.356   6.325 -0.4537 -1.9781 -1.5045
 2129SOL    HW218021   3.442   3.375   6.316 -1.5657  1.0003  2.7799
 2130SOL     OW18022   1.491   1.226  12.846 -0.2511 -0.0099 -0.1382
 2130SOL    HW118023   1.546   1.186  12.778  1.5236  2.2100 -0.0107
 2130SOL    HW218024   1.556   1.262  12.905 -2.4200  0.0621  2.1962
 2131SOL     OW18025   4.080   2.532  10.420 -0.3338 -0.3203  0.1034
 2131SOL    HW118026   4.073   2.475  10.344 -0.4859 -0.1473 -0.0122
 2131SOL    HW218027   4.003   2.514  10.472 -0.3609 -1.0825 -0.2096
 2132SOL     OW18028   0.525   1.637   8.734  0.2316 -0.3573  0.3867
 2132SOL    HW118029   0.584   1.696   8.686 -1.0433  1.0646  0.5882
 2132SOL    HW218030   0.536   1.559   8.679  0.4019  0.1323 -0.2838
 2133SOL     OW18031   1.605   3.158   1.445 -0.2748  0.3248 -0.3375
 2133SOL    HW118032   1.513   3.183   1.436 -0.7647 -1.3877  0.0290
 2133SOL    HW218033   1.633   3.200   1.527 -0.7374 -0.0214  0.0014
 2134SOL     OW18034   1.822   0.195   8.828  0.1834  0.3170  0.4446
 2134SOL    HW118035   1.732   0.227   8.829 -0.8676 -2.6941  0.9927
 2134SOL    HW218036   1.799   0.102   8.828  2.8610 -0.3501  0.2127
 2135SOL     OW18037   3.638   3.868   1.130  0.0328  0.0701  0.4696
 2135SOL    HW118038   3.671   3.946   1.084 -1.7299  0.6644  0.1887
 2135SOL    HW218039   3.659   3.879   1.222 -2.2538  0.2248  0.9611
 2136SOL     OW18040   2.656   2.894  17.348 -0.4989  0.2653  0.7565
 2136SOL    HW118041   2.719   2.931  17.410  1.5507 -1.3434 -0.3902
 2136SOL    HW218042   2.620   2.823  17.403 -1.9386  0.8121  0.5294
 2137SOL     OW18043   2.106   3.048   2.977  0.2280 -0.3039  0.2260
 2137SOL    HW118044   2.053   3.128   2.981  2.1454  1.0745 -1.8609
 2137SOL    HW218045   2.172   3.061   2.909 -0.6987 -1.9808 -0.9906
 2138SOL     OW18046   0.726   1.276   5.737 -0.0591  0.3969  0.7313
 2138SOL    HW118047   0.676   1.244   5.812  1.1936  0.2922  1.5062
 2138SOL    HW218048   0.817   1.279   5.767 -0.0884  1.1314  0.7476
 2139SOL     OW18049   3.204   2.090   0.045 -0.0470 -0.4591 -0.1420
 2139SOL    HW118050   3.118   2.128   0.065 -0.8393 -0.8224 -2.8911
 2139SOL    HW218051   3.249   2.171   0.019 -1.4244  0.6475  0.8950
 2140SOL     OW18052   1.457   0.638   5.762  0.5259  0.0467 -0.2570
 2140SOL    HW118053   1.397   0.594   5.822 -0.4272 -0.6010 -1.6744
 2140SOL    HW218054   1.396   0.641   5.688 -0.1916 -2.7246  0.2288
 2141SOL     OW18055   3.267   0.874   2.304  0.3019  0.0480 -0.0249
 2141SOL    HW118056   3.352   0.912   2.326  1.2786 -1.5414 -1.0533
 2141SOL    HW218057   3.215   0.946   2.337  0.6076  0.4409 -0.4057
 2142SOL     OW18058   0.228   0.587   5.056 -0.2616  0.2703 -0.0698
 2142SOL    HW118059   0.250   0.680   5.063  0.4824  0.0393  0.6877
 2142SOL    HW218060   0.175   0.564   5.133  0.0544  0.6557  0.2609
 2143SOL     OW18061   4.731   1.210   0.797  0.0484  0.0045  0.1185
 2143SOL    HW118062   4.685   1.140   0.750  1.2814 -0.3980 -0.4750
 2143SOL    HW218063   4.653   1.256   0.827  0.4351  0.6875  0.0600
 2144SOL     OW18064   4.703   3.330   0.605  0.0743 -0.0152  0.2609
 2144SOL    HW118065   4.664   3.345   0.519 -0.6955 -1.0209  0.4405
 2144SOL    HW218066   4.651   3.254   0.631  0.5205  0.1243  1.5824
 2145SOL     OW18067   4.652   4.483   5.493  0.4898  0.2727  0.4920
 2145SOL    HW118068   4.720   4.436   5.542  1.4257  0.3198 -0.7686
 2145SOL    HW218069   4.680   4.450   5.408 -0.0627  2.0183 -0.3838
 2146SOL     OW18070   0.308   2.320   2.018 -0.2524  0.5121  0.0175
 2146SOL    HW118071   0.352   2.249   2.064  1.2626  2.2515  1.2830
 2146SOL    HW218072   0.276   2.270   1.943  2.7085 -1.4523  0.0754
 2147SOL     OW18073   4.364   1.692   7.384 -0.1564 -0.0428  0.4146
 2147SOL    HW118074   4.329   1.668   7.469  0.9600  2.1367  1.4877
 2147SOL    HW218075   4.313   1.641   7.321 -0.0190 -0.8944  0.9989
 2148SOL     OW18076   0.182   2.937   2.619 -0.3276 -0.5166 -0.2398
 2148SOL    HW118077   0.277   2.924   2.611 -0.4829 -2.1128  0.5391
 2148SOL    HW218078   0.163   2.889   2.699 -3.0367  3.2070  1.3761
 2149SOL     OW18079   1.544   2.399   5.628 -0.1463  0.5474 -0.1423
 2149SOL    HW118080   1.453   2.390   5.653  0.1334 -0.5979  0.4299
 2149SOL    HW218081   1.535   2.494   5.619  0.1339  0.6957  1.1119
 2150SOL     OW18082   3.284   3.197   6.311 -0.4938 -0.2713 -0.2375
 2150SOL    HW118083   3.195   3.174   6.338 -0.0495 -2.4713 -0.6652
 2150SOL    HW218084   3.259   3.267   6.250  0.2727  0.1424 -0.0696
 2151SOL     OW18085   3.102   3.079   5.119 -0.2111  0.0219 -0.2147
 2151SOL    HW118086   3.127   3.170   5.136 -0.5959 -0.0168  0.5950
 2151SOL    HW218087   3.124   3.035   5.201  0.9274 -0.0796 -0.5744
 2152SOL     OW18088   3.345   1.211   6.154  0.4469  0.3775 -0.7220
 2152SOL    HW118089   3.345   1.287   6.211  0.2537  0.2901 -0.6054
 2152SOL    HW218090   3.429   1.221   6.110  0.2483 -0.5839 -1.3240
 2153SOL     OW18091   0.661   3.754   2.330 -0.5847  0.3145  0.6337
 2153SOL    HW118092   0.585   3.805   2.301 -2.0358 -1.8787  0.5431
 2153SOL    HW218093   0.690   3.801   2.408 -1.1986 -0.0540  1.0781
 2154SOL     OW18094   3.596   2.532   2.804 -0.8713 -0.1700  0.0633
 2154SOL    HW118095   3.547   2.473   2.747  0.4821 -0.0940 -1.1932
 2154SOL    HW218096   3.531   2.597   2.830 -0.2219  1.5230 -2.5000
 2155SOL     OW18097   4.472   0.949  15.840  0.3072 -0.5848 -0.1011
 2155SOL    HW118098   4.446   0.944  15.748 -1.3220 -1.1330  0.3945
 2155SOL    HW218099   4.392   0.905  15.869 -1.1650  1.4949 -0.9965
 2156SOL     OW18100   0.747   1.678  13.254  0.0081  0.6770 -0.0473
 2156SOL    HW118101   0.721   1.698  13.164 -0.1958  0.3246 -0.0650
 2156SOL    HW218102   0.744   1.583  13.262  0.5937  0.7215  0.7207
 2157SOL     OW18103   0.245   0.534  15.505  0.5509 -0.1442  0.2397
 2157SOL    HW118104   0.289   0.616  15.526 -1.8488  1.7634 -2.2440
 2157SOL    HW218105   0.181   0.536  15.576 -0.7801 -1.5399 -0.9254
 2158SOL     OW18106   0.396   1.047  10.007 -0.7154  0.3787 -0.0656
 2158SOL    HW118107   0.317   1.009  10.046 -0.7025  1.1928  0.7367
 2158SOL    HW218108   0.455   0.973  10.022  0.7669  1.8829  1.4125
 2159SOL     OW18109   4.354   3.456  12.078  0.4501  0.0482  0.5380
 2159SOL    HW118110   4.420   3.406  12.031  1.0050  2.7183 -1.4547
 2159SOL    HW218111   4.280   3.450  12.018  0.3541 -2.1793  0.8654
 2160SOL     OW18112   3.317   0.855  17.166  0.0328  0.1465  0.4185
 2160SOL    HW118113   3.311   0.864  17.261 -0.9256  0.2378  0.3421
 2160SOL    HW218114   3.230   0.887  17.145 -0.3834 -1.8984 -0.9731
 2161SOL     OW18115   2.755   3.396   3.730  0.4698 -0.2015  0.7331
 2161SOL    HW118116   2.665   3.371   3.750  0.0929  0.0307 -0.6602
 2161SOL    HW218117   2.799   3.316   3.757 -0.4827 -1.6460 -2.0411
 2162SOL     OW18118   3.367   1.877   7.303 -0.1472  0.4040 -0.4554
 2162SOL    HW118119   3.397   1.967   7.291 -4.2773  1.8873  0.3063
 2162SOL    HW218120   3.428   1.835   7.242  0.7524  2.7701 -1.1827
 2163SOL     OW18121   3.414   2.929   7.165  0.6208  0.2988 -0.3046
 2163SOL    HW118122   3.331   2.919   7.119 -0.0733 -3.4227  1.7980
 2163SOL    HW218123   3.441   3.016   7.136 -1.1374  0.8405 -0.3059
 2164SOL     OW18124   2.576   3.386  11.775  0.2820  0.2737 -0.0816
 2164SOL    HW118125   2.548   3.305  11.818 -0.2637  0.4315 -0.1377
 2164SOL    HW218126   2.660   3.372  11.732  0.2858 -2.9716  0.9791
 2165SOL     OW18127   2.985   0.492   5.673  0.0525 -0.6858 -0.1536
 2165SOL    HW118128   2.993   0.531   5.760  0.2952  0.0011 -0.4854
 2165SOL    HW218129   2.913   0.429   5.674 -0.4425 -0.1290 -0.2959
 2166SOL     OW18130   3.318   2.304   6.132  0.0713  0.2437  0.1199
 2166SOL    HW118131   3.383   2.317   6.062  1.2825 -1.0091  1.0039
 2166SOL    HW218132   3.332   2.210   6.143  1.8919  0.1852 -2.5344
 2167SOL     OW18133   1.906   2.842   7.523  0.8696 -0.8764  0.2208
 2167SOL    HW118134   2.002   2.835   7.519  1.0191  0.3273  1.6504
 2167SOL    HW218135   1.890   2.764   7.577  1.8918 -0.3161  1.3322
 2168SOL     OW18136   0.947   0.070   2.544 -0.2468  0.1733  0.1755
 2168SOL    HW118137   1.012   0.000   2.549 -2.6216 -1.8695  2.6178
 2168SOL    HW218138   0.978   0.127   2.474  1.1918 -0.7082  0.1025
 2169SOL     OW18139   1.905   3.798   3.109 -0.2907 -0.0824 -0.7441
 2169SOL    HW118140   1.817   3.783   3.072 -1.5440  2.8919  1.0687
 2169SOL    HW218141   1.891   3.775   3.201  0.0413 -0.4797 -0.7956
 2170SOL     OW18142   0.266   1.739   4.632 -0.3267 -0.8379  0.2454
 2170SOL    HW118143   0.215   1.668   4.670 -1.0529  0.5849  1.9192
 2170SOL    HW218144   0.261   1.732   4.537 -2.0348 -0.5486  0.3100
 2171SOL     OW18145   3.983   2.148  15.533 -0.4042  0.6477 -0.1479
 2171SOL    HW118146   3.939   2.232  15.544  1.7208  1.7868 -0.3989
 2171SOL    HW218147   4.071   2.156  15.571  0.0815 -3.0381 -0.4926
 2172SOL     OW18148   0.802   1.724   2.630  0.0764  0.5430 -0.1102
 2172SOL    HW118149   0.799   1.763   2.718  0.5798  3.1432 -1.2283
 2172SOL    HW218150   0.714   1.751   2.604  0.1438  1.4699  0.5879
 2173SOL     OW18151   2.957   3.606   7.432  0.1440 -0.4502  0.5869
 2173SOL    HW118152   2.929   3.589   7.342 -0.0170  2.1281  0.1322
 2173SOL    HW218153   3.050   3.620   7.415  0.0415  0.8908  1.0721
 2174SOL     OW18154   1.283   2.454  17.586  0.2286 -0.3010  0.5515
 2174SOL    HW118155   1.322   2.405  17.514 -0.0851  0.5438 -0.2028
 2174SOL    HW218156   1.350   2.455  17.654 -1.3182  1.9935  2.0371
 2175SOL     OW18157   3.003   2.217  15.268 -1.0031 -0.3638 -0.3441
 2175SOL    HW118158   2.918   2.207  15.309 -1.6527 -0.4861 -1.7332
 2175SOL    HW218159   3.031   2.126  15.279  0.7741  0.1971 -0.2289
 2176SOL     OW18160   1.090   1.574  14.752  0.2926 -0.0716  0.2723
 2176SOL    HW118161   1.174   1.530  14.766 -0.5438 -1.8287 -0.1826
 2176SOL    HW218162   1.092   1.631  14.829  1.0400  0.8630 -0.4568
 2177SOL     OW18163   3.128   0.175  10.010 -0.6832 -0.3163 -0.3408
 2177SOL    HW118164   3.035   0.154  10.003 -0.3250 -1.4778 -1.6240
 2177SOL    HW218165   3.172   0.090  10.004 -1.2676 -0.6079 -0.4804
 2178SOL     OW18166   1.491   0.682  12.488 -0.4186 -0.3953  0.1805
 2178SOL    HW118167   1.430   0.628  12.539 -0.3003 -0.9673 -0.2806
 2178SOL    HW218168   1.573   0.667  12.535 -0.1493 -2.1061 -0.8154
 2179SOL     OW18169   2.828   1.334   8.702 -0.0208 -0.2643  0.7530
 2179SOL    HW118170   2.884   1.391   8.649 -0.5439 -0.0745  0.4158
 2179SOL    HW218171   2.824   1.382   8.785 -0.1567 -0.2071  0.7123
 2180SOL     OW18172   0.102   0.813   5.320 -0.4783 -0.4971 -0.1245
 2180SOL    HW118173   0.085   0.719   5.325  0.1380 -0.7373 -2.4465
 2180SOL    HW218174   0.028   0.855   5.363 -1.9136 -1.6976 -1.4044
 2181SOL     OW18175   3.606   4.323  10.670  0.3925 -0.3909  0.3668
 2181SOL    HW118176   3.559   4.401  10.700  3.1532  1.7241 -0.8108
 2181SOL    HW218177   3.539   4.271  10.625 -0.1708  1.2372 -0.6613
 2182SOL     OW18178   4.116   4.029  12.658 -0.1473  0.0814 -0.2517
 2182SOL    HW118179   4.072   4.025  12.743  1.2779  1.0828  0.5202
 2182SOL    HW218180   4.056   3.984  12.597 -0.8825  1.0550 -0.2527
 2183SOL     OW18181   0.037   3.996   6.309  0.8194  0.8001 -0.4250
 2183SOL    HW118182   0.088   4.041   6.242  0.0728  2.5532  0.1973
 2183SOL    HW218183   4.685   4.020   6.283  0.2429  0.8575  1.6158
 2184SOL     OW18184   2.123   4.695  12.181 -0.6464 -0.4701 -0.5568
 2184SOL    HW118185   2.209   4.709  12.222 -0.6987 -0.6256 -0.3961
 2184SOL    HW218186   2.068   4.722  12.254  0.9321 -0.0634  0.5003
 2185SOL     OW18187   2.914   2.155   5.165 -0.5272  0.4253  0.2871
 2185SOL    HW118188   2.900   2.061   5.176 -1.4189  0.6508  1.0576
 2185SOL    HW218189   2.836   2.193   5.206  0.5966 -0.1868  3.0071
 2186SOL     OW18190   0.002   2.753   9.580  0.2525  0.2402 -0.0553
 2186SOL    HW118191   0.073   2.779   9.639  0.0280 -0.9864  0.7429
 2186SOL    HW218192   4.708   2.841   9.557 -0.8942  0.1774  1.2246
 2187SOL     OW18193   2.571   1.819   0.294  0.1536  0.1162  0.5584
 2187SOL    HW118194   2.601   1.738   0.334  0.3830 -0.1085 -0.0725
 2187SOL    HW218195   2.553   1.883   0.364 -0.1275  0.7371 -0.0718
 2188SOL     OW18196   2.255   1.468   7.782 -0.0714  0.4103 -0.3678
 2188SOL    HW118197   2.312   1.394   7.758  0.6785  1.5515 -2.1690
 2188SOL    HW218198   2.296   1.500   7.862 -1.8596  0.5371  0.4839
 2189SOL     OW18199   0.668   0.038   9.271  0.5032 -0.1637  0.1458
 2189SOL    HW118200   0.735   4.716   9.238  0.7927  0.6252 -0.6744
 2189SOL    HW218201   0.721   0.117   9.267 -0.1083  0.1448 -1.9891
 2190SOL     OW18202   3.292   2.033  13.044 -0.0623  0.0228 -0.6568
 2190SOL    HW118203   3.350   2.104  13.068 -1.4417  0.4828  1.3264
 2190SOL    HW218204   3.324   1.959  13.096  1.7404  0.6571 -0.8734
 2191SOL     OW18205   0.093   0.222  14.157 -0.2567  0.3510  0.5987
 2191SOL    HW118206   0.107   0.128  14.146 -0.7168  0.3403  0.1554
 2191SOL    HW218207   0.031   0.230  14.229 -1.4614 -1.5716 -0.2361
 2192SOL     OW18208   2.565   2.105   7.069 -0.4815 -0.0581  0.1512
 2192SOL    HW118209   2.529   2.018   7.049  0.3223 -0.3498 -0.0032
 2192SOL    HW218210   2.501   2.135   7.134 -0.4720  2.2460 -0.8923
 2193SOL     OW18211   0.009   0.134   4.305 -0.1960  0.0779 -0.4008
 2193SOL    HW118212   0.025   0.139   4.211  0.2904  1.7422 -0.2305
 2193SOL    HW218213   0.091   0.094   4.333  0.1235  1.3673  0.4910
 2194SOL     OW18214   1.216   1.265  14.909  0.2437  0.4637 -0.3577
 2194SOL    HW118215   1.121   1.271  14.907  0.2977  0.3228 -3.4891
 2194SOL    HW218216   1.216   1.182  14.957  0.4037  0.3938 -0.4777
 2195SOL     OW18217   3.815   3.857   4.467  0.0418 -0.3398  0.3365
 2195SOL    HW118218   3.887   3.914   4.493  0.6626  0.0739 -2.2470
 2195SOL    HW218219   3.778   3.907   4.394  0.0673 -3.8760 -2.0848
 2196SOL     OW18220   1.277   2.413   7.322  0.6121 -0.5795 -0.0111
 2196SOL    HW118221   1.317   2.327   7.336  1.7812  0.1708  1.3456
 2196SOL    HW218222   1.359   2.461   7.310  0.0042  0.7369  1.0584
 2197SOL     OW18223   0.256   1.405   4.151 -0.1026 -0.1569 -0.4589
 2197SOL    HW118224   0.193   1.396   4.223  1.5900  0.6217  1.1084
 2197SOL    HW218225   0.333   1.446   4.189 -0.0066 -0.2126 -0.5928
 2198SOL     OW18226   2.538   0.684   7.021  0.2816  0.1963  0.4299
 2198SOL    HW118227   2.489   0.757   7.060  0.5903  0.4211  0.3992
 2198SOL    HW218228   2.568   0.722   6.938 -1.1683 -1.4538 -0.8445
 2199SOL     OW18229   2.609   3.994   6.192 -0.5369 -0.1107  0.1327
 2199SOL    HW118230   2.667   3.934   6.145 -0.1976  0.2950  0.0398
 2199SOL    HW218231   2.531   3.940   6.204 -0.1827 -0.9045 -1.1714
 2200SOL     OW18232   1.272   0.657   2.241  0.0990 -0.3191 -0.0405
 2200SOL    HW118233   1.206   0.617   2.299 -1.1364  0.5182 -0.8655
 2200SOL    HW218234   1.285   0.589   2.175 -0.0592  0.7112 -1.1279
 2201SOL     OW18235   2.592   2.765   1.215 -0.6004 -0.0288  0.4250
 2201SOL    HW118236   2.670   2.819   1.225  0.9641 -2.0748 -0.6150
 2201SOL    HW218237   2.619   2.708   1.143  0.8829  0.1446  0.8468
 2202SOL     OW18238   0.778   2.018  11.215 -0.0672  0.0596 -0.7904
 2202SOL    HW118239   0.813   1.993  11.301 -0.7814 -1.0871 -0.8317
 2202SOL    HW218240   0.846   1.984  11.157  0.5181  0.7261 -0.4995
 2203SOL     OW18241   2.790   0.389   8.776  0.0602  0.1156 -0.1717
 2203SOL    HW118242   2.852   0.317   8.765  0.7656  0.2833  2.6860
 2203SOL    HW218243   2.751   0.404   8.690  0.0988 -0.7078 -0.3328
 2204SOL     OW18244   2.183   0.067   4.052  1.1013 -0.3067  0.5219
 2204SOL    HW118245   2.184   4.709   4.041 -0.4475 -0.1107 -1.4339
 2204SOL    HW218246   2.103   0.073   4.104  2.0795 -0.9932  2.0990
 2205SOL     OW18247   2.594   3.636  12.248 -0.3734  0.0425 -0.2353
 2205SOL    HW118248   2.630   3.697  12.183 -1.1807 -1.8455 -2.4107
 2205SOL    HW218249   2.515   3.685  12.268 -0.2092 -0.5635  1.9290
 2206SOL     OW18250   0.306   1.245   3.286 -0.3224 -0.2782  0.4403
 2206SOL    HW118251   0.248   1.247   3.209 -0.6345 -0.8046  0.6555
 2206SOL    HW218252   0.244   1.239   3.359 -2.2768  0.3016 -1.1552
 2207SOL     OW18253   0.266   1.554   7.994 -0.6934  0.0380 -0.0250
 2207SOL    HW118254   0.344   1.506   7.967 -0.4591 -0.7523  2.0077
 2207SOL    HW218255   0.294   1.575   8.084  0.5416  1.1746 -0.6713
 2208SOL     OW18256   0.246   4.540   9.434 -0.1011 -0.1787  0.3649
 2208SOL    HW118257   0.189   4.527   9.511 -0.0323  3.4381  1.0504
 2208SOL    HW218258   0.230   4.463   9.380  4.8140  0.1572 -1.4885
 2209SOL     OW18259   0.723   0.190  15.289 -0.1605 -0.2821  0.1762
 2209SOL    HW118260   0.747   0.099  15.305  0.6820 -0.0782  0.0383
 2209SOL    HW218261   0.796   0.235  15.332  0.5182 -0.6370 -0.6141
 2210SOL     OW18262   3.688   1.744   2.054  0.4314 -0.3337  0.2723
 2210SOL    HW118263   3.700   1.786   1.969 -0.0868  1.5496  1.1353
 2210SOL    HW218264   3.731   1.658   2.052  1.1891  0.0859 -1.4465
 2211SOL     OW18265   2.117   0.705   2.269 -0.6880  0.0640 -0.2134
 2211SOL    HW118266   2.124   0.790   2.313  1.2215  0.0071 -0.3885
 2211SOL    HW218267   2.138   0.650   2.344 -2.2655  0.5620  0.5887
 2212SOL     OW18268   2.016   3.169  14.852  0.3378 -0.2082 -0.4380
 2212SOL    HW118269   1.964   3.245  14.824  0.5856 -0.1783 -0.8172
 2212SOL    HW218270   2.077   3.166  14.779 -1.7330  2.5506 -2.2812
 2213SOL     OW18271   3.919   0.350  12.723  0.0294 -0.8058  0.1830
 2213SOL    HW118272   3.991   0.316  12.670 -0.7038  2.2504 -2.7862
 2213SOL    HW218273   3.934   0.445  12.716 -0.2970 -0.7616  0.0968
 2214SOL     OW18274   0.666   1.038   9.245 -0.5482  0.6470  0.1855
 2214SOL    HW118275   0.704   1.126   9.249  0.1415  0.2513  2.1787
 2214SOL    HW218276   0.749   0.992   9.228 -1.6764 -1.3652  0.1455
 2215SOL     OW18277   3.970   2.344   3.782 -0.2541  0.8923  0.4571
 2215SOL    HW118278   3.972   2.436   3.756  2.0593 -0.3351 -3.7124
 2215SOL    HW218279   4.044   2.315   3.730  0.8629  0.4233  2.3023
 2216SOL     OW18280   1.179   2.948  17.704 -0.2221 -0.0719 -0.1853
 2216SOL    HW118281   1.191   2.861  17.742  1.2075  0.3077  0.2204
 2216SOL    HW218282   1.214   2.943  17.615 -2.9895 -1.3906 -1.2141
 2217SOL     OW18283   1.771   3.690   6.365 -0.4542 -0.2664 -0.4288
 2217SOL    HW118284   1.683   3.727   6.356 -0.9311 -1.1116  0.7458
 2217SOL    HW218285   1.815   3.768   6.331  0.9609  0.1514  2.3363
 2218SOL     OW18286   2.762   2.059   3.307 -0.1456  0.3519 -0.4381
 2218SOL    HW118287   2.773   1.990   3.371  0.5230  0.7951 -0.0770
 2218SOL    HW218288   2.720   2.010   3.236 -1.2538  0.1449  0.3737
 2219SOL     OW18289   2.216   2.123  14.472 -0.2328  0.2154  0.0470
 2219SOL    HW118290   2.150   2.189  14.451 -0.6351  0.2123  1.3204
 2219SOL    HW218291   2.225   2.122  14.567  0.0323 -1.8434 -0.0013
 2220SOL     OW18292   1.829   2.323   8.370 -0.3930  0.0069  0.0877
 2220SOL    HW118293   1.772   2.273   8.311  0.5890 -0.0195 -0.8361
 2220SOL    HW218294   1.766   2.383   8.409 -1.3229 -0.9818  0.1197
 2221SOL     OW18295   3.328   3.857   6.911  0.4196 -0.1102  0.1543
 2221SOL    HW118296   3.414   3.824   6.883 -0.1433 -3.4956  2.5469
 2221SOL    HW218297   3.272   3.809   6.850 -0.4388  1.2410 -0.1369
 2222SOL     OW18298   3.052   4.582   5.324 -0.0508  0.1974 -0.1225
 2222SOL    HW118299   3.134   4.542   5.354 -0.2824  0.2772  0.6204
 2222SOL    HW218300   3.083   4.602   5.236 -1.2811 -0.1819 -0.6446
 2223SOL     OW18301   4.219   1.207  12.523 -0.1071  0.6733  0.5086
 2223SOL    HW118302   4.224   1.287  12.470  1.5280  0.6310  0.5915
 2223SOL    HW218303   4.285   1.151  12.481 -1.4739  0.8583 -1.8484
 2224SOL     OW18304   0.093   1.563   4.733 -0.6474  0.0075  0.5314
 2224SOL    HW118305   0.158   1.500   4.765  0.6431  1.6885  1.2136
 2224SOL    HW218306   0.020   1.544   4.792 -1.5284 -2.0882 -1.2538
 2225SOL     OW18307   2.345   4.665   8.385 -0.0035 -0.2024 -0.4525
 2225SOL    HW118308   2.310   4.712   8.309  3.4216  1.2670 -1.1205
 2225SOL    HW218309   2.438   4.677   8.368  0.3658 -1.9571  0.3478
 2226SOL     OW18310   3.601   0.972   8.910 -0.4387 -0.5919  0.3949
 2226SOL    HW118311   3.560   1.005   8.990  0.3254  0.3935  0.3762
 2226SOL    HW218312   3.691   1.002   8.916 -0.4976 -0.5335  0.9244
 2227SOL     OW18313   3.160   3.085   9.274 -0.2815  0.0129 -0.1631
 2227SOL    HW118314   3.176   3.178   9.255  1.3006 -0.4090 -0.8789
 2227SOL    HW218315   3.235   3.063   9.329  0.0504  2.2459  0.3054
 2228SOL     OW18316   4.021   1.354   1.604  0.0033 -0.1848  0.7164
 2228SOL    HW118317   3.994   1.262   1.604 -0.3606 -0.0788  0.4593
 2228SOL    HW218318   3.966   1.390   1.673  1.1243  0.1217  1.4604
 2229SOL     OW18319   3.741   0.410   8.444  0.1036 -0.5108 -0.0922
 2229SOL    HW118320   3.745   0.356   8.366 -0.9723  0.9084 -1.1340
 2229SOL    HW218321   3.751   0.499   8.410  0.0595 -0.1947  0.7041
 2230SOL     OW18322   1.287   2.852   7.291  0.1334 -0.0482  0.1520
 2230SOL    HW118323   1.233   2.776   7.271  1.5673 -0.9376 -0.3818
 2230SOL    HW218324   1.244   2.922   7.242 -0.7980  0.2211  1.3639
 2231SOL     OW18325   3.924   4.629   6.892  0.4411  0.3776  0.0292
 2231SOL    HW118326   3.865   4.565   6.933  0.7254 -1.4130 -2.3572
 2231SOL    HW218327   3.900   4.702   6.949 -0.4432 -0.5902  0.9090
 2232SOL     OW18328   1.050   1.211   2.657 -0.6067 -0.2354  0.5986
 2232SOL    HW118329   1.028   1.301   2.633  2.4521  0.8751  1.9012
 2232SOL    HW218330   1.015   1.153   2.590 -1.2367  0.6127  0.1898
 2233SOL     OW18331   3.675   3.287   1.610  0.3714  0.3471 -0.3476
 2233SOL    HW118332   3.753   3.333   1.642 -1.3624  2.0418  1.3984
 2233SOL    HW218333   3.607   3.302   1.675 -0.5390 -0.0723 -1.1950
 2234SOL     OW18334   1.703   1.297  14.785  0.0495  0.8642 -0.4954
 2234SOL    HW118335   1.756   1.341  14.852  0.0891 -1.3787  0.9573
 2234SOL    HW218336   1.612   1.299  14.815  0.9525 -0.1838  2.3705
 2235SOL     OW18337   1.744   0.791   9.256 -0.1866 -0.4057 -0.3686
 2235SOL    HW118338   1.823   0.832   9.290  0.8440  0.1525 -3.4436
 2235SOL    HW218339   1.685   0.850   9.302  0.3250 -0.1938  0.0212
 2236SOL     OW18340   2.620   1.220   4.467 -0.0355  0.0629  0.2250
 2236SOL    HW118341   2.682   1.275   4.515  0.3530 -2.5060  2.6805
 2236SOL    HW218342   2.539   1.272   4.461  1.5730  2.4898 -0.4260
 2237SOL     OW18343   4.453   1.482   5.913  0.5036 -1.0614  0.1923
 2237SOL    HW118344   4.452   1.403   5.859 -1.0608 -0.2117 -0.9993
 2237SOL    HW218345   4.516   1.458   5.981  0.3768 -1.3091  0.2230
 2238SOL     OW18346   0.238   0.128  12.495 -0.1246 -0.2635 -0.4597
 2238SOL    HW118347   0.226   0.113  12.589  1.0815 -2.6776 -0.7086
 2238SOL    HW218348   0.283   0.212  12.495  0.2271 -0.4570 -1.7042
 2239SOL     OW18349   2.158   3.576   2.390 -0.7894 -0.4499 -0.3041
 2239SOL    HW118350   2.130   3.660   2.355  2.1963  1.4276  1.8865
 2239SOL    HW218351   2.221   3.538   2.329 -1.2936  0.5976 -1.4660
 2240SOL     OW18352   0.174   3.620  15.643  0.0372 -0.3782  0.0287
 2240SOL    HW118353   0.085   3.649  15.627  0.7729  0.1465 -3.1039
 2240SOL    HW218354   0.226   3.687  15.598  1.5794 -1.5221  0.0912
 2241SOL     OW18355   2.239   4.123   2.694  0.1492  0.0228 -0.1738
 2241SOL    HW118356   2.193   4.168   2.765 -0.8797 -0.4384 -0.5497
 2241SOL    HW218357   2.256   4.204   2.646 -4.7982  1.3779  0.3664
 2242SOL     OW18358   1.952   4.731   7.133  0.3243 -0.3142  0.6038
 2242SOL    HW118359   2.029   0.040   7.165  1.6154 -2.1163  0.1269
 2242SOL    HW218360   1.887   0.014   7.200 -1.1759  0.4644 -1.1056
 2243SOL     OW18361   0.293   1.176   9.727 -0.2634 -0.1947  0.4074
 2243SOL    HW118362   0.297   1.182   9.822 -0.6354 -0.4875  0.4426
 2243SOL    HW218363   0.366   1.116   9.715  0.7718  0.7596  1.8963
 2244SOL     OW18364   0.703   3.410   6.785  0.8818 -0.3373  0.2383
 2244SOL    HW118365   0.713   3.361   6.703  1.4474  0.0077  0.0976
 2244SOL    HW218366   0.622   3.454   6.760  0.6024 -0.7513  0.4144
 2245SOL     OW18367   2.090   3.735   8.525 -0.1367 -0.0995 -0.4695
 2245SOL    HW118368   2.127   3.790   8.594 -1.6056  0.2029  0.0950
 2245SOL    HW218369   2.167   3.690   8.491 -1.3512 -1.3892 -1.4938
 2246SOL     OW18370   0.722   1.351  11.818 -0.3502 -0.3690  0.0966
 2246SOL    HW118371   0.655   1.404  11.774  0.2289  0.6339  0.4144
 2246SOL    HW218372   0.792   1.414  11.836 -1.4519  1.2906 -1.4196
 2247SOL     OW18373   1.742   2.377   6.202 -0.1546  0.2462 -1.1024
 2247SOL    HW118374   1.779   2.289   6.214  2.1684  1.0891 -1.9861
 2247SOL    HW218375   1.656   2.352   6.234 -0.2113 -1.4023 -2.5559
 2248SOL     OW18376   0.329   0.907  14.507  0.3531 -0.5130  0.4528
 2248SOL    HW118377   0.343   0.862  14.423 -0.1545  0.7957 -0.3421
 2248SOL    HW218378   0.392   0.863  14.564 -0.8253  1.6281  3.3727
 2249SOL     OW18379   3.680   3.459   8.532  0.4603  0.3224  0.1170
 2249SOL    HW118380   3.741   3.443   8.605 -0.0405  1.6651  0.8235
 2249SOL    HW218381   3.599   3.468   8.581 -0.5288 -1.0850 -1.2637
 2250SOL     OW18382   0.580   4.422   5.197  0.5267 -0.6289  0.2994
 2250SOL    HW118383   0.506   4.367   5.224 -0.9783  0.7987 -0.8949
 2250SOL    HW218384   0.591   4.386   5.109 -2.3701 -1.5146  0.2988
 2251SOL     OW18385   1.713   1.282   3.172 -0.2563  0.2576  0.0773
 2251SOL    HW118386   1.742   1.291   3.081  0.0514 -1.6304 -0.0039
 2251SOL    HW218387   1.629   1.327   3.166  0.1530  1.0324  0.2227
 2252SOL     OW18388   0.109   0.550   8.618 -0.1609  0.2513  0.2526
 2252SOL    HW118389   0.026   0.569   8.662  0.1919 -0.0240  1.0419
 2252SOL    HW218390   0.136   0.637   8.589  0.0351  0.1383  0.0913
 2253SOL     OW18391   1.317   0.050  12.736 -0.3874  0.0855 -0.0578
 2253SOL    HW118392   1.237   0.082  12.776 -0.9006 -0.0195 -0.9981
 2253SOL    HW218393   1.322   0.095  12.651 -0.5730 -1.5316 -0.9230
 2254SOL     OW18394   3.427   0.090   4.298  0.1494  0.0248 -0.2554
 2254SOL    HW118395   3.453   0.181   4.306  2.5824 -0.9523  2.8159
 2254SOL    HW218396   3.383   0.091   4.212 -0.9163 -1.9665  0.2507
 2255SOL     OW18397   0.184   1.878   0.437  0.2445  0.1049 -0.2226
 2255SOL    HW118398   0.124   1.863   0.364 -0.9395  0.4153  0.6790
 2255SOL    HW218399   0.250   1.816   0.405  1.2381  0.1694  1.6925
 2256SOL     OW18400   4.195   2.026  14.567  0.1037 -0.8407 -0.1999
 2256SOL    HW118401   4.185   2.098  14.504 -0.5890  0.1244  1.0282
 2256SOL    HW218402   4.260   2.044  14.634  0.4574 -0.3711 -0.6688
 2257SOL     OW18403   4.365   1.256   4.930  0.1729  0.3009 -0.3853
 2257SOL    HW118404   4.444   1.275   4.981 -0.5356  3.4089 -0.4832
 2257SOL    HW218405   4.309   1.332   4.942  1.7551  1.2802  0.7128
 2258SOL     OW18406   3.611   2.615  16.929 -0.0462 -0.0680 -0.4306
 2258SOL    HW118407   3.610   2.546  16.862  2.7770  1.2168 -1.8155
 2258SOL    HW218408   3.692   2.665  16.919  0.5729 -0.9497  0.1736
 2259SOL     OW18409   1.177   1.778  11.279  0.0910 -0.1421  0.0694
 2259SOL    HW118410   1.145   1.846  11.220  1.4294 -0.1730 -0.7081
 2259SOL    HW218411   1.116   1.708  11.256  0.6336 -0.2377 -1.1113
 2260SOL     OW18412   0.280   4.040   3.520  0.4425 -0.0293  0.2923
 2260SOL    HW118413   0.295   4.007   3.608 -0.4250  0.7013  0.7189
 2260SOL    HW218414   0.188   4.016   3.507  0.1755 -0.0099  2.1671
 2261SOL     OW18415   2.787   4.714   6.693  0.5181  0.1155  0.1303
 2261SOL    HW118416   2.858   4.663   6.654  1.2618  0.5433  0.9306
 2261SOL    HW218417   2.721   4.647   6.709  0.0442  0.4837 -0.2849
 2262SOL     OW18418   2.284   2.187   5.582 -0.6224  0.0362 -0.0067
 2262SOL    HW118419   2.244   2.202   5.496  1.0235 -0.0523 -0.7746
 2262SOL    HW218420   2.230   2.113   5.609 -0.9182  0.6658  1.1493
 2263SOL     OW18421   0.350   1.707   6.442 -0.3826  0.5399 -0.4454
 2263SOL    HW118422   0.354   1.629   6.497 -0.1679 -0.4429 -1.8347
 2263SOL    HW218423   0.323   1.664   6.361 -0.0329  1.6788 -1.1664
 2264SOL     OW18424   3.053   4.693   3.533 -0.2378 -0.1219 -0.0963
 2264SOL    HW118425   3.132   0.009   3.524 -0.9373  0.9263  0.0523
 2264SOL    HW218426   3.062   4.631   3.461 -2.8934 -2.5901  1.6990
 2265SOL     OW18427   0.406   1.503  16.227 -0.1287 -0.6956 -0.6257
 2265SOL    HW118428   0.454   1.534  16.303 -1.1642 -0.1795 -0.1918
 2265SOL    HW218429   0.439   1.573  16.171 -0.8181 -0.8189 -1.1830
 2266SOL     OW18430   1.837   1.545   5.256  0.2238 -0.4125  0.4155
 2266SOL    HW118431   1.856   1.478   5.189 -2.3827 -0.0522 -0.7036
 2266SOL    HW218432   1.806   1.496   5.332 -0.6774 -1.3549 -0.5497
 2267SOL     OW18433   1.516   3.363   0.024 -0.2939  0.0113  0.8725
 2267SOL    HW118434   1.575   3.312  17.717 -2.6338 -3.8604  1.9037
 2267SOL    HW218435   1.447   3.388  17.711  3.1498  3.0500 -1.6890
 2268SOL     OW18436   4.295   4.393   7.840  0.2087 -0.0578  0.3322
 2268SOL    HW118437   4.365   4.348   7.792 -0.1751 -2.0723  1.6797
 2268SOL    HW218438   4.344   4.440   7.908  1.9445  0.7717 -1.4854
 2269SOL     OW18439   1.721   4.252   2.632  0.0983  0.2469  0.0757
 2269SOL    HW118440   1.632   4.217   2.638  0.0515  0.0792 -1.5165
 2269SOL    HW218441   1.711   4.329   2.576 -0.2627  0.2064  0.0814
 2270SOL     OW18442   3.238   4.635  12.864  0.4251 -0.0233 -0.2110
 2270SOL    HW118443   3.149   4.605  12.885  0.0742  0.3877 -1.1125
 2270SOL    HW218444   3.237   4.631  12.769  0.5191  1.3133 -0.2677
 2271SOL     OW18445   4.352   4.695   3.605  0.6295  0.1432 -0.0951
 2271SOL    HW118446   4.393   4.694   3.519 -1.0329 -1.2970 -0.8667
 2271SOL    HW218447   4.372   0.050   3.620  0.6185 -0.1607  1.8096
 2272SOL     OW18448   2.429   0.151  17.072 -0.3197  0.8192 -0.1949
 2272SOL    HW118449   2.407   0.167  16.981 -0.1117 -2.4955 -0.8437
 2272SOL    HW218450   2.507   0.095  17.066  0.7135  1.9669  2.3484
 2273SOL     OW18451   4.518   3.664  17.170  0.3211 -0.4444 -0.3646
 2273SOL    HW118452   4.593   3.669  17.229 -1.4149  1.7699  1.6388
 2273SOL    HW218453   4.477   3.579  17.189 -0.9325  0.3106  0.2628
 2274SOL     OW18454   1.654   3.926   3.603 -0.6195  0.1181 -0.0602
 2274SOL    HW118455   1.606   4.005   3.578 -1.5909  0.4628  2.9345
 2274SOL    HW218456   1.739   3.940   3.560 -1.2149 -1.7539 -1.7992
 2275SOL     OW18457   2.461   4.610   2.392 -0.0237  0.3347  0.2554
 2275SOL    HW118458   2.422   4.666   2.324  0.4355 -0.0032 -0.2864
 2275SOL    HW218459   2.554   4.633   2.395  0.5667 -1.7716 -1.5593
 2276SOL     OW18460   4.115   1.920  12.808 -0.8634 -0.3361  0.0606
 2276SOL    HW118461   4.204   1.940  12.835 -0.6481 -0.0977 -0.8228
 2276SOL    HW218462   4.074   1.971  12.878  1.7014 -0.6691  1.8094
 2277SOL     OW18463   1.879   4.163   8.924  0.2662 -0.2962  0.5457
 2277SOL    HW118464   1.947   4.098   8.906 -0.2741 -1.2984  2.0719
 2277SOL    HW218465   1.881   4.193   9.015 -0.5520  0.2273  0.3896
 2278SOL     OW18466   4.013   3.716   6.868 -0.5264  0.6106  0.5843
 2278SOL    HW118467   3.952   3.666   6.921 -1.6859  1.5060  0.0874
 2278SOL    HW218468   4.082   3.650   6.879 -1.5989 -0.8785 -1.5205
 2279SOL     OW18469   3.835   1.224   0.071  0.4998  0.1764  0.0622
 2279SOL    HW118470   3.929   1.216   0.054  0.8799 -1.3297  2.9644
 2279SOL    HW218471   3.823   1.193   0.161  0.6410  1.1880  0.4391
 2280SOL     OW18472   4.215   2.593  12.727  0.0882  0.3191 -0.0718
 2280SOL    HW118473   4.120   2.587  12.741  0.3489  0.7533  1.7486
 2280SOL    HW218474   4.244   2.584  12.817  1.6666  1.8851 -0.4370
 2281SOL     OW18475   0.775   3.262  17.524  0.1338 -0.1565 -0.3860
 2281SOL    HW118476   0.843   3.217  17.574 -0.5200 -1.2415 -0.4701
 2281SOL    HW218477   0.705   3.239  17.585  0.5003 -2.8516 -0.9548
 2282SOL     OW18478   2.111   2.623   5.622  0.3902 -0.2653  0.1104
 2282SOL    HW118479   2.070   2.549   5.667 -0.2513  0.1305  0.1876
 2282SOL    HW218480   2.169   2.578   5.561  0.5810 -0.0701  0.1490
 2283SOL     OW18481   2.757   1.379   5.433 -0.1143  0.4215 -0.3103
 2283SOL    HW118482   2.842   1.393   5.390  0.3450  0.1601  0.4981
 2283SOL    HW218483   2.711   1.463   5.439 -0.6150  0.1320 -0.1590
 2284SOL     OW18484   3.356   0.096   2.426 -0.0410 -0.4685 -0.2698
 2284SOL    HW118485   3.274   0.142   2.446  1.1182  2.0529 -1.2321
 2284SOL    HW218486   3.427   0.146   2.468 -1.1885  0.2278  0.8405
 2285SOL     OW18487   1.368   3.451  12.744  0.4194 -0.1600 -0.6694
 2285SOL    HW118488   1.394   3.541  12.765 -0.1044 -0.0681 -0.4133
 2285SOL    HW218489   1.420   3.392  12.799  2.9915  0.2124 -2.7159
 2286SOL     OW18490   3.269   2.860   2.123 -0.6179  0.7965 -0.8472
 2286SOL    HW118491   3.215   2.848   2.201  1.1815  0.2422  0.3021
 2286SOL    HW218492   3.206   2.895   2.059 -1.0340 -1.5023 -1.7161
 2287SOL     OW18493   2.528   2.466   8.702  0.4214 -0.0837 -0.0747
 2287SOL    HW118494   2.504   2.523   8.775  0.5267 -0.4976  0.2823
 2287SOL    HW218495   2.443   2.456   8.659 -0.0084 -0.4288  0.8540
 2288SOL     OW18496   1.737   4.094  10.944 -0.4683 -0.2704  0.9124
 2288SOL    HW118497   1.745   4.048  10.860  1.1094  1.5691  0.0454
 2288SOL    HW218498   1.808   4.064  11.001  1.0243  3.1264  0.8095
 2289SOL     OW18499   2.696   3.365   6.476  0.3970  0.1275  0.2697
 2289SOL    HW118500   2.600   3.374   6.480  0.2225 -0.9119 -1.7282
 2289SOL    HW218501   2.701   3.366   6.381  1.2230  2.1920  0.3562
 2290SOL     OW18502   0.876   3.396  10.501 -0.4905 -0.3084 -0.1088
 2290SOL    HW118503   0.906   3.407  10.411  0.2259  2.5072  0.4911
 2290SOL    HW218504   0.881   3.485  10.534 -0.0891  0.4851 -2.3639
 2291SOL     OW18505   0.930   0.129   9.291 -0.1926  0.6748 -0.2540
 2291SOL    HW118506   0.998   0.061   9.296  1.6310  2.4854 -0.1598
 2291SOL    HW218507   0.971   0.212   9.314 -2.2674  1.8050 -0.6613
 2292SOL     OW18508   1.901   3.520   4.107  0.2322 -0.4041 -1.0511
 2292SOL    HW118509   1.875   3.518   4.015 -1.4805 -0.0141 -0.5812
 2292SOL    HW218510   1.897   3.613   4.126  2.6052 -0.1594 -1.7852
 2293SOL     OW18511   2.200   1.737   4.831 -0.3579 -0.1459  0.2708
 2293SOL    HW118512   2.257   1.733   4.755 -0.0774  0.6218  0.4393
 2293SOL    HW218513   2.170   1.828   4.819 -1.2253 -0.6652 -1.5112
 2294SOL     OW18514   1.703   2.773  10.516 -0.3049  0.0551 -0.2635
 2294SOL    HW118515   1.715   2.860  10.554  0.9880 -0.1906 -0.1026
 2294SOL    HW218516   1.739   2.788  10.429  1.5361 -2.3019  0.0759
 2295SOL     OW18517   3.404   0.605   4.179 -0.4780 -0.1691 -0.3837
 2295SOL    HW118518   3.396   0.700   4.192  0.4072  0.1334 -2.0437
 2295SOL    HW218519   3.468   0.586   4.248 -2.4533 -1.7194  0.9974
 2296SOL     OW18520   4.418   3.004   4.538 -0.1839  0.3246 -0.3027
 2296SOL    HW118521   4.359   2.932   4.559 -0.6326  0.4405 -1.1635
 2296SOL    HW218522   4.364   3.065   4.487 -2.4357 -2.6677 -1.4896
 2297SOL     OW18523   1.921   1.419  16.772 -0.2991  0.4166  0.7941
 2297SOL    HW118524   1.860   1.486  16.802 -0.1700  0.6668  0.4973
 2297SOL    HW218525   2.005   1.454  16.803  0.3417 -0.2383 -0.1651
 2298SOL     OW18526   4.216   4.512   5.103 -0.0137  0.2515  0.4521
 2298SOL    HW118527   4.296   4.485   5.056 -0.1143  3.3802 -1.5597
 2298SOL    HW218528   4.157   4.499   5.029 -0.7445 -0.8633  1.2403
 2299SOL     OW18529   2.723   1.132   6.932  0.0372 -0.1558  0.4123
 2299SOL    HW118530   2.685   1.062   6.985  1.2277 -1.8124 -0.9359
 2299SOL    HW218531   2.643   1.180   6.910  0.1494  0.7080  1.8379
 2300SOL     OW18532   3.536   1.584  10.992  0.1355  0.3368 -0.1626
 2300SOL    HW118533   3.541   1.664  11.044  0.5611  0.2907 -0.1323
 2300SOL    HW218534   3.486   1.614  10.916 -2.5177  0.7693  1.7827
 2301SOL     OW18535   3.141   4.045   3.337 -0.1944 -0.1114  0.3355
 2301SOL    HW118536   3.176   4.013   3.420 -1.1681  2.4228  1.7181
 2301SOL    HW218537   3.101   4.125   3.372 -0.1901  0.0181  0.0490
 2302SOL     OW18538   3.196   1.326   1.728 -0.5093 -0.0648 -0.2546
 2302SOL    HW118539   3.233   1.406   1.765 -0.9247  1.2729 -2.7572
 2302SOL    HW218540   3.173   1.287   1.812 -0.3412  2.1753  0.8446
 2303SOL     OW18541   1.381   1.522  12.796 -0.3886  0.1740  0.7752
 2303SOL    HW118542   1.416   1.545  12.883 -1.5467  3.9243  0.2266
 2303SOL    HW218543   1.290   1.506  12.819 -1.0583 -1.4417 -3.0595
 2304SOL     OW18544   1.497   4.143   5.290  0.3824  0.0511 -0.6747
 2304SOL    HW118545   1.577   4.095   5.268  0.4354  1.4195 -3.4035
 2304SOL    HW218546   1.483   4.106   5.377 -0.0708  0.4967 -0.5590
 2305SOL     OW18547   3.658   3.835  13.131  0.1922 -0.4219  0.3609
 2305SOL    HW118548   3.740   3.803  13.092  0.2487 -2.4505  2.1325
 2305SOL    HW218549   3.597   3.774  13.090 -0.0149  0.4015 -0.5603
 2306SOL     OW18550   4.436   1.537   9.750  0.6400  0.0580 -0.3495
 2306SOL    HW118551   4.372   1.607   9.763 -0.6458 -1.2773  0.6146
 2306SOL    HW218552   4.495   1.550   9.824  1.2066 -0.6761 -0.6808
 2307SOL     OW18553   3.031   4.720   6.297 -0.7266  0.0914 -0.3549
 2307SOL    HW118554   3.071   4.635   6.280 -0.3496  0.2954 -0.4708
 2307SOL    HW218555   3.096   0.042   6.262 -0.0098 -1.0874 -1.0387
 2308SOL     OW18556   3.937   0.572   8.973  0.3219 -0.4074  0.4865
 2308SOL    HW118557   4.023   0.531   8.961 -0.4557 -1.3646 -1.7777
 2308SOL    HW218558   3.935   0.634   8.900 -1.9077  0.3337  1.1689
 2309SOL     OW18559   4.523   1.084   6.113 -0.4500 -0.2168  0.1552
 2309SOL    HW118560   4.566   1.121   6.190  0.3669  0.1955 -0.5028
 2309SOL    HW218561   4.527   1.161   6.056  2.0170  1.1867  2.2522
 2310SOL     OW18562   1.863   0.417   5.345  0.0579  0.5359  0.5407
 2310SOL    HW118563   1.937   0.434   5.403  0.4845  1.2304 -0.2161
 2310SOL    HW218564   1.826   0.500   5.315 -0.4444  0.0936 -0.0927
 2311SOL     OW18565   0.959   3.398  16.078 -0.2885  0.3756 -0.3182
 2311SOL    HW118566   0.914   3.481  16.061 -1.4515  0.0507  1.1773
 2311SOL    HW218567   0.908   3.370  16.154 -0.0138 -0.6553 -0.5111
 2312SOL     OW18568   0.916   2.196   0.055 -0.6792  0.1218 -0.2103
 2312SOL    HW118569   0.953   2.260  17.744  2.2649  0.8563  2.3436
 2312SOL    HW218570   0.957   2.213   0.140  1.3566 -0.8433 -0.9943
 2313SOL     OW18571   1.617   2.558   6.811 -0.3800  0.1361 -0.1489
 2313SOL    HW118572   1.536   2.522   6.776 -0.5306  1.1438 -0.8439
 2313SOL    HW218573   1.676   2.482   6.811 -0.6723 -0.0995  1.2666
 2314SOL     OW18574   3.806   1.829   6.455 -0.0331 -0.1547  0.4571
 2314SOL    HW118575   3.743   1.893   6.487  1.6514  1.5795  0.3171
 2314SOL    HW218576   3.881   1.874   6.493  0.4808 -0.1673 -0.5397
 2315SOL     OW18577   0.598   2.450   8.956  0.0413  0.2459  0.1417
 2315SOL    HW118578   0.592   2.357   8.977 -1.0324  0.2764 -0.0766
 2315SOL    HW218579   0.673   2.445   8.896  0.5555  1.6223  0.6563
 2316SOL     OW18580   0.900   2.838  15.925 -0.5146  0.3733 -0.0383
 2316SOL    HW118581   0.936   2.873  15.843 -1.2428 -0.2982 -0.6552
 2316SOL    HW218582   0.899   2.745  15.902  0.1321  0.0798  1.1365
 2317SOL     OW18583   2.586   1.934   5.065  0.1904  0.2402 -0.4618
 2317SOL    HW118584   2.624   1.850   5.091  2.1131  0.9740 -0.9053
 2317SOL    HW218585   2.629   1.930   4.979  0.8817 -1.5598 -0.0424
 2318SOL     OW18586   3.879   1.991   6.762  0.3066  0.0516 -0.0783
 2318SOL    HW118587   3.833   1.918   6.804  0.2881  0.2541  0.2550
 2318SOL    HW218588   3.807   2.053   6.753  0.6084  0.7154  2.2418
 2319SOL     OW18589   3.458   2.853   5.877  0.4323  0.1024 -0.3136
 2319SOL    HW118590   3.474   2.775   5.824  0.7516  1.4346 -2.2131
 2319SOL    HW218591   3.455   2.812   5.963 -2.8697 -0.2666 -0.5945
 2320SOL     OW18592   2.700   1.197   8.245 -0.1554 -0.3262 -0.0833
 2320SOL    HW118593   2.698   1.215   8.151  0.3512  4.6260  0.8418
 2320SOL    HW218594   2.730   1.106   8.247 -0.2310 -0.3365  0.8696
 2321SOL     OW18595   1.206   0.193   5.943  0.0611 -0.1194  0.1966
 2321SOL    HW118596   1.288   0.143   5.947  0.5951  0.6298 -1.2942
 2321SOL    HW218597   1.227   0.283   5.964  3.8385 -1.0989  0.6206
 2322SOL     OW18598   4.029   0.409   9.610  0.6005  0.3679  0.7802
 2322SOL    HW118599   4.095   0.466   9.569 -0.8536  0.9551 -0.7195
 2322SOL    HW218600   4.083   0.368   9.678  1.9108  0.1665 -0.3711
 2323SOL     OW18601   4.548   4.094  12.810 -0.3055  0.2638  0.1304
 2323SOL    HW118602   4.466   4.094  12.761  1.0274 -0.5219 -2.1293
 2323SOL    HW218603   4.601   4.035  12.755  0.2658 -1.3693  2.4305
 2324SOL     OW18604   3.768   4.241   1.368 -0.4021 -0.2516 -0.6612
 2324SOL    HW118605   3.790   4.329   1.398  1.3449  0.2247 -3.4677
 2324SOL    HW218606   3.675   4.224   1.387  0.1709 -1.6069  0.9970
 2325SOL     OW18607   0.299   3.622   5.033 -0.4798  0.6456 -0.2843
 2325SOL    HW118608   0.229   3.563   5.006  1.8779 -2.4783  0.3466
 2325SOL    HW218609   0.250   3.699   5.060 -0.4209 -0.1825  2.1674
 2326SOL     OW18610   1.133   1.401  16.416 -0.1027 -0.3949  0.0227
 2326SOL    HW118611   1.067   1.335  16.439 -0.5188 -0.2749 -0.8308
 2326SOL    HW218612   1.207   1.340  16.417  2.5684  2.8573  0.9541
 2327SOL     OW18613   2.877   1.902   5.172  0.2770 -0.1870  0.2019
 2327SOL    HW118614   2.961   1.857   5.170  0.4511  0.1504 -0.2668
 2327SOL    HW218615   2.829   1.848   5.109 -0.6803  1.5257 -0.5461
 2328SOL     OW18616   4.520   1.492   8.033 -0.1799 -0.2489  0.7117
 2328SOL    HW118617   4.611   1.481   8.006 -1.1997 -0.7036 -2.6192
 2328SOL    HW218618   4.522   1.487   8.128  0.1875  0.1594  0.7290
 2329SOL     OW18619   4.202   4.640   2.000 -0.1120  0.0027  0.2088
 2329SOL    HW118620   4.214   4.604   2.088 -0.2787  0.5058  0.4313
 2329SOL    HW218621   4.120   4.596   1.977  0.1660 -0.1629 -0.5023
 2330SOL     OW18622   1.533   0.067   7.431 -0.5781 -0.5109  0.7393
 2330SOL    HW118623   1.447   0.030   7.414 -0.2124 -1.3910  0.8235
 2330SOL    HW218624   1.544   0.058   7.526 -4.1287  2.2208  1.4137
 2331SOL     OW18625   1.580   4.362   5.936  0.5129 -0.3127  0.4501
 2331SOL    HW118626   1.503   4.418   5.934  1.0804  0.4511 -0.1372
 2331SOL    HW218627   1.652   4.417   5.905  1.7227 -0.8563  2.2987
 2332SOL     OW18628   1.934   2.787   0.958 -0.4438 -0.1715 -0.8505
 2332SOL    HW118629   1.891   2.843   0.892 -1.3865  0.1596  0.0366
 2332SOL    HW218630   1.937   2.707   0.906  0.9524 -1.7799  1.7448
 2333SOL     OW18631   1.466   4.521  10.268  0.4769  0.0534 -0.5193
 2333SOL    HW118632   1.528   4.585  10.231  0.1095  0.3762 -0.5816
 2333SOL    HW218633   1.426   4.495  10.185 -0.4765  1.2950 -0.4589
 2334SOL     OW18634   3.167   4.239  10.071 -0.3358  0.0383 -0.5999
 2334SOL    HW118635   3.072   4.243  10.082 -0.2104  1.0294  0.1539
 2334SOL    HW218636   3.203   4.233  10.160  0.3134  0.0992 -0.8582
 2335SOL     OW18637   0.913   1.911   1.636  0.6298  0.3480  0.1034
 2335SOL    HW118638   0.821   1.937   1.634  0.4481 -0.1400  1.8731
 2335SOL    HW218639   0.901   1.822   1.602 -1.8748  1.3328 -1.5815
 2336SOL     OW18640   4.401   2.203   9.447  0.2543 -0.1828 -0.5292
 2336SOL    HW118641   4.458   2.220   9.372 -0.8488  1.5325 -0.9837
 2336SOL    HW218642   4.419   2.111   9.463  1.0756 -0.1513 -1.2790
 2337SOL     OW18643   4.505   0.813   7.197 -0.2902 -0.0729  0.0731
 2337SOL    HW118644   4.448   0.795   7.272  1.5929  0.9531  1.7685
 2337SOL    HW218645   4.491   0.734   7.145 -0.5152  0.1636 -0.2191
 2338SOL     OW18646   0.059   3.950   8.321  0.3589  0.6989  0.0349
 2338SOL    HW118647   0.008   3.881   8.363 -2.5532  2.6577 -0.3150
 2338SOL    HW218648   0.133   3.895   8.296  0.0495  1.2096 -1.9612
 2339SOL     OW18649   4.701   2.491   5.113 -0.5404  0.1608  0.1994
 2339SOL    HW118650   4.612   2.513   5.083 -0.6002  0.7495  0.8244
 2339SOL    HW218651   4.690   2.502   5.207  0.8557  0.2519  0.3515
 2340SOL     OW18652   2.720   4.546   9.173  0.5527  1.0395 -0.0686
 2340SOL    HW118653   2.796   4.566   9.118  1.2087 -1.1531  0.0584
 2340SOL    HW218654   2.669   4.624   9.152  0.1190  0.3324 -1.6395
 2341SOL     OW18655   4.556   0.637   2.995  0.4057  0.0410 -0.4568
 2341SOL    HW118656   4.621   0.652   2.926 -2.1925  0.0548 -2.9095
 2341SOL    HW218657   4.621   0.636   3.066 -0.6135 -2.4820  0.4541
 2342SOL     OW18658   4.275   3.480   1.833 -0.6602 -0.7701 -0.2038
 2342SOL    HW118659   4.299   3.550   1.772  0.5451 -0.7467  0.2959
 2342SOL    HW218660   4.233   3.520   1.909 -1.1595  0.0740 -0.9165
 2343SOL     OW18661   3.131   2.938  11.552 -0.3370  0.0860  0.4101
 2343SOL    HW118662   3.208   2.922  11.498  0.1780  1.1006  0.8297
 2343SOL    HW218663   3.086   2.854  11.541  0.6965 -0.0858 -2.4342
 2344SOL     OW18664   3.971   1.219   4.326 -0.1357 -0.1247 -0.0448
 2344SOL    HW118665   3.913   1.265   4.265 -0.1111 -0.0006  0.0275
 2344SOL    HW218666   3.907   1.183   4.387 -2.6913  0.4987 -2.3508
 2345SOL     OW18667   0.481   0.136   2.320 -0.3517  0.7186  0.2862
 2345SOL    HW118668   0.478   0.223   2.279  2.1938  0.8065  0.2940
 2345SOL    HW218669   0.575   0.129   2.307 -0.4524 -0.9725  0.4687
 2346SOL     OW18670   0.918   1.749   6.359 -0.2218  0.1562  0.4207
 2346SOL    HW118671   1.003   1.727   6.319 -0.1138  1.3714 -0.0057
 2346SOL    HW218672   0.856   1.697   6.307 -0.8391  0.3110  1.0088
 2347SOL     OW18673   1.079   2.875  16.590  0.1379  0.4565 -0.3411
 2347SOL    HW118674   1.043   2.809  16.531  1.2689 -0.8716  0.4543
 2347SOL    HW218675   1.174   2.869  16.576  0.0001 -0.3438 -0.9636
 2348SOL     OW18676   3.180   1.913  10.626 -0.6177  0.7253 -0.1116
 2348SOL    HW118677   3.206   1.992  10.579  1.1130 -0.8235 -1.7791
 2348SOL    HW218678   3.085   1.924  10.631 -0.3434  1.9749  2.4442
 2349SOL     OW18679   3.392   0.786   8.929 -0.2340  0.4665 -0.1962
 2349SOL    HW118680   3.467   0.840   8.954 -0.5931 -0.1776  2.3388
 2349SOL    HW218681   3.423   0.746   8.848  1.6233 -0.6144  1.0365
 2350SOL     OW18682   0.386   4.242   4.484  0.2010 -0.1474  0.0467
 2350SOL    HW118683   0.392   4.259   4.577  1.2620  0.6492 -0.1668
 2350SOL    HW218684   0.464   4.186   4.481  2.3978  2.8496  1.3512
 2351SOL     OW18685   1.654   2.100  17.393 -0.2309 -0.2359 -0.2329
 2351SOL    HW118686   1.742   2.114  17.357 -1.3096  1.9424 -2.0068
 2351SOL    HW218687   1.606   2.136  17.319 -1.2595 -0.9584  0.0913
 2352SOL     OW18688   0.544   2.101   5.237  0.0612 -0.1774 -0.0620
 2352SOL    HW118689   0.512   2.084   5.149 -0.1766 -1.7908  0.3435
 2352SOL    HW218690   0.549   2.197   5.230 -1.7519  0.0722  1.9556
 2353SOL     OW18691   0.998   2.755   7.789  0.3233 -0.1358 -0.4901
 2353SOL    HW118692   1.020   2.710   7.707 -0.2689 -1.4679  0.0948
 2353SOL    HW218693   1.076   2.812   7.793 -0.5306  0.9893  0.2290
 2354SOL     OW18694   3.675   4.160   4.564 -0.0590 -0.3910 -0.8502
 2354SOL    HW118695   3.613   4.233   4.572 -1.3786 -1.7921  1.6465
 2354SOL    HW218696   3.641   4.104   4.495 -0.9856 -2.5499  1.3697
 2355SOL     OW18697   4.085   3.021   2.995  0.1728  0.1358 -0.0378
 2355SOL    HW118698   4.049   3.103   3.030  1.5889  0.7249  0.0204
 2355SOL    HW218699   4.004   2.990   2.954  0.3544 -0.9679  0.4245
 2356SOL     OW18700   3.264   2.112  14.474 -0.0311 -0.4462  0.0647
 2356SOL    HW118701   3.285   2.205  14.487 -2.5452  0.0391  0.6458
 2356SOL    HW218702   3.200   2.098  14.544  0.5382  1.7418  1.0480
 2357SOL     OW18703   3.139   3.014   8.762  0.0141  0.2871 -0.1843
 2357SOL    HW118704   3.212   2.959   8.733 -1.0936  0.1111 -2.6358
 2357SOL    HW218705   3.125   2.996   8.855 -1.5687  0.3746 -0.4025
 2358SOL     OW18706   2.129   0.234   2.822 -0.3354 -0.1303 -0.3483
 2358SOL    HW118707   2.164   0.323   2.821  0.1474 -0.3171 -0.3533
 2358SOL    HW218708   2.207   0.182   2.842 -0.5026 -0.4377 -0.4963
 2359SOL     OW18709   2.042   0.440  15.117  0.5012 -0.2770  0.4201
 2359SOL    HW118710   2.064   0.489  15.038  0.6153 -1.1858 -0.1120
 2359SOL    HW218711   1.976   0.490  15.164  1.7383  1.4053  0.3706
 2360SOL     OW18712   3.453   1.901   9.053 -0.1563 -0.5053 -0.0429
 2360SOL    HW118713   3.459   1.807   9.072  0.1959 -0.2683  1.0164
 2360SOL    HW218714   3.521   1.939   9.109 -0.4294 -0.4938  0.2824
 2361SOL     OW18715   4.459   3.193   0.002  0.3007  0.8014 -0.2475
 2361SOL    HW118716   4.366   3.215  17.746  0.6022  2.0555 -0.3745
 2361SOL    HW218717   4.482   3.232   0.086  1.1543 -0.0722 -0.0750
 2362SOL     OW18718   0.512   0.103   6.241 -0.8219 -0.0128 -0.1047
 2362SOL    HW118719   0.446   0.124   6.307 -0.4293 -1.3272  0.7154
 2362SOL    HW218720   0.540   0.014   6.266 -1.9765  0.0684  1.5105
 2363SOL     OW18721   4.444   1.104   5.227  0.3097 -0.7942  0.0616
 2363SOL    HW118722   4.371   1.165   5.220 -0.0381 -1.6607 -3.6111
 2363SOL    HW218723   4.515   1.135   5.172  0.8064 -0.7124  0.7386
 2364SOL     OW18724   2.449   2.286   6.886 -0.4491 -0.6743 -0.5691
 2364SOL    HW118725   2.518   2.332   6.839 -0.9636  0.0375 -0.6197
 2364SOL    HW218726   2.503   2.246   6.954 -1.0392 -0.4345  0.0311
 2365SOL     OW18727   2.478   1.238   6.871 -0.0876  0.1003 -0.0069
 2365SOL    HW118728   2.449   1.327   6.850 -3.1446 -0.9231 -0.2349
 2365SOL    HW218729   2.393   1.193   6.875  1.9038 -3.6912 -0.0494
 2366SOL     OW18730   1.009   0.286   8.006  0.3923  0.4092  0.3708
 2366SOL    HW118731   0.946   0.292   7.935  1.2430 -2.5276 -0.6320
 2366SOL    HW218732   1.049   0.200   7.993  0.6303  0.7269 -0.9678
 2367SOL     OW18733   2.068   2.331   8.227  0.0677 -0.0942 -0.3571
 2367SOL    HW118734   2.032   2.243   8.220 -1.3174  0.3036  1.6096
 2367SOL    HW218735   2.021   2.358   8.306 -0.1880  1.1048 -0.9137
 2368SOL     OW18736   3.095   2.952   1.928 -0.4761  1.0441 -0.3523
 2368SOL    HW118737   3.031   3.002   1.979 -0.3552  1.3223 -0.4754
 2368SOL    HW218738   3.149   3.012   1.877  0.7369  1.6447  1.6152
 2369SOL     OW18739   2.349   0.260  12.391  0.3859  0.6002 -0.2943
 2369SOL    HW118740   2.418   0.260  12.324 -0.1556 -1.4796 -0.8496
 2369SOL    HW218741   2.332   0.166  12.400  0.7156  0.5100 -0.5967
 2370SOL     OW18742   3.904   2.393  17.702  0.3573 -0.3065  0.0087
 2370SOL    HW118743   3.891   2.375  17.609 -2.1082 -0.9669  0.4654
 2370SOL    HW218744   3.818   2.434  17.711  0.8900  0.2262  2.6165
 2371SOL     OW18745   2.557   2.112   3.462 -0.1185  0.7589 -0.7857
 2371SOL    HW118746   2.628   2.101   3.399  1.5493 -1.2272  1.4368
 2371SOL    HW218747   2.479   2.098   3.409  0.0554 -0.6214 -0.6898
 2372SOL     OW18748   2.969   0.970   4.659  0.1628 -0.0620 -0.6685
 2372SOL    HW118749   2.955   1.061   4.633 -0.9205  0.8443  3.0060
 2372SOL    HW218750   2.954   0.971   4.754 -0.6231  2.1192 -0.8054
 2373SOL     OW18751   0.429   3.596   5.356  0.0055  0.2883  0.2667
 2373SOL    HW118752   0.474   3.640   5.284  0.2906 -0.8972 -0.2717
 2373SOL    HW218753   0.443   3.511   5.315  2.2788  0.6627  0.2436
 2374SOL     OW18754   2.175   0.829   8.571  0.6798  0.3129  0.9495
 2374SOL    HW118755   2.223   0.911   8.564  1.8354 -0.5514 -1.0131
 2374SOL    HW218756   2.098   0.861   8.619 -0.6288  0.5852 -1.3613
 2375SOL     OW18757   1.306   0.691   3.497  0.0210  0.6274 -0.1835
 2375SOL    HW118758   1.380   0.740   3.463  0.2666 -0.2563 -0.9464
 2375SOL    HW218759   1.321   0.605   3.456 -0.4958  0.7387 -0.6148
 2376SOL     OW18760   3.781   0.527   4.720 -0.4597  0.7012  0.0496
 2376SOL    HW118761   3.778   0.522   4.815 -1.1187  1.1444  0.0499
 2376SOL    HW218762   3.871   0.500   4.701 -0.1767  1.8159 -0.1790
 2377SOL     OW18763   0.333   3.656   7.598 -0.0299 -0.0299 -0.1614
 2377SOL    HW118764   0.345   3.736   7.650 -1.9754 -0.3809  0.7759
 2377SOL    HW218765   0.272   3.605   7.649  0.7167 -1.0860 -0.3297
 2378SOL     OW18766   3.726   3.493   5.252  0.4251  0.0209 -0.0511
 2378SOL    HW118767   3.670   3.557   5.294 -0.1845 -0.6505  0.1568
 2378SOL    HW218768   3.664   3.471   5.182 -1.1727  1.7707  0.8263
 2379SOL     OW18769   1.687   3.168  16.634 -0.2893 -1.2424  0.6490
 2379SOL    HW118770   1.678   3.233  16.703  0.7853  1.2492 -1.5667
 2379SOL    HW218771   1.597   3.138  16.625 -0.1138 -1.7156  0.4508
 2380SOL     OW18772   0.808   0.984   5.713  0.4570 -0.0273  0.5980
 2380SOL    HW118773   0.834   0.989   5.805  0.3103  2.0237  0.5372
 2380SOL    HW218774   0.869   1.048   5.677  0.5950 -2.0851 -2.8964
 2381SOL     OW18775   1.600   3.493   5.598 -0.1961  0.8909  0.4376
 2381SOL    HW118776   1.693   3.503   5.576 -0.8481 -1.7039 -3.5804
 2381SOL    HW218777   1.567   3.581   5.578  0.0585  0.9877  0.4381
 2382SOL     OW18778   1.938   3.088  16.719  0.1627 -0.1423  0.0771
 2382SOL    HW118779   1.992   3.163  16.694 -1.0395  1.1256  1.3047
 2382SOL    HW218780   1.851   3.113  16.686 -0.3510  1.3166  2.5344
 2383SOL     OW18781   2.956   3.093   9.994 -0.0425  0.4609  0.2324
 2383SOL    HW118782   2.988   3.015  10.039  1.5485  1.2239  0.4001
 2383SOL    HW218783   3.029   3.155  10.002 -0.2249  0.7676 -0.4362
 2384SOL     OW18784   1.415   2.118   8.490 -0.1502  0.0511 -0.2507
 2384SOL    HW118785   1.330   2.137   8.450 -0.1949 -1.6848 -1.0097
 2384SOL    HW218786   1.394   2.031   8.524 -1.4183  2.2242  4.4526
 2385SOL     OW18787   2.077   0.248   1.921  0.1257  0.0293 -0.5085
 2385SOL    HW118788   2.040   0.246   1.833  2.5080  1.9388 -1.5452
 2385SOL    HW218789   2.129   0.328   1.915  1.5293 -0.9897 -2.2004
 2386SOL     OW18790   0.901   4.678  13.619  0.4177 -0.2231  0.2250
 2386SOL    HW118791   0.898   4.587  13.647  1.5368 -0.6935 -1.1737
 2386SOL    HW218792   0.814   4.714  13.631  1.6499  2.6566  0.6611
 2387SOL     OW18793   2.099   1.811   6.636 -0.5095  0.1080 -0.4118
 2387SOL    HW118794   2.087   1.796   6.730 -1.5680  0.3201 -0.5166
 2387SOL    HW218795   2.018   1.779   6.597 -1.5044  2.5456 -0.2926
 2388SOL     OW18796   2.000   1.777   5.754  0.5860  0.1109  0.2157
 2388SOL    HW118797   1.998   1.782   5.658 -1.2539 -2.1920  0.1293
 2388SOL    HW218798   1.907   1.763   5.770  0.4019  0.7816 -0.2891
 2389SOL     OW18799   0.464   4.559   7.115 -0.3190  0.7208  0.1329
 2389SOL    HW118800   0.533   4.514   7.164  0.6587 -0.8033 -2.6775
 2389SOL    HW218801   0.387   4.536   7.169  0.3096 -0.5094  0.5165
 2390SOL     OW18802   2.159   2.760   4.371  0.5494 -0.4285 -0.2032
 2390SOL    HW118803   2.222   2.799   4.431 -0.9940  1.6843  0.0505
 2390SOL    HW218804   2.188   2.790   4.285  2.1176  1.9496  1.1487
 2391SOL     OW18805   2.717   0.569   2.662  0.3654  0.1390  0.0334
 2391SOL    HW118806   2.688   0.518   2.738 -0.5933  0.4372 -0.1247
 2391SOL    HW218807   2.668   0.537   2.586  2.6048 -1.5111 -0.6870
 2392SOL     OW18808   1.019   4.128   2.623  0.1910  0.5713  0.0584
 2392SOL    HW118809   1.017   4.108   2.717  0.2759  2.8808  0.5611
 2392SOL    HW218810   0.960   4.202   2.608 -1.7776 -1.4739 -2.1656
 2393SOL     OW18811   0.572   4.345   9.308  0.1204 -0.0444  0.5247
 2393SOL    HW118812   0.667   4.343   9.318  0.1535  0.3653  0.2993
 2393SOL    HW218813   0.555   4.325   9.401 -2.2448 -0.3202  0.0413
 2394SOL     OW18814   3.369   4.353   6.240 -0.2419  0.2406 -0.2060
 2394SOL    HW118815   3.408   4.333   6.325 -1.9125 -1.8943  0.0825
 2394SOL    HW218816   3.452   4.362   6.194  0.2780 -0.8161  0.5068
 2395SOL     OW18817   0.628   1.745   4.205 -0.5452  0.1548  0.1261
 2395SOL    HW118818   0.722   1.730   4.199  0.0360  3.0768  1.4897
 2395SOL    HW218819   0.603   1.728   4.114  0.9404 -1.3573  0.0061
 2396SOL     OW18820   4.007   0.438  13.308 -0.1520  0.0360  0.0358
 2396SOL    HW118821   3.931   0.408  13.258 -0.5966  1.8815 -0.3923
 2396SOL    HW218822   3.973   0.525  13.332 -2.4054 -0.9289  0.3054
 2397SOL     OW18823   0.189   3.707   3.226 -0.2514 -0.2007 -0.5492
 2397SOL    HW118824   0.233   3.678   3.306 -1.2381  1.9733  0.8095
 2397SOL    HW218825   0.104   3.676   3.259 -1.1077  3.0034  0.3277
 2398SOL     OW18826   3.566   1.052   7.432 -0.5251 -0.2917 -0.1241
 2398SOL    HW118827   3.487   1.002   7.451 -1.0631  1.1699  1.5362
 2398SOL    HW218828   3.628   1.010   7.492 -2.0136 -1.2438  0.7547
 2399SOL     OW18829   4.471   3.244  14.231 -0.4216 -0.0794 -0.1981
 2399SOL    HW118830   4.428   3.162  14.254 -0.5504 -0.4487 -1.7660
 2399SOL    HW218831   4.447   3.253  14.139 -0.5846  0.6776 -0.0750
 2400SOL     OW18832   1.358   1.545   8.565 -0.0778 -0.0998 -0.3543
 2400SOL    HW118833   1.427   1.587   8.617 -1.9844  0.1287  2.0254
 2400SOL    HW218834   1.368   1.458   8.605  0.3986 -0.7017 -1.7775
 2401SOL     OW18835   0.441   4.440  17.637 -0.4278 -0.2744 -0.5756
 2401SOL    HW118836   0.381   4.375  17.601 -0.6751 -0.1861 -0.3226
 2401SOL    HW218837   0.402   4.523  17.610 -1.1354 -0.2772  0.4218
 2402SOL     OW18838   4.468   0.259   2.672  0.0745 -0.0960 -0.5014
 2402SOL    HW118839   4.545   0.298   2.630  1.4780 -0.8866  1.3038
 2402SOL    HW218840   4.434   0.215   2.594 -0.8578  0.8846 -0.6466
 2403SOL     OW18841   0.628   1.387  17.476 -0.4127  0.2944  0.3085
 2403SOL    HW118842   0.687   1.454  17.443  0.4300 -0.5405  0.1360
 2403SOL    HW218843   0.593   1.443  17.546  3.3840  1.2989  1.4178
 2404SOL     OW18844   0.351   0.377   8.140 -0.0765 -0.1746  0.3492
 2404SOL    HW118845   0.274   0.325   8.118 -0.0083  0.8439 -2.2552
 2404SOL    HW218846   0.316   0.443   8.200  0.8642  0.3690  0.2954
 2405SOL     OW18847   3.536   1.176   7.185  0.5247  0.5545  0.1325
 2405SOL    HW118848   3.480   1.108   7.149 -0.3682  0.9530  0.7706
 2405SOL    HW218849   3.565   1.131   7.264 -2.2338 -0.9975  0.2748
 2406SOL     OW18850   1.855   4.635   6.288  0.0781  0.2741  0.5952
 2406SOL    HW118851   1.830   4.543   6.294  0.1086  0.2068 -0.2542
 2406SOL    HW218852   1.780   4.674   6.332  0.9163  0.5503  1.7589
 2407SOL     OW18853   1.840   1.693   6.753 -0.1984 -0.0201  0.4497
 2407SOL    HW118854   1.833   1.597   6.752  2.7187 -0.2402 -0.5615
 2407SOL    HW218855   1.877   1.704   6.840  2.8031  0.5190 -0.8929
 2408SOL     OW18856   2.361   4.551   7.573 -0.1473 -0.2512 -0.0775
 2408SOL    HW118857   2.409   4.610   7.632  0.0989 -1.1468  0.6255
 2408SOL    HW218858   2.368   4.587   7.485  1.8869  1.9858  0.9630
 2409SOL     OW18859   2.388   0.338  11.002  0.2665 -0.2690  0.3707
 2409SOL    HW118860   2.423   0.270  11.059  0.0537 -0.8196 -0.1552
 2409SOL    HW218861   2.372   0.412  11.060  1.0799  1.1761 -1.2411
 2410SOL     OW18862   3.556   2.713  14.297  0.0196  0.0413  0.5074
 2410SOL    HW118863   3.607   2.690  14.375 -1.8013 -0.0488  1.6709
 2410SOL    HW218864   3.491   2.773  14.334  1.7694  0.5790  2.7026
 2411SOL     OW18865   1.104   0.197   4.293 -0.4155  0.2737  0.4448
 2411SOL    HW118866   1.056   0.143   4.231 -3.0363  1.2662  1.6123
 2411SOL    HW218867   1.161   0.242   4.231 -1.4932 -1.6908 -1.9314
 2412SOL     OW18868   4.639   1.788   0.335  0.4132 -0.4746  0.1556
 2412SOL    HW118869   4.649   1.763   0.243 -1.3196 -3.2021  0.7184
 2412SOL    HW218870   4.550   1.824   0.340 -0.1427 -1.6866 -1.1444
 2413SOL     OW18871   1.429   1.787  10.157 -0.2280 -0.3552 -0.0924
 2413SOL    HW118872   1.336   1.792  10.180 -1.1861 -0.0258 -4.0278
 2413SOL    HW218873   1.480   1.860  10.193 -0.5875 -1.2842  2.3130
 2414SOL     OW18874   0.960   0.568  12.566  0.1999  0.0443 -0.2407
 2414SOL    HW118875   0.897   0.501  12.592 -0.6721 -0.5319 -3.8460
 2414SOL    HW218876   1.039   0.559  12.620  0.2847 -0.5547 -0.4699
 2415SOL     OW18877   0.540   1.172   4.515 -0.0438  0.0053  0.2103
 2415SOL    HW118878   0.457   1.198   4.475  0.5012  0.5077 -0.6021
 2415SOL    HW218879   0.564   1.095   4.463 -1.6744  0.0242 -0.5831
 2416SOL     OW18880   2.375   1.971   7.938 -0.3995 -0.0549 -0.1524
 2416SOL    HW118881   2.313   1.954   8.009  3.2460 -2.1633  2.5527
 2416SOL    HW218882   2.428   1.892   7.943 -2.4784 -1.5458 -1.4874
 2417SOL     OW18883   2.582   2.019   0.703 -0.5253  0.7553  0.2361
 2417SOL    HW118884   2.641   2.023   0.778  0.2841 -0.5097 -0.3392
 2417SOL    HW218885   2.586   1.928   0.674  1.6525  0.1231  2.5725
 2418SOL     OW18886   4.243   4.185   7.175  0.0903  0.1335 -0.1275
 2418SOL    HW118887   4.240   4.097   7.211 -0.9671  0.1700 -0.1358
 2418SOL    HW218888   4.324   4.217   7.215 -1.1414  2.8860  0.1245
 2419SOL     OW18889   1.265   3.242  13.031  0.0913 -0.0545  0.1567
 2419SOL    HW118890   1.301   3.188  13.101  2.7873  0.5883 -0.7148
 2419SOL    HW218891   1.311   3.325  13.038 -2.2246  1.2562 -0.0751
 2420SOL     OW18892   0.388   2.485  11.923  0.3191 -0.2264 -0.3943
 2420SOL    HW118893   0.457   2.551  11.913  0.1240 -0.0656 -0.6943
 2420SOL    HW218894   0.316   2.532  11.965  0.7157  2.3690 -2.5853
 2421SOL     OW18895   3.641   4.329   6.068  0.2826 -0.2279  0.5788
 2421SOL    HW118896   3.659   4.408   6.018  1.9520  0.2826  1.9862
 2421SOL    HW218897   3.721   4.322   6.120  0.4347  0.4870  0.4343
 2422SOL     OW18898   1.524   3.209   7.232 -0.2615 -0.2530  0.5226
 2422SOL    HW118899   1.511   3.221   7.326 -2.8376 -2.5989  0.4502
 2422SOL    HW218900   1.435   3.226   7.198 -0.8712 -0.1579  2.1748
 2423SOL     OW18901   3.051   3.752   3.572 -0.4401  0.8613  0.3749
 2423SOL    HW118902   3.136   3.743   3.529 -1.0034 -3.4154  0.1264
 2423SOL    HW218903   2.997   3.679   3.541  0.3787  0.8879 -1.0774
 2424SOL     OW18904   3.170   3.335  16.803  0.5618 -0.4536  0.4605
 2424SOL    HW118905   3.151   3.241  16.807 -2.6940  0.3725  4.4236
 2424SOL    HW218906   3.264   3.347  16.809  0.5515 -0.8962  1.4245
 2425SOL     OW18907   1.761   2.629   9.064  0.1731 -0.0260  0.9601
 2425SOL    HW118908   1.789   2.563   9.128 -1.8913 -1.9448 -0.0930
 2425SOL    HW218909   1.689   2.585   9.018  0.3330 -0.2124  0.8881
 2426SOL     OW18910   0.692   3.837   1.457  0.2231  0.5072  0.0732
 2426SOL    HW118911   0.705   3.766   1.394  2.1545  1.3087 -0.4079
 2426SOL    HW218912   0.668   3.898   1.388  0.3102  0.4741  0.0146
 2427SOL     OW18913   3.936   1.314   5.604 -0.9447  0.3543  0.0930
 2427SOL    HW118914   3.867   1.282   5.546 -1.6021  0.5935  0.7366
 2427SOL    HW218915   3.888   1.321   5.687 -0.6756  1.0384  0.1972
 2428SOL     OW18916   1.494   0.867   3.666 -0.3260  0.1180  0.3002
 2428SOL    HW118917   1.489   0.796   3.731  3.0684  1.0737  1.6266
 2428SOL    HW218918   1.537   0.821   3.594  2.0747  1.9757  0.5685
 2429SOL     OW18919   1.189   4.478   2.606 -0.3654 -0.1741 -0.2339
 2429SOL    HW118920   1.096   4.499   2.618 -0.6756 -1.9819  0.6255
 2429SOL    HW218921   1.199   4.421   2.683  0.9353 -0.4558 -0.6226
 2430SOL     OW18922   3.957   4.294  16.828 -0.3541  0.1407  0.0615
 2430SOL    HW118923   3.975   4.204  16.852 -0.5164 -0.2982 -1.4504
 2430SOL    HW218924   4.046   4.318  16.801 -0.2848 -0.7345 -0.5003
 2431SOL     OW18925   2.318   1.408   7.086 -0.3355 -0.4354  0.0522
 2431SOL    HW118926   2.265   1.439   7.013  1.9374 -1.4828 -2.0044
 2431SOL    HW218927   2.305   1.478   7.151 -0.0169  0.0677 -0.4290
 2432SOL     OW18928   0.766   3.714   7.759  0.2302 -0.4267  0.0432
 2432SOL    HW118929   0.710   3.670   7.696  0.0907  1.6099 -1.2526
 2432SOL    HW218930   0.705   3.737   7.829 -1.3120 -0.8291 -1.1845
 2433SOL     OW18931   3.543   0.212   2.591  0.2058 -0.5039  0.0951
 2433SOL    HW118932   3.513   0.211   2.682  1.0236  0.7789  0.3670
 2433SOL    HW218933   3.638   0.208   2.589  0.1710 -1.0467 -0.9641
 2434SOL     OW18934   2.940   3.456   9.796  0.2440  0.2833 -0.0486
 2434SOL    HW118935   3.012   3.475   9.736  0.1234 -0.1947 -0.3420
 2434SOL    HW218936   2.865   3.434   9.741  0.7740  2.8150 -1.7861
 2435SOL     OW18937   3.827   1.650   5.696  0.2334 -0.0480 -0.2691
 2435SOL    HW118938   3.863   1.675   5.781 -2.4716 -2.3456  1.5422
 2435SOL    HW218939   3.777   1.570   5.711 -1.5078  0.7151 -2.0526
 2436SOL     OW18940   4.169   4.637   6.775 -0.0686 -0.2197  0.2341
 2436SOL    HW118941   4.186   4.573   6.706  2.1233  1.2469 -0.6067
 2436SOL    HW218942   4.082   4.618   6.810 -0.9949  0.4301 -1.6600
 2437SOL     OW18943   0.602   0.937   7.863  0.1956 -0.4373  0.1400
 2437SOL    HW118944   0.641   0.993   7.796  0.3719 -0.5578  0.1433
 2437SOL    HW218945   0.601   0.996   7.938  0.5514  1.6023 -1.4639
 2438SOL     OW18946   3.363   1.400   7.137 -0.1413  0.0682 -0.1127
 2438SOL    HW118947   3.420   1.328   7.110 -1.0275 -0.2081 -1.2278
 2438SOL    HW218948   3.405   1.467   7.084  0.9507 -0.3970  0.1631
 2439SOL     OW18949   4.233   4.207   8.218  0.1046  0.0712 -0.0882
 2439SOL    HW118950   4.162   4.266   8.192  0.0744 -0.7877 -1.9389
 2439SOL    HW218951   4.180   4.133   8.246 -0.0036  0.3661  0.4985
 2440SOL     OW18952   2.180   1.183   9.332 -0.8164  0.0087  0.5651
 2440SOL    HW118953   2.210   1.092   9.328 -3.0086 -0.7684  2.0613
 2440SOL    HW218954   2.130   1.175   9.412 -1.3251 -2.1948  0.0117
 2441SOL     OW18955   4.587   1.132   8.747  0.2216 -0.0271  0.1324
 2441SOL    HW118956   4.629   1.217   8.761 -0.8966  0.2628  1.6452
 2441SOL    HW218957   4.494   1.154   8.750  0.4055  0.7589  0.0106
 2442SOL     OW18958   2.010   3.338  16.698  0.0745 -0.2945 -0.1797
 2442SOL    HW118959   1.925   3.381  16.704  0.8736  1.5664 -2.0798
 2442SOL    HW218960   2.045   3.383  16.620  2.0897  0.3771  1.1049
 2443SOL     OW18961   2.437   4.209  12.279 -0.0020  0.7888  0.1786
 2443SOL    HW118962   2.361   4.203  12.221  0.2359 -2.5842  0.2051
 2443SOL    HW218963   2.407   4.139  12.337 -1.2470  0.6013 -0.6895
 2444SOL     OW18964   4.285   3.177   7.413 -0.1500  0.3928  0.7826
 2444SOL    HW118965   4.265   3.206   7.324 -5.3848 -1.1232  1.4378
 2444SOL    HW218966   4.212   3.216   7.463 -0.5334  0.4137  0.2127
 2445SOL     OW18967   4.724   3.597   0.720 -0.4797 -0.1336  0.1341
 2445SOL    HW118968   0.082   3.606   0.716 -0.3181 -1.7912  0.6693
 2445SOL    HW218969   4.712   3.503   0.706 -2.0704 -0.0096  0.6735
 2446SOL     OW18970   0.611   3.520   4.619  1.0548  0.2365 -0.2174
 2446SOL    HW118971   0.597   3.588   4.554 -1.4199 -0.4166 -0.3530
 2446SOL    HW218972   0.567   3.451   4.570 -0.1239 -0.1606  1.3825
 2447SOL     OW18973   3.392   4.220   0.902  0.2762 -0.9607 -0.1952
 2447SOL    HW118974   3.473   4.222   0.954  0.8628 -0.9926 -1.1142
 2447SOL    HW218975   3.337   4.171   0.963 -0.4052  0.3394  0.2425
 2448SOL     OW18976   2.685   1.932  12.441 -0.2856 -0.0036 -0.1351
 2448SOL    HW118977   2.598   1.914  12.404  0.4243  1.0327 -2.3338
 2448SOL    HW218978   2.715   2.022  12.426  2.9174 -1.2016 -0.7623
 2449SOL     OW18979   0.080   3.825  10.177 -0.5089 -0.1321  0.3204
 2449SOL    HW118980   0.097   3.835  10.083 -0.0909  1.0747  0.5217
 2449SOL    HW218981   0.023   3.897  10.203  0.9837  1.4813 -0.8215
 2450SOL     OW18982   4.462   4.191   7.478  0.1469 -0.1514 -0.1760
 2450SOL    HW118983   4.460   4.197   7.574 -0.9494 -1.7647 -0.1056
 2450SOL    HW218984   4.378   4.148   7.467 -0.4361  0.4513  1.7968
 2451SOL     OW18985   3.719   2.923   7.877  0.0524  0.1432 -0.1697
 2451SOL    HW118986   3.689   2.851   7.822  1.1446  0.0348 -0.6249
 2451SOL    HW218987   3.808   2.933   7.843 -0.4155 -0.0845 -1.4396
 2452SOL     OW18988   3.720   1.859  13.742  0.1653 -0.3555  0.2034
 2452SOL    HW118989   3.687   1.928  13.799 -1.1132 -0.4220 -0.4558
 2452SOL    HW218990   3.691   1.782  13.789 -2.4999 -0.8605 -2.2239
 2453SOL     OW18991   0.397   2.320   5.977 -0.1490  0.2030  0.0217
 2453SOL    HW118992   0.375   2.254   5.911 -1.4678  0.9071 -0.2440
 2453SOL    HW218993   0.471   2.267   6.005  0.1478  1.1676  1.0298
 2454SOL     OW18994   3.649   0.898   5.761  0.1273 -0.1100  0.2350
 2454SOL    HW118995   3.680   0.807   5.763  1.8815  0.4822 -0.4924
 2454SOL    HW218996   3.609   0.909   5.675 -0.6367  0.0557  0.6095
 2455SOL     OW18997   2.577   0.877  11.422 -0.3761 -0.1051  0.1737
 2455SOL    HW118998   2.646   0.924  11.375 -0.6314  0.0181 -0.0822
 2455SOL    HW218999   2.503   0.895  11.364 -0.2689 -1.3227 -0.3394
 2456SOL     OW19000   3.324   2.712   2.605 -0.0037  0.0792  0.2490
 2456SOL    HW119001   3.335   2.714   2.700 -4.8696  1.9743  0.8020
 2456SOL    HW219002   3.270   2.635   2.586  0.2138  0.6778 -2.7820
 2457SOL     OW19003   1.875   3.274  10.127 -0.3273  0.1215 -0.3767
 2457SOL    HW119004   1.945   3.254  10.188 -0.2906 -0.5998 -0.6533
 2457SOL    HW219005   1.827   3.192  10.140  2.5415 -1.3882  0.7056
 2458SOL     OW19006   3.548   0.892   8.652 -0.0607 -0.1807  0.1331
 2458SOL    HW119007   3.628   0.898   8.600 -1.0777  0.1516 -1.3905
 2458SOL    HW219008   3.591   0.922   8.732 -0.9834 -1.1308  0.9811
 2459SOL     OW19009   0.128   1.136   4.840 -0.0469 -0.0305 -0.3798
 2459SOL    HW119010   0.159   1.051   4.873  1.6804  0.7443 -0.0282
 2459SOL    HW219011   0.064   1.105   4.776  1.8567 -0.1534 -2.2289
 2460SOL     OW19012   2.228   2.556  13.654 -0.6557 -0.5394  0.0112
 2460SOL    HW119013   2.184   2.473  13.633  0.5270 -1.0717 -0.3652
 2460SOL    HW219014   2.320   2.531  13.668 -0.1472  1.3190 -0.0150
 2461SOL     OW19015   3.071   4.260   0.363 -0.2827  0.1741  0.1811
 2461SOL    HW119016   3.083   4.325   0.432  0.7020 -0.5772  0.7211
 2461SOL    HW219017   3.018   4.196   0.410  0.2399 -0.3463  0.0566
 2462SOL     OW19018   4.694   2.384   7.143  0.0462 -0.0192  0.6059
 2462SOL    HW119019   0.035   2.415   7.099 -0.2681 -0.9737 -0.6273
 2462SOL    HW219020   4.691   2.458   7.204  0.3934 -2.2765  3.3859
 2463SOL     OW19021   1.562   0.643   8.241  0.3498  0.0319  0.2195
 2463SOL    HW119022   1.566   0.548   8.234 -1.2033  0.0192 -0.7263
 2463SOL    HW219023   1.500   0.672   8.173 -0.9762 -0.3877  1.2372
 2464SOL     OW19024   2.349   0.718   5.177 -0.1378  0.1442 -0.1694
 2464SOL    HW119025   2.409   0.787   5.205 -1.2566  0.6358  0.9869
 2464SOL    HW219026   2.316   0.760   5.098 -0.7664 -0.2821 -0.1356
 2465SOL     OW19027   0.992   1.142   5.592  0.3537 -0.6856  0.0121
 2465SOL    HW119028   1.061   1.208   5.586 -0.2693  0.2477  2.9067
 2465SOL    HW219029   1.017   1.094   5.513 -1.0589 -0.3383 -0.6420
 2466SOL     OW19030   0.832   2.919   6.909  0.3678 -0.7073  0.5880
 2466SOL    HW119031   0.862   2.931   6.819 -1.0088 -1.9105 -0.0359
 2466SOL    HW219032   0.860   2.997   6.958  0.0109 -0.6595  0.7217
 2467SOL     OW19033   0.756   2.637   7.532 -0.1045  0.4496  0.3492
 2467SOL    HW119034   0.709   2.553   7.534 -2.2735  1.6252 -1.3597
 2467SOL    HW219035   0.849   2.616   7.545 -0.1274  0.0702 -0.0746
 2468SOL     OW19036   4.645   0.792   4.357  0.4361  0.3473 -0.5709
 2468SOL    HW119037   4.619   0.700   4.356 -3.2773  1.4103 -0.2866
 2468SOL    HW219038   4.697   0.809   4.279  1.8346 -0.0814  0.2610
 2469SOL     OW19039   1.372   3.799   4.816 -1.1235 -0.3817 -0.5182
 2469SOL    HW119040   1.413   3.846   4.889  2.5368  1.2482 -3.6388
 2469SOL    HW219041   1.346   3.720   4.864  1.9834 -0.9794  0.1549
 2470SOL     OW19042   3.852   2.506   9.873 -0.5676  0.1106 -0.4342
 2470SOL    HW119043   3.810   2.506   9.959  1.4068 -2.0348  0.5078
 2470SOL    HW219044   3.836   2.594   9.837 -0.1561 -0.5750 -2.3177
 2471SOL     OW19045   3.750   0.505  12.946  0.5922 -0.4457  0.5817
 2471SOL    HW119046   3.806   0.578  12.975  2.9530 -1.5956 -1.0248
 2471SOL    HW219047   3.771   0.443  13.016 -0.1491 -1.5423 -0.1710
 2472SOL     OW19048   3.684   0.978  15.896 -0.1287  0.4052 -0.4878
 2472SOL    HW119049   3.647   1.036  15.829 -3.0916 -2.8551 -1.6914
 2472SOL    HW219050   3.711   0.903  15.842  1.3354  0.4015  0.2719
 2473SOL     OW19051   0.240   1.993   7.218  0.4952 -0.0900 -0.3774
 2473SOL    HW119052   0.273   2.078   7.189 -0.5529  0.6763  0.7033
 2473SOL    HW219053   0.171   2.015   7.280 -0.6040  0.9577 -1.9631
 2474SOL     OW19054   1.066   1.259  12.547 -0.4161 -0.0281  0.6017
 2474SOL    HW119055   1.127   1.265  12.620 -0.8472 -0.0337  0.9598
 2474SOL    HW219056   1.119   1.291  12.474 -0.6924 -1.3659 -0.1818
 2475SOL     OW19057   2.794   0.216   7.398  0.4068 -0.3892 -0.5616
 2475SOL    HW119058   2.834   0.226   7.311 -2.2576  0.8860 -1.6528
 2475SOL    HW219059   2.747   0.297   7.416 -0.3475 -1.4064  2.0742
 2476SOL     OW19060   3.072   2.399  16.864  0.1361  0.0198  0.6884
 2476SOL    HW119061   3.098   2.480  16.820  0.0503  0.5477  1.6188
 2476SOL    HW219062   2.980   2.377  16.850  0.3145 -0.5609  0.4166
 2477SOL     OW19063   1.427   1.916  14.184 -0.6434  0.0610 -0.2461
 2477SOL    HW119064   1.383   1.999  14.166  0.9077  0.9074 -0.1733
 2477SOL    HW219065   1.383   1.859  14.120 -0.9449 -1.0124  0.9193
 2478SOL     OW19066   1.070   3.066   5.968  0.6906 -0.5705 -0.2154
 2478SOL    HW119067   1.068   3.152   5.927  1.4250 -0.5509 -0.2123
 2478SOL    HW219068   1.163   3.044   5.963  1.3184  1.9853  0.1182
 2479SOL     OW19069   1.538   1.402   5.641 -0.0262 -0.3448 -0.3283
 2479SOL    HW119070   1.507   1.372   5.726  2.1033  0.7676  0.8474
 2479SOL    HW219071   1.505   1.327   5.591 -0.2279  0.3163 -1.1864
 2480SOL     OW19072   3.645   0.593   8.794 -0.1892 -0.4960 -0.3172
 2480SOL    HW119073   3.713   0.533   8.765 -1.0711 -2.4714  1.6764
 2480SOL    HW219074   3.669   0.614   8.884  0.5188 -3.6775  0.2455
 2481SOL     OW19075   1.408   0.317   1.156  0.5529 -0.2017  0.5158
 2481SOL    HW119076   1.446   0.393   1.112  1.9952 -1.1867  0.0644
 2481SOL    HW219077   1.314   0.334   1.152  0.1918 -3.1758 -3.2959
 2482SOL     OW19078   4.281   3.260   5.855 -0.4695  0.0013  0.5810
 2482SOL    HW119079   4.360   3.206   5.862 -0.5925 -0.4470 -1.2878
 2482SOL    HW219080   4.214   3.220   5.910 -0.5927 -2.0067 -0.9972
 2483SOL     OW19081   3.884   2.397   5.948 -0.0878 -0.3206  0.0684
 2483SOL    HW119082   3.976   2.409   5.928  0.2702  0.9103  2.4536
 2483SOL    HW219083   3.882   2.341   6.025 -2.2540 -0.0988  0.1838
 2484SOL     OW19084   1.984   1.183  12.164 -0.3671  0.4412  0.2271
 2484SOL    HW119085   1.989   1.218  12.253  0.4352  1.2667 -0.1350
 2484SOL    HW219086   1.895   1.150  12.165 -0.6256  1.1539  0.7909
 2485SOL     OW19087   3.291   4.432   1.210 -0.7413 -0.4092  0.5976
 2485SOL    HW119088   3.251   4.518   1.214  1.3690  0.6310 -0.9589
 2485SOL    HW219089   3.322   4.436   1.120  0.0598  0.0932  0.8946
 2486SOL     OW19090   0.173   2.842   3.933 -0.5181 -0.3200  0.7063
 2486SOL    HW119091   0.123   2.890   3.867 -1.2482 -1.8896  0.0937
 2486SOL    HW219092   0.265   2.850   3.907 -0.5069 -1.2714  0.4350
 2487SOL     OW19093   3.659   1.340  13.195 -0.5375  0.0784 -0.1489
 2487SOL    HW119094   3.583   1.322  13.250 -0.5971  1.6943  0.3039
 2487SOL    HW219095   3.691   1.420  13.237 -2.8601  0.3396  1.1152
 2488SOL     OW19096   2.292   2.833   3.084  0.0277  0.3693  0.5083
 2488SOL    HW119097   2.224   2.774   3.052  0.0095  0.5332  0.2426
 2488SOL    HW219098   2.258   2.915   3.046 -0.5624 -0.8233 -1.5379
 2489SOL     OW19099   3.798   1.123   7.136 -0.3503  0.2084  1.1855
 2489SOL    HW119100   3.721   1.179   7.127 -0.3946 -0.3027 -1.4792
 2489SOL    HW219101   3.755   1.039   7.150  2.3501 -1.2959  0.5276
 2490SOL     OW19102   2.057   2.109   0.662  0.1300 -0.2929 -0.2700
 2490SOL    HW119103   2.007   2.030   0.640 -0.2544  0.6515 -2.7319
 2490SOL    HW219104   2.026   2.173   0.598  0.6387  0.4529  0.2234
 2491SOL     OW19105   3.772   1.900  15.748  0.2386 -0.5513  0.1992
 2491SOL    HW119106   3.865   1.914  15.766  0.4560 -0.5764 -0.8966
 2491SOL    HW219107   3.772   1.811  15.713 -1.9244  0.3428 -2.1019
 2492SOL     OW19108   1.543   1.837  12.073  0.0816 -0.5040  0.3589
 2492SOL    HW119109   1.632   1.873  12.079 -0.1597 -0.0394  1.1066
 2492SOL    HW219110   1.538   1.809  12.164  0.5692  3.7362  1.7070
 2493SOL     OW19111   2.602   1.531   7.769  0.1743 -0.1687  0.0580
 2493SOL    HW119112   2.593   1.588   7.693  1.0761  0.2368  0.2635
 2493SOL    HW219113   2.647   1.457   7.728 -1.5988 -0.1224 -1.9753
 2494SOL     OW19114   3.116   2.999   9.022  0.6488 -0.3170 -0.4716
 2494SOL    HW119115   3.131   3.010   9.115  0.7027 -2.6606 -0.2028
 2494SOL    HW219116   3.087   2.908   9.022  3.2042 -1.1184  1.5408
 2495SOL     OW19117   1.942   2.760   8.888 -0.0102 -0.5823 -0.4354
 2495SOL    HW119118   1.874   2.732   8.950  0.8993  1.3409  1.4686
 2495SOL    HW219119   2.010   2.696   8.909 -2.0860 -3.0816 -1.3458
 2496SOL     OW19120   0.096   3.809   5.130  0.4199 -0.2991  0.2585
 2496SOL    HW119121   0.144   3.884   5.095 -0.0335 -0.1848 -0.1107
 2496SOL    HW219122   0.061   3.850   5.210  1.6849 -2.9849  2.1976
 2497SOL     OW19123   0.967   2.891   4.637 -0.1841 -0.1558 -0.3918
 2497SOL    HW119124   1.042   2.949   4.626  0.3917 -0.8354 -0.1151
 2497SOL    HW219125   0.893   2.951   4.644 -1.4563 -1.7955  0.1724
 2498SOL     OW19126   4.009   4.317   0.381  0.4221  0.0227 -0.3607
 2498SOL    HW119127   4.059   4.373   0.441  0.6779  0.7947 -1.3063
 2498SOL    HW219128   4.063   4.333   0.304  0.2831 -1.3823 -0.7511
 2499SOL     OW19129   3.732   0.721   2.801 -0.2427 -0.4329 -0.7683
 2499SOL    HW119130   3.703   0.634   2.830  2.9250 -0.1254  3.4262
 2499SOL    HW219131   3.653   0.771   2.824  0.2054  1.1840 -2.7915
 2500SOL     OW19132   1.237   2.018  17.390 -0.4399  0.0704  0.4414
 2500SOL    HW119133   1.263   1.967  17.313 -1.0468 -0.2067  0.4243
 2500SOL    HW219134   1.180   1.957  17.436 -1.9035 -0.4041 -2.0258
 2501SOL     OW19135   2.568   4.464   8.132  0.4162 -0.2055  0.0796
 2501SOL    HW119136   2.591   4.534   8.193  1.5930 -1.2747  0.8717
 2501SOL    HW219137   2.541   4.507   8.051  1.0623  2.5581  1.3294
 2502SOL     OW19138   3.953   0.711  16.564  0.3754 -0.0519 -0.2148
 2502SOL    HW119139   3.951   0.744  16.654  4.7460 -1.7047  0.4593
 2502SOL    HW219140   3.859   0.702  16.551  0.3434 -2.1305  1.4198
 2503SOL     OW19141   4.222   1.970   5.558 -0.0013 -0.0930 -0.1523
 2503SOL    HW119142   4.155   2.036   5.538  0.2661  0.5754  1.1560
 2503SOL    HW219143   4.229   1.971   5.653 -0.5033  0.0225 -0.1168
 2504SOL     OW19144   2.132   2.769   1.886 -0.0872  0.6108 -0.2446
 2504SOL    HW119145   2.131   2.865   1.881 -0.3970  0.6389  0.3212
 2504SOL    HW219146   2.103   2.744   1.798  0.8524 -2.6380  0.3841
 2505SOL     OW19147   0.666   4.459   3.403  0.2588 -0.4714 -0.3286
 2505SOL    HW119148   0.679   4.510   3.323 -0.4391  1.2585  0.6526
 2505SOL    HW219149   0.667   4.530   3.468 -0.9217  0.0638 -0.8891
 2506SOL     OW19150   3.074   1.203   6.010  0.1719 -0.2009 -0.0578
 2506SOL    HW119151   3.081   1.270   6.078  0.1970 -1.0544  0.7852
 2506SOL    HW219152   3.061   1.127   6.067  2.9130  0.3217  1.2583
 2507SOL     OW19153   1.122   2.123   3.005  0.2411  0.3689  0.5614
 2507SOL    HW119154   1.214   2.096   3.002  0.2235  0.3689 -0.0218
 2507SOL    HW219155   1.108   2.178   3.082  0.0716 -0.6816  1.2808
 2508SOL     OW19156   1.350   2.316   8.051 -0.3117  0.1840 -0.4152
 2508SOL    HW119157   1.381   2.261   7.979  0.2044  1.3199 -1.0603
 2508SOL    HW219158   1.283   2.374   8.013 -1.4853 -1.0954 -0.2930
 2509SOL     OW19159   2.827   2.563   3.251  0.0990 -0.4931 -0.2062
 2509SOL    HW119160   2.797   2.606   3.172  0.5550 -1.6217 -0.9943
 2509SOL    HW219161   2.853   2.476   3.219  1.9899  0.1296 -0.3922
 2510SOL     OW19162   3.311   1.245   8.883  0.1714 -0.2637 -0.4658
 2510SOL    HW119163   3.227   1.238   8.838 -0.0263 -1.1626  0.0414
 2510SOL    HW219164   3.361   1.200   8.815  0.0279 -1.1041 -0.0115
 2511SOL     OW19165   3.913   0.339   2.358 -0.1403  0.2287  0.0061
 2511SOL    HW119166   3.833   0.318   2.311  1.7815  0.3263 -3.2787
 2511SOL    HW219167   3.956   0.403   2.302  0.4050 -1.0612 -1.0477
 2512SOL     OW19168   1.455   3.562   9.603  0.1695  0.0753  0.4712
 2512SOL    HW119169   1.409   3.494   9.552 -0.0955  0.4873  0.1642
 2512SOL    HW219170   1.394   3.635   9.607 -1.2049 -1.0073 -0.4598
 2513SOL     OW19171   2.339   0.986  12.856 -0.1866 -0.8670  0.0440
 2513SOL    HW119172   2.422   1.013  12.816 -0.0297  2.6740  2.6993
 2513SOL    HW219173   2.378   0.933  12.925 -1.6991 -0.7513  0.9864
 2514SOL     OW19174   0.405   2.180   5.743 -0.2457  0.0997 -0.1676
 2514SOL    HW119175   0.374   2.131   5.667  1.2885  0.5165 -1.0530
 2514SOL    HW219176   0.404   2.266   5.701 -1.7447 -0.1574 -0.6802
 2515SOL     OW19177   2.762   2.098   7.500  0.6882  0.3218 -0.1650
 2515SOL    HW119178   2.677   2.142   7.500 -0.8688 -2.6516 -0.6505
 2515SOL    HW219179   2.828   2.157   7.464 -0.1958  0.6923 -1.1731
 2516SOL     OW19180   4.014   0.676   7.932 -0.0283  0.6437  0.0326
 2516SOL    HW119181   4.047   0.598   7.889  0.5102  0.1748  1.3164
 2516SOL    HW219182   4.081   0.682   8.000  1.6241 -1.5918 -1.4189
 2517SOL     OW19183   3.747   0.812  15.607  0.3980 -0.3592 -0.4432
 2517SOL    HW119184   3.772   0.755  15.679 -2.3689  0.4456  1.1837
 2517SOL    HW219185   3.737   0.750  15.535 -2.7236 -0.8337  0.3865
 2518SOL     OW19186   3.801   2.654   4.430 -0.1671  0.0062  0.2736
 2518SOL    HW119187   3.789   2.720   4.499 -1.0943 -0.3710  0.4697
 2518SOL    HW219188   3.876   2.600   4.455  0.0946  0.1683 -0.1696
 2519SOL     OW19189   2.551   4.532   4.409  0.1956 -0.1740  0.0455
 2519SOL    HW119190   2.518   4.593   4.475  0.5808  1.1285 -0.9581
 2519SOL    HW219191   2.617   4.592   4.374 -0.1157  0.2688  0.2174
 2520SOL     OW19192   2.176   0.874  15.543  0.0986  0.0823  0.1969
 2520SOL    HW119193   2.153   0.840  15.630 -3.5147 -0.7108 -1.0659
 2520SOL    HW219194   2.203   0.803  15.485 -1.5414 -0.3807 -0.0148
 2521SOL     OW19195   2.873   3.877   0.040  0.3421  0.0461 -0.4802
 2521SOL    HW119196   2.927   3.799   0.048 -1.3864 -0.9881  1.0784
 2521SOL    HW219197   2.920   3.924  17.720  2.0694 -0.5464  0.3161
 2522SOL     OW19198   3.600   4.222   2.940  0.0998 -0.4454 -0.3893
 2522SOL    HW119199   3.659   4.297   2.942 -0.3786 -0.0787 -0.1618
 2522SOL    HW219200   3.539   4.258   2.874  0.3640  0.8883  0.1008
 2523SOL     OW19201   0.927   0.108   8.458 -0.0141  0.4030  0.0171
 2523SOL    HW119202   0.847   0.066   8.491  0.2111 -1.1502 -1.3956
 2523SOL    HW219203   0.982   0.030   8.465  1.7066  1.7486  1.1794
 2524SOL     OW19204   1.843   2.544   7.362  0.3274 -0.3790  0.4072
 2524SOL    HW119205   1.936   2.551   7.384  0.1414 -0.8022  1.3359
 2524SOL    HW219206   1.831   2.451   7.384  0.2420 -0.6669 -0.8529
 2525SOL     OW19207   0.079   0.844   7.835  0.6418 -0.0480  0.1992
 2525SOL    HW119208   0.131   0.819   7.759 -1.1919  0.2458 -1.1657
 2525SOL    HW219209   0.047   0.758   7.862 -2.5446  0.8108 -0.8350
 2526SOL     OW19210   2.879   4.094   3.624 -0.1105  0.1387  0.1445
 2526SOL    HW119211   2.936   4.074   3.699 -0.1760 -1.6740 -0.2966
 2526SOL    HW219212   2.796   4.114   3.667  0.6341 -0.6407  1.9912
 2527SOL     OW19213   2.065   1.116   5.807  0.1238 -0.9670 -0.1837
 2527SOL    HW119214   2.060   1.025   5.834  1.8018 -1.3395 -1.1109
 2527SOL    HW219215   1.977   1.139   5.777  1.2485  1.0173 -2.0215
 2528SOL     OW19216   4.010   0.621   2.416  0.4917  0.0619 -0.8069
 2528SOL    HW119217   4.001   0.591   2.507 -0.3984  1.2987 -0.4932
 2528SOL    HW219218   3.956   0.699   2.414  0.3493  0.0164  1.0431
 2529SOL     OW19219   3.326   1.548   1.887 -0.1533  0.0739 -0.3310
 2529SOL    HW119220   3.378   1.610   1.836 -0.1400  0.3675  0.0403
 2529SOL    HW219221   3.248   1.603   1.901 -1.0933 -1.3432  0.0083
 2530SOL     OW19222   4.180   3.404   7.729 -0.0369 -0.2006  0.7227
 2530SOL    HW119223   4.136   3.329   7.770  1.0854 -1.3138 -0.1089
 2530SOL    HW219224   4.108   3.446   7.683  1.6150  2.3605  0.5144
 2531SOL     OW19225   0.390   2.426   6.806 -0.2907 -0.6154 -0.5139
 2531SOL    HW119226   0.358   2.366   6.738 -0.0140 -0.9988 -0.3100
 2531SOL    HW219227   0.485   2.426   6.800 -0.2571 -1.2889 -0.0350
 2532SOL     OW19228   1.560   2.773   8.715  0.5926  0.1669  0.3604
 2532SOL    HW119229   1.465   2.765   8.709  0.7246 -1.9699  0.9070
 2532SOL    HW219230   1.567   2.831   8.791  1.4545  1.1058 -0.4420
 2533SOL     OW19231   3.015   4.004   2.582  0.0073  0.2046 -0.0589
 2533SOL    HW119232   3.018   4.044   2.495 -0.8720  1.0355  0.2859
 2533SOL    HW219233   3.052   3.918   2.563  0.2099  0.2295  0.2307
 2534SOL     OW19234   2.987   1.036   1.243 -0.1680 -0.4568  0.3526
 2534SOL    HW119235   3.028   0.969   1.298 -1.4155 -0.2651  1.5177
 2534SOL    HW219236   3.068   1.072   1.208  0.0260 -0.0850  1.1831
 2535SOL     OW19237   4.503   0.811   3.746 -0.3403  0.2468 -0.5688
 2535SOL    HW119238   4.500   0.813   3.842  2.6048  2.7184 -0.5558
 2535SOL    HW219239   4.455   0.891   3.727 -0.9394  0.0178 -0.0392
 2536SOL     OW19240   2.727   3.539   1.819 -0.5044 -0.0370  0.2734
 2536SOL    HW119241   2.688   3.516   1.904  0.0583 -0.3687  0.4366
 2536SOL    HW219242   2.664   3.505   1.756  0.4507  2.7682 -2.1907
 2537SOL     OW19243   0.705   1.223   6.225 -0.1425 -0.6002  0.5181
 2537SOL    HW119244   0.672   1.196   6.311  1.3956  0.3148  1.3956
 2537SOL    HW219245   0.774   1.278   6.261  0.5412 -0.1429 -1.5189
 2538SOL     OW19246   3.075   0.702   4.859  0.5557 -0.0254  0.5699
 2538SOL    HW119247   3.160   0.738   4.883 -0.1923  1.5177  0.9064
 2538SOL    HW219248   3.081   0.716   4.764 -0.1944  2.4372  0.8763
 2539SOL     OW19249   4.610   0.595  16.585 -0.4946  0.1281  0.3998
 2539SOL    HW119250   4.578   0.660  16.522  1.5242  0.9186  0.2013
 2539SOL    HW219251   4.542   0.592  16.653 -0.8121 -1.1426  0.0169
 2540SOL     OW19252   2.631   4.098  16.953  0.5854 -0.2004  0.7018
 2540SOL    HW119253   2.553   4.153  16.963 -0.2524 -1.3149  0.2788
 2540SOL    HW219254   2.605   4.016  16.910 -2.8608  1.5721 -0.6454
 2541SOL     OW19255   1.790   1.184   3.498 -0.1853 -0.3610 -0.4746
 2541SOL    HW119256   1.855   1.116   3.517 -0.6820 -1.4621 -2.8183
 2541SOL    HW219257   1.710   1.133   3.513 -0.6424 -0.0985 -2.0203
 2542SOL     OW19258   0.732   3.858   3.085 -0.2221 -0.2970  0.3267
 2542SOL    HW119259   0.695   3.825   3.166  0.8092 -1.1729  0.4394
 2542SOL    HW219260   0.670   3.926   3.059  2.1343  1.3861 -0.8454
 2543SOL     OW19261   1.475   0.591   1.975  0.7373 -0.3746 -0.7666
 2543SOL    HW119262   1.400   0.552   1.931 -1.2420  1.4185  0.9854
 2543SOL    HW219263   1.501   0.527   2.041 -0.0376  0.3162  0.2229
 2544SOL     OW19264   3.048   2.253   2.660 -0.1085 -0.4285 -0.4835
 2544SOL    HW119265   2.972   2.195   2.657  0.0692 -0.5184 -2.8566
 2544SOL    HW219266   3.117   2.201   2.701 -0.6169  0.7477  1.8699
 2545SOL     OW19267   2.529   2.181   0.462 -0.2486 -0.1113  0.1765
 2545SOL    HW119268   2.607   2.236   0.471 -0.3993  0.0271  0.6424
 2545SOL    HW219269   2.521   2.142   0.549 -1.0081 -2.7398 -1.0600
 2546SOL     OW19270   3.251   1.769   8.153 -0.3702 -0.2361 -0.3463
 2546SOL    HW119271   3.193   1.726   8.090  0.2157 -2.4576  0.6494
 2546SOL    HW219272   3.292   1.698   8.202  0.5098  0.1939 -0.4672
 2547SOL     OW19273   3.797   2.555   7.899 -0.0270  0.1033  0.0645
 2547SOL    HW119274   3.862   2.625   7.905 -0.8501  0.9527 -0.9891
 2547SOL    HW219275   3.764   2.570   7.987  1.0626  0.8207  0.3583
 2548SOL     OW19276   0.558   1.427  15.785  0.6292  0.1260  0.5168
 2548SOL    HW119277   0.604   1.408  15.867  1.9949  1.8059  0.1400
 2548SOL    HW219278   0.628   1.425  15.720 -1.0172 -0.4274 -1.2275
 2549SOL     OW19279   0.300   3.544   8.605 -0.1602 -0.4869 -0.2059
 2549SOL    HW119280   0.343   3.480   8.662  1.2740  0.2741 -0.4211
 2549SOL    HW219281   0.353   3.521   8.528  0.1974 -1.8950  0.4536
 2550SOL     OW19282   3.840   4.607  15.868 -0.3159  0.4234  0.4218
 2550SOL    HW119283   3.885   4.547  15.928  2.1049  2.0896  0.2944
 2550SOL    HW219284   3.877   4.578  15.785 -2.1070  1.9417 -0.8972
 2551SOL     OW19285   0.247   2.650   5.797  0.4727  0.0970 -0.2855
 2551SOL    HW119286   0.217   2.721   5.741 -0.9167  1.1839  1.7935
 2551SOL    HW219287   0.299   2.604   5.732 -0.3194 -3.9468  1.9202
 2552SOL     OW19288   1.154   1.356   5.466 -0.3854  0.5297  0.5511
 2552SOL    HW119289   1.192   1.442   5.481 -1.0338  1.6722 -4.4919
 2552SOL    HW219290   1.121   1.367   5.377 -0.4568  1.0467  0.6424
 2553SOL     OW19291   0.940   3.510   6.881  0.8535  0.2834 -0.1194
 2553SOL    HW119292   0.851   3.481   6.863  1.3191 -0.5855 -0.9669
 2553SOL    HW219293   0.982   3.480   6.801  2.3855  1.4883  0.2346
 2554SOL     OW19294   1.157   3.181  11.406 -0.2829  0.0158 -0.1153
 2554SOL    HW119295   1.197   3.177  11.319  1.6040  1.6715  0.6611
 2554SOL    HW219296   1.225   3.235  11.447  0.0871 -1.1779  0.8484
 2555SOL     OW19297   0.925   3.349   6.315 -0.0455  0.4644  0.0276
 2555SOL    HW119298   0.972   3.276   6.274  0.7004  1.9458 -1.7148
 2555SOL    HW219299   0.897   3.400   6.239 -3.2629  0.1405  0.9966
 2556SOL     OW19300   0.648   2.212   1.851 -0.1692 -0.0855  0.5669
 2556SOL    HW119301   0.597   2.131   1.847 -0.7731  0.3830 -1.1682
 2556SOL    HW219302   0.681   2.219   1.762 -0.7007  0.3875  0.4134
 2557SOL     OW19303   1.930   0.089   5.896 -0.2629 -0.0343 -0.2261
 2557SOL    HW119304   1.945   0.005   5.937 -0.7788  0.5584  1.1759
 2557SOL    HW219305   1.893   0.066   5.811 -0.3093 -0.3353 -0.1215
 2558SOL     OW19306   0.597   0.257   5.770  0.1614  0.1430 -0.7161
 2558SOL    HW119307   0.550   0.187   5.814 -1.1770  0.3307 -1.8770
 2558SOL    HW219308   0.664   0.286   5.833 -0.7719 -1.7058  1.1009
 2559SOL     OW19309   0.322   0.297   4.542  0.4967 -0.1968  0.5255
 2559SOL    HW119310   0.335   0.269   4.451 -1.3283  2.9847 -0.7393
 2559SOL    HW219311   0.253   0.241   4.577 -1.8448  1.9574 -0.6115
 2560SOL     OW19312   2.491   2.440   1.745 -0.0036  0.1345  0.4937
 2560SOL    HW119313   2.423   2.444   1.812  0.2472 -1.3066  0.8441
 2560SOL    HW219314   2.466   2.512   1.687  0.3080  1.1327  1.5931
 2561SOL     OW19315   1.346   1.128  12.476  0.4199  0.2182 -0.2618
 2561SOL    HW119316   1.309   1.059  12.531  1.0633  0.7652  0.8701
 2561SOL    HW219317   1.264   1.166  12.445 -0.5609 -1.1011  0.7252
 2562SOL     OW19318   4.136   4.507   7.069  0.6349  0.0284  0.4179
 2562SOL    HW119319   4.094   4.541   6.990 -0.6766 -1.5049  0.4473
 2562SOL    HW219320   4.060   4.462   7.107  2.0933 -1.6491  1.3320
 2563SOL     OW19321   0.486   3.504   8.413  0.0327 -0.4532 -0.0660
 2563SOL    HW119322   0.541   3.438   8.370  2.9565  2.9967 -1.6241
 2563SOL    HW219323   0.423   3.518   8.343 -0.5292  1.9667  0.9121
 2564SOL     OW19324   1.071   3.313   9.293 -0.0152  0.1871  0.0416
 2564SOL    HW119325   1.143   3.266   9.336 -1.0977 -0.1095  1.5030
 2564SOL    HW219326   1.069   3.400   9.333  2.1636  0.2193  0.0724
 2565SOL     OW19327   0.418   2.143   4.118 -0.1074  0.7414 -0.7903
 2565SOL    HW119328   0.441   2.075   4.181 -0.3583  0.4517 -1.0105
 2565SOL    HW219329   0.489   2.208   4.111  1.3142 -0.7747 -0.3995
 2566SOL     OW19330   0.097   2.555   3.448 -0.5400  0.6066 -0.2329
 2566SOL    HW119331   0.171   2.498   3.429 -0.0021  1.7403 -1.5765
 2566SOL    HW219332   0.029   2.489   3.453 -0.5119  0.5528 -0.5710
 2567SOL     OW19333   3.179   1.119   2.429  0.2497  0.2034  0.3477
 2567SOL    HW119334   3.198   1.132   2.522 -0.0292  0.5166  0.3609
 2567SOL    HW219335   3.085   1.133   2.433  0.1278  0.0487 -2.2565
 2568SOL     OW19336   3.943   1.524   6.822 -0.0625 -0.3473  0.5003
 2568SOL    HW119337   4.009   1.568   6.769  0.2341 -0.4811  0.7577
 2568SOL    HW219338   3.899   1.600   6.859  0.6747  0.0754  0.5042
 2569SOL     OW19339   2.348   4.454   1.307  0.0613  0.4291 -0.6422
 2569SOL    HW119340   2.367   4.542   1.340 -1.1639  0.2144  0.6639
 2569SOL    HW219341   2.406   4.407   1.368 -2.1088  1.2921  2.1056
 2570SOL     OW19342   4.591   3.200   2.700 -0.4384 -0.7377  0.0577
 2570SOL    HW119343   4.637   3.212   2.783  1.0803 -1.4314 -0.6791
 2570SOL    HW219344   4.499   3.197   2.724 -0.5221  0.6540 -0.0611
 2571SOL     OW19345   2.020   1.846   1.969  0.1396  0.5084  0.8596
 2571SOL    HW119346   2.097   1.829   1.914 -1.0646  0.0030 -0.6518
 2571SOL    HW219347   2.033   1.935   2.002  1.0882  1.2793 -1.5977
 2572SOL     OW19348   3.155   2.763  14.671 -0.5704  0.4580  0.2593
 2572SOL    HW119349   3.133   2.680  14.712 -2.1672  2.0857  2.6941
 2572SOL    HW219350   3.174   2.816  14.749 -0.6364 -0.7775  1.1125
 2573SOL     OW19351   0.833   0.328   2.127 -0.2871  0.2651 -0.0585
 2573SOL    HW119352   0.916   0.374   2.136  0.5707 -0.4632 -4.1090
 2573SOL    HW219353   0.814   0.339   2.034 -0.5720  0.0651 -0.0228
 2574SOL     OW19354   2.915   0.746   2.586 -0.3747  0.3656  0.2423
 2574SOL    HW119355   2.856   0.821   2.588 -0.6095  0.2360 -1.8953
 2574SOL    HW219356   2.853   0.673   2.582  2.9925 -2.4307 -0.7923
 2575SOL     OW19357   1.545   3.089   8.380 -0.0807  0.1184 -0.5561
 2575SOL    HW119358   1.627   3.073   8.427 -1.2422 -0.0376  1.4212
 2575SOL    HW219359   1.554   3.014   8.321  2.6291  0.9732 -1.1910
 2576SOL     OW19360   3.873   0.799  17.144  0.4258  0.7358 -0.3511
 2576SOL    HW119361   3.920   0.785  17.062 -2.3364  1.4859 -2.0495
 2576SOL    HW219362   3.785   0.775  17.114 -0.0961  2.7752 -0.4920
 2577SOL     OW19363   2.304   2.025   2.066 -0.3838  0.5538  0.2661
 2577SOL    HW119364   2.308   2.119   2.052  2.3398  0.1859 -1.4651
 2577SOL    HW219365   2.342   1.990   1.985 -2.1588  3.2673 -1.7472
 2578SOL     OW19366   3.276   1.139   4.524  0.4846  0.1966 -0.2441
 2578SOL    HW119367   3.199   1.177   4.566  0.3159  0.1088 -0.4728
 2578SOL    HW219368   3.238   1.140   4.436  1.4888 -1.2757 -0.7072
 2579SOL     OW19369   0.380   0.510  14.916 -0.5908 -0.4400  0.4760
 2579SOL    HW119370   0.422   0.494  15.000  2.5552 -1.5413 -1.3034
 2579SOL    HW219371   0.317   0.581  14.932  0.6696 -0.0921  3.8687
 2580SOL     OW19372   2.415   3.549   4.956  0.0830  0.1641 -0.3117
 2580SOL    HW119373   2.503   3.530   4.987 -0.5150  0.5279  1.6079
 2580SOL    HW219374   2.405   3.456   4.935 -1.5047  0.3417 -0.3461
 2581SOL     OW19375   0.672   4.279   9.985 -0.4437 -0.2637 -0.4654
 2581SOL    HW119376   0.593   4.320  10.019 -0.7387 -1.6141  0.4766
 2581SOL    HW219377   0.636   4.201   9.942  1.8500  0.2508 -3.3105
 2582SOL     OW19378   0.325   4.377   5.383  0.9330  0.7393 -0.4660
 2582SOL    HW119379   0.335   4.303   5.443  0.4589  0.4212 -0.7839
 2582SOL    HW219380   0.330   4.323   5.304  0.0490  0.4059 -0.2815
 2583SOL     OW19381   0.375   1.627   0.414  0.0609 -0.3018 -0.0413
 2583SOL    HW119382   0.330   1.564   0.470 -1.8263  1.1197  0.0806
 2583SOL    HW219383   0.452   1.636   0.471 -0.7668  0.1802  1.0059
 2584SOL     OW19384   4.419   2.177   8.809 -0.0641 -0.1917 -0.2836
 2584SOL    HW119385   4.458   2.225   8.882  1.3920  1.2385 -2.0108
 2584SOL    HW219386   4.493   2.153   8.754 -1.5952 -0.7086 -2.1364
 2585SOL     OW19387   2.908   2.415  10.885  0.2196 -0.1970 -0.3844
 2585SOL    HW119388   2.951   2.350  10.830 -2.2619 -1.8622 -0.3367
 2585SOL    HW219389   2.818   2.385  10.890 -0.8024  2.6403 -1.5744
 2586SOL     OW19390   0.954   4.282   9.907  0.2171  0.0474  0.7381
 2586SOL    HW119391   0.873   4.267   9.957 -1.4655  1.4726 -1.5222
 2586SOL    HW219392   0.964   4.377   9.912 -0.9782  0.2321 -0.3599
 2587SOL     OW19393   1.976   0.254   1.659  0.0109 -0.0635  0.0247
 2587SOL    HW119394   1.902   0.195   1.652 -1.2083  1.1625  2.3810
 2587SOL    HW219395   1.952   0.335   1.614 -0.4840 -1.3037 -1.9089
 2588SOL     OW19396   4.307   3.542   5.797 -0.2555  0.2091 -0.0795
 2588SOL    HW119397   4.330   3.449   5.802  1.0023  0.3558 -2.9618
 2588SOL    HW219398   4.319   3.559   5.890  0.9407 -1.3315  0.0458
 2589SOL     OW19399   1.112   4.024   1.297  0.4292 -0.1428 -0.5766
 2589SOL    HW119400   1.095   4.081   1.222  1.0028  2.2443  1.0902
 2589SOL    HW219401   1.058   4.070   1.362  1.4922  0.6985 -0.2969
 2590SOL     OW19402   4.590   0.042   3.151 -0.1414 -0.2958  0.1845
 2590SOL    HW119403   4.563   0.107   3.086  1.6791  0.7541  0.4995
 2590SOL    HW219404   4.658   0.008   3.093 -1.5213 -0.4223 -1.3680
 2591SOL     OW19405   2.023   3.506  16.422 -0.6113  0.2118  0.7836
 2591SOL    HW119406   2.050   3.415  16.416  0.1815  0.5206 -0.5431
 2591SOL    HW219407   2.086   3.543  16.359 -2.4892  2.4385  0.1898
 2592SOL     OW19408   1.971   3.191  12.259 -0.0975 -0.0659  0.1998
 2592SOL    HW119409   2.043   3.252  12.243  1.4782 -1.8881  0.4340
 2592SOL    HW219410   2.005   3.155  12.341 -0.7317 -0.6249  0.2228
 2593SOL     OW19411   3.822   1.113   4.551  0.5326 -0.1982  0.8161
 2593SOL    HW119412   3.731   1.140   4.546  1.2450  2.3879  1.6882
 2593SOL    HW219413   3.820   1.033   4.604 -2.2238  1.8389  3.6901
 2594SOL     OW19414   1.834   0.714   4.118  0.4808  0.0791 -0.2665
 2594SOL    HW119415   1.885   0.769   4.060  1.4549 -3.7252 -3.0179
 2594SOL    HW219416   1.748   0.754   4.109 -0.5545 -2.4110 -1.6033
 2595SOL     OW19417   4.500   3.400  14.916  0.2163  0.0817 -0.6195
 2595SOL    HW119418   4.508   3.475  14.858  2.3278  0.1793 -0.2141
 2595SOL    HW219419   4.410   3.377  14.891 -0.3454 -0.9769  2.3267
 2596SOL     OW19420   2.049   1.425  15.700  0.6683  0.7054 -0.4187
 2596SOL    HW119421   2.108   1.360  15.662 -2.0392  0.0097 -3.4298
 2596SOL    HW219422   1.999   1.379  15.768 -0.5440  1.2919 -0.8994
 2597SOL     OW19423   2.488   3.213   1.501 -0.0512 -0.2939 -0.3534
 2597SOL    HW119424   2.474   3.252   1.415 -4.2894  1.1917  0.9961
 2597SOL    HW219425   2.420   3.148   1.514 -1.5241  0.9308 -1.8625
 2598SOL     OW19426   1.127   4.701   5.581  0.0569 -0.1431 -0.5531
 2598SOL    HW119427   1.128   4.685   5.487 -0.2244  0.8862 -0.7269
 2598SOL    HW219428   1.098   0.055   5.584 -1.1422 -0.5451 -0.0689
 2599SOL     OW19429   3.275   2.151   2.853  0.1322 -0.1844 -0.4525
 2599SOL    HW119430   3.364   2.138   2.887 -0.0583 -0.5010 -0.0800
 2599SOL    HW219431   3.252   2.073   2.803 -0.2365  1.0264 -2.1509
 2600SOL     OW19432   3.674   1.486   4.678  0.2075 -0.7022  0.3223
 2600SOL    HW119433   3.706   1.553   4.738 -0.6272  0.7635 -0.8546
 2600SOL    HW219434   3.756   1.446   4.650 -0.7810 -1.9684 -0.8229
 2601SOL     OW19435   4.474   1.940   7.406  0.4905  0.5358  0.4815
 2601SOL    HW119436   4.439   1.852   7.393  1.4654 -0.3869  4.1000
 2601SOL    HW219437   4.457   1.976   7.319 -0.2527 -2.0154 -0.4446
 2602SOL     OW19438   1.721   1.859   5.991 -0.2577  0.1690  0.0125
 2602SOL    HW119439   1.667   1.804   5.934  0.8074 -0.1328 -0.6931
 2602SOL    HW219440   1.656   1.921   6.025 -0.1830  0.8931 -1.1585
 2603SOL     OW19441   1.609   2.831   2.183  0.2294 -0.0244  0.2546
 2603SOL    HW119442   1.679   2.824   2.248  1.1120  0.2137 -0.6589
 2603SOL    HW219443   1.643   2.885   2.111  0.7068  1.8178  1.8647
 2604SOL     OW19444   4.394   3.851  17.015  0.3239  0.4470 -0.4139
 2604SOL    HW119445   4.436   3.782  17.066  0.1044  1.0475  0.5900
 2604SOL    HW219446   4.453   3.926  17.007  1.5414 -0.3702  0.9073
 2605SOL     OW19447   3.577   4.631   3.711 -0.7512 -0.1507  0.0090
 2605SOL    HW119448   3.620   4.651   3.794 -0.5355 -1.8216  0.2909
 2605SOL    HW219449   3.594   4.705   3.652  1.1143 -1.6328 -1.3031
 2606SOL     OW19450   2.640   1.884   6.441  0.2459 -0.0495 -0.1132
 2606SOL    HW119451   2.720   1.929   6.469 -1.6186  3.1480  0.0677
 2606SOL    HW219452   2.676   1.799   6.415  0.7360 -0.4211  1.7459
 2607SOL     OW19453   1.270   2.215  14.355 -0.1404 -0.0708 -0.0727
 2607SOL    HW119454   1.293   2.211  14.263  0.3322  0.6006  0.0175
 2607SOL    HW219455   1.337   2.278  14.381 -0.4222 -0.5587  1.8804
 2608SOL     OW19456   3.123   4.354  11.680  0.0007 -0.0726  0.2799
 2608SOL    HW119457   3.205   4.362  11.729  0.1313  0.6422 -0.0508
 2608SOL    HW219458   3.099   4.261  11.685  1.8819 -0.6439 -1.6378
 2609SOL     OW19459   4.176   2.947   2.539  0.5980 -0.2062  0.2428
 2609SOL    HW119460   4.256   2.915   2.496 -0.1353 -1.3259 -0.2896
 2609SOL    HW219461   4.182   2.915   2.629 -0.6180 -0.9352  0.0670
 2610SOL     OW19462   4.691   4.273  10.068 -0.1688  0.3608  0.5187
 2610SOL    HW119463   4.602   4.302  10.046  0.7183  2.0664 -0.7758
 2610SOL    HW219464   4.702   4.344  10.132 -0.2133  0.1001  0.8193
 2611SOL     OW19465   1.364   3.292   6.615  0.3777  0.5690  0.3723
 2611SOL    HW119466   1.335   3.209   6.577 -0.0240 -0.0829  2.1034
 2611SOL    HW219467   1.374   3.353   6.542 -1.6700  0.8584  0.3271
 2612SOL     OW19468   3.207   3.358   9.286 -0.3828  0.1045  0.0833
 2612SOL    HW119469   3.114   3.360   9.261 -1.0145 -2.7514  2.1574
 2612SOL    HW219470   3.194   3.368   9.380  1.2440 -1.7330  0.5135
 2613SOL     OW19471   2.141   1.492   1.719 -0.6714  0.3982 -0.2265
 2613SOL    HW119472   2.179   1.576   1.744  1.1525 -0.1184 -1.2327
 2613SOL    HW219473   2.172   1.440   1.793 -0.7775 -1.5996 -1.5686
 2614SOL     OW19474   3.593   0.455   5.999  0.4525  0.2089  0.1361
 2614SOL    HW119475   3.672   0.419   5.958  1.8121  1.2684  1.8283
 2614SOL    HW219476   3.553   0.484   5.917 -2.5422  1.4431  2.0353
 2615SOL     OW19477   0.062   2.705   1.711 -0.1531  0.1687  0.3486
 2615SOL    HW119478   4.736   2.700   1.782 -2.2632 -3.8844 -1.8378
 2615SOL    HW219479   0.140   2.733   1.758 -0.0510 -0.1906  0.3904
 2616SOL     OW19480   2.588   0.650   5.346 -0.2805 -0.3678  0.0322
 2616SOL    HW119481   2.674   0.649   5.389 -0.2461  2.0096  0.0334
 2616SOL    HW219482   2.604   0.729   5.294 -3.1116 -0.4785 -0.9822
 2617SOL     OW19483   1.638   2.981   1.252  0.0211 -0.0879 -0.1787
 2617SOL    HW119484   1.627   3.035   1.330  0.5540  0.4941 -0.5081
 2617SOL    HW219485   1.607   2.897   1.285  1.7114  0.8428  3.8017
 2618SOL     OW19486   0.745   4.061  14.118 -0.2303 -0.0707  0.1008
 2618SOL    HW119487   0.651   4.082  14.121  0.4515  2.6354  2.0546
 2618SOL    HW219488   0.762   3.992  14.054 -0.1596  1.5534 -1.6399
 2619SOL     OW19489   2.976   3.053  16.432  0.0039  0.5471  0.2148
 2619SOL    HW119490   3.063   3.084  16.407 -0.0246 -0.4894 -1.2144
 2619SOL    HW219491   2.987   2.966  16.394  1.3234  0.7640  0.0734
 2620SOL     OW19492   4.058   0.803  15.327 -0.2202  0.2638  0.1046
 2620SOL    HW119493   4.145   0.779  15.296 -0.3305 -0.7371  0.5630
 2620SOL    HW219494   4.010   0.738  15.275 -0.4382 -0.5658  1.3481
 2621SOL     OW19495   3.008   2.942   2.341 -0.1309 -0.1840 -0.3591
 2621SOL    HW119496   3.097   2.950   2.376  0.2299  1.0733 -1.5931
 2621SOL    HW219497   3.006   3.010   2.273 -2.2807  0.2212  0.1228
 2622SOL     OW19498   0.894   4.584   9.146  0.0304 -0.4909 -0.3416
 2622SOL    HW119499   0.867   4.513   9.087 -0.4573  0.8135 -1.6833
 2622SOL    HW219500   0.908   4.543   9.232 -0.5511  0.5433  0.2491
 2623SOL     OW19501   3.863   3.058   1.822 -0.2934 -1.0889 -0.2561
 2623SOL    HW119502   3.846   3.129   1.760 -1.0114 -0.4679  0.6500
 2623SOL    HW219503   3.835   3.091   1.907 -1.9255  2.3531 -2.1208
 2624SOL     OW19504   0.497   1.646   0.926 -0.2936 -0.2488 -0.1755
 2624SOL    HW119505   0.571   1.666   0.869  0.4028  1.3495  1.2866
 2624SOL    HW219506   0.440   1.588   0.875  0.0100 -0.9655  0.3038
 2625SOL     OW19507   3.030   2.024  13.021 -0.6261  0.5245 -0.0223
 2625SOL    HW119508   3.125   2.020  13.022 -0.5617  2.8325  1.3364
 2625SOL    HW219509   3.023   2.113  12.985 -1.9277  0.4865  0.1234
 2626SOL     OW19510   3.884   1.908   4.372 -0.0947 -0.0496  0.2538
 2626SOL    HW119511   3.953   1.953   4.421  0.6657 -3.0836  1.9473
 2626SOL    HW219512   3.937   1.834   4.342  0.2828  0.2631  0.1593
 2627SOL     OW19513   3.980   2.613   6.861  0.2438 -0.3080 -0.3235
 2627SOL    HW119514   3.953   2.534   6.814 -0.3054  2.5867 -4.9308
 2627SOL    HW219515   3.914   2.607   6.929  1.3620  0.3568  0.8134
 2628SOL     OW19516   3.742   1.373  17.627 -0.2341  0.2575  0.0252
 2628SOL    HW119517   3.780   1.354  17.713 -3.0052 -1.1497  0.9226
 2628SOL    HW219518   3.763   1.292  17.581 -0.0103  0.3286  0.0023
 2629SOL     OW19519   3.901   0.073   4.595 -0.4665  0.0477 -0.0371
 2629SOL    HW119520   3.993   0.093   4.579 -0.7000 -0.3738 -1.8791
 2629SOL    HW219521   3.885   0.030   4.511  0.6469 -0.6243  0.1067
 2630SOL     OW19522   0.889   1.535  14.587  0.9842  0.1221  0.4523
 2630SOL    HW119523   0.962   1.554  14.645 -0.0929  2.5490  0.9959
 2630SOL    HW219524   0.919   1.457  14.541  0.8160  0.3150  0.0168
 2631SOL     OW19525   0.213   3.609   9.227  0.5451 -0.2048 -0.1890
 2631SOL    HW119526   0.175   3.697   9.231  0.6815 -0.1778  0.4452
 2631SOL    HW219527   0.188   3.591   9.137 -1.3020 -0.5431  0.4015
 2632SOL     OW19528   1.371   0.449   3.983  0.3673 -0.1223 -0.1210
 2632SOL    HW119529   1.301   0.463   3.919  1.7546  0.3850 -1.5447
 2632SOL    HW219530   1.442   0.497   3.940  0.5772  1.1657  1.6377
 2633SOL     OW19531   2.729   4.296   7.434 -0.2707  0.3023 -0.2997
 2633SOL    HW119532   2.664   4.303   7.504 -0.7277  0.3929 -0.7325
 2633SOL    HW219533   2.703   4.374   7.384 -0.2115 -0.9215 -2.2233
 2634SOL     OW19534   1.338   0.893  17.230 -0.3055  0.3871  0.3452
 2634SOL    HW119535   1.419   0.848  17.204  0.2253  1.2513  0.5135
 2634SOL    HW219536   1.362   0.931  17.314  0.5325 -0.1167  0.3345
 2635SOL     OW19537   2.652   3.294   2.500 -0.1961 -0.0203 -0.2257
 2635SOL    HW119538   2.657   3.306   2.595 -1.1636 -0.4557 -0.1173
 2635SOL    HW219539   2.635   3.378   2.458  2.2292 -0.4214 -2.0608
 2636SOL     OW19540   2.113   0.990   7.639  0.0068  0.2060  0.0142
 2636SOL    HW119541   2.084   1.064   7.585  0.8316  1.0411  0.7185
 2636SOL    HW219542   2.049   1.005   7.708  0.5967  1.2544  0.3398
 2637SOL     OW19543   3.018   0.342  16.789  0.3753 -0.8318 -0.1908
 2637SOL    HW119544   3.062   0.425  16.771 -0.1228 -0.4092  0.5197
 2637SOL    HW219545   3.033   0.338  16.883  0.6475 -2.9468 -0.3180
 2638SOL     OW19546   2.804   0.656   5.534 -0.8221 -0.3150 -0.8495
 2638SOL    HW119547   2.879   0.597   5.545  1.9010  3.0175 -1.6509
 2638SOL    HW219548   2.772   0.667   5.624 -3.8127  1.4759 -2.1478
 2639SOL     OW19549   2.689   1.688   0.073  0.5145  0.4240 -0.0203
 2639SOL    HW119550   2.702   1.767   0.125  1.4641 -1.0746  2.0255
 2639SOL    HW219551   2.703   1.618   0.136 -0.5316  1.1282  0.9811
 2640SOL     OW19552   0.805   1.600  17.397 -0.2736  0.1512 -0.2308
 2640SOL    HW119553   0.900   1.584  17.399 -0.4030 -0.5646  0.4254
 2640SOL    HW219554   0.802   1.693  17.421 -1.5657 -0.4976  2.1305
 2641SOL     OW19555   1.991   2.316   8.969 -0.5721  0.3436 -0.5521
 2641SOL    HW119556   2.058   2.311   8.902 -0.5063  0.8221 -0.5245
 2641SOL    HW219557   1.910   2.311   8.918 -1.7726 -0.3135  1.3768
 2642SOL     OW19558   2.537   4.039   3.255  0.1208 -0.3289 -0.0447
 2642SOL    HW119559   2.626   4.044   3.290  0.7171  1.6283 -1.8558
 2642SOL    HW219560   2.501   4.098   3.322  0.7237 -0.0381  0.0191
 2643SOL     OW19561   3.271   3.061   8.415 -0.6408 -0.6427  0.0504
 2643SOL    HW119562   3.272   3.030   8.325  0.4911 -2.0284  0.5411
 2643SOL    HW219563   3.180   3.068   8.444 -0.1859  0.8376  1.1135
 2644SOL     OW19564   4.152   1.913   1.905  0.4039 -0.0912 -0.2923
 2644SOL    HW119565   4.152   1.996   1.856 -3.0338  0.1705  0.1580
 2644SOL    HW219566   4.202   1.943   1.981 -1.1202  1.4015  0.1211
 2645SOL     OW19567   4.389   4.339   2.786 -0.9187 -0.4613 -0.6906
 2645SOL    HW119568   4.320   4.347   2.720  1.5095  1.4712 -3.0017
 2645SOL    HW219569   4.442   4.264   2.760 -0.1371  0.2743 -1.2222
 2646SOL     OW19570   1.438   4.714   4.998 -0.0183  0.0311  0.2829
 2646SOL    HW119571   1.498   4.688   4.928  0.5049  0.2195  0.6643
 2646SOL    HW219572   1.398   4.632   5.026  1.3900 -0.3837  1.0937
 2647SOL     OW19573   2.882   4.441   4.754 -0.1154 -0.2501 -0.5236
 2647SOL    HW119574   2.798   4.425   4.797  0.4686 -4.5229 -1.0211
 2647SOL    HW219575   2.938   4.382   4.805 -0.0680  0.0049 -0.2774
 2648SOL     OW19576   3.665   0.210   6.353  0.1672 -0.1641  0.8412
 2648SOL    HW119577   3.709   0.294   6.339  0.7617 -0.4089  1.2781
 2648SOL    HW219578   3.585   0.244   6.313  0.7726  0.7063  0.3813
 2649SOL     OW19579   4.719   4.409  13.836 -0.1512 -0.3106 -0.0001
 2649SOL    HW119580   4.707   4.382  13.928 -1.0908  1.6902  0.4589
 2649SOL    HW219581   4.722   4.329  13.784  1.0375 -0.2923  0.0400
 2650SOL     OW19582   0.346   0.867   5.811  0.0158  0.1855 -0.3266
 2650SOL    HW119583   0.320   0.838   5.723  0.0064  2.1785 -0.9927
 2650SOL    HW219584   0.406   0.805   5.851  0.5782  0.1416 -1.2270
 2651SOL     OW19585   2.317   1.145   2.472  0.3174  0.1334 -0.5721
 2651SOL    HW119586   2.271   1.198   2.407  0.9623 -0.1993 -1.2938
 2651SOL    HW219587   2.374   1.208   2.517  0.2067 -0.4129  0.3341
 2652SOL     OW19588   1.881   1.124   6.699  0.6546 -0.1986 -0.1617
 2652SOL    HW119589   1.875   1.054   6.635  1.4212 -0.3836 -0.0265
 2652SOL    HW219590   1.874   1.078   6.783 -1.0614 -0.6657 -0.5715
 2653SOL     OW19591   2.070   2.331  13.629  0.4274 -0.1451 -0.6980
 2653SOL    HW119592   2.028   2.304  13.710  0.5802  0.3500 -0.4518
 2653SOL    HW219593   2.059   2.253  13.574 -1.9597  0.7556 -1.4893
 2654SOL     OW19594   1.336   2.016   5.092 -0.0319 -0.9044  0.7499
 2654SOL    HW119595   1.263   1.955   5.088 -0.2717 -0.6447  1.1854
 2654SOL    HW219596   1.403   1.954   5.065  0.0206 -1.0049  1.1126
 2655SOL     OW19597   3.171   0.958   8.961 -0.1715  0.6904  0.4466
 2655SOL    HW119598   3.233   0.897   9.001 -0.2666 -0.6654 -1.5083
 2655SOL    HW219599   3.219   0.993   8.887 -1.9314  0.2749 -0.8781
 2656SOL     OW19600   1.291   1.758  14.004 -0.2076  0.2265  0.0839
 2656SOL    HW119601   1.329   1.823  13.945 -2.0445  3.4826  2.5242
 2656SOL    HW219602   1.211   1.742  13.953 -0.2397 -0.1981  0.2625
 2657SOL     OW19603   2.048   3.505   6.351 -0.4049  0.5959  0.1830
 2657SOL    HW119604   1.975   3.449   6.323 -0.5911  0.8385  0.1871
 2657SOL    HW219605   2.057   3.469   6.439 -0.9180 -1.7110 -0.7099
 2658SOL     OW19606   3.902   1.552  15.130 -0.4016 -0.4818  0.2735
 2658SOL    HW119607   3.849   1.508  15.064 -0.1637 -2.4643  1.4005
 2658SOL    HW219608   3.938   1.622  15.075  0.7267 -0.6149  0.8284
 2659SOL     OW19609   2.015   0.139   4.486  0.6650 -0.7765 -0.1149
 2659SOL    HW119610   2.079   0.070   4.469  2.1759  0.4320  0.6677
 2659SOL    HW219611   1.992   0.127   4.578 -1.4325  0.5250 -0.4648
 2660SOL     OW19612   4.426   0.957  17.377  0.2953  1.0533  0.7394
 2660SOL    HW119613   4.410   0.883  17.436  0.6775  0.2111 -0.2104
 2660SOL    HW219614   4.380   0.932  17.297  0.1266 -0.2432  1.2254
 2661SOL     OW19615   3.172   0.413  10.089 -0.3796 -0.0917 -0.5438
 2661SOL    HW119616   3.137   0.383  10.173 -0.1954 -0.4223 -0.5859
 2661SOL    HW219617   3.180   0.329  10.044 -2.0259 -0.3696 -0.3095
 2662SOL     OW19618   0.637   2.638   2.602  0.0048 -0.6663  0.2402
 2662SOL    HW119619   0.639   2.583   2.524  0.2597  0.9745 -0.9059
 2662SOL    HW219620   0.702   2.708   2.594  1.3178 -1.9279 -0.0642
 2663SOL     OW19621   1.717   1.841   3.337  0.0256  0.0090  0.6115
 2663SOL    HW119622   1.755   1.756   3.313  0.9075  0.5654  0.0274
 2663SOL    HW219623   1.731   1.842   3.432 -1.7092 -0.2506  0.8672
 2664SOL     OW19624   0.073   2.371  12.867  0.1199  0.0775  0.0502
 2664SOL    HW119625   4.725   2.328  12.863  0.0179  0.1774  1.1090
 2664SOL    HW219626   0.047   2.435  12.933 -1.8224  0.6300 -1.2486
 2665SOL     OW19627   1.104   1.388   3.112  0.1252  0.1105  0.3090
 2665SOL    HW119628   1.099   1.440   3.032  1.3484  1.1668  0.9040
 2665SOL    HW219629   1.180   1.336   3.088  0.2751 -0.6026  2.3116
 2666SOL     OW19630   3.732   1.427   9.371 -0.0701 -0.5386 -0.0262
 2666SOL    HW119631   3.793   1.379   9.314  2.4557 -1.0139  3.1024
 2666SOL    HW219632   3.730   1.366   9.444 -3.8368 -0.4471 -0.0826
 2667SOL     OW19633   0.479   0.051   3.557  0.8856 -0.5168  0.1488
 2667SOL    HW119634   0.453   0.097   3.478  1.3121  0.0537  0.3435
 2667SOL    HW219635   0.409   4.723   3.566 -1.9872  2.6273  1.0548
 2668SOL     OW19636   3.251   4.081  16.976 -0.0758 -0.0065 -0.2286
 2668SOL    HW119637   3.267   4.173  16.954 -1.7546  0.3076 -0.1612
 2668SOL    HW219638   3.338   4.058  16.944  0.7702  3.0548 -0.1363
 2669SOL     OW19639   2.635   4.510   7.258 -0.4151  0.1953 -0.4002
 2669SOL    HW119640   2.623   4.546   7.171  0.7881  2.0173  0.1798
 2669SOL    HW219641   2.671   4.584   7.308 -0.6154  0.1411 -0.1765
 2670SOL     OW19642   1.119   1.386   1.638  0.4023  0.1965  0.1992
 2670SOL    HW119643   1.099   1.369   1.546  0.3097 -2.3992  0.6879
 2670SOL    HW219644   1.205   1.429   1.630  0.0408  0.9211  0.2417
 2671SOL     OW19645   4.074   0.638   1.958 -0.0428  0.5642  0.1130
 2671SOL    HW119646   4.124   0.706   1.913  2.5601 -0.6460  1.1572
 2671SOL    HW219647   4.092   0.558   1.908 -0.7409  0.7595 -0.4504
 2672SOL     OW19648   0.501   3.345   5.702  0.0939 -0.0598  0.2407
 2672SOL    HW119649   0.450   3.282   5.649 -0.4404  0.9431 -0.4400
 2672SOL    HW219650   0.586   3.305   5.687  2.1113  3.6773  2.0061
 2673SOL     OW19651   0.734   2.458   7.842  0.0399 -0.6970  0.5691
 2673SOL    HW119652   0.718   2.364   7.849 -0.5370 -0.6623 -0.3270
 2673SOL    HW219653   0.727   2.475   7.748  1.5741 -0.8273  0.4296
 2674SOL     OW19654   1.644   4.099   2.300 -0.4225  0.6834 -0.0180
 2674SOL    HW119655   1.581   4.126   2.367 -0.4680  1.7452 -0.4803
 2674SOL    HW219656   1.601   4.136   2.223 -0.5280 -1.2490 -0.8789
 2675SOL     OW19657   1.632   4.079   9.294  0.2608 -0.0650 -0.5945
 2675SOL    HW119658   1.598   4.133   9.222  2.5214  0.7262 -1.0841
 2675SOL    HW219659   1.663   4.004   9.243  1.5459  1.6001 -2.2658
 2676SOL     OW19660   1.717   1.047   1.297  0.9305  0.0233  0.4430
 2676SOL    HW119661   1.638   1.036   1.246  0.8846  0.5032  0.4048
 2676SOL    HW219662   1.707   0.981   1.366 -1.7486  1.0116  1.0098
 2677SOL     OW19663   3.074   4.645   3.122  0.6122  0.7369 -0.2880
 2677SOL    HW119664   3.140   4.642   3.053  1.0945 -0.3243  0.2116
 2677SOL    HW219665   3.114   4.568   3.163 -0.7899 -0.6701 -1.5969
 2678SOL     OW19666   1.156   0.223   7.385  0.0046 -0.6085  0.0253
 2678SOL    HW119667   1.122   0.139   7.354  2.4318 -1.1887 -1.1140
 2678SOL    HW219668   1.094   0.247   7.454  0.9536  0.0770  0.6330
 2679SOL     OW19669   0.801   0.914   0.985  0.6081 -0.2633  0.6654
 2679SOL    HW119670   0.862   0.841   0.995  0.7495 -0.2797 -0.2625
 2679SOL    HW219671   0.863   0.986   0.984 -1.1073  1.1972  1.2809
 2680SOL     OW19672   0.745   3.035  17.253  0.3668 -0.0781 -0.5161
 2680SOL    HW119673   0.680   3.081  17.201 -0.4886 -0.0569  0.5714
 2680SOL    HW219674   0.789   2.987  17.182 -2.2077 -1.6980 -1.0201
 2681SOL     OW19675   4.101   4.194   1.891  0.0103  0.0435  0.0068
 2681SOL    HW119676   4.185   4.170   1.930 -0.3651 -0.0959  0.7260
 2681SOL    HW219677   4.034   4.142   1.936 -0.3465 -0.1319 -0.7234
 2682SOL     OW19678   2.891   0.465   2.321  0.3910  0.7618 -0.4294
 2682SOL    HW119679   2.802   0.459   2.354  0.2364 -2.6801 -1.5252
 2682SOL    HW219680   2.886   0.414   2.241  1.6527  0.8304 -0.5520
 2683SOL     OW19681   4.325   3.693   2.770 -0.3345 -0.4709  0.0226
 2683SOL    HW119682   4.271   3.616   2.786  0.2185 -0.7764  0.4375
 2683SOL    HW219683   4.264   3.758   2.735 -1.1886 -2.7710 -2.7339
 2684SOL     OW19684   4.110   2.838   6.824  0.1560  0.0935 -0.0887
 2684SOL    HW119685   4.119   2.835   6.729  0.8209 -1.5775  0.0295
 2684SOL    HW219686   4.066   2.755   6.843  2.1493 -0.8849  0.2898
 2685SOL     OW19687   0.232   1.310   7.116 -0.0457 -0.1785 -0.0069
 2685SOL    HW119688   0.323   1.330   7.093  0.5206 -1.8230  0.7877
 2685SOL    HW219689   0.206   1.398   7.145 -0.5926 -0.8016  1.4072
 2686SOL     OW19690   0.265   2.518   6.370 -0.5615 -0.1692 -0.1827
 2686SOL    HW119691   0.217   2.581   6.423  2.1753  1.7393  0.0558
 2686SOL    HW219692   0.275   2.563   6.286 -0.2478  1.4246  0.7037
 2687SOL     OW19693   0.005   4.071   3.227  0.1816  0.2122  0.1177
 2687SOL    HW119694   0.018   4.033   3.314  1.9529  0.1128 -0.1905
 2687SOL    HW219695   0.078   4.132   3.230  0.2626  0.0914  0.6676
 2688SOL     OW19696   4.048   1.266   6.708 -0.0071 -0.6110 -0.1408
 2688SOL    HW119697   4.079   1.196   6.765  1.4417  0.2433  0.1238
 2688SOL    HW219698   4.004   1.323   6.771  1.2515 -0.7795  0.8937
 2689SOL     OW19699   2.435   0.804   6.565 -0.0744  0.6678 -0.4838
 2689SOL    HW119700   2.458   0.851   6.645 -0.0478  1.2488 -0.8283
 2689SOL    HW219701   2.341   0.818   6.571  0.3108  3.2827 -0.4240
 2690SOL     OW19702   4.341   0.240  17.312  0.2009  0.4059  0.2481
 2690SOL    HW119703   4.302   0.252  17.399 -1.7569 -2.4784 -0.2301
 2690SOL    HW219704   4.366   0.147  17.318 -2.0168 -0.1061  1.4281
 2691SOL     OW19705   3.363   3.296   8.512 -0.3874  0.0424 -0.2998
 2691SOL    HW119706   3.309   3.299   8.591  0.6745  2.6299  0.3133
 2691SOL    HW219707   3.341   3.205   8.489 -3.8372  0.3519  1.6902
 2692SOL     OW19708   1.464   2.129   1.967 -0.1156  0.6135  0.3891
 2692SOL    HW119709   1.409   2.123   2.046 -0.3393 -1.5794  0.0708
 2692SOL    HW219710   1.462   2.035   1.948 -1.0174  0.7432 -0.1213
 2693SOL     OW19711   2.050   1.915   3.402  0.9395  0.3303  0.1762
 2693SOL    HW119712   2.125   1.942   3.456 -0.4601  1.5375  1.4989
 2693SOL    HW219713   1.975   1.926   3.460 -0.7594 -1.5252 -1.6442
 2694SOL     OW19714   1.459   2.247   5.143 -0.0671 -0.4243  0.4782
 2694SOL    HW119715   1.424   2.160   5.124 -2.5665  0.6444  0.0807
 2694SOL    HW219716   1.508   2.262   5.062  0.2172 -0.0634  0.7169
 2695SOL     OW19717   2.807   1.431   7.213 -0.0326  0.3076 -0.9315
 2695SOL    HW119718   2.871   1.433   7.142  0.4739 -0.2526 -0.4949
 2695SOL    HW219719   2.781   1.523   7.216 -0.3080  0.1641  0.8151
 2696SOL     OW19720   1.712   2.896   2.860  0.3026  0.9365 -0.4155
 2696SOL    HW119721   1.775   2.826   2.879  0.2161  1.4225  1.6869
 2696SOL    HW219722   1.763   2.954   2.803  1.6656 -0.4934 -0.6395
 2697SOL     OW19723   0.958   0.080   5.216  0.7237 -0.0300  0.1561
 2697SOL    HW119724   0.915   0.118   5.139  0.1742 -0.5640  0.2050
 2697SOL    HW219725   0.885   0.032   5.254  0.0733  0.9675  0.1462
 2698SOL     OW19726   1.165   1.267  12.295 -0.6556  0.3777 -0.3285
 2698SOL    HW119727   1.115   1.193  12.260 -1.0786 -0.6900  2.5295
 2698SOL    HW219728   1.156   1.340  12.233  0.7154 -1.9040 -3.2047
 2699SOL     OW19729   2.172   1.680  13.645 -0.2749  0.1642  0.0929
 2699SOL    HW119730   2.251   1.628  13.652 -0.9613 -1.1705 -1.8774
 2699SOL    HW219731   2.170   1.733  13.725  0.5553 -2.0079  1.5522
 2700SOL     OW19732   4.356   2.319   5.993  0.1450 -0.5142  0.0787
 2700SOL    HW119733   4.286   2.258   6.015  0.0933 -0.2705  0.5822
 2700SOL    HW219734   4.432   2.261   5.997  0.2926 -0.5028 -2.3574
 2701SOL     OW19735   3.353   4.027   9.461  0.1539 -0.0364 -0.0830
 2701SOL    HW119736   3.403   3.957   9.419  0.0488  0.8989 -1.7600
 2701SOL    HW219737   3.269   4.018   9.416  0.3731  1.8564 -0.8633
 2702SOL     OW19738   4.228   4.623   1.075 -0.1808 -0.1247  0.0348
 2702SOL    HW119739   4.245   4.535   1.040 -1.5743 -0.4882  0.2640
 2702SOL    HW219740   4.167   4.650   1.006  0.7042  1.5617 -0.0827
 2703SOL     OW19741   1.538   4.173   3.576 -0.4703  0.9948 -0.0625
 2703SOL    HW119742   1.483   4.169   3.655  0.8303 -3.1779  0.6244
 2703SOL    HW219743   1.473   4.181   3.506 -1.7365 -1.3451  0.8343
 2704SOL     OW19744   2.944   4.490   7.858 -0.6341 -0.3526  0.4790
 2704SOL    HW119745   2.953   4.396   7.841 -2.5811 -0.4946  0.2800
 2704SOL    HW219746   2.940   4.476   7.953  0.2571  0.8257  0.6892
 2705SOL     OW19747   2.005   0.888   9.053 -0.4579 -0.1175  0.5832
 2705SOL    HW119748   2.040   0.870   8.966  0.4960 -0.6535  1.0776
 2705SOL    HW219749   1.913   0.864   9.041 -0.3018 -0.7686  0.7048
 2706SOL     OW19750   3.124   1.764   5.125 -0.5038 -0.6993  0.3415
 2706SOL    HW119751   3.196   1.778   5.064  0.2422  0.7076  1.5434
 2706SOL    HW219752   3.175   1.771   5.206  1.4337  0.4340 -0.9643
 2707SOL     OW19753   1.905   3.730  14.855 -0.8653  0.2015 -0.5770
 2707SOL    HW119754   1.999   3.750  14.849 -0.8640  0.1064 -0.9010
 2707SOL    HW219755   1.870   3.818  14.860 -2.4927 -0.3490 -2.0247
 2708SOL     OW19756   2.648   4.003  13.178  0.1479  0.2010 -0.8807
 2708SOL    HW119757   2.594   4.059  13.233 -0.7568 -1.1595 -0.3793
 2708SOL    HW219758   2.735   4.005  13.217  0.8001  2.6269 -2.4186
 2709SOL     OW19759   0.973   1.279   6.882 -0.2970 -0.4782  0.3654
 2709SOL    HW119760   0.947   1.192   6.912  2.0381 -1.1054  0.5508
 2709SOL    HW219761   0.919   1.278   6.803  1.9785  1.9754 -1.2158
 2710SOL     OW19762   0.690   4.288   2.908  0.3485 -0.1444  0.4523
 2710SOL    HW119763   0.624   4.289   2.976 -1.7077  0.2259 -1.5564
 2710SOL    HW219764   0.751   4.355   2.940 -0.3458 -0.1942  1.8547
 2711SOL     OW19765   2.903   3.517  16.417  0.0159  0.0287 -0.1996
 2711SOL    HW119766   2.845   3.554  16.485 -0.1260  0.1340 -0.3787
 2711SOL    HW219767   2.936   3.445  16.471  0.1812 -2.2968 -3.4593
 2712SOL     OW19768   0.598   3.607   7.542  0.4201  0.1265  0.5067
 2712SOL    HW119769   0.505   3.621   7.561  0.3694  0.6344 -0.1172
 2712SOL    HW219770   0.601   3.529   7.486 -1.2961 -0.2847  0.9601
 2713SOL     OW19771   4.453   0.570  16.829 -0.3596  0.0293 -0.0314
 2713SOL    HW119772   4.392   0.620  16.882 -0.5937 -0.4468  0.1527
 2713SOL    HW219773   4.529   0.565  16.887  0.2741 -0.8426 -0.9157
 2714SOL     OW19774   0.523   2.065   4.952 -0.5329  0.0927  0.9894
 2714SOL    HW119775   0.616   2.052   4.934 -0.6367  1.7156 -0.7510
 2714SOL    HW219776   0.497   2.104   4.869  0.7706 -0.5534  0.2911
 2715SOL     OW19777   0.469   0.067   5.521 -0.1738 -0.3639  0.4030
 2715SOL    HW119778   0.559   0.035   5.527  1.1514  3.3064 -0.3536
 2715SOL    HW219779   0.442   0.037   5.434  2.6107 -0.5989 -0.3670
 2716SOL     OW19780   0.052   1.401   4.354  0.4868  0.2298 -0.0119
 2716SOL    HW119781   4.730   1.475   4.347 -0.0101  0.0215  1.9691
 2716SOL    HW219782   4.730   1.328   4.340  0.9201  0.0365 -0.8206
 2717SOL     OW19783   0.771   0.358   4.047  0.0585  0.1322 -0.0900
 2717SOL    HW119784   0.694   0.332   3.996 -0.2903 -0.1569  0.5770
 2717SOL    HW219785   0.764   0.454   4.052 -1.7541 -0.0668  1.3689
 2718SOL     OW19786   1.998   1.612  12.223 -0.2551  0.4739  0.2666
 2718SOL    HW119787   2.081   1.659  12.220 -0.8009  1.5267  2.4780
 2718SOL    HW219788   1.998   1.618  12.318  1.2352 -4.0744  0.5928
 2719SOL     OW19789   0.272   1.863   6.740  0.9581  0.0079  0.5344
 2719SOL    HW119790   0.214   1.918   6.793  1.2115 -1.3180  2.1673
 2719SOL    HW219791   0.320   1.814   6.807 -0.0388 -1.8263 -0.1188
 2720SOL     OW19792   2.668   3.898   2.210 -0.1963  0.1278 -0.2233
 2720SOL    HW119793   2.652   3.820   2.158 -2.2425  1.5839 -1.7803
 2720SOL    HW219794   2.598   3.952   2.172  0.5439  2.1827  1.2975
 2721SOL     OW19795   4.709   1.396   8.716  0.7267 -0.4018  0.7498
 2721SOL    HW119796   4.725   1.446   8.636 -0.5234  0.5993  1.1140
 2721SOL    HW219797   4.725   1.466   8.780 -0.9230  0.0416  0.6882
 2722SOL     OW19798   4.115   0.115   8.201 -0.0175  0.0916 -0.1861
 2722SOL    HW119799   4.149   0.094   8.288  0.3438 -2.7303 -1.0071
 2722SOL    HW219800   4.098   0.032   8.156 -2.6598  0.8204 -0.5442
 2723SOL     OW19801   1.815   1.395   5.794  0.1861 -0.4784 -0.6178
 2723SOL    HW119802   1.760   1.440   5.859 -0.5073  1.7754 -2.7328
 2723SOL    HW219803   1.771   1.311   5.783 -1.8307  0.3510  0.9976
 2724SOL     OW19804   3.590   0.672   7.730  0.3961  0.9759  0.4856
 2724SOL    HW119805   3.585   0.586   7.689  3.7108  0.6133  0.8645
 2724SOL    HW219806   3.636   0.639   7.807 -0.5245  0.0927  0.6578
 2725SOL     OW19807   4.592   2.412  10.799  0.6588 -0.0958  0.5345
 2725SOL    HW119808   4.510   2.454  10.773  0.8049  1.5394  2.7022
 2725SOL    HW219809   4.635   2.480  10.850  1.0925 -1.5385  2.1271
 2726SOL     OW19810   2.439   1.597   0.028  0.0555 -0.1303  0.1733
 2726SOL    HW119811   2.525   1.637   0.018 -0.0227  0.1133  0.4974
 2726SOL    HW219812   2.473   1.508   0.035 -3.6020 -1.5485  0.0273
 2727SOL     OW19813   4.108   2.966   5.461  0.3577  0.4504 -0.8445
 2727SOL    HW119814   4.074   2.902   5.524 -0.3869  0.5083 -1.1904
 2727SOL    HW219815   4.202   2.964   5.480  0.1548  4.0537  0.5521
 2728SOL     OW19816   1.531   2.241  17.203 -0.1147  0.4250  0.4973
 2728SOL    HW119817   1.559   2.332  17.194 -1.4522  0.9724  2.0072
 2728SOL    HW219818   1.517   2.226  17.109 -3.2011  0.8249  0.9016
 2729SOL     OW19819   0.324   2.410   3.400 -0.1700 -0.2893  0.2830
 2729SOL    HW119820   0.401   2.417   3.343  0.1376  1.3557  0.8755
 2729SOL    HW219821   0.336   2.327   3.446 -1.2385 -1.0779 -0.8839
 2730SOL     OW19822   4.589   3.934   2.536  0.0808 -0.0877  0.5989
 2730SOL    HW119823   4.568   3.865   2.599  1.4935 -2.3430 -1.3718
 2730SOL    HW219824   4.682   3.911   2.537 -0.4208 -2.1491  0.0906
 2731SOL     OW19825   0.362   3.416  12.076 -0.2272  0.4452  0.5884
 2731SOL    HW119826   0.455   3.400  12.090  0.1069 -0.2970 -2.4550
 2731SOL    HW219827   0.357   3.510  12.056 -0.3078  0.5013  0.8808
 2732SOL     OW19828   0.016   3.734   3.776 -0.4520 -0.2156  0.0495
 2732SOL    HW119829   0.054   3.714   3.862 -1.2266  1.8122  0.8583
 2732SOL    HW219830   4.685   3.668   3.778  0.8086 -1.4921  1.1697
 2733SOL     OW19831   1.356   1.266  13.533 -0.2502 -0.2998 -0.2481
 2733SOL    HW119832   1.437   1.256  13.583 -1.5215 -0.4039  1.7924
 2733SOL    HW219833   1.324   1.350  13.566 -1.3783 -1.0208  0.5150
 2734SOL     OW19834   0.410   3.697   2.160 -0.0975  0.2517  0.1173
 2734SOL    HW119835   0.440   3.785   2.138  1.3588 -0.5792 -1.1770
 2734SOL    HW219836   0.316   3.716   2.160 -0.5321 -1.9128 -0.9107
 2735SOL     OW19837   0.092   0.607  15.215  0.3783  0.6633  0.4434
 2735SOL    HW119838   0.168   0.604  15.157  1.7605  0.1312  2.2796
 2735SOL    HW219839   0.126   0.591  15.303  0.9304 -1.1319 -0.0932
 2736SOL     OW19840   3.966   2.654   4.827  0.3722 -0.3320 -0.5704
 2736SOL    HW119841   4.051   2.620   4.797  0.0191 -1.7028 -0.0217
 2736SOL    HW219842   3.984   2.706   4.905 -0.4332 -0.9551  0.0256
 2737SOL     OW19843   4.508   3.256   8.718 -0.0995  0.0027  0.4807
 2737SOL    HW119844   4.597   3.227   8.697 -0.5562 -1.1788  0.1628
 2737SOL    HW219845   4.511   3.282   8.810  0.5729  0.0199  0.4561
 2738SOL     OW19846   0.160   1.074  14.652 -0.0061 -0.5128  0.7113
 2738SOL    HW119847   0.165   1.170  14.642 -1.8594 -0.4847  0.1533
 2738SOL    HW219848   0.231   1.045  14.595 -0.8119 -1.6666  0.3035
 2739SOL     OW19849   2.083   3.927   3.812 -0.2017 -0.0445  0.2840
 2739SOL    HW119850   2.134   3.954   3.888 -0.2693 -0.2813  0.4149
 2739SOL    HW219851   2.121   3.991   3.752  0.3516  1.4367  2.2364
 2740SOL     OW19852   0.803   3.002  11.794  0.6198 -0.8698  0.5297
 2740SOL    HW119853   0.732   3.000  11.857 -0.8491 -1.7376 -1.1546
 2740SOL    HW219854   0.779   3.077  11.740  0.0103 -2.5435 -1.5132
 2741SOL     OW19855   2.514   0.142   4.713 -0.8754 -0.3763  0.2166
 2741SOL    HW119856   2.529   0.108   4.625 -3.2365  0.4657 -0.5037
 2741SOL    HW219857   2.444   0.203   4.690 -1.4483 -1.3820 -0.6339
 2742SOL     OW19858   1.288   2.484   5.607 -0.0861 -0.1158 -0.4366
 2742SOL    HW119859   1.282   2.571   5.567  2.6429  0.1616 -0.2424
 2742SOL    HW219860   1.277   2.428   5.531  1.3830  1.2316 -1.6346
 2743SOL     OW19861   3.864   1.781   9.218 -0.4435  0.1352  0.3598
 2743SOL    HW119862   3.944   1.793   9.166  0.8541 -0.9302  2.1277
 2743SOL    HW219863   3.824   1.707   9.173  1.7702 -2.0061  1.9499
 2744SOL     OW19864   2.681   3.701   2.984 -0.3261 -0.2802  0.5351
 2744SOL    HW119865   2.746   3.635   3.006 -0.7895 -0.1303  2.3501
 2744SOL    HW219866   2.655   3.736   3.070 -1.3587  3.9766 -1.5122
 2745SOL     OW19867   2.734   2.374   9.188  0.1989  0.0588  0.0763
 2745SOL    HW119868   2.757   2.322   9.265 -0.4892 -0.2923  0.0412
 2745SOL    HW219869   2.691   2.454   9.220 -1.0636 -1.7823  2.9373
 2746SOL     OW19870   3.789   3.706   6.214 -0.4294  0.6480 -0.3807
 2746SOL    HW119871   3.876   3.735   6.186  0.3300  1.8116  3.1157
 2746SOL    HW219872   3.812   3.630   6.267  2.5971  1.2574 -0.7823
 2747SOL     OW19873   2.560   1.598   9.225 -0.5905 -0.1903 -0.2715
 2747SOL    HW119874   2.585   1.684   9.193 -2.6326 -0.3061 -2.1854
 2747SOL    HW219875   2.473   1.586   9.187 -0.0758 -1.9925 -0.8911
 2748SOL     OW19876   3.140   3.919   5.155  0.3593  0.2510 -0.1083
 2748SOL    HW119877   3.191   3.973   5.216  0.3292  0.7735 -0.5464
 2748SOL    HW219878   3.051   3.950   5.175 -0.1385 -1.0174 -0.3628
 2749SOL     OW19879   3.752   4.532   4.214  0.3852 -0.5667  0.1089
 2749SOL    HW119880   3.676   4.477   4.236  0.0952 -0.8189 -1.5473
 2749SOL    HW219881   3.779   4.572   4.297 -0.2361 -0.4348  0.2545
 2750SOL     OW19882   3.222   2.042   6.540 -0.1138  0.1014  0.7977
 2750SOL    HW119883   3.299   2.000   6.579 -0.9882  0.5862  3.0392
 2750SOL    HW219884   3.178   1.972   6.493  2.7459 -2.8517  2.5339
 2751SOL     OW19885   2.898   4.000   8.526  0.1483 -0.7625  0.3649
 2751SOL    HW119886   2.973   3.976   8.580  2.2186 -0.0291 -2.2028
 2751SOL    HW219887   2.842   3.924   8.509  0.0435 -0.7022  0.4367
 2752SOL     OW19888   2.403   0.111  16.803 -0.6052  0.1463  0.6174
 2752SOL    HW119889   2.356   0.184  16.762  1.3198  0.9434 -0.1686
 2752SOL    HW219890   2.413   0.053  16.728  1.8335  1.1494  0.1652
 2753SOL     OW19891   3.041   0.720  14.074 -0.0799 -0.4577  0.2042
 2753SOL    HW119892   3.063   0.790  14.136 -1.0623 -0.9177  1.0640
 2753SOL    HW219893   3.092   0.751  13.999  2.0204  1.1860  2.3343
 2754SOL     OW19894   4.168   2.611   9.330  0.0713  0.1179 -0.0306
 2754SOL    HW119895   4.249   2.653   9.357  1.9850 -2.2187 -2.1095
 2754SOL    HW219896   4.116   2.606   9.410  1.2450 -0.4067  0.6906
 2755SOL     OW19897   2.199   4.688   4.502 -0.3493 -0.0094  0.0146
 2755SOL    HW119898   2.246   4.630   4.442 -1.1229  0.4422 -1.0278
 2755SOL    HW219899   2.150   4.621   4.550 -0.9047  0.0466 -0.4773
 2756SOL     OW19900   3.300   3.902  16.708  0.4515 -0.0781 -0.1997
 2756SOL    HW119901   3.254   3.844  16.768  1.6413  1.1516  1.9219
 2756SOL    HW219902   3.347   3.846  16.646  0.4180 -0.8233  0.4486
 2757SOL     OW19903   4.626   4.378  12.421  0.0624 -0.2784  0.6567
 2757SOL    HW119904   4.602   4.293  12.384 -1.4379 -1.1747  3.6722
 2757SOL    HW219905   4.681   4.346  12.492  0.9152 -0.4168 -0.0762
 2758SOL     OW19906   4.169   1.963   2.900  0.2983 -0.7524 -0.1601
 2758SOL    HW119907   4.150   1.945   2.807  2.1077  2.1508 -1.0781
 2758SOL    HW219908   4.096   2.020   2.925  0.3280 -1.7330  2.1460
 2759SOL     OW19909   2.925   4.224  13.141  0.4415 -0.5574 -0.4101
 2759SOL    HW119910   2.909   4.158  13.073 -2.8979 -0.3465  0.1978
 2759SOL    HW219911   2.941   4.165  13.214 -1.1266  1.7117  1.7318
 2760SOL     OW19912   4.241   1.965   8.743 -0.3873  0.5590 -0.6523
 2760SOL    HW119913   4.315   2.018   8.772 -1.2835  1.4336  0.0484
 2760SOL    HW219914   4.242   1.968   8.647  0.3776 -2.4647 -0.7389
 2761SOL     OW19915   1.055   2.873   2.573 -0.3133 -0.0210 -0.0304
 2761SOL    HW119916   1.054   2.961   2.612  1.1833  1.1680 -2.6570
 2761SOL    HW219917   1.122   2.837   2.632  1.6277  1.2382 -1.4396
 2762SOL     OW19918   3.843   2.436  12.041  0.2886  0.4726 -0.9592
 2762SOL    HW119919   3.921   2.385  12.019  0.2397  0.5354 -1.2791
 2762SOL    HW219920   3.874   2.511  12.091 -2.2633  2.3951 -2.2689
 2763SOL     OW19921   3.600   3.731   4.149 -0.1112  0.4388  0.5611
 2763SOL    HW119922   3.629   3.821   4.134  2.7820 -0.5115  0.5279
 2763SOL    HW219923   3.633   3.692   4.068  1.2576  0.3956  1.1478
 2764SOL     OW19924   2.867   0.814   8.086  0.0612 -0.0902 -0.4627
 2764SOL    HW119925   2.880   0.728   8.126  1.2584  1.0231  1.5092
 2764SOL    HW219926   2.817   0.867   8.147  0.0630 -1.2928  0.5760
 2765SOL     OW19927   2.533   2.820  16.239 -0.2496 -0.1694 -0.1162
 2765SOL    HW119928   2.584   2.854  16.165  0.8361 -0.3636  0.5521
 2765SOL    HW219929   2.598   2.813  16.308 -1.3916 -0.2945  0.9345
 2766SOL     OW19930   0.541   1.830   8.291 -0.4214  0.5910 -0.3699
 2766SOL    HW119931   0.630   1.814   8.260 -0.4236  2.3033 -1.2371
 2766SOL    HW219932   0.551   1.923   8.272  0.0720  0.5121 -0.5144
 2767SOL     OW19933   2.340   4.165  11.237 -0.6198  0.1313 -0.2350
 2767SOL    HW119934   2.384   4.245  11.206  1.5282 -1.0430 -0.2139
 2767SOL    HW219935   2.382   4.150  11.321  0.8965  2.3562 -0.6021
 2768SOL     OW19936   1.388   4.036   3.352  0.2510  0.4721  0.8723
 2768SOL    HW119937   1.470   3.993   3.325  1.1011  0.6040  3.2403
 2768SOL    HW219938   1.381   4.115   3.298  2.0225  0.5955  0.8137
 2769SOL     OW19939   0.318   1.730   7.122 -0.4177  0.6976 -0.6048
 2769SOL    HW119940   0.243   1.678   7.151  0.5769 -1.7193 -2.3883
 2769SOL    HW219941   0.300   1.815   7.163 -0.0599 -1.0513  3.1472
 2770SOL     OW19942   0.768   4.728   3.913  0.3648  0.2311 -0.3231
 2770SOL    HW119943   0.728   0.076   3.901 -0.4062 -0.2595 -1.3120
 2770SOL    HW219944   0.751   4.687   3.828  3.3580  2.4946 -2.0407
 2771SOL     OW19945   1.996   1.138   4.767  0.4353  0.1351 -0.6933
 2771SOL    HW119946   1.966   1.185   4.689 -1.9049 -1.2231 -0.5892
 2771SOL    HW219947   2.032   1.213   4.816 -1.3167 -0.0245  0.8468
 2772SOL     OW19948   2.037   2.423   8.495  0.0896 -0.1312 -0.2549
 2772SOL    HW119949   1.966   2.359   8.487 -1.0672  0.9689  1.1941
 2772SOL    HW219950   2.007   2.482   8.564 -0.5575 -1.1241  0.3195
 2773SOL     OW19951   4.522   1.202   7.894 -0.0700  0.0990  0.5429
 2773SOL    HW119952   4.537   1.297   7.894  1.6654 -0.1836 -0.8926
 2773SOL    HW219953   4.614   1.177   7.888 -0.8418 -1.9347 -2.7047
 2774SOL     OW19954   0.043   1.191   5.926 -0.6617 -0.0295  0.1673
 2774SOL    HW119955   4.686   1.198   5.936 -0.8776 -0.9543 -1.1988
 2774SOL    HW219956   0.046   1.125   5.857  2.1373  0.3116 -0.0215
 2775SOL     OW19957   2.461   1.024   7.351 -0.1601  0.3913  0.0182
 2775SOL    HW119958   2.467   1.104   7.300  1.8278  1.1509  1.4085
 2775SOL    HW219959   2.489   1.052   7.438 -2.7373 -2.0453  1.6284
 2776SOL     OW19960   0.380   3.358   2.688 -0.2598 -0.3267 -0.3169
 2776SOL    HW119961   0.357   3.321   2.603  2.0910  1.3041 -1.6559
 2776SOL    HW219962   0.433   3.284   2.717 -0.6441 -0.3451  0.3283
 2777SOL     OW19963   4.657   2.972   5.984  0.1003 -0.3942 -0.0313
 2777SOL    HW119964   4.585   3.019   6.026  0.3130 -1.0952  1.1105
 2777SOL    HW219965   4.612   2.890   5.963 -0.1037 -0.1121 -0.6792
 2778SOL     OW19966   3.685   2.431   7.678  0.5051 -0.3662 -0.3609
 2778SOL    HW119967   3.728   2.466   7.756 -1.2090  2.8639 -0.8554
 2778SOL    HW219968   3.672   2.504   7.618 -1.3343  1.0401  1.7517
 2779SOL     OW19969   1.193   1.679   7.843  0.0535  0.0761 -0.3071
 2779SOL    HW119970   1.149   1.596   7.825 -0.5263  0.3679 -0.2368
 2779SOL    HW219971   1.231   1.697   7.757 -3.1406  0.8953 -1.5674
 2780SOL     OW19972   3.747   3.333   6.258 -0.6271  0.6253 -0.2883
 2780SOL    HW119973   3.739   3.377   6.174 -0.9491  2.0442  0.4981
 2780SOL    HW219974   3.773   3.243   6.238  0.7505  1.2040 -1.0854
 2781SOL     OW19975   2.800   1.135   7.317 -0.5786  0.4526 -0.0855
 2781SOL    HW119976   2.829   1.215   7.273  1.0937 -0.1733 -0.1236
 2781SOL    HW219977   2.706   1.151   7.309 -0.8192 -1.5673 -1.5002
 2782SOL     OW19978   0.411   3.148  17.293  0.1679  0.1010 -0.2360
 2782SOL    HW119979   0.359   3.180  17.367  0.2426 -0.9767  0.2789
 2782SOL    HW219980   0.432   3.064  17.333  0.9981  0.2370 -0.3930
 2783SOL     OW19981   3.846   3.820   6.644  0.2422  0.1241  0.3780
 2783SOL    HW119982   3.878   3.804   6.733  1.1205  1.6272  0.3386
 2783SOL    HW219983   3.882   3.906   6.622  3.0019 -1.1199  0.0837
 2784SOL     OW19984   4.156   1.332   7.576  0.0609 -0.1139 -0.2946
 2784SOL    HW119985   4.187   1.297   7.660 -1.0675 -1.6047 -0.4848
 2784SOL    HW219986   4.243   1.358   7.546  0.5067 -0.9240  0.2711
 2785SOL     OW19987   4.205   0.921  17.212 -0.0379  0.2682 -0.5645
 2785SOL    HW119988   4.228   0.957  17.126 -2.3617  0.6122 -1.0402
 2785SOL    HW219989   4.125   0.972  17.222 -1.2473 -1.8402  0.5065
 2786SOL     OW19990   1.458   0.636   6.988 -0.5503  0.3567  0.6996
 2786SOL    HW119991   1.471   0.598   6.901  1.2737  0.3537  0.9643
 2786SOL    HW219992   1.551   0.642   7.012 -0.7518 -0.1863  1.6118
 2787SOL     OW19993   3.982   1.605   4.588  0.2818 -0.5104 -0.3526
 2787SOL    HW119994   4.014   1.590   4.499 -0.3872 -1.2099 -0.4685
 2787SOL    HW219995   3.966   1.515   4.617  0.5899  0.2272  2.0676
 2788SOL     OW19996   1.764   1.000   4.060  0.8257 -0.3212  0.0512
 2788SOL    HW119997   1.756   0.956   4.144 -4.0834  1.2883  0.4488
 2788SOL    HW219998   1.674   1.029   4.042  0.0760 -3.2211 -0.8371
 2789SOL     OW19999   4.287   0.433   0.631  0.0433  0.4425  0.7977
 2789SOL    HW120000   4.258   0.417   0.721  0.1385 -2.2258  0.3579
 2789SOL    HW220001   4.311   0.343   0.612  2.2442  1.6527 -2.1040
 2790SOL     OW20002   4.016   4.394   8.194  0.5127 -0.2967 -0.2431
 2790SOL    HW120003   3.971   4.370   8.275  2.3515  0.8596  1.1343
 2790SOL    HW220004   3.965   4.345   8.130 -0.2980 -0.0661  0.2351
 2791SOL     OW20005   4.393   0.739  13.783 -0.2505  0.2581 -0.5731
 2791SOL    HW120006   4.437   0.816  13.748 -0.7722 -1.4131 -4.8437
 2791SOL    HW220007   4.325   0.778  13.838 -0.0729 -0.4165  0.1340
 2792SOL     OW20008   0.147   3.373  16.315  0.4317 -0.1259 -0.9510
 2792SOL    HW120009   0.064   3.420  16.306  0.4817  0.4892  1.7753
 2792SOL    HW220010   0.181   3.370  16.225  0.1650 -1.0189 -1.0198
 2793SOL     OW20011   3.109   0.426   6.177  0.3578 -0.2511  1.1408
 2793SOL    HW120012   3.125   0.441   6.083  0.3046 -0.9637  1.0213
 2793SOL    HW220013   3.072   0.338   6.165  3.8368 -1.4345 -0.9556
 2794SOL     OW20014   2.905   0.043  14.498  0.5207 -0.3055 -0.1474
 2794SOL    HW120015   2.912   4.708  14.435  1.5844 -0.4988  0.2029
 2794SOL    HW220016   2.840   0.019  14.564 -0.4233 -0.3581 -1.0798
 2795SOL     OW20017   3.465   3.066   5.668 -0.1706 -0.1851  0.2260
 2795SOL    HW120018   3.472   2.983   5.716  0.5027  0.3038  0.9823
 2795SOL    HW220019   3.549   3.075   5.623 -0.6297  0.3483 -0.5048
 2796SOL     OW20020   0.096   0.669  16.333  0.3051  0.1464  0.0391
 2796SOL    HW120021   0.020   0.697  16.282  0.0709 -0.4685  0.0526
 2796SOL    HW220022   0.149   0.609  16.281  0.1927  1.1689 -1.2495
 2797SOL     OW20023   1.926   0.893  13.155  0.0038  0.3109 -0.3352
 2797SOL    HW120024   2.019   0.874  13.147  0.4604  1.9042  1.2213
 2797SOL    HW220025   1.909   0.913  13.247  0.9569 -0.3016 -0.0225
 2798SOL     OW20026   0.569   2.389   1.239  0.0301  0.8204 -0.0410
 2798SOL    HW120027   0.539   2.302   1.213 -0.0258  0.1001  2.3861
 2798SOL    HW220028   0.555   2.397   1.334  0.4256 -2.1929  0.2695
 2799SOL     OW20029   3.591   0.605   9.087 -0.3214  0.0998 -0.1271
 2799SOL    HW120030   3.497   0.617   9.100  0.0889  0.0980  2.8960
 2799SOL    HW220031   3.615   0.629   9.177  0.1697 -2.0844  0.3404
 2800SOL     OW20032   2.690   0.078  12.881  0.4818  0.1976 -0.1590
 2800SOL    HW120033   2.613   0.120  12.918  2.0243  0.3597  2.9055
 2800SOL    HW220034   2.700   0.138  12.807 -1.5600  0.3520 -0.3096
 2801SOL     OW20035   1.319   3.500   5.710 -0.1225 -0.4174 -0.4149
 2801SOL    HW120036   1.260   3.425   5.714  0.4835 -0.8974 -0.4455
 2801SOL    HW220037   1.401   3.462   5.680  0.0782 -0.5785  0.3174
 2802SOL     OW20038   4.452   0.233   9.985  0.1406 -0.4795 -0.3948
 2802SOL    HW120039   4.364   0.205   9.959 -0.2343  0.3783 -0.0669
 2802SOL    HW220040   4.448   0.244  10.080  1.6055  1.2276 -0.5339
 2803SOL     OW20041   3.533   3.996  16.943 -0.1037  0.4164  0.6255
 2803SOL    HW120042   3.549   3.906  16.972 -0.1128  0.9132  2.1563
 2803SOL    HW220043   3.610   4.042  16.976 -0.9571  0.8802  1.9565
 2804SOL     OW20044   2.522   1.587   6.312 -0.1473 -0.1691  0.3185
 2804SOL    HW120045   2.443   1.636   6.337 -1.5161 -1.1253 -2.2183
 2804SOL    HW220046   2.478   1.504   6.296  0.2078  0.0596 -1.7633
 2805SOL     OW20047   4.401   0.191   6.066  0.4482 -0.4560 -0.4214
 2805SOL    HW120048   4.375   0.269   6.116 -1.1553 -0.6083 -1.0274
 2805SOL    HW220049   4.314   0.181   6.028 -0.2593  1.5189  0.6707
 2806SOL     OW20050   2.908   2.686   2.683 -0.1085 -0.3053 -0.4360
 2806SOL    HW120051   2.940   2.759   2.735  0.8129 -1.5912  0.8188
 2806SOL    HW220052   2.906   2.611   2.742  1.6226  0.3874  0.4862
 2807SOL     OW20053   0.478   0.175   6.845 -0.2029  0.5368  0.3868
 2807SOL    HW120054   0.444   0.088   6.824 -1.9885  0.9166  1.7365
 2807SOL    HW220055   0.501   0.221   6.765  0.0458 -0.7161 -0.2610
 2808SOL     OW20056   2.282   0.936   5.397  0.1358 -0.3357  0.9018
 2808SOL    HW120057   2.195   0.897   5.387  0.2207 -0.5256  0.8991
 2808SOL    HW220058   2.291   0.944   5.492  2.4490 -3.1162  0.9318
 2809SOL     OW20059   4.586   3.062   1.958 -0.2927  0.7809  0.0248
 2809SOL    HW120060   4.659   3.090   2.013 -0.6653  1.2229  0.2913
 2809SOL    HW220061   4.534   3.142   1.963  1.3298  1.9896 -1.8912
 2810SOL     OW20062   2.962   3.289   6.045  0.2353  0.8560  0.7244
 2810SOL    HW120063   3.016   3.286   6.123 -0.1897  0.1249  1.0004
 2810SOL    HW220064   3.023   3.275   5.973 -0.1133 -0.3729  0.6653
 2811SOL     OW20065   0.543   3.257   4.755 -0.4152 -0.0357 -0.4449
 2811SOL    HW120066   0.521   3.277   4.664 -3.5967  0.5976  0.4654
 2811SOL    HW220067   0.617   3.313   4.777  0.5251 -1.6538  0.5461
 2812SOL     OW20068   1.925   0.976   9.308 -0.7551  0.1052 -0.2164
 2812SOL    HW120069   1.972   0.989   9.226  0.5259 -0.5489  0.4166
 2812SOL    HW220070   1.983   1.023   9.369  2.1377 -0.8703 -2.2386
 2813SOL     OW20071   0.013   0.149   1.845  0.2564  0.1797  0.4813
 2813SOL    HW120072   0.044   0.059   1.844 -1.8888 -0.5191 -1.3515
 2813SOL    HW220073   4.664   0.142   1.807  1.4983 -0.7661 -2.1714
 2814SOL     OW20074   2.600   3.707   5.136 -0.2050  0.7334 -0.0133
 2814SOL    HW120075   2.536   3.684   5.203  1.3634  2.1613  1.9718
 2814SOL    HW220076   2.635   3.791   5.166 -1.7767  1.7192 -0.9139
 2815SOL     OW20077   2.413   1.519  12.117 -0.0133  0.0558 -0.1915
 2815SOL    HW120078   2.434   1.489  12.205 -0.9159  0.5815  0.2033
 2815SOL    HW220079   2.412   1.436  12.068  0.8925  0.2609 -0.5642
 2816SOL     OW20080   1.336   2.717   0.393 -0.2882  0.0225  0.2127
 2816SOL    HW120081   1.258   2.698   0.342 -0.8972 -0.7411  1.4202
 2816SOL    HW220082   1.327   2.809   0.420 -0.5313  0.5171 -1.6043
 2817SOL     OW20083   4.161   1.031   8.901 -0.6415  0.0234  0.4889
 2817SOL    HW120084   4.236   0.975   8.921  1.3775  3.0284  1.2138
 2817SOL    HW220085   4.178   1.082   8.981 -1.3124  1.6039 -0.3773
 2818SOL     OW20086   2.122   3.184   8.186 -0.2104  0.5466 -0.5197
 2818SOL    HW120087   2.211   3.189   8.220  0.3915 -0.2912 -1.9836
 2818SOL    HW220088   2.131   3.255   8.123  0.8494  1.5881  0.8201
 2819SOL     OW20089   2.390   0.199   8.318  0.2764 -0.0401 -0.3680
 2819SOL    HW120090   2.369   0.292   8.313  1.0572  0.0112 -2.5423
 2819SOL    HW220091   2.418   0.184   8.227 -1.7001 -0.8325 -0.8360
 2820SOL     OW20092   1.342   1.065   3.809  0.3148  0.1296 -0.0883
 2820SOL    HW120093   1.381   0.982   3.782 -0.6668 -0.6961  1.0377
 2820SOL    HW220094   1.252   1.047   3.784  0.8313  0.4009 -2.1104
 2821SOL     OW20095   3.361   3.145   0.253  0.0676  0.0449  0.1214
 2821SOL    HW120096   3.270   3.129   0.278  0.1867 -1.2435 -0.2984
 2821SOL    HW220097   3.399   3.068   0.294 -0.2544 -0.5888 -0.7679
 2822SOL     OW20098   0.035   4.318   5.903  0.0048  0.2330 -0.4426
 2822SOL    HW120099   0.089   4.252   5.947  1.6167  1.8843  0.0445
 2822SOL    HW220100   0.063   4.387   5.963 -0.1547  0.6281 -0.8271
 2823SOL     OW20101   3.130   0.822   9.269  0.5058  0.4179 -0.4687
 2823SOL    HW120102   3.130   0.918   9.270 -0.6332  0.3735  2.7720
 2823SOL    HW220103   3.064   0.806   9.201 -0.1888  2.1435 -0.1860
 2824SOL     OW20104   3.599   4.293  17.044 -0.0025 -0.5110 -0.1378
 2824SOL    HW120105   3.624   4.315  16.954  0.3319  1.0550  0.3567
 2824SOL    HW220106   3.515   4.339  17.050  0.1411 -0.3408  0.4857
 2825SOL     OW20107   4.706   2.997   8.242 -0.2591  0.0552  0.3531
 2825SOL    HW120108   0.059   2.983   8.267 -0.0989  0.6866  0.1263
 2825SOL    HW220109   4.700   2.923   8.182  3.0358 -0.4855  0.7200
 2826SOL     OW20110   1.569   1.421   8.949  0.3284 -0.0082  0.3852
 2826SOL    HW120111   1.641   1.460   8.999 -0.0598  1.6267 -0.3322
 2826SOL    HW220112   1.560   1.333   8.985 -2.4569 -0.5945 -1.7828
 2827SOL     OW20113   1.153   4.451   4.001 -0.7442 -0.0554 -0.1537
 2827SOL    HW120114   1.239   4.412   3.984  0.1171  1.4292  0.8777
 2827SOL    HW220115   1.151   4.451   4.097 -0.7623  0.6136 -0.1568
 2828SOL     OW20116   1.724   0.342   6.999  0.1496  0.1495 -0.2078
 2828SOL    HW120117   1.795   0.406   6.996  0.4520 -0.1702  0.2944
 2828SOL    HW220118   1.685   0.371   7.081 -0.6623 -0.3349 -0.4246
 2829SOL     OW20119   4.575   2.134   5.955 -0.0206 -0.1080 -0.1142
 2829SOL    HW120120   4.647   2.155   6.014  0.3980 -0.2948 -0.5539
 2829SOL    HW220121   4.612   2.163   5.871 -0.6220 -0.4884 -0.5136
 2830SOL     OW20122   3.237   2.640   1.307  0.5533 -0.2937  0.2008
 2830SOL    HW120123   3.173   2.707   1.330 -1.4683 -2.7547  1.7261
 2830SOL    HW220124   3.283   2.622   1.389  2.4357 -1.5299 -1.1101
 2831SOL     OW20125   1.057   2.182   7.323 -0.1106  0.0991  1.0073
 2831SOL    HW120126   1.114   2.219   7.256 -1.0675  0.9503  0.6609
 2831SOL    HW220127   0.998   2.257   7.332 -1.1342 -0.5400 -0.2011
 2832SOL     OW20128   4.596   3.863   7.160 -0.2581 -0.0796 -0.3412
 2832SOL    HW120129   4.681   3.824   7.137  0.9724  1.1192  2.2308
 2832SOL    HW220130   4.618   3.947   7.199  0.5347 -0.5782  0.2787
 2833SOL     OW20131   0.384   2.850   8.591  0.3209 -0.2360 -0.0280
 2833SOL    HW120132   0.477   2.872   8.576  0.4028  1.0121  2.3574
 2833SOL    HW220133   0.366   2.823   8.501  0.1654 -1.4355  0.3724
 2834SOL     OW20134   2.851   4.126   5.012 -0.0005  0.0369 -0.0769
 2834SOL    HW120135   2.933   4.167   5.041  0.6293 -1.1309 -0.1665
 2834SOL    HW220136   2.794   4.147   5.086  0.3733  2.4476 -0.4833
 2835SOL     OW20137   3.045   4.606  11.484 -0.0816 -0.0220  0.1407
 2835SOL    HW120138   3.121   4.567  11.441  1.3926  0.3533  2.4575
 2835SOL    HW220139   3.032   4.539  11.551  1.6111 -0.0142  0.4686
 2836SOL     OW20140   2.376   4.071   3.002 -0.4002  0.4949  0.0148
 2836SOL    HW120141   2.402   4.056   3.094 -2.0765 -0.5584  0.3098
 2836SOL    HW220142   2.300   4.018   2.980 -0.6396  0.2876  1.3251
 2837SOL     OW20143   3.542   1.770   5.001  0.1369 -0.2296  0.1670
 2837SOL    HW120144   3.571   1.727   5.081 -0.5894  0.0615  0.5897
 2837SOL    HW220145   3.612   1.724   4.955 -1.3959 -3.1888  0.7974
 2838SOL     OW20146   4.424   3.675   2.035 -0.2776 -0.0598 -0.4772
 2838SOL    HW120147   4.351   3.737   2.032 -0.4241 -0.2804 -1.4495
 2838SOL    HW220148   4.378   3.609   2.089 -1.8937  3.2241  2.1526
 2839SOL     OW20149   1.838   0.722   8.092  0.1789 -0.0916 -0.4569
 2839SOL    HW120150   1.744   0.707   8.100 -0.2271  2.5668 -0.1778
 2839SOL    HW220151   1.867   0.631   8.091  0.6030  0.0555 -1.7525
 2840SOL     OW20152   2.490   2.183   5.139  0.7239  0.2552  0.0911
 2840SOL    HW120153   2.542   2.113   5.100 -0.0553 -0.3145  0.0740
 2840SOL    HW220154   2.496   2.154   5.230  1.1593  0.1759  0.0358
 2841SOL     OW20155   0.149   2.581   3.138 -0.4960 -0.3893  0.2782
 2841SOL    HW120156   0.220   2.555   3.078 -0.9712  1.2950 -1.0347
 2841SOL    HW220157   0.192   2.625   3.211 -1.5573  0.2146  0.5409
 2842SOL     OW20158   2.912   1.945   3.922 -0.2495 -0.3059  0.1867
 2842SOL    HW120159   2.873   1.916   4.004  1.9620 -1.0396  0.9572
 2842SOL    HW220160   2.832   1.941   3.868 -0.9993  0.8450  1.2134
 2843SOL     OW20161   0.442   0.611   5.881 -0.4563 -0.3360 -0.4161
 2843SOL    HW120162   0.492   0.572   5.809  0.5715  0.7825 -0.3067
 2843SOL    HW220163   0.507   0.628   5.949 -1.1276 -1.2777  0.4680
 2844SOL     OW20164   1.390   1.389   4.311  0.2822  0.1620  0.2001
 2844SOL    HW120165   1.299   1.367   4.330  0.6107  0.2983  1.9199
 2844SOL    HW220166   1.427   1.307   4.342 -0.6188 -0.1587  0.4346
 2845SOL     OW20167   0.615   3.582   5.561 -0.0105 -0.5268 -0.1286
 2845SOL    HW120168   0.541   3.566   5.503  0.1607 -1.5435 -0.0659
 2845SOL    HW220169   0.587   3.529   5.636 -1.6923  1.8700  0.9496
 2846SOL     OW20170   0.991   3.875  16.180  0.2765 -0.3692 -0.0672
 2846SOL    HW120171   1.008   3.810  16.112 -0.2635 -0.7716  0.1777
 2846SOL    HW220172   1.022   3.955  16.138 -0.1094  0.0411  0.4270
 2847SOL     OW20173   3.974   3.647   3.973 -1.2790 -0.8421  0.1087
 2847SOL    HW120174   3.884   3.636   3.943 -0.6253 -0.1069 -2.0640
 2847SOL    HW220175   3.966   3.623   4.065  0.3883 -1.0998  0.1925
 2848SOL     OW20176   4.367   2.698   5.650 -0.2657 -0.1131  0.1896
 2848SOL    HW120177   4.369   2.604   5.663  0.6960  0.1394  1.8522
 2848SOL    HW220178   4.309   2.710   5.726  0.6273  2.5884  0.4678
 2849SOL     OW20179   4.550   0.012   9.138  0.3545  0.4824  0.3938
 2849SOL    HW120180   4.480   0.048   9.083 -1.4973 -2.3974  0.9096
 2849SOL    HW220181   4.598   4.695   9.076 -0.3855  1.8738 -1.4313
 2850SOL     OW20182   2.402   1.025  14.027 -0.1714  0.0445 -0.1326
 2850SOL    HW120183   2.400   0.972  14.106 -2.4373 -2.3132 -1.7523
 2850SOL    HW220184   2.411   1.111  14.067 -0.7734 -0.3110  0.7603
 2851SOL     OW20185   2.935   1.432  10.290  0.3640  1.0709 -0.5892
 2851SOL    HW120186   3.028   1.411  10.278  0.1942 -1.4929  2.4143
 2851SOL    HW220187   2.936   1.486  10.369 -0.9016  0.5552 -0.2220
 2852SOL     OW20188   3.377   1.422   2.493 -0.3774  0.0292  0.5415
 2852SOL    HW120189   3.429   1.349   2.458  0.6574  0.5453  1.0156
 2852SOL    HW220190   3.295   1.376   2.513 -0.7591  0.4797  0.0046
 2853SOL     OW20191   1.916   3.386   2.193  0.4312 -0.9505 -0.3263
 2853SOL    HW120192   1.895   3.447   2.263 -0.2884  0.9144 -2.1514
 2853SOL    HW220193   1.912   3.440   2.114 -1.1222  2.1181  1.8316
 2854SOL     OW20194   2.080   4.519  11.972  0.2584 -0.2212  0.1086
 2854SOL    HW120195   2.100   4.592  12.030 -0.5776  0.7526 -0.8088
 2854SOL    HW220196   2.068   4.563  11.888  0.5179 -2.3691 -1.0594
 2855SOL     OW20197   1.095   1.029   9.081  0.3547  0.1132 -0.3681
 2855SOL    HW120198   1.054   1.094   9.025 -0.5824 -1.4876 -1.5384
 2855SOL    HW220199   1.105   0.966   9.010 -0.0754  0.6848 -0.9271
 2856SOL     OW20200   4.311   0.045  10.540 -0.0617 -0.1323 -0.1150
 2856SOL    HW120201   4.318   0.025  10.634 -0.8772  0.0838 -0.0153
 2856SOL    HW220202   4.318   0.140  10.536 -0.6141 -0.0385  1.2799
 2857SOL     OW20203   1.777   1.174   2.601 -0.2837 -0.1734  0.4132
 2857SOL    HW120204   1.812   1.156   2.688  2.3634  0.5125 -0.5184
 2857SOL    HW220205   1.841   1.127   2.549 -2.1220 -0.8034 -1.2942
 2858SOL     OW20206   0.504   0.321   1.444  0.0888  0.2097 -0.9326
 2858SOL    HW120207   0.514   0.349   1.535 -1.7704 -0.5444 -0.5086
 2858SOL    HW220208   0.409   0.324   1.435  0.0859 -1.5813 -1.5833
 2859SOL     OW20209   2.053   0.469   7.881  0.9821  1.0654 -0.4472
 2859SOL    HW120210   2.139   0.439   7.910 -0.0602 -1.0994  0.4377
 2859SOL    HW220211   1.998   0.458   7.959  1.3488 -0.8424 -0.4606
 2860SOL     OW20212   4.350   0.086   2.476  0.1018 -0.2258  0.3904
 2860SOL    HW120213   4.359   4.730   2.459  1.2545 -0.1607  0.6787
 2860SOL    HW220214   4.402   0.113   2.400 -0.3913 -0.2342  0.0513
 2861SOL     OW20215   4.521   2.843   5.143 -0.0259  0.2173  0.6093
 2861SOL    HW120216   4.495   2.933   5.120  2.8198  0.9311  0.0980
 2861SOL    HW220217   4.577   2.869   5.216 -0.4890 -1.4765  1.5498
 2862SOL     OW20218   2.245   2.751   6.454  0.4212  1.4760 -0.2252
 2862SOL    HW120219   2.186   2.825   6.461 -1.3244  0.2598 -2.0291
 2862SOL    HW220220   2.219   2.725   6.542  0.0126 -1.8076 -1.3221
 2863SOL     OW20221   3.518   3.673   5.247  0.1627  0.2335  0.1111
 2863SOL    HW120222   3.426   3.660   5.226 -0.1048  1.1812  0.7081
 2863SOL    HW220223   3.554   3.676   5.159  3.3690  1.0388  1.4291
 2864SOL     OW20224   3.771   4.414   6.983 -0.3587 -0.5655 -0.1089
 2864SOL    HW120225   3.746   4.334   6.938  0.5964  0.2644 -2.1326
 2864SOL    HW220226   3.740   4.398   7.072  0.0965 -2.1951 -0.2495
 2865SOL     OW20227   4.352   2.869  16.023 -0.1534 -0.4129 -0.2217
 2865SOL    HW120228   4.425   2.925  15.997  0.1971 -0.9277 -0.3532
 2865SOL    HW220229   4.346   2.898  16.114  0.5409 -1.2606  0.0941
 2866SOL     OW20230   1.637   3.437  11.197  0.2496 -0.1922  0.1389
 2866SOL    HW120231   1.613   3.450  11.105 -1.7146 -1.5017  0.4835
 2866SOL    HW220232   1.585   3.358  11.204  2.8077 -1.8953  0.0827
 2867SOL     OW20233   1.844   1.888  14.855  0.4874  0.5181 -0.1986
 2867SOL    HW120234   1.864   1.802  14.818 -1.9692  0.0211 -0.3764
 2867SOL    HW220235   1.915   1.895  14.919  1.9882  1.4685 -1.9819
 2868SOL     OW20236   1.677   3.293   5.804 -0.3288  0.7751 -0.4017
 2868SOL    HW120237   1.693   3.356   5.734 -0.9511  0.2918 -0.9824
 2868SOL    HW220238   1.623   3.346   5.862  0.1637  2.0484 -1.1200
 2869SOL     OW20239   3.615   2.612   5.179 -0.3315  0.2011  0.0597
 2869SOL    HW120240   3.608   2.679   5.110 -0.7241  0.4271  0.3204
 2869SOL    HW220241   3.631   2.534   5.125 -0.2119 -0.8216  1.5897
 2870SOL     OW20242   0.121   2.630  11.401  0.3277 -0.4253 -0.1782
 2870SOL    HW120243   0.141   2.539  11.423  0.6901 -0.9687 -2.7112
 2870SOL    HW220244   0.132   2.676  11.484  0.5878  0.9523 -0.9628
 2871SOL     OW20245   2.016   2.046   8.254 -0.0767 -0.0393 -0.3956
 2871SOL    HW120246   2.083   2.010   8.313 -1.5966 -1.8079  0.2627
 2871SOL    HW220247   1.942   2.043   8.315  0.1248 -0.6685 -0.1837
 2872SOL     OW20248   1.662   4.219  16.401 -0.0776  0.7709  0.5091
 2872SOL    HW120249   1.656   4.134  16.356 -2.8888  0.3485  1.6642
 2872SOL    HW220250   1.679   4.182  16.488 -1.8626 -2.4699 -0.4968
 2873SOL     OW20251   0.376   2.761   5.523  0.0729 -0.1800  0.0867
 2873SOL    HW120252   0.339   2.723   5.443 -0.2115  3.0661 -1.3149
 2873SOL    HW220253   0.295   2.784   5.569  1.1860  0.9531  1.4486
 2874SOL     OW20254   4.053   3.666   6.465 -0.4836  0.2270  0.0532
 2874SOL    HW120255   4.007   3.583   6.454 -1.3130  0.4216  2.0640
 2874SOL    HW220256   3.999   3.703   6.534 -1.1917 -0.8353  0.0693
 2875SOL     OW20257   1.390   4.118  12.294 -0.7331  0.1478 -0.0166
 2875SOL    HW120258   1.396   4.022  12.301  0.4709  0.2894  1.0241
 2875SOL    HW220259   1.313   4.130  12.349 -1.0532 -1.5491 -0.0776
 2876SOL     OW20260   4.382   1.721   3.804 -0.1855 -0.2276  0.2528
 2876SOL    HW120261   4.451   1.665   3.840  0.4568  1.2545  1.3302
 2876SOL    HW220262   4.299   1.680   3.829 -0.0489  0.6892  2.1843
 2877SOL     OW20263   3.506   4.331   3.276  0.6054  0.1444 -0.0149
 2877SOL    HW120264   3.596   4.329   3.243  0.9637  2.5408  0.8114
 2877SOL    HW220265   3.509   4.269   3.350  0.1538 -1.4521 -1.3272
 2878SOL     OW20266   0.990   1.157  16.806 -0.2426  0.4111 -0.1590
 2878SOL    HW120267   0.997   1.222  16.876 -1.0073  0.8971 -0.5204
 2878SOL    HW220268   1.079   1.169  16.773  0.0240 -2.4964 -0.4371
 2879SOL     OW20269   3.551   1.263   4.885  0.7125 -0.2731 -0.4645
 2879SOL    HW120270   3.567   1.253   4.979 -2.0659  1.7237  0.2164
 2879SOL    HW220271   3.636   1.289   4.848  1.1933 -0.6274  0.4044
 2880SOL     OW20272   1.728   1.183   7.159 -0.1934 -0.3096  0.4388
 2880SOL    HW120273   1.652   1.241   7.165 -1.1377 -1.3874 -0.8983
 2880SOL    HW220274   1.709   1.126   7.233  2.6523  0.0288  1.4230
 2881SOL     OW20275   2.285   3.397   2.223 -0.4249 -0.4278  0.1116
 2881SOL    HW120276   2.330   3.313   2.217  0.7191  0.1657  0.5147
 2881SOL    HW220277   2.206   3.375   2.173 -0.9723 -1.0072  1.2064
 2882SOL     OW20278   2.174   0.745  13.206 -0.2188 -0.1695  0.1145
 2882SOL    HW120279   2.239   0.794  13.255 -0.8503  0.8126 -0.0345
 2882SOL    HW220280   2.225   0.673  13.170  1.5152  0.6753  0.9132
 2883SOL     OW20281   4.513   2.712   7.076  0.0759  0.3451 -0.6045
 2883SOL    HW120282   4.465   2.794   7.072  0.0788  0.4607  1.4032
 2883SOL    HW220283   4.570   2.732   7.151 -1.4213 -0.4134  0.7442
 2884SOL     OW20284   1.430   4.732   3.637  0.3530 -0.0821  0.0891
 2884SOL    HW120285   1.376   0.047   3.578 -1.0789  0.3854  1.7881
 2884SOL    HW220286   1.434   0.053   3.713  0.1142  0.1636 -0.0879
 2885SOL     OW20287   0.228   1.617   9.382 -0.0932  0.4634 -0.6910
 2885SOL    HW120288   0.259   1.707   9.373  1.0177  0.1978  0.5421
 2885SOL    HW220289   0.310   1.570   9.365 -1.9042 -1.7521 -3.3198
 2886SOL     OW20290   4.077   2.848  16.010  0.4120  0.0620  0.1577
 2886SOL    HW120291   4.059   2.941  16.018 -1.6342 -0.1886 -1.4030
 2886SOL    HW220292   4.173   2.840  16.012  0.4204 -0.0837 -0.8287
 2887SOL     OW20293   2.220   0.003  14.907 -0.3478  0.0182  0.1571
 2887SOL    HW120294   2.251   0.094  14.909  1.8602 -0.7101 -1.4932
 2887SOL    HW220295   2.161   0.012  14.832  0.7161  1.2710 -0.5382
 2888SOL     OW20296   2.234   0.126   1.502  0.2861 -0.6022  0.4169
 2888SOL    HW120297   2.163   0.123   1.439 -0.5166 -0.9136  1.3352
 2888SOL    HW220298   2.244   0.217   1.529  1.4885 -0.4694 -0.4874
 2889SOL     OW20299   0.249   0.302   2.679  0.0965  0.1272  0.2142
 2889SOL    HW120300   0.272   0.303   2.772  0.0368  1.1706  0.2137
 2889SOL    HW220301   0.201   0.220   2.687  1.0709 -0.6429 -1.8574
 2890SOL     OW20302   2.828   1.798  11.557  0.3568  0.0459  0.5668
 2890SOL    HW120303   2.816   1.859  11.630 -0.7679  1.6604 -0.9583
 2890SOL    HW220304   2.808   1.710  11.589 -0.4414  0.3149  0.8248
 2891SOL     OW20305   3.602   3.799   5.964  0.2728  0.0511  0.0127
 2891SOL    HW120306   3.672   3.759   6.015  2.0715 -0.3294 -2.7378
 2891SOL    HW220307   3.642   3.881   5.936 -0.4214 -0.4495 -2.4675
 2892SOL     OW20308   4.352   1.803  10.228 -0.4031  0.5241 -0.8158
 2892SOL    HW120309   4.321   1.857  10.301  2.0132 -2.1481  2.2238
 2892SOL    HW220310   4.272   1.783  10.181  1.9773 -0.4972 -4.4423
 2893SOL     OW20311   0.890   1.032   6.927  0.3302  0.2430  0.0517
 2893SOL    HW120312   0.905   0.943   6.895  1.3841  0.6670 -0.6319
 2893SOL    HW220313   0.795   1.046   6.930 -0.0373 -2.6525  2.0344
 2894SOL     OW20314   0.326   3.161   3.779  0.7944  0.1653 -0.1082
 2894SOL    HW120315   0.305   3.083   3.728 -0.0913 -0.4777  1.2301
 2894SOL    HW220316   0.390   3.210   3.727 -0.0362  0.2675 -1.0496
 2895SOL     OW20317   0.191   0.571  14.148  0.5481 -0.0867 -0.0091
 2895SOL    HW120318   0.195   0.643  14.084  1.2117  0.7340  0.9499
 2895SOL    HW220319   0.111   0.524  14.124 -0.1341  0.7619  0.6005
 2896SOL     OW20320   3.273   3.936   7.175 -0.0425  0.5932 -0.1831
 2896SOL    HW120321   3.302   3.884   7.250 -0.3429 -2.5372 -2.2676
 2896SOL    HW220322   3.309   3.891   7.099  0.0855  1.6914 -0.7793
 2897SOL     OW20323   2.453   3.800   4.655 -0.5282 -0.0098 -0.1911
 2897SOL    HW120324   2.369   3.761   4.628  0.1277 -2.4496  1.2858
 2897SOL    HW220325   2.458   3.877   4.599 -3.7460 -0.4867 -1.1805
 2898SOL     OW20326   4.293   1.258   1.596  0.3166 -0.0345 -0.3877
 2898SOL    HW120327   4.213   1.294   1.558  0.9150 -0.6922 -2.2678
 2898SOL    HW220328   4.309   1.300   1.680  0.8081 -1.4826  0.2465
 2899SOL     OW20329   3.311   3.312  12.100  0.1493  0.2220 -0.6207
 2899SOL    HW120330   3.296   3.368  12.176 -1.3123 -1.6757  0.5032
 2899SOL    HW220331   3.265   3.364  12.034  0.1460  0.2394 -0.6046
 2900SOL     OW20332   3.064   3.045  10.473 -0.3001 -0.1261  0.0129
 2900SOL    HW120333   3.041   3.134  10.447 -0.2642 -0.2509 -0.4476
 2900SOL    HW220334   3.031   2.996  10.398 -1.0454 -0.6821  0.7129
 2901SOL     OW20335   0.144   2.610   8.050 -0.0002  0.0800 -0.0021
 2901SOL    HW120336   0.225   2.617   7.999  0.1537 -1.6309  0.0296
 2901SOL    HW220337   0.177   2.597   8.139  0.1256 -0.3835 -0.1165
 2902SOL     OW20338   2.194   2.686   5.201 -0.0387 -0.1601  0.0439
 2902SOL    HW120339   2.151   2.604   5.174 -0.1052  0.4857 -1.8561
 2902SOL    HW220340   2.282   2.650   5.211 -0.3812 -1.4114 -1.3566
 2903SOL     OW20341   1.166   2.963   3.286 -0.2764 -0.1242 -0.0727
 2903SOL    HW120342   1.207   3.020   3.222  0.1922  1.1563  1.3565
 2903SOL    HW220343   1.246   2.952   3.339  0.2668 -1.0200 -1.0775
 2904SOL     OW20344   1.402   0.972   2.857  0.2450  0.8548  0.2878
 2904SOL    HW120345   1.469   0.921   2.810 -0.7911  0.2967 -0.5815
 2904SOL    HW220346   1.461   1.014   2.920 -2.5711  3.6377  1.0526
 2905SOL     OW20347   0.604   3.722   5.175 -0.6013 -0.1382 -0.1462
 2905SOL    HW120348   0.687   3.675   5.168  0.7585  2.2809 -0.3901
 2905SOL    HW220349   0.576   3.715   5.084  2.0891 -0.4207 -0.9530
 2906SOL     OW20350   0.994   2.502   1.691  0.2240  0.2017 -0.6425
 2906SOL    HW120351   1.088   2.486   1.699  0.0508 -1.2503 -1.5077
 2906SOL    HW220352   0.985   2.588   1.651  0.4728  0.7685  0.5333
 2907SOL     OW20353   3.778   1.875   4.645  0.2811 -0.2001  0.0382
 2907SOL    HW120354   3.798   1.943   4.581  0.3262  0.4741  0.7743
 2907SOL    HW220355   3.845   1.809   4.627  0.9597  0.8830 -1.3559
 2908SOL     OW20356   1.382   0.281   9.649 -0.0399 -0.1960 -0.0810
 2908SOL    HW120357   1.382   0.376   9.640 -0.7312 -0.0681  1.2333
 2908SOL    HW220358   1.287   0.279   9.661  0.0686 -1.9115  0.4695
 2909SOL     OW20359   1.239   0.428  10.642  0.3459  0.0866 -0.2391
 2909SOL    HW120360   1.276   0.516  10.630  2.8839 -1.2496 -2.3011
 2909SOL    HW220361   1.194   0.442  10.725  2.9378  0.9739  1.0083
 2910SOL     OW20362   3.708   0.304   1.968 -0.1725 -0.0994 -0.6663
 2910SOL    HW120363   3.671   0.257   1.893 -1.0584 -0.8530  0.2370
 2910SOL    HW220364   3.678   0.394   1.958 -2.8551 -1.2583 -2.8512
 2911SOL     OW20365   3.434   4.370  14.329  0.6428 -0.1042  0.5586
 2911SOL    HW120366   3.351   4.342  14.290  1.2262 -1.4749  0.3001
 2911SOL    HW220367   3.485   4.318  14.267 -0.2537  0.9786 -1.0854
 2912SOL     OW20368   4.388   3.412  12.536  0.9288  0.7928 -0.4903
 2912SOL    HW120369   4.330   3.415  12.613  0.4209 -0.2464 -0.8325
 2912SOL    HW220370   4.477   3.393  12.566  1.0562 -1.8089 -2.5009
 2913SOL     OW20371   0.010   1.663   1.672  0.1872  0.0756  0.4625
 2913SOL    HW120372   0.074   1.593   1.663  3.1160  2.7873  0.0334
 2913SOL    HW220373   4.674   1.620   1.716  0.4241  1.2366  2.0069
 2914SOL     OW20374   1.630   4.561   8.303  0.1044  0.3738  0.0945
 2914SOL    HW120375   1.621   4.654   8.323 -1.7673  0.2667 -0.3094
 2914SOL    HW220376   1.571   4.524   8.368  0.1435  2.6423  1.3966
 2915SOL     OW20377   1.350   1.930   9.271  0.3778  0.1351  0.1223
 2915SOL    HW120378   1.442   1.904   9.277 -0.2061 -2.5542 -2.7617
 2915SOL    HW220379   1.358   1.945   9.177 -0.7645 -1.5016 -0.2341
 2916SOL     OW20380   0.382   2.990   7.329 -0.2314  0.0317  0.4105
 2916SOL    HW120381   0.455   3.049   7.312  0.4709 -1.6402 -2.2771
 2916SOL    HW220382   0.414   2.930   7.397 -3.1324 -2.3816 -0.3500
 2917SOL     OW20383   1.455   3.189   4.691 -0.6308  0.1017  0.6258
 2917SOL    HW120384   1.447   3.278   4.655  1.6657  0.9368  2.2190
 2917SOL    HW220385   1.488   3.205   4.779 -1.3834  3.4104  0.3311
 2918SOL     OW20386   1.002   3.915  12.599  0.6034 -0.5105 -0.0385
 2918SOL    HW120387   1.005   3.949  12.689 -0.0045  1.4971 -0.7884
 2918SOL    HW220388   1.070   3.848  12.605  0.0035 -1.0800  0.3599
 2919SOL     OW20389   4.563   4.269   9.716 -0.2555  0.4747  0.4553
 2919SOL    HW120390   4.505   4.263   9.639  1.1019 -0.3787 -0.4853
 2919SOL    HW220391   4.610   4.350   9.697  0.7052 -0.5048 -1.3448
 2920SOL     OW20392   3.087   3.048   7.879  0.0866  0.3592  0.1981
 2920SOL    HW120393   3.006   2.997   7.880  0.4765 -0.2415  1.6413
 2920SOL    HW220394   3.066   3.101   7.956 -0.5123  1.4815 -0.7479
 2921SOL     OW20395   1.949   2.339   2.374  0.2431 -0.0616  0.2266
 2921SOL    HW120396   1.898   2.414   2.344 -0.9723 -0.9959 -0.0387
 2921SOL    HW220397   1.959   2.371   2.464  2.7151  0.9531 -0.4098
 2922SOL     OW20398   0.814   4.455  13.711  0.1914 -0.1239  0.4282
 2922SOL    HW120399   0.831   4.361  13.703 -0.2425 -0.1399 -0.2875
 2922SOL    HW220400   0.731   4.461  13.758  1.4058 -0.3845  2.6169
 2923SOL     OW20401   4.029   1.626   7.540  0.3601 -0.2757 -0.2086
 2923SOL    HW120402   3.938   1.600   7.526 -0.4713  2.0601  0.8472
 2923SOL    HW220403   4.080   1.563   7.490  1.6503  0.0685  0.6645
 2924SOL     OW20404   2.643   1.007   1.871  0.2056 -0.1749  0.1484
 2924SOL    HW120405   2.703   1.081   1.864 -0.9866  1.0130  2.4341
 2924SOL    HW220406   2.709   0.940   1.853 -0.8249 -1.9656  3.0525
 2925SOL     OW20407   2.219   1.305   8.599  0.1839  0.3712 -0.5470
 2925SOL    HW120408   2.283   1.351   8.653  0.1774 -1.5009  1.0595
 2925SOL    HW220409   2.139   1.343   8.635  1.7076  3.3374 -0.3203
 2926SOL     OW20410   3.218   1.757   1.471 -0.5670  0.4516 -0.0374
 2926SOL    HW120411   3.276   1.743   1.546 -1.6153 -0.1770  0.6513
 2926SOL    HW220412   3.134   1.721   1.499  0.3386 -0.1287  1.9084
 2927SOL     OW20413   3.911   2.391   1.176  0.6056 -0.3958  0.6293
 2927SOL    HW120414   3.815   2.386   1.182  0.4540 -0.3970 -1.6813
 2927SOL    HW220415   3.942   2.308   1.212  0.1493 -1.1012 -0.6122
 2928SOL     OW20416   0.109   4.211   9.844  0.2018 -0.1976 -0.2625
 2928SOL    HW120417   0.041   4.245   9.786  1.9459  1.4456 -1.3307
 2928SOL    HW220418   0.076   4.244   9.928 -0.5562 -0.1952 -0.5562
 2929SOL     OW20419   4.275   3.049   0.412  0.0917  0.0264 -0.0965
 2929SOL    HW120420   4.352   3.100   0.386  1.0996 -0.2128  2.4562
 2929SOL    HW220421   4.310   2.998   0.484  0.0318  0.9971  0.6179
 2930SOL     OW20422   0.434   0.497   6.370 -0.0032  0.3765 -0.2798
 2930SOL    HW120423   0.358   0.486   6.428  0.2728 -0.8978 -0.1673
 2930SOL    HW220424   0.403   0.428   6.313 -0.3067 -0.6606  1.1337
 2931SOL     OW20425   4.587   2.578   3.626  0.0299  0.1354  0.3725
 2931SOL    HW120426   4.629   2.492   3.630 -0.1916 -0.0759 -1.9775
 2931SOL    HW220427   4.613   2.604   3.538 -1.0346  0.0492  0.0429
 2932SOL     OW20428   1.274   2.132  17.098 -0.1657  0.0775 -0.1616
 2932SOL    HW120429   1.313   2.053  17.137 -0.3418  0.3012  0.4642
 2932SOL    HW220430   1.197   2.150  17.152 -0.1353  2.2348 -0.8635
 2933SOL     OW20431   0.511   1.416   3.149 -0.3746  0.1062  0.2999
 2933SOL    HW120432   0.461   1.387   3.225 -0.8007  0.7947  0.2844
 2933SOL    HW220433   0.601   1.388   3.169  0.6070  0.8268 -3.0731
 2934SOL     OW20434   0.928   3.147   0.973 -0.1052  0.4945  0.4516
 2934SOL    HW120435   0.910   3.241   0.963 -1.2980  0.1566 -0.6127
 2934SOL    HW220436   0.918   3.113   0.884  3.2467  0.9594 -0.1141
 2935SOL     OW20437   3.587   2.628  16.282 -0.0760 -0.7453 -0.2648
 2935SOL    HW120438   3.603   2.557  16.220 -0.0324 -0.2709 -0.7991
 2935SOL    HW220439   3.672   2.671  16.277  1.0029 -2.9571 -0.8129
 2936SOL     OW20440   2.016   0.949   3.028 -0.5178 -0.0120  0.6635
 2936SOL    HW120441   2.112   0.944   3.031 -0.5381  0.1113  1.5923
 2936SOL    HW220442   1.996   0.912   3.114 -3.5865 -3.1166 -1.4250
 2937SOL     OW20443   3.235   4.139   7.444 -0.4423 -0.1655 -0.2452
 2937SOL    HW120444   3.213   4.217   7.393  0.2369 -0.2341 -0.6474
 2937SOL    HW220445   3.269   4.075   7.382 -1.0990 -2.3878  1.7038
 2938SOL     OW20446   0.472   3.329   4.487 -0.2977  0.2179  0.0503
 2938SOL    HW120447   0.448   3.389   4.416  1.4352 -0.1544 -0.8555
 2938SOL    HW220448   0.429   3.251   4.452  0.8262 -0.4752  0.2120
 2939SOL     OW20449   1.257   0.264  12.551  0.1942  0.3339 -0.1965
 2939SOL    HW120450   1.257   0.285  12.457 -2.6595  0.5046 -0.1396
 2939SOL    HW220451   1.309   0.333  12.593  0.4287 -0.5134  0.8837
 2940SOL     OW20452   1.625   4.091   8.573 -0.1773  0.6788 -0.0894
 2940SOL    HW120453   1.716   4.121   8.570  0.8524 -2.1125  3.0341
 2940SOL    HW220454   1.599   4.155   8.639 -2.2233  0.6781 -0.8792
 2941SOL     OW20455   3.104   3.522   2.153 -0.0291  0.0780  0.0596
 2941SOL    HW120456   3.069   3.611   2.152  0.5560  0.3017  0.0539
 2941SOL    HW220457   3.024   3.482   2.117  1.5210 -0.7537 -2.4435
 2942SOL     OW20458   4.466   3.588   8.061 -1.0389 -0.2781 -0.7614
 2942SOL    HW120459   4.442   3.504   8.021 -1.3805 -0.3101 -0.4848
 2942SOL    HW220460   4.460   3.570   8.155 -2.5040 -1.6914 -1.1219
 2943SOL     OW20461   2.616   1.882  14.159  0.4257  0.4756 -0.0296
 2943SOL    HW120462   2.657   1.817  14.215 -0.6859 -1.1454 -1.1037
 2943SOL    HW220463   2.570   1.936  14.223 -2.0115 -0.9396 -0.5900
 2944SOL     OW20464   1.342   2.601   9.260  0.0124  0.1451 -0.3636
 2944SOL    HW120465   1.409   2.534   9.274 -0.2948 -0.3733 -1.3629
 2944SOL    HW220466   1.389   2.640   9.186  0.9896  0.8234  0.6072
 2945SOL     OW20467   1.043   3.544   2.998  0.4854 -0.1464 -0.5396
 2945SOL    HW120468   1.112   3.584   3.050 -0.0524 -1.0969  0.8985
 2945SOL    HW220469   0.998   3.480   3.054 -0.4792  0.0088 -1.1277
 2946SOL     OW20470   0.639   2.823   6.340  0.8261 -0.3080  0.5352
 2946SOL    HW120471   0.660   2.817   6.433  2.0693  0.7554  0.3171
 2946SOL    HW220472   0.711   2.771   6.304  1.5309  1.3463 -0.4238
 2947SOL     OW20473   0.728   2.291   3.313 -0.1654  0.0440 -0.6386
 2947SOL    HW120474   0.818   2.259   3.326 -0.6324 -0.6079  0.9216
 2947SOL    HW220475   0.743   2.380   3.346  0.9186 -0.3535 -0.0593
 2948SOL     OW20476   3.051   1.527   6.207  0.5107  0.0322  0.0399
 2948SOL    HW120477   2.956   1.539   6.200  0.2493 -1.3132  1.3673
 2948SOL    HW220478   3.055   1.512   6.302  2.4892 -0.3336 -0.1048
 2949SOL     OW20479   0.831   0.003  12.410  0.1671 -0.3061  0.1644
 2949SOL    HW120480   0.898   0.033  12.472 -0.2452 -0.4602  0.6806
 2949SOL    HW220481   0.753   0.018  12.463 -0.6478  0.7659 -1.3238
 2950SOL     OW20482   2.681   4.346   4.927  0.0033  0.2994 -0.1796
 2950SOL    HW120483   2.659   4.257   4.901 -1.3426  0.8996 -1.1190
 2950SOL    HW220484   2.686   4.337   5.022 -1.9511 -1.4890 -0.2497
 2951SOL     OW20485   4.032   0.296   5.927  0.3623  0.6851 -0.1816
 2951SOL    HW120486   4.030   0.201   5.933 -0.2993  0.7304  0.2487
 2951SOL    HW220487   4.102   0.327   5.869  1.2426 -0.5595  0.2198
 2952SOL     OW20488   1.767   2.288   7.378 -0.1379 -0.2368 -0.0997
 2952SOL    HW120489   1.736   2.215   7.432  1.7953 -0.5091  0.6375
 2952SOL    HW220490   1.803   2.240   7.303 -2.0413  0.0640 -1.2224
 2953SOL     OW20491   2.530   2.927   8.319 -0.0578 -0.1165  0.2799
 2953SOL    HW120492   2.606   2.935   8.377 -0.1337  0.9579  0.2462
 2953SOL    HW220493   2.568   2.944   8.233 -2.7521  0.4830 -0.8074
 2954SOL     OW20494   3.781   4.583  13.757  0.3433  0.5569  0.0002
 2954SOL    HW120495   3.728   4.505  13.776  1.3239  0.1768  1.1650
 2954SOL    HW220496   3.738   4.624  13.682 -0.1613 -0.9723 -0.5486
 2955SOL     OW20497   3.292   2.429   2.850 -0.6325 -0.6503  0.0643
 2955SOL    HW120498   3.274   2.337   2.869  0.8350 -0.4586  2.3894
 2955SOL    HW220499   3.291   2.464   2.939  2.6221  2.8871 -1.3192
 2956SOL     OW20500   3.809   0.655   4.022 -0.2141  0.5307 -0.4515
 2956SOL    HW120501   3.873   0.724   4.006  1.0539 -0.9635 -1.7023
 2956SOL    HW220502   3.808   0.648   4.118  1.7272  1.5788 -0.3592
 2957SOL     OW20503   4.464   2.201   8.454  0.2034  0.5811  0.4903
 2957SOL    HW120504   4.523   2.160   8.517 -1.5898 -0.9568  1.1544
 2957SOL    HW220505   4.430   2.278   8.501 -2.1340  0.5796 -1.2096
 2958SOL     OW20506   3.510   0.145   0.701  0.0869  0.0348 -0.2427
 2958SOL    HW120507   3.451   0.188   0.763 -0.6192 -1.2976  0.0061
 2958SOL    HW220508   3.486   0.053   0.714  3.0626 -0.6127  0.5069
 2959SOL     OW20509   2.033   0.770   7.480  0.1046  0.4663 -0.0908
 2959SOL    HW120510   2.076   0.701   7.530 -0.9313 -1.0638 -1.3257
 2959SOL    HW220511   2.069   0.844   7.528  0.2446  0.9739 -0.9694
 2960SOL     OW20512   1.453   1.783   4.991 -0.7963 -0.0793 -0.3432
 2960SOL    HW120513   1.407   1.705   5.020  1.8314 -1.3185  0.5407
 2960SOL    HW220514   1.545   1.757   4.998 -0.9991 -0.7264 -0.1157
 2961SOL     OW20515   0.721   1.593   2.902 -0.1681 -0.3349 -0.0794
 2961SOL    HW120516   0.632   1.620   2.922 -1.2664 -2.8893 -1.5081
 2961SOL    HW220517   0.716   1.502   2.871  3.4324 -0.6981  0.2957
 2962SOL     OW20518   1.340   2.305   2.316  0.1610 -0.1261  0.6668
 2962SOL    HW120519   1.307   2.394   2.309  1.0378  0.0551 -1.0449
 2962SOL    HW220520   1.384   2.286   2.233 -1.6677 -0.7737 -0.1619
 2963SOL     OW20521   3.541   4.644   5.223 -0.6221 -0.0662  0.1780
 2963SOL    HW120522   3.559   4.585   5.297  0.1982  0.1649  0.1568
 2963SOL    HW220523   3.603   4.598   5.168  0.6560 -0.0533  1.6019
 2964SOL     OW20524   3.496   0.469   6.782  0.2510  0.3992 -0.1437
 2964SOL    HW120525   3.558   0.421   6.728  1.5750  1.6164  0.2883
 2964SOL    HW220526   3.415   0.460   6.732 -0.0570  3.1018 -0.1378
 2965SOL     OW20527   4.562   0.577  11.489  0.5650 -0.1900 -0.0657
 2965SOL    HW120528   4.470   0.562  11.469  0.8970 -0.6620 -1.2243
 2965SOL    HW220529   4.594   0.582  11.399  0.6609  1.7904  0.0755
 2966SOL     OW20530   4.468   1.831  16.538  0.0845  0.7247 -0.4058
 2966SOL    HW120531   4.542   1.774  16.561 -1.9038 -1.2008  1.1996
 2966SOL    HW220532   4.486   1.904  16.598  1.6957 -0.1595  0.2055
 2967SOL     OW20533   1.624   3.894  13.768 -0.3578 -0.0423  0.3153
 2967SOL    HW120534   1.672   3.898  13.685  0.6983  0.1023  0.9225
 2967SOL    HW220535   1.698   3.893  13.829 -0.4075  1.1107  0.3951
 2968SOL     OW20536   0.926   0.414   8.470 -0.5661  0.6743  0.0450
 2968SOL    HW120537   0.951   0.323   8.481 -0.8357  0.8454  2.0444
 2968SOL    HW220538   0.908   0.421   8.376 -0.0964 -0.3042 -0.1127
 2969SOL     OW20539   2.559   2.837  11.305 -0.1293 -0.1070 -0.1765
 2969SOL    HW120540   2.577   2.890  11.227  2.1282 -1.7254 -0.7513
 2969SOL    HW220541   2.564   2.902  11.376 -1.1032 -1.3788  1.0573
 2970SOL     OW20542   4.668   0.706   5.607 -0.0877 -0.2526  0.5039
 2970SOL    HW120543   4.707   0.625   5.574  0.2957  0.1233  0.0275
 2970SOL    HW220544   4.661   0.764   5.531  3.6199  1.0301  1.1363
 2971SOL     OW20545   2.020   0.139   2.171 -0.0276 -0.2637  0.0167
 2971SOL    HW120546   2.047   0.173   2.086  0.9762 -0.7954  0.1257
 2971SOL    HW220547   2.006   0.222   2.217  0.2371  0.6251 -1.4810
 2972SOL     OW20548   2.330   1.067   8.531  0.5181 -0.2775  0.6357
 2972SOL    HW120549   2.411   1.116   8.546  0.2499  0.5120 -0.5372
 2972SOL    HW220550   2.271   1.136   8.561  1.5454  1.0400 -0.3880
 2973SOL     OW20551   1.075   0.769   5.207  0.1163 -0.0556 -0.1944
 2973SOL    HW120552   0.985   0.739   5.196  0.0850  0.0224 -0.1532
 2973SOL    HW220553   1.122   0.686   5.203 -0.5547 -0.4549  0.2278
 2974SOL     OW20554   0.018   2.837   7.961 -0.3474  0.0190 -0.2868
 2974SOL    HW120555   0.100   2.887   7.960 -0.6569  0.5276 -0.0824
 2974SOL    HW220556   0.051   2.747   7.969  1.5856  0.7350 -0.2722
 2975SOL     OW20557   2.483   2.442   3.181 -0.8586  0.6861  0.3294
 2975SOL    HW120558   2.506   2.533   3.195  2.4653 -0.3080  1.3260
 2975SOL    HW220559   2.559   2.404   3.137 -1.0410 -1.9779  2.2950
 2976SOL     OW20560   4.015   1.086  15.282  0.1429 -0.5157 -0.3533
 2976SOL    HW120561   4.009   0.996  15.314  0.2245  0.3684  2.1245
 2976SOL    HW220562   4.109   1.100  15.298  0.4309 -1.0719 -1.5641
 2977SOL     OW20563   2.747   0.945   4.981 -0.2357 -0.3170 -0.0138
 2977SOL    HW120564   2.818   0.880   4.981  0.0976  0.0508 -0.3059
 2977SOL    HW220565   2.696   0.918   5.058  0.2710  0.2100  0.5055
 2978SOL     OW20566   3.628   2.443   3.315  0.1896 -0.4108 -0.4562
 2978SOL    HW120567   3.714   2.412   3.284 -0.1651 -1.2515 -0.6229
 2978SOL    HW220568   3.639   2.535   3.337  1.3088 -0.9845  1.3809
 2979SOL     OW20569   0.119   3.245  10.591  0.2328 -0.3160 -0.0805
 2979SOL    HW120570   0.072   3.323  10.559 -1.3768 -0.7561  1.1681
 2979SOL    HW220571   0.193   3.283  10.638  0.5155 -1.4889  0.4180
 2980SOL     OW20572   3.968   1.463  13.781 -0.1954 -0.2644  0.2112
 2980SOL    HW120573   3.923   1.517  13.715 -2.1772  0.5993  2.2411
 2980SOL    HW220574   3.962   1.523  13.855  0.8859 -0.8546  0.7698
 2981SOL     OW20575   0.825   0.141   9.581  0.3550  0.5708  0.0021
 2981SOL    HW120576   0.837   0.102   9.495 -3.4494 -0.5026 -0.0495
 2981SOL    HW220577   0.774   0.075   9.629  0.0766  1.3750  0.8132
 2982SOL     OW20578   4.353   2.660   6.099 -0.0238  0.2728 -0.3531
 2982SOL    HW120579   4.426   2.702   6.144 -1.5943  2.0509  0.5286
 2982SOL    HW220580   4.401   2.595   6.047  0.6590  0.7939 -0.3696
 2983SOL     OW20581   3.362   1.149   3.734 -0.6585 -0.5076 -0.1044
 2983SOL    HW120582   3.278   1.127   3.693 -1.7696  0.9583  1.3732
 2983SOL    HW220583   3.421   1.158   3.659 -1.2531 -2.4209 -0.8061
 2984SOL     OW20584   2.292   1.372   4.921 -0.3870 -0.1826  0.1735
 2984SOL    HW120585   2.293   1.443   4.985 -1.0422  0.7966 -0.9031
 2984SOL    HW220586   2.283   1.425   4.841 -0.4004 -0.2728  0.1157
 2985SOL     OW20587   0.834   2.116  16.400  0.6717  0.3193 -0.4338
 2985SOL    HW120588   0.884   2.156  16.471 -1.9823 -0.5441  1.8825
 2985SOL    HW220589   0.758   2.172  16.387  1.9319  1.8426 -1.4205
 2986SOL     OW20590   2.585   1.236   6.371 -0.3954 -0.3675  0.4865
 2986SOL    HW120591   2.524   1.260   6.301  1.2022 -0.6088 -1.0034
 2986SOL    HW220592   2.566   1.142   6.371  1.3668 -0.7101  3.1209
 2987SOL     OW20593   2.735   1.567   1.997  0.0350 -0.2469  0.5203
 2987SOL    HW120594   2.720   1.555   2.090  1.0037  1.2336  0.8595
 2987SOL    HW220595   2.647   1.545   1.966  0.6440 -1.1112 -0.5988
 2988SOL     OW20596   1.173   2.008  15.237  0.2338 -0.6815  0.6515
 2988SOL    HW120597   1.145   2.091  15.197 -0.9580 -1.2220  0.3526
 2988SOL    HW220598   1.114   1.942  15.200 -1.3586  1.6336 -1.0052
 2989SOL     OW20599   0.574   0.267   8.779 -0.5068 -0.4188 -0.5778
 2989SOL    HW120600   0.572   0.314   8.696 -1.2075 -1.9254 -1.4239
 2989SOL    HW220601   0.488   0.281   8.819 -0.2051 -3.2029  1.0583
 2990SOL     OW20602   2.686   3.824   8.453  0.3872 -0.3727  0.1723
 2990SOL    HW120603   2.603   3.785   8.479  0.5399 -1.0622 -0.3536
 2990SOL    HW220604   2.651   3.891   8.394  0.0552 -1.3846 -0.7748
 2991SOL     OW20605   0.293   1.886   5.291 -0.0690  0.1473 -0.0560
 2991SOL    HW120606   0.280   1.878   5.197 -0.4182  1.6745 -0.1507
 2991SOL    HW220607   0.370   1.830   5.303  0.1301  0.0534 -1.8843
 2992SOL     OW20608   2.461   4.155   5.096  0.0866 -0.5116 -0.1749
 2992SOL    HW120609   2.465   4.138   5.002 -1.0824 -1.0962 -0.1169
 2992SOL    HW220610   2.455   4.251   5.103  0.1953 -0.6017  1.3393
 2993SOL     OW20611   2.188   0.205   5.138 -0.2065 -0.1671  0.2612
 2993SOL    HW120612   2.255   0.187   5.072  0.2485 -1.2526  1.0143
 2993SOL    HW220613   2.154   0.288   5.105 -3.0625 -1.5037 -0.1179
 2994SOL     OW20614   0.298   4.233   0.526 -0.3368 -0.1029 -0.0585
 2994SOL    HW120615   0.357   4.161   0.502 -0.4041 -0.9437  2.3093
 2994SOL    HW220616   0.364   4.290   0.566 -1.8786  0.7124  1.3098
 2995SOL     OW20617   2.213   4.553   5.177 -0.6325 -0.0077 -0.2275
 2995SOL    HW120618   2.248   4.590   5.096  0.7998  0.6455  0.6808
 2995SOL    HW220619   2.283   4.490   5.192 -0.1637 -0.0267 -2.5773
 2996SOL     OW20620   4.215   1.399   9.870 -0.1292  0.1150  0.4033
 2996SOL    HW120621   4.205   1.475   9.928 -0.7298 -0.6855  1.3373
 2996SOL    HW220622   4.275   1.432   9.802 -0.5453  1.1504  0.5303
 2997SOL     OW20623   4.472   4.216  17.661 -0.4736  0.1203  0.1427
 2997SOL    HW120624   4.385   4.180  17.647  0.5197 -1.2572 -2.4383
 2997SOL    HW220625   4.504   4.173  17.741 -2.4032  0.4677  1.1021
 2998SOL     OW20626   2.051   0.205   3.102  0.1531 -0.0706 -0.4009
 2998SOL    HW120627   2.139   0.208   3.140 -0.5000  0.6224  1.0312
 2998SOL    HW220628   2.027   0.113   3.094 -0.1179  0.0210 -0.6421
 2999SOL     OW20629   4.602   1.780  13.065  0.2946  0.0586  0.1225
 2999SOL    HW120630   4.636   1.773  13.154 -0.5063  0.1791  0.4420
 2999SOL    HW220631   4.679   1.820  13.026  1.4600  1.0166  3.4257
 3000SOL     OW20632   4.221   0.399   6.496  0.0423  0.1016 -0.3969
 3000SOL    HW120633   4.210   0.494   6.484  0.7292  0.2219 -0.0902
 3000SOL    HW220634   4.282   0.402   6.569  1.4801  2.6969 -1.6839
 3001SOL     OW20635   1.338   4.280   9.313 -0.2368  0.5974 -0.2569
 3001SOL    HW120636   1.328   4.367   9.351  1.4986  0.8010 -0.2900
 3001SOL    HW220637   1.323   4.214   9.381  0.2506  0.5222 -0.2211
 3002SOL     OW20638   3.156   1.435   3.769  0.2370  0.1635  0.2556
 3002SOL    HW120639   3.207   1.516   3.778 -2.4706  1.8779  0.1653
 3002SOL    HW220640   3.178   1.407   3.680 -0.3488  2.0478 -0.4763
 3003SOL     OW20641   4.078   1.112  11.503 -0.1534  0.0993  0.1398
 3003SOL    HW120642   4.014   1.161  11.555 -0.5046 -0.3444  0.1204
 3003SOL    HW220643   4.039   1.125  11.417  1.2717  3.1916 -0.0349
 3004SOL     OW20644   4.387   2.455   2.892 -0.1867 -0.1621 -0.1165
 3004SOL    HW120645   4.457   2.398   2.863  1.7586  2.6218 -0.8930
 3004SOL    HW220646   4.334   2.389   2.937  0.8084 -0.3676  0.7476
 3005SOL     OW20647   4.020   0.667   5.594  0.3733 -0.2587  0.2895
 3005SOL    HW120648   4.008   0.587   5.542 -2.5163 -0.1118  0.6925
 3005SOL    HW220649   4.110   0.692   5.578  0.6727 -1.0542  0.7114
 3006SOL     OW20650   3.301   1.709   9.533  0.4646  0.4651 -0.5612
 3006SOL    HW120651   3.275   1.653   9.460  0.1287 -1.3101  0.9225
 3006SOL    HW220652   3.326   1.648   9.602 -1.5638 -1.3202 -1.4232
 3007SOL     OW20653   2.793   1.134   6.655  0.9006  0.4504 -0.0927
 3007SOL    HW120654   2.826   1.058   6.608  2.6818 -0.4630  2.6672
 3007SOL    HW220655   2.788   1.097   6.743  1.2118 -0.3608 -0.4188
 3008SOL     OW20656   3.187   3.095   3.330  0.3917  0.8297  0.2625
 3008SOL    HW120657   3.179   3.145   3.248  1.8528  0.0714 -0.3395
 3008SOL    HW220658   3.142   3.017   3.300  0.1298  0.4673  1.5862
 3009SOL     OW20659   0.216   4.700   4.205  0.0073 -0.2859  0.2088
 3009SOL    HW120660   0.253   4.718   4.119 -1.5846  1.1353 -0.1851
 3009SOL    HW220661   0.285   4.647   4.245  2.1218  1.5941 -0.9942
 3010SOL     OW20662   0.208   0.804   2.341  0.5850 -0.2244  0.2270
 3010SOL    HW120663   0.195   0.751   2.262 -1.2381  0.5814 -0.0133
 3010SOL    HW220664   0.119   0.827   2.367  0.3327  0.2101 -1.0072
 3011SOL     OW20665   4.671   4.616  13.642  0.3835 -0.2273 -0.3327
 3011SOL    HW120666   4.703   4.576  13.723 -1.0497 -2.3309 -0.8215
 3011SOL    HW220667   4.636   4.700  13.673  0.6646  0.1361 -1.0013
 3012SOL     OW20668   4.286   1.383  12.864 -0.3934 -0.0191  0.0110
 3012SOL    HW120669   4.267   1.434  12.785  2.2392  0.1018 -0.5574
 3012SOL    HW220670   4.226   1.426  12.925 -1.5274  0.8333 -1.7132
 3013SOL     OW20671   4.662   3.395   6.165 -0.3117  0.1017 -0.0453
 3013SOL    HW120672   4.581   3.404   6.216 -0.5473  0.3884 -0.4648
 3013SOL    HW220673   4.705   3.315   6.195  0.4451 -0.3454 -2.3311
 3014SOL     OW20674   4.125   2.948   3.480  0.3270  0.1458 -0.3446
 3014SOL    HW120675   4.181   2.983   3.410 -1.8160  2.4420 -0.9163
 3014SOL    HW220676   4.146   3.013   3.546  2.6988 -0.1076 -0.8366
 3015SOL     OW20677   4.407   1.911   0.256  0.0837  0.2833 -0.8404
 3015SOL    HW120678   4.317   1.940   0.263 -0.4326 -0.9801 -2.2927
 3015SOL    HW220679   4.432   1.922   0.165  2.2902  1.5040 -0.0948
 3016SOL     OW20680   2.283   1.004   3.059 -0.1898  0.0417 -0.5342
 3016SOL    HW120681   2.269   1.035   2.969  0.4521 -1.4926 -1.1493
 3016SOL    HW220682   2.331   0.924   3.039  2.0419  1.3881 -0.5629
 3017SOL     OW20683   1.106   3.384   8.356 -0.7960  0.0261  0.0103
 3017SOL    HW120684   1.185   3.415   8.400 -0.8601  2.9522 -1.9551
 3017SOL    HW220685   1.109   3.419   8.267  0.5590  1.8745  0.7983
 3018SOL     OW20686   4.003   3.076   6.894  0.0288 -0.3237 -0.1199
 3018SOL    HW120687   4.041   2.992   6.866 -1.2727 -1.1644  0.6134
 3018SOL    HW220688   4.018   3.123   6.813 -2.9995  0.0946 -0.4310
 3019SOL     OW20689   0.413   2.725  17.670  0.4499 -0.1350  0.1601
 3019SOL    HW120690   0.425   2.660  17.600 -1.1824 -0.4071  0.1265
 3019SOL    HW220691   0.369   2.681  17.742  0.1615 -0.2088 -0.0586
 3020SOL     OW20692   3.797   0.323  13.165 -0.0200  0.8785  0.4903
 3020SOL    HW120693   3.721   0.269  13.145  1.1342  0.8034 -3.6027
 3020SOL    HW220694   3.861   0.252  13.158 -1.0334  0.0281 -0.1637
 3021SOL     OW20695   3.071   1.559  10.802 -0.2058  0.1531 -0.0257
 3021SOL    HW120696   3.094   1.568  10.709 -1.1042 -0.7410 -0.3443
 3021SOL    HW220697   3.137   1.618  10.836  0.7803 -0.9989  0.0698
 3022SOL     OW20698   0.115   4.489   2.184  0.1603  0.4516 -0.1879
 3022SOL    HW120699   0.020   4.484   2.193  0.6774 -3.2032  3.0374
 3022SOL    HW220700   0.127   4.579   2.213  2.0716 -0.4808  1.9807
 3023SOL     OW20701   1.007   0.233   6.695  0.2857  0.6364 -0.1839
 3023SOL    HW120702   1.087   0.242   6.746  1.1973 -0.9743 -1.3439
 3023SOL    HW220703   0.971   0.148   6.721  0.4048  0.5974 -0.1494
 3024SOL     OW20704   2.930   1.931   5.649 -0.2029 -0.0159 -0.0079
 3024SOL    HW120705   2.908   2.022   5.668  0.6654  0.0019  0.9425
 3024SOL    HW220706   2.880   1.909   5.571  2.5531 -2.4101 -1.0863
 3025SOL     OW20707   2.158   2.063  14.767  0.4636 -0.2490 -0.1527
 3025SOL    HW120708   2.139   2.014  14.847 -0.7965  0.6239  0.0878
 3025SOL    HW220709   2.104   2.140  14.786  0.9258  0.2967 -1.0882
 3026SOL     OW20710   0.719   2.189   7.830 -0.4242 -0.7961 -0.2115
 3026SOL    HW120711   0.676   2.199   7.745 -1.0074 -0.5069  0.1165
 3026SOL    HW220712   0.804   2.152   7.807 -0.8692 -2.2786  0.4891
 3027SOL     OW20713   2.981   3.518   6.395 -0.3412 -0.1679  0.0506
 3027SOL    HW120714   3.014   3.435   6.431  0.5456 -1.0281 -2.7050
 3027SOL    HW220715   2.938   3.494   6.313  0.8275 -1.6923 -0.1161
 3028SOL     OW20716   2.732   1.707  15.610  0.0507  0.0512  0.4025
 3028SOL    HW120717   2.825   1.730  15.615 -0.4020  1.8855  0.1254
 3028SOL    HW220718   2.717   1.667  15.525  1.7477  0.5682 -0.1304
 3029SOL     OW20719   1.988   1.317   6.315  1.0399  0.4585  0.0194
 3029SOL    HW120720   1.979   1.327   6.220 -0.2246  3.4393  0.4517
 3029SOL    HW220721   1.923   1.381   6.344 -1.4934 -1.1948 -2.0136
 3030SOL     OW20722   4.428   3.039   1.448  0.0443  0.6036 -0.2389
 3030SOL    HW120723   4.439   3.032   1.543 -4.0626  0.6954  0.2200
 3030SOL    HW220724   4.417   2.949   1.419 -0.1104  1.1418 -1.8505
 3031SOL     OW20725   3.569   4.471   4.589  0.0914 -0.7486  0.1204
 3031SOL    HW120726   3.526   4.440   4.510  0.0611  0.1587 -0.2181
 3031SOL    HW220727   3.538   4.562   4.588 -0.2683 -0.8698  0.0002
 3032SOL     OW20728   4.333   2.201   4.152 -0.3617  0.3999  0.4239
 3032SOL    HW120729   4.399   2.228   4.216  1.3451 -1.0435 -0.7648
 3032SOL    HW220730   4.266   2.268   4.167 -1.6876 -0.8250  0.0389
 3033SOL     OW20731   1.181   2.473   7.922  0.0600 -0.4562  0.1453
 3033SOL    HW120732   1.197   2.567   7.937 -0.1284 -0.4842  0.5260
 3033SOL    HW220733   1.171   2.480   7.827  0.9267 -1.7517 -0.0330
 3034SOL     OW20734   0.327   1.544  15.906  0.0318  0.0456 -0.0659
 3034SOL    HW120735   0.396   1.498  15.858 -1.4341 -2.4819  0.2640
 3034SOL    HW220736   0.390   1.595  15.956 -0.2112  1.2138 -0.9428
 3035SOL     OW20737   2.057   0.113   9.000 -0.1534 -0.3796 -0.6103
 3035SOL    HW120738   1.987   0.136   8.940  1.1698  0.0858 -1.9800
 3035SOL    HW220739   2.026   0.148   9.084 -2.0710  0.4869 -1.6830
 3036SOL     OW20740   2.770   4.636   8.524  0.3022  0.6725 -0.0462
 3036SOL    HW120741   2.822   4.557   8.524 -1.0492 -0.2196  0.6443
 3036SOL    HW220742   2.717   4.644   8.604  1.9318 -0.6395  1.1620
 3037SOL     OW20743   4.485   1.630   4.722  0.1318 -0.5269  0.1855
 3037SOL    HW120744   4.551   1.629   4.791 -0.3877  0.4143  0.7022
 3037SOL    HW220745   4.486   1.541   4.687 -0.6143  0.2380 -1.7846
 3038SOL     OW20746   0.796   1.471  15.953 -0.1393 -0.3836  0.3617
 3038SOL    HW120747   0.797   1.548  15.896  1.2744 -0.2623  0.5343
 3038SOL    HW220748   0.800   1.517  16.037  3.0598 -1.1783  0.6751
 3039SOL     OW20749   2.816   2.782  10.961  0.1059  0.5083 -0.0378
 3039SOL    HW120750   2.736   2.827  10.934  1.1536  0.1776 -3.7197
 3039SOL    HW220751   2.772   2.717  11.015 -2.5584  2.0122 -0.4040
 3040SOL     OW20752   1.141   3.264   2.347  0.6272 -0.2899  0.2170
 3040SOL    HW120753   1.053   3.230   2.366 -1.0036  2.9111 -1.6734
 3040SOL    HW220754   1.117   3.351   2.379  1.1352  0.2182 -0.7901
 3041SOL     OW20755   0.675   2.381   8.383  0.4303 -0.3709  0.7873
 3041SOL    HW120756   0.723   2.356   8.304  0.5201  0.8344  0.4485
 3041SOL    HW220757   0.732   2.340   8.449  0.2745  0.9490  1.7524
 3042SOL     OW20758   1.008   1.354   9.156 -0.2603 -0.0869  0.3812
 3042SOL    HW120759   1.103   1.363   9.160 -0.3437  0.2669  1.7088
 3042SOL    HW220760   0.994   1.330   9.065 -1.1223  1.1763  0.1699
 3043SOL     OW20761   4.543   0.558   4.621 -0.6327  0.1694  0.0832
 3043SOL    HW120762   4.602   0.483   4.615  0.7379  1.3483 -1.1919
 3043SOL    HW220763   4.610   0.627   4.624  0.4695 -0.9223  0.5756
 3044SOL     OW20764   2.249   1.483   2.757 -0.7544 -0.5160  0.0621
 3044SOL    HW120765   2.155   1.502   2.746 -1.1612 -2.0744  0.8894
 3044SOL    HW220766   2.277   1.493   2.667 -2.4787 -1.7733 -0.6215
 3045SOL     OW20767   3.083   3.148   2.137  0.0224  0.3140 -0.0011
 3045SOL    HW120768   3.067   3.212   2.067  3.0090 -1.5439 -2.3705
 3045SOL    HW220769   3.068   3.198   2.217 -1.0261  0.5603 -0.3467
 3046SOL     OW20770   0.727   3.791   5.861 -0.4570 -0.2644  0.1957
 3046SOL    HW120771   0.817   3.791   5.894 -0.4001  2.7209  0.0894
 3046SOL    HW220772   0.709   3.705   5.898  3.0494 -0.8239  0.6722
 3047SOL     OW20773   0.405   3.965   1.694  0.2203 -0.4001 -0.4730
 3047SOL    HW120774   0.338   3.904   1.726  1.8940 -0.7313  2.4385
 3047SOL    HW220775   0.461   3.967   1.772  0.5297 -0.4356 -0.6945
 3048SOL     OW20776   3.558   2.292   6.437  0.5545  0.6521  0.0030
 3048SOL    HW120777   3.632   2.318   6.383 -2.4452  0.5396 -4.1352
 3048SOL    HW220778   3.489   2.339   6.390 -0.9392 -0.0884  1.4258
 3049SOL     OW20779   3.053   0.638   5.339 -0.2584 -0.4295  0.2078
 3049SOL    HW120780   2.981   0.583   5.308 -0.4565  1.4782 -2.6889
 3049SOL    HW220781   3.106   0.579   5.392 -0.4063  0.1082  0.9635
 3050SOL     OW20782   4.020   1.731   2.342 -0.4480 -0.0741  0.5773
 3050SOL    HW120783   4.027   1.824   2.364 -1.6250  0.3356 -0.7524
 3050SOL    HW220784   4.022   1.737   2.247  0.2507 -1.4345  0.5103
 3051SOL     OW20785   3.334   1.514   0.460  0.5472 -0.4693  0.2354
 3051SOL    HW120786   3.412   1.495   0.409  0.3393 -1.8842  0.4422
 3051SOL    HW220787   3.280   1.564   0.397  1.2404  0.0408  0.0488
 3052SOL     OW20788   3.467   0.742  14.860  0.0581 -0.2085 -0.1692
 3052SOL    HW120789   3.489   0.651  14.841 -1.7812 -0.5878 -0.4608
 3052SOL    HW220790   3.396   0.732  14.923 -1.8041  1.7585 -1.9677
 3053SOL     OW20791   1.540   0.600   7.727 -0.2801 -0.1340 -0.4360
 3053SOL    HW120792   1.600   0.649   7.671  2.4452 -0.7249  1.9979
 3053SOL    HW220793   1.476   0.581   7.658 -0.1192  0.4056 -0.7379
 3054SOL     OW20794   1.356   0.186   4.040  0.4087  0.2053  0.2111
 3054SOL    HW120795   1.445   0.167   4.012 -0.2636 -3.1578  0.3095
 3054SOL    HW220796   1.347   0.281   4.049  1.6318  0.3861 -0.4548
 3055SOL     OW20797   3.956   0.586   4.946 -0.0088  0.4449  0.5158
 3055SOL    HW120798   3.886   0.546   4.997 -1.2871  1.3691 -0.4997
 3055SOL    HW220799   4.015   0.511   4.949 -0.3631  0.2070  1.4132
 3056SOL     OW20800   0.965   0.265   7.597 -0.7819 -1.1946 -0.0243
 3056SOL    HW120801   0.923   0.321   7.661 -0.5319  1.1689 -1.9448
 3056SOL    HW220802   0.898   0.260   7.528 -0.0069 -0.4604 -0.8247
 3057SOL     OW20803   0.875   3.622   2.088 -0.3141 -0.1112 -0.1782
 3057SOL    HW120804   0.806   3.651   2.029  0.0729  1.1764  0.0110
 3057SOL    HW220805   0.867   3.529   2.064  0.3757  0.5057 -2.7938
 3058SOL     OW20806   0.586   2.557  15.028 -0.2298  0.0997  0.4140
 3058SOL    HW120807   0.544   2.639  15.004 -0.8868 -1.2738 -3.0668
 3058SOL    HW220808   0.507   2.513  15.060 -0.3485 -0.6884 -0.9689
 3059SOL     OW20809   0.573   1.344   3.817  0.5490  0.3164  0.6718
 3059SOL    HW120810   0.517   1.284   3.767  1.5006 -0.3455  0.4112
 3059SOL    HW220811   0.521   1.422   3.832  3.5727  2.2865  0.8337
 3060SOL     OW20812   3.498   0.124   1.192 -0.1800  0.3275 -0.3797
 3060SOL    HW120813   3.419   0.133   1.138 -1.2095  2.3121  1.4617
 3060SOL    HW220814   3.471   0.144   1.282  0.8168  1.2991 -0.2898
 3061SOL     OW20815   3.584   2.612  17.488 -0.4424  0.1004 -0.2789
 3061SOL    HW120816   3.638   2.690  17.476 -0.0099  0.0502  1.4694
 3061SOL    HW220817   3.571   2.571  17.402  1.9966 -0.8163 -0.2009
 3062SOL     OW20818   4.382   3.351   4.762  0.0577  0.3833 -0.0543
 3062SOL    HW120819   4.322   3.279   4.744  2.4008 -1.0646 -1.9908
 3062SOL    HW220820   4.334   3.385   4.838 -0.7434 -0.3130 -0.2516
 3063SOL     OW20821   1.472   1.379   2.982 -0.7543  0.1754  0.4542
 3063SOL    HW120822   1.391   1.428   3.000  0.0409  1.5255  0.3865
 3063SOL    HW220823   1.439   1.333   2.904  2.6634 -0.8999 -0.3402
 3064SOL     OW20824   1.675   2.223   0.896  0.2035 -0.3199  0.0239
 3064SOL    HW120825   1.632   2.259   0.818 -1.9248 -2.1619  0.3767
 3064SOL    HW220826   1.598   2.200   0.948  0.4134 -3.5738 -1.1388
 3065SOL     OW20827   0.747   3.952   9.726  0.0762  0.2000 -0.1564
 3065SOL    HW120828   0.780   4.032   9.684 -1.2207  2.5471  3.3419
 3065SOL    HW220829   0.681   3.972   9.792  0.3206 -0.6155  0.3320
 3066SOL     OW20830   0.593   0.373  15.111  0.3024 -0.1485  0.2543
 3066SOL    HW120831   0.678   0.401  15.076 -1.7547  1.8672 -3.1787
 3066SOL    HW220832   0.621   0.320  15.186  0.3353 -1.1127 -0.4421
 3067SOL     OW20833   2.398   0.672   8.599 -0.0308  0.0921 -0.2387
 3067SOL    HW120834   2.400   0.681   8.694 -1.3967 -1.9032 -0.0307
 3067SOL    HW220835   2.306   0.698   8.589 -0.1738 -0.0025  0.9030
 3068SOL     OW20836   0.391   1.027   9.194 -0.0946 -0.4081  0.0171
 3068SOL    HW120837   0.486   1.019   9.199 -0.1513 -0.3264  1.2333
 3068SOL    HW220838   0.383   1.077   9.113  1.6321  1.4234  0.9659
 3069SOL     OW20839   3.852   2.946   0.147 -0.2961 -0.1987 -0.2257
 3069SOL    HW120840   3.804   3.007   0.091  3.5988  0.5813 -2.6990
 3069SOL    HW220841   3.924   3.006   0.166  0.5682 -1.1607 -0.4883
 3070SOL     OW20842   2.709   2.498   7.111  0.2451  0.0538 -0.2763
 3070SOL    HW120843   2.764   2.457   7.178 -1.1581 -1.2423  0.0957
 3070SOL    HW220844   2.756   2.474   7.031 -1.7765  1.6985 -1.9391
 3071SOL     OW20845   1.605   3.674   3.534  0.0871  0.0551  0.1603
 3071SOL    HW120846   1.622   3.759   3.574  0.5131  0.1858 -0.3124
 3071SOL    HW220847   1.687   3.631   3.558  1.4794  1.1707 -2.7729
 3072SOL     OW20848   4.256   0.480  10.307 -0.5120  0.0254  0.4747
 3072SOL    HW120849   4.216   0.475  10.220  0.5517 -0.5139  0.0205
 3072SOL    HW220850   4.213   0.561  10.336  0.8012  0.6775  0.6036
 3073SOL     OW20851   2.309   3.152   3.341  0.0982 -0.5606 -0.8235
 3073SOL    HW120852   2.333   3.061   3.353  0.9272  0.0427  2.1191
 3073SOL    HW220853   2.358   3.178   3.263  0.3721  1.4299 -0.0146
 3074SOL     OW20854   0.999   3.151   5.544  0.0850  0.2062  0.5584
 3074SOL    HW120855   1.055   3.075   5.561 -0.0407 -0.1827 -0.8041
 3074SOL    HW220856   0.978   3.129   5.454 -1.8773  0.0862  1.0576
 3075SOL     OW20857   0.953   2.701  16.362  0.1774  0.4028 -0.6290
 3075SOL    HW120858   0.906   2.781  16.341 -0.3143  0.6102  1.2318
 3075SOL    HW220859   1.043   2.717  16.332 -0.0765  0.5324 -1.3105
 3076SOL     OW20860   0.657   2.516  11.493  0.1049 -0.5183  0.0289
 3076SOL    HW120861   0.571   2.540  11.460  0.3598  0.0251 -0.2526
 3076SOL    HW220862   0.654   2.423  11.515  0.5363 -0.6085 -0.2747
 3077SOL     OW20863   2.982   1.013   7.485  0.7313 -0.2078  0.1204
 3077SOL    HW120864   2.931   1.066   7.424  1.5592 -0.9875 -1.2487
 3077SOL    HW220865   3.058   0.995   7.429  0.7496 -3.9428  1.3395
 3078SOL     OW20866   0.688   4.210   7.692 -0.2950  0.3931  0.4493
 3078SOL    HW120867   0.696   4.214   7.787 -0.1406 -0.7566  0.4753
 3078SOL    HW220868   0.756   4.147   7.668  0.0996  0.5907  1.0676
 3079SOL     OW20869   2.898   2.760   8.481  0.2144  0.3959 -0.7493
 3079SOL    HW120870   2.835   2.689   8.495 -1.9545  2.4667  0.1288
 3079SOL    HW220871   2.967   2.717   8.430  0.4237  0.5000 -0.5563
 3080SOL     OW20872   2.174   2.280   1.832  0.2072 -0.8013  0.1607
 3080SOL    HW120873   2.130   2.211   1.881  1.9955 -0.6157  2.0231
 3080SOL    HW220874   2.170   2.254   1.740  3.3159 -0.8242  0.0570
 3081SOL     OW20875   3.235   3.657   3.100  0.4977 -0.0511  0.3548
 3081SOL    HW120876   3.294   3.603   3.047 -1.4577 -0.2806 -1.5701
 3081SOL    HW220877   3.289   3.734   3.117  1.8836 -0.9332 -0.0244
 3082SOL     OW20878   4.626   1.667   4.294  0.1005 -0.4025 -0.3255
 3082SOL    HW120879   4.552   1.654   4.354  1.3063 -1.2342  0.9952
 3082SOL    HW220880   4.653   1.749   4.335 -1.2129 -0.1549  0.0417
 3083SOL     OW20881   1.377   2.809   4.801  0.4189  0.1066 -0.1941
 3083SOL    HW120882   1.303   2.866   4.822  0.1075  0.6152 -2.6095
 3083SOL    HW220883   1.452   2.869   4.797  0.1172  0.3676 -1.9455
 3084SOL     OW20884   0.178   2.001   4.245 -0.1970  0.1906  0.1348
 3084SOL    HW120885   0.266   1.966   4.227  0.3938  0.7237  1.9697
 3084SOL    HW220886   0.143   2.023   4.159  0.1730 -1.4683 -0.4415
 3085SOL     OW20887   3.936   1.834   8.233  0.3437  0.0271 -0.3706
 3085SOL    HW120888   3.858   1.874   8.194 -0.0154  0.0016  0.3310
 3085SOL    HW220889   4.005   1.891   8.199 -1.3416  3.5047  2.0105
 3086SOL     OW20890   1.426   0.912   7.290  0.2396 -0.1910  0.3910
 3086SOL    HW120891   1.368   0.969   7.340 -1.7796 -1.4022 -0.5831
 3086SOL    HW220892   1.376   0.832   7.306  0.8709 -0.4830  0.9265
 3087SOL     OW20893   3.691   3.599   3.955 -0.1211 -0.0116  0.2070
 3087SOL    HW120894   3.626   3.531   3.973  1.3879 -1.1631  1.2639
 3087SOL    HW220895   3.687   3.589   3.860  2.1183 -1.5929  0.2845
 3088SOL     OW20896   0.314   2.554   1.422 -0.4977  0.0513 -0.2688
 3088SOL    HW120897   0.275   2.596   1.346 -0.1596  1.5527  0.3894
 3088SOL    HW220898   0.339   2.627   1.479  2.2844 -0.7450 -0.4700
 3089SOL     OW20899   2.716   3.759   3.424 -0.3014 -1.3986 -0.8497
 3089SOL    HW120900   2.782   3.702   3.464  2.6736  0.9452 -2.4375
 3089SOL    HW220901   2.771   3.823   3.379 -1.7148  1.2768  1.2138
 3090SOL     OW20902   3.925   1.529   1.793  0.2953 -0.0569 -0.4406
 3090SOL    HW120903   3.947   1.619   1.767 -0.9084  0.4479  0.3189
 3090SOL    HW220904   3.901   1.544   1.885  1.5120 -3.8406  0.5094
 3091SOL     OW20905   3.126   4.335   7.320 -0.0020 -0.2510 -0.3659
 3091SOL    HW120906   3.079   4.389   7.382 -0.0040 -0.6003 -0.0635
 3091SOL    HW220907   3.151   4.401   7.255  2.2295  0.0923  0.8316
 3092SOL     OW20908   0.341   3.378   3.286  0.3690  0.0873  0.1370
 3092SOL    HW120909   0.335   3.285   3.306  0.1439  0.3813  1.4230
 3092SOL    HW220910   0.276   3.380   3.216 -0.8820 -0.5263  1.2820
 3093SOL     OW20911   3.272   3.050  14.381 -0.3981 -0.1093 -0.1535
 3093SOL    HW120912   3.313   2.993  14.445  2.1164 -0.1358 -1.7938
 3093SOL    HW220913   3.328   3.038  14.304  0.0366 -2.3766  0.5182
 3094SOL     OW20914   2.209   4.348   8.147 -0.0912 -0.4037 -0.1682
 3094SOL    HW120915   2.146   4.409   8.107  0.8204  0.3015 -0.5390
 3094SOL    HW220916   2.194   4.381   8.235 -0.0152 -0.0885 -0.2749
 3095SOL     OW20917   1.553   4.278   7.281  0.2644  0.4898  0.2371
 3095SOL    HW120918   1.578   4.304   7.369  1.1740 -2.5233  0.8712
 3095SOL    HW220919   1.500   4.353   7.253 -1.8074 -0.4460  1.7020
 3096SOL     OW20920   3.286   0.019   5.187 -0.3105 -0.0364  0.0321
 3096SOL    HW120921   3.362   4.708   5.220  1.2503  1.9931 -0.5728
 3096SOL    HW220922   3.309   0.043   5.097 -0.5173 -0.7132 -0.2033
 3097SOL     OW20923   0.826   1.341  13.670  0.1297  0.2399 -0.1528
 3097SOL    HW120924   0.889   1.315  13.604 -1.8811 -0.2822 -1.8772
 3097SOL    HW220925   0.757   1.373  13.612  0.4831 -3.2334 -2.4675
 3098SOL     OW20926   1.368   3.827   1.311  0.8678  0.2941  0.2367
 3098SOL    HW120927   1.436   3.782   1.361  0.5958  2.0259  2.1488
 3098SOL    HW220928   1.315   3.858   1.384 -1.0781 -0.2865 -0.9371
 3099SOL     OW20929   1.335   0.833   0.327 -0.0792  0.0213  0.4147
 3099SOL    HW120930   1.385   0.758   0.359 -0.6254 -1.4420 -2.0859
 3099SOL    HW220931   1.404   0.895   0.305 -0.5356  0.2378 -0.4187
 3100SOL     OW20932   0.763   2.313   5.072  0.2173 -0.3335  0.1785
 3100SOL    HW120933   0.741   2.292   4.982  0.2933 -1.5749  0.4421
 3100SOL    HW220934   0.838   2.371   5.060  2.8007 -4.0364 -1.6082
 3101SOL     OW20935   1.606   0.819  14.794  0.5798  0.2929  0.5709
 3101SOL    HW120936   1.672   0.831  14.863  0.6480  1.7132  0.2706
 3101SOL    HW220937   1.524   0.838  14.840 -0.3148 -1.2821 -0.3849
 3102SOL     OW20938   3.333   4.237  11.976  0.1794  0.1168 -0.5155
 3102SOL    HW120939   3.273   4.214  12.047  0.0197 -1.3415 -1.1273
 3102SOL    HW220940   3.415   4.257  12.021  0.0779  1.2556 -0.8411
 3103SOL     OW20941   2.544   2.739  13.928 -0.4419  0.3062  0.0146
 3103SOL    HW120942   2.514   2.830  13.929  0.5530  0.5994  1.7899
 3103SOL    HW220943   2.467   2.694  13.963 -1.8338  2.4533 -0.2841
 3104SOL     OW20944   4.224   2.468   0.551  0.0759  0.0577 -0.3550
 3104SOL    HW120945   4.212   2.391   0.495 -2.1541  0.1989 -0.0496
 3104SOL    HW220946   4.213   2.430   0.639  0.6116  2.1497  0.6065
 3105SOL     OW20947   2.199   0.104   8.578  0.0966  0.0027 -0.6618
 3105SOL    HW120948   2.248   0.072   8.502 -0.3750 -2.6714  0.1761
 3105SOL    HW220949   2.161   0.187   8.548  0.4665 -0.5261 -2.5921
 3106SOL     OW20950   2.592   2.117   1.926 -0.8152  0.4128 -0.4675
 3106SOL    HW120951   2.524   2.141   1.989  0.8082 -0.9931  1.8325
 3106SOL    HW220952   2.675   2.130   1.973 -1.1931  1.6278 -0.1305
 3107SOL     OW20953   0.470   3.792   4.818  0.0305  0.2903  0.1769
 3107SOL    HW120954   0.414   3.839   4.756  2.9407  3.6168  0.1040
 3107SOL    HW220955   0.458   3.703   4.783  0.0180  0.0203  0.8535
 3108SOL     OW20956   2.563   1.796  10.521 -0.3662  0.1708 -0.0342
 3108SOL    HW120957   2.585   1.766  10.433  1.9828  2.4491 -0.2575
 3108SOL    HW220958   2.643   1.784  10.572 -2.4185 -0.2134  3.0809
 3109SOL     OW20959   4.477   1.576  11.479  0.4197 -0.0114  0.1617
 3109SOL    HW120960   4.484   1.623  11.396 -0.3146  0.5946  0.4420
 3109SOL    HW220961   4.433   1.500  11.441 -1.2062  1.3657 -0.6944
 3110SOL     OW20962   4.472   4.335  14.715 -0.0143  0.2941  0.0808
 3110SOL    HW120963   4.439   4.357  14.628  0.2482 -1.4038 -0.4473
 3110SOL    HW220964   4.423   4.261  14.750  1.5979  0.1346  2.0093
 3111SOL     OW20965   0.995   4.333   9.296 -0.5590 -0.0353  0.0379
 3111SOL    HW120966   0.998   4.243   9.328 -1.2853 -0.2807 -0.5982
 3111SOL    HW220967   1.001   4.328   9.201  3.2678 -0.7003  0.2875
 3112SOL     OW20968   2.328   1.053   8.824 -0.2969  0.1077  0.6084
 3112SOL    HW120969   2.364   0.987   8.883  2.3493  2.4401  1.6530
 3112SOL    HW220970   2.366   1.025   8.741 -1.0581 -0.4206  0.4433
 3113SOL     OW20971   4.736   3.254   3.669 -0.4131  0.3224 -0.8021
 3113SOL    HW120972   0.093   3.255   3.682 -0.4723  2.1051 -0.5712
 3113SOL    HW220973   4.716   3.176   3.721  1.7653  0.3620  0.0726
 3114SOL     OW20974   2.142   3.392   3.911  0.6019 -0.0133  0.4761
 3114SOL    HW120975   2.227   3.425   3.940  0.0724 -0.8361  2.8871
 3114SOL    HW220976   2.114   3.480   3.885 -1.6675 -1.3936 -1.7603
 3115SOL     OW20977   0.542   0.526   4.280  0.0607 -0.1130 -0.1655
 3115SOL    HW120978   0.516   0.615   4.303 -0.0526  0.0122 -0.7846
 3115SOL    HW220979   0.619   0.511   4.336  0.3866  0.5251 -0.4503
 3116SOL     OW20980   2.160   0.018   6.105  0.0309  0.0269  0.1280
 3116SOL    HW120981   2.081   4.714   6.068 -0.9682  1.3218  0.8046
 3116SOL    HW220982   2.118   0.076   6.169  2.6985 -0.3313  2.2007
 3117SOL     OW20983   4.588   0.578  13.666  0.1125  0.2805 -0.3613
 3117SOL    HW120984   4.569   0.590  13.573  0.2324  1.4079 -0.2390
 3117SOL    HW220985   4.517   0.616  13.717  1.2921  0.0512  1.4565
 3118SOL     OW20986   3.745   0.871   7.598 -0.0084  0.4685  0.9411
 3118SOL    HW120987   3.819   0.811   7.601 -1.5014 -1.5142 -2.5059
 3118SOL    HW220988   3.687   0.806   7.638 -0.0492 -0.2165 -0.2332
 3119SOL     OW20989   2.493   2.578   4.587  0.5678 -0.2739 -0.3265
 3119SOL    HW120990   2.488   2.671   4.608 -1.9953 -0.4609 -0.1978
 3119SOL    HW220991   2.445   2.530   4.654  0.6501 -0.0046 -0.0712
 3120SOL     OW20992   0.904   1.147   7.673 -0.2422 -0.1489  0.3069
 3120SOL    HW120993   0.936   1.217   7.615  0.0162 -0.0097  0.6160
 3120SOL    HW220994   0.814   1.134   7.645 -0.5202  1.4466  0.4393
 3121SOL     OW20995   1.683   0.481   4.928 -0.1871 -0.9989 -0.0951
 3121SOL    HW120996   1.653   0.446   4.844 -0.8116 -0.4787 -0.0839
 3121SOL    HW220997   1.768   0.514   4.898  0.5158 -2.2324  0.5365
 3122SOL     OW20998   4.413   2.998   9.642  0.0287  0.2097  0.2976
 3122SOL    HW120999   4.452   3.085   9.630  1.4636 -0.5854 -0.7614
 3122SOL    HW221000   4.390   2.999   9.735  1.2828  1.2887  0.6035
 3123SOL     OW21001   3.175   3.085  15.361  0.4076  0.1519 -0.6944
 3123SOL    HW121002   3.115   3.012  15.376 -0.2419  0.9331  0.5124
 3123SOL    HW221003   3.121   3.162  15.381 -1.2739 -1.0289 -0.6797
 3124SOL     OW21004   0.809   2.837   3.903  0.0319 -0.8222 -0.8398
 3124SOL    HW121005   0.780   2.892   3.976 -1.0722  0.6734 -2.4116
 3124SOL    HW221006   0.892   2.809   3.943 -1.3491 -0.8521  1.9558
 3125SOL     OW21007   2.108   0.423  16.118 -0.0337 -0.1354  0.0693
 3125SOL    HW121008   2.140   0.347  16.167  0.3901  1.2966  2.0065
 3125SOL    HW221009   2.119   0.487  16.188 -0.7001  3.5700 -3.2264
 3126SOL     OW21010   3.544   1.794   7.691  0.1609 -0.4559 -0.3762
 3126SOL    HW121011   3.546   1.870   7.633 -1.2791  0.5069  0.8470
 3126SOL    HW221012   3.639   1.789   7.704  0.3818  0.1917 -1.8431
 3127SOL     OW21013   0.450   2.929  17.473  0.2303 -0.1085  0.4174
 3127SOL    HW121014   0.408   2.871  17.537  1.1466  0.9512  1.9749
 3127SOL    HW221015   0.540   2.931  17.505  0.6278  1.4854 -0.7794
 3128SOL     OW21016   2.107   3.510  12.873 -0.0428 -0.2871 -0.1982
 3128SOL    HW121017   2.129   3.579  12.810  0.2540  1.1591  1.4795
 3128SOL    HW221018   2.155   3.437  12.834 -1.0907 -1.9658  1.6868
 3129SOL     OW21019   1.940   4.613   6.038 -0.7115  0.0430 -0.2530
 3129SOL    HW121020   1.901   4.609   6.125 -0.0005 -1.1898  0.0137
 3129SOL    HW221021   1.977   4.525   6.032  1.2056  0.7947  0.6598
 3130SOL     OW21022   0.693   2.422   0.414 -0.1281  0.5372  0.4679
 3130SOL    HW121023   0.716   2.459   0.500  0.2948 -0.7326  0.8966
 3130SOL    HW221024   0.601   2.445   0.400 -0.5331 -3.0775 -2.5559
 3131SOL     OW21025   4.548   2.469  12.378 -0.4868  0.0811 -0.5034
 3131SOL    HW121026   4.620   2.413  12.408 -0.4627 -1.0260 -2.6242
 3131SOL    HW221027   4.559   2.456  12.283  1.0419 -1.9039 -0.0701
 3132SOL     OW21028   3.109   2.281   2.032  0.2891  0.2105  0.6688
 3132SOL    HW121029   3.176   2.321   1.977 -0.7147 -1.2919 -1.6499
 3132SOL    HW221030   3.110   2.336   2.110 -3.6193  0.0370  0.8423
 3133SOL     OW21031   0.316   2.176   3.558  0.2555  0.2264 -0.0222
 3133SOL    HW121032   0.308   2.201   3.650  0.4258 -1.6713  0.5159
 3133SOL    HW221033   0.343   2.084   3.559  1.5757  0.6149 -0.0464
 3134SOL     OW21034   0.299   1.400   8.552  0.2336  0.1556 -0.2948
 3134SOL    HW121035   0.393   1.387   8.541  0.3734 -0.9296  2.1993
 3134SOL    HW221036   0.287   1.495   8.545 -2.1925 -0.3121 -2.6457
 3135SOL     OW21037   2.522   3.117   5.081 -0.1308  0.2338 -0.1298
 3135SOL    HW121038   2.606   3.142   5.044 -1.3380  2.6379 -1.1859
 3135SOL    HW221039   2.552   3.067   5.157  1.2117  2.7600  1.0072
 3136SOL     OW21040   0.274   4.309  16.776 -0.1377  0.7453  0.2034
 3136SOL    HW121041   0.229   4.348  16.851  0.1630  2.4924 -0.5192
 3136SOL    HW221042   0.335   4.246  16.816  0.9278  1.5440 -0.1441
 3137SOL     OW21043   0.044   1.085   9.597  0.0077 -0.3012  0.5055
 3137SOL    HW121044   0.102   1.115   9.667 -0.1845  0.4774  0.3207
 3137SOL    HW221045   4.704   1.079   9.653  0.1292  1.2827  0.8294
 3138SOL     OW21046   3.250   1.700   1.141 -0.1677 -0.0867 -0.6387
 3138SOL    HW121047   3.323   1.727   1.085  0.0541 -2.1906 -1.3557
 3138SOL    HW221048   3.186   1.662   1.080 -2.5521  1.1498  1.0716
 3139SOL     OW21049   2.917   1.856   6.522 -0.2969  0.2688  0.3366
 3139SOL    HW121050   2.912   1.767   6.555  1.2635  0.2700  0.5745
 3139SOL    HW221051   2.973   1.844   6.445 -0.1904  3.1756 -0.0423
 3140SOL     OW21052   1.049   3.857  16.497 -0.1637 -0.0976 -0.0713
 3140SOL    HW121053   1.006   3.786  16.449  0.3330  0.0435 -0.7206
 3140SOL    HW221054   1.054   3.925  16.431  2.7495 -1.3738 -1.1528
 3141SOL     OW21055   3.225   4.595   7.210 -0.5651 -0.5044 -0.5419
 3141SOL    HW121056   3.209   4.650   7.133 -0.3880  2.2926  1.4113
 3141SOL    HW221057   3.293   4.536   7.179  1.9879  2.6094 -0.7486
 3142SOL     OW21058   2.962   0.896   3.804 -0.7685  0.0307 -0.4251
 3142SOL    HW121059   2.913   0.814   3.811  0.7951 -0.6563  2.3581
 3142SOL    HW221060   2.904   0.943   3.864  0.0376 -1.0394  1.1825
 3143SOL     OW21061   4.735   2.542  13.057 -0.2872 -0.2639 -0.0589
 3143SOL    HW121062   4.716   2.624  13.010  0.5600 -0.0957 -0.1011
 3143SOL    HW221063   4.703   2.555  13.146  1.9162  1.3285  0.4998
 3144SOL     OW21064   4.675   0.148   6.845 -0.8752 -0.1467  0.1007
 3144SOL    HW121065   4.735   0.154   6.771  0.8165  1.1879  1.5799
 3144SOL    HW221066   4.600   0.106   6.804 -1.8047  1.3528  0.2800
 3145SOL     OW21067   2.558   4.453   3.475  0.6830 -0.3314 -0.0315
 3145SOL    HW121068   2.650   4.468   3.498  0.1889  1.4862  0.7337
 3145SOL    HW221069   2.562   4.456   3.380  1.3799  1.2085  0.0512
 3146SOL     OW21070   4.288   3.515   2.230  0.0160  0.8117 -0.1338
 3146SOL    HW121071   4.226   3.453   2.266  1.0195  0.2206  0.5855
 3146SOL    HW221072   4.317   3.566   2.306  0.2182 -1.0616  1.0271
 3147SOL     OW21073   2.846   3.854   8.078 -0.3600  0.4095  0.1765
 3147SOL    HW121074   2.818   3.903   8.000 -0.1342 -2.5187 -1.7322
 3147SOL    HW221075   2.910   3.910   8.122  0.9311  0.3722 -1.6773
 3148SOL     OW21076   3.460   3.505   8.735 -0.0287 -0.0234  0.0187
 3148SOL    HW121077   3.386   3.446   8.721  0.0383  0.1632 -1.1602
 3148SOL    HW221078   3.501   3.448   8.800 -0.9157 -1.4110 -0.6227
 3149SOL     OW21079   3.311   1.250   8.471  0.1294  0.0967 -0.2104
 3149SOL    HW121080   3.337   1.159   8.461  0.6402  0.2165  0.0327
 3149SOL    HW221081   3.219   1.250   8.443 -0.1537  1.7421  0.7252
 3150SOL     OW21082   2.302   0.983  13.316 -0.2324 -0.4364  0.1788
 3150SOL    HW121083   2.390   1.005  13.285 -0.0637  0.4002  1.2717
 3150SOL    HW221084   2.252   1.027  13.247  3.4430  2.7303 -0.4619
 3151SOL     OW21085   4.657   2.573  14.126  0.5595  0.0428  0.1714
 3151SOL    HW121086   4.593   2.583  14.055  0.5445 -1.6809 -0.0643
 3151SOL    HW221087   4.629   2.492  14.169  2.5531 -0.8027 -0.1452
 3152SOL     OW21088   1.327   4.410   3.612 -0.8385  0.1523  0.0532
 3152SOL    HW121089   1.232   4.397   3.602 -0.3537 -2.7385 -0.5915
 3152SOL    HW221090   1.335   4.504   3.629  0.0338 -0.0175  0.5952
 3153SOL     OW21091   3.034   0.097   2.021 -0.2233 -0.1607  0.3027
 3153SOL    HW121092   3.028   0.120   1.928 -0.7355  1.7129  0.7916
 3153SOL    HW221093   3.109   0.037   2.023 -0.9025 -1.0312 -0.4436
 3154SOL     OW21094   0.540   2.834  16.903  0.3397  0.8786  0.3019
 3154SOL    HW121095   0.472   2.899  16.921 -0.4112 -0.2168  1.4477
 3154SOL    HW221096   0.539   2.784  16.984  2.0125  0.4896  0.0684
 3155SOL     OW21097   1.088   3.298   0.471  0.0370  0.3347  0.3528
 3155SOL    HW121098   1.156   3.295   0.538  0.7335  1.6448 -0.3092
 3155SOL    HW221099   1.131   3.348   0.401 -0.0768 -0.9039 -0.6067
 3156SOL     OW21100   0.536   4.069   8.065  0.3835 -0.6170  0.1162
 3156SOL    HW121101   0.579   4.145   8.025  0.5277 -1.5708 -1.5346
 3156SOL    HW221102   0.577   4.069   8.151 -0.1579  3.8543  0.3835
 3157SOL     OW21103   0.324   4.563   7.495 -0.1532  0.0230 -0.6279
 3157SOL    HW121104   0.357   4.651   7.479 -0.6453  0.5118  1.1014
 3157SOL    HW221105   0.284   4.541   7.410  0.3978 -2.2486 -0.3128
 3158SOL     OW21106   4.203   3.282  12.302 -0.2326 -0.0343  0.4919
 3158SOL    HW121107   4.216   3.188  12.296  1.1129  0.2951 -1.6610
 3158SOL    HW221108   4.110   3.305  12.299 -0.2909 -0.9092 -4.1782
 3159SOL     OW21109   2.522   3.493   2.387 -0.3969 -0.1442 -0.7261
 3159SOL    HW121110   2.439   3.465   2.349 -0.6184 -1.9674  1.0856
 3159SOL    HW221111   2.510   3.570   2.443 -2.5523 -0.5148 -0.6869
 3160SOL     OW21112   4.336   1.431   6.199 -0.9658 -0.0514  0.4877
 3160SOL    HW121113   4.375   1.515   6.221  1.1222 -1.3228  1.6226
 3160SOL    HW221114   4.332   1.451   6.106 -0.6598  3.0705  1.1534
 3161SOL     OW21115   0.161   0.075   6.984  0.4687  0.1875 -0.4814
 3161SOL    HW121116   0.073   0.083   6.947  0.6208 -1.6554 -1.2506
 3161SOL    HW221117   0.169   0.130   7.062  3.1143  1.2525 -1.5188
 3162SOL     OW21118   2.086   3.044   1.871  0.3604  0.5137 -0.3465
 3162SOL    HW121119   2.081   3.139   1.865  0.2807  0.7134  2.8752
 3162SOL    HW221120   2.010   3.020   1.819 -0.0207  0.8449  0.0566
 3163SOL     OW21121   4.075   2.164   3.968 -0.3197 -0.1527 -0.2799
 3163SOL    HW121122   4.156   2.210   3.992 -0.1763  0.4340 -1.8469
 3163SOL    HW221123   4.020   2.239   3.944  1.0620  1.3257  1.1404
 3164SOL     OW21124   4.258   2.078  15.058  0.4085  0.6868 -0.7015
 3164SOL    HW121125   4.292   2.157  15.099 -0.1522  0.7329 -0.3305
 3164SOL    HW221126   4.223   2.033  15.135 -0.4608  0.4570 -1.2205
 3165SOL     OW21127   0.273   4.393   6.510 -0.0488  0.7226  0.8232
 3165SOL    HW121128   0.219   4.325   6.550 -0.0829  0.2044 -0.0978
 3165SOL    HW221129   0.354   4.387   6.560  0.9127  0.2025 -0.7968
 3166SOL     OW21130   0.120   2.482  17.573  0.5547 -0.0035 -0.5175
 3166SOL    HW121131   0.168   2.409  17.533  0.8214 -0.2960  0.3374
 3166SOL    HW221132   0.188   2.510  17.635 -0.6017  0.5944  0.4749
 3167SOL     OW21133   2.178   1.668  15.757  0.4867  0.3210  0.6641
 3167SOL    HW121134   2.211   1.618  15.832  2.3900  0.9705  0.2730
 3167SOL    HW221135   2.128   1.595  15.721  1.1637  0.5885 -0.8198
 3168SOL     OW21136   2.519   2.603   8.119  0.1289  0.1509 -0.4337
 3168SOL    HW121137   2.489   2.671   8.058 -0.8194  0.2438  0.1342
 3168SOL    HW221138   2.609   2.632   8.128  0.2164 -0.2042 -0.1769
 3169SOL     OW21139   3.707   1.301   6.304  0.4111 -0.2345 -0.1366
 3169SOL    HW121140   3.755   1.357   6.366 -0.6842 -0.4434  0.8967
 3169SOL    HW221141   3.620   1.339   6.313  0.1653 -0.6410 -0.8381
 3170SOL     OW21142   4.674   1.138  13.810 -0.4342  0.1996 -0.1136
 3170SOL    HW121143   4.712   1.051  13.798  1.7388  1.1132  0.2805
 3170SOL    HW221144   4.685   1.147  13.905 -0.1151 -1.0180 -0.0337
 3171SOL     OW21145   1.792   4.632  15.649 -0.0177 -0.0151 -0.9361
 3171SOL    HW121146   1.865   4.609  15.592 -0.3016 -0.6886 -1.0357
 3171SOL    HW221147   1.767   4.709  15.598  0.4809  0.1659 -0.9012
 3172SOL     OW21148   1.432   0.986   3.136  0.4422 -0.2367  0.3416
 3172SOL    HW121149   1.418   0.894   3.113  0.4946 -0.0221 -0.5609
 3172SOL    HW221150   1.346   1.014   3.167  0.2300  1.5249 -1.7971
 3173SOL     OW21151   0.926   2.860   5.131 -0.1798  0.1034 -0.5849
 3173SOL    HW121152   0.839   2.876   5.167  0.2699  0.8895  0.1357
 3173SOL    HW221153   0.910   2.813   5.049  0.5799 -0.6523 -0.3042
 3174SOL     OW21154   1.939   3.926   5.041 -0.2089  0.1228 -0.4753
 3174SOL    HW121155   1.953   3.999   4.981  1.6160 -0.6486 -0.9986
 3174SOL    HW221156   2.022   3.922   5.089 -0.8811  0.3016  0.6861
 3175SOL     OW21157   1.700   3.231   2.804 -0.2110 -0.3091 -0.6327
 3175SOL    HW121158   1.707   3.253   2.711  1.4598 -0.1503 -0.4655
 3175SOL    HW221159   1.789   3.250   2.834 -0.2472  0.4536 -0.9923
 3176SOL     OW21160   0.934   2.708   4.280 -0.1433  0.1107 -0.3176
 3176SOL    HW121161   0.999   2.730   4.213  1.0368 -1.3393  0.3411
 3176SOL    HW221162   0.980   2.702   4.364 -0.0699 -2.6274 -0.5399
 3177SOL     OW21163   4.403   4.143   4.076 -0.0159  0.1872 -0.1603
 3177SOL    HW121164   4.437   4.229   4.053 -0.1758  0.0374 -0.9409
 3177SOL    HW221165   4.454   4.099   4.007  2.0504  2.6875 -0.2228
 3178SOL     OW21166   2.442   0.311   3.730 -0.3858 -0.1383 -0.2111
 3178SOL    HW121167   2.406   0.399   3.727  0.4876  0.2805  1.6603
 3178SOL    HW221168   2.364   0.264   3.760 -0.5361  0.4471  0.3063
 3179SOL     OW21169   2.498   4.290  12.679 -0.2186 -0.2176 -0.5199
 3179SOL    HW121170   2.448   4.225  12.729  0.1610 -1.0010 -1.1531
 3179SOL    HW221171   2.451   4.371  12.700  0.5158  0.0526  0.0605
 3180SOL     OW21172   2.023   0.405   7.436 -0.5689 -0.2730  0.2914
 3180SOL    HW121173   2.053   0.495   7.450  1.2837 -0.4128 -2.7046
 3180SOL    HW221174   2.082   0.362   7.499  1.2170  0.0997 -1.1252
 3181SOL     OW21175   2.576   3.769  10.829  0.2448 -0.0219  0.0565
 3181SOL    HW121176   2.628   3.696  10.864 -1.1928 -1.8349 -1.5981
 3181SOL    HW221177   2.613   3.844  10.876  0.6107 -0.7051  0.8555
 3182SOL     OW21178   2.631   0.470   8.966  0.3700  0.3508 -0.0504
 3182SOL    HW121179   2.576   0.399   8.932 -1.1679  0.8775  1.2898
 3182SOL    HW221180   2.706   0.446   8.912  0.3435 -2.0069  0.9969
 3183SOL     OW21181   3.738   3.009  16.269  0.0764 -0.4384  0.1949
 3183SOL    HW121182   3.719   2.998  16.176  1.7350 -0.0587 -0.2070
 3183SOL    HW221183   3.745   2.922  16.307 -1.7822 -0.5635  0.2171
 3184SOL     OW21184   0.219   4.262   2.088  0.3829 -0.7038 -0.6236
 3184SOL    HW121185   0.223   4.251   2.183  0.2027  0.2562 -0.5119
 3184SOL    HW221186   0.175   4.346   2.096  1.0179 -0.4684  0.4216
 3185SOL     OW21187   0.950   2.098   7.716  0.1785  0.1664 -0.3855
 3185SOL    HW121188   0.997   2.120   7.797 -0.4586  0.2284 -0.0392
 3185SOL    HW221189   1.012   2.147   7.662  1.9159  2.0102  3.2062
 3186SOL     OW21190   2.109   0.341   3.490  0.0472 -0.0638 -0.4817
 3186SOL    HW121191   2.096   0.248   3.508 -0.3720 -0.4581 -2.8021
 3186SOL    HW221192   2.151   0.335   3.404 -1.1875 -0.1319 -1.0793
 3187SOL     OW21193   0.821   1.398   1.445 -0.2445 -0.3338  1.3889
 3187SOL    HW121194   0.738   1.410   1.399  1.4276 -0.7981 -1.7429
 3187SOL    HW221195   0.809   1.307   1.475  3.3016 -1.0138  0.7960
 3188SOL     OW21196   2.781   3.477  14.816  0.2142  0.1548 -0.7659
 3188SOL    HW121197   2.865   3.486  14.770 -0.6512  1.3078 -2.1171
 3188SOL    HW221198   2.728   3.545  14.775 -0.8003 -0.8001 -1.0334
 3189SOL     OW21199   1.261   4.581   6.380 -0.7453 -0.0896  0.3263
 3189SOL    HW121200   1.175   4.545   6.357 -0.8514  1.0743 -1.1535
 3189SOL    HW221201   1.297   4.578   6.292 -0.2980 -1.0000  0.5430
 3190SOL     OW21202   1.759   3.389   3.098  0.7048  0.0141  0.4479
 3190SOL    HW121203   1.710   3.354   3.172  0.5023  0.2950  0.4437
 3190SOL    HW221204   1.689   3.452   3.084 -0.5501 -1.7055 -0.9658
 3191SOL     OW21205   3.478   2.888  17.520 -0.2553  0.0630  0.2747
 3191SOL    HW121206   3.481   2.947  17.595 -1.1680  0.6099 -0.1157
 3191SOL    HW221207   3.572   2.872  17.509  0.0422  2.4954 -0.9038
 3192SOL     OW21208   2.078   2.639   1.630 -0.0932  0.3740  0.2799
 3192SOL    HW121209   2.020   2.582   1.680  2.3340 -1.5166  0.9908
 3192SOL    HW221210   2.104   2.568   1.571  1.7285  2.1844 -1.1243
 3193SOL     OW21211   1.469   1.858   1.950 -0.1180 -0.1651  0.1856
 3193SOL    HW121212   1.563   1.845   1.939 -0.2198 -0.7782  0.0414
 3193SOL    HW221213   1.441   1.837   1.861 -2.5793  1.7375  0.5010
 3194SOL     OW21214   1.730   1.381   1.668  0.0171 -0.3079 -0.3520
 3194SOL    HW121215   1.770   1.309   1.718  0.1515  0.7648  1.1166
 3194SOL    HW221216   1.768   1.361   1.583  0.4273  0.6971 -0.4019
 3195SOL     OW21217   3.857   1.646   5.423 -0.0209  0.0767 -0.3936
 3195SOL    HW121218   3.895   1.733   5.417  1.8778 -0.8035 -1.0008
 3195SOL    HW221219   3.852   1.643   5.519  1.3646  1.5662 -0.2747
 3196SOL     OW21220   1.482   3.786   7.745 -0.8205  0.7217  0.2359
 3196SOL    HW121221   1.541   3.836   7.803 -1.6282  0.4693  1.2756
 3196SOL    HW221222   1.513   3.699   7.768 -0.9188  0.6882  0.2383
 3197SOL     OW21223   0.881   0.633   7.507  0.9870 -0.3613 -0.0889
 3197SOL    HW121224   0.898   0.611   7.598  1.5269 -1.1888 -0.3922
 3197SOL    HW221225   0.877   0.542   7.476 -1.3839  0.0019 -0.8690
 3198SOL     OW21226   2.326   1.172   5.734  0.3373 -0.6424  0.3364
 3198SOL    HW121227   2.340   1.245   5.794 -1.6982  0.5721 -0.6656
 3198SOL    HW221228   2.235   1.147   5.753  0.5982 -1.6682  0.2682
 3199SOL     OW21229   1.465   3.885   8.188  0.3698 -0.1054  0.7854
 3199SOL    HW121230   1.443   3.952   8.252  0.0205  1.1513 -0.6300
 3199SOL    HW221231   1.406   3.916   8.119  0.2500  0.4201  1.1295
 3200SOL     OW21232   2.029   4.552   8.700 -0.3404  0.2706  0.2766
 3200SOL    HW121233   2.043   4.581   8.790  2.4501 -1.4887  0.3925
 3200SOL    HW221234   2.047   4.634   8.654 -1.4303 -0.4051 -1.3830
 3201SOL     OW21235   2.912   3.134   2.512  0.3129 -0.2458 -0.1663
 3201SOL    HW121236   2.829   3.181   2.501  1.9403  3.0675  1.6260
 3201SOL    HW221237   2.903   3.065   2.446 -4.1949  1.2847 -1.1699
 3202SOL     OW21238   1.021   3.136  16.530 -0.4051 -0.1777 -0.0497
 3202SOL    HW121239   1.044   3.050  16.565 -1.6339 -0.1295  0.8884
 3202SOL    HW221240   1.027   3.194  16.606 -0.8871  0.2633 -0.3519
 3203SOL     OW21241   3.262   4.561   2.464  0.6431  0.4239 -0.1696
 3203SOL    HW121242   3.296   4.635   2.514  2.8796 -0.0345 -1.0269
 3203SOL    HW221243   3.303   4.485   2.506 -1.7644 -0.2032  1.0822
 3204SOL     OW21244   1.902   0.408   9.724  0.1407 -0.6361 -0.5342
 3204SOL    HW121245   1.918   0.317   9.748  1.0578 -0.3264  0.0535
 3204SOL    HW221246   1.989   0.442   9.745 -0.1112 -0.0093 -0.5169
 3205SOL     OW21247   1.396   2.979   5.323 -0.1852 -0.1773 -0.3524
 3205SOL    HW121248   1.458   2.908   5.309 -0.4664 -0.6171  0.6361
 3205SOL    HW221249   1.322   2.928   5.292  0.7426 -1.4925 -0.3838
 3206SOL     OW21250   2.372   1.028  11.148 -0.0428  0.0648  0.2096
 3206SOL    HW121251   2.340   0.952  11.197 -0.2086 -0.1771 -0.2746
 3206SOL    HW221252   2.289   1.053  11.108  0.6382  1.4250 -0.3206
 3207SOL     OW21253   4.656   4.439   4.826 -0.0716 -0.6819  0.0051
 3207SOL    HW121254   4.706   4.506   4.780 -0.1729 -1.0888 -0.7085
 3207SOL    HW221255   4.689   4.357   4.787 -1.2797 -2.3712  2.5515
 3208SOL     OW21256   0.201   2.125   4.527  0.8525  0.4054  0.3526
 3208SOL    HW121257   0.198   2.098   4.435 -0.4903 -0.1454  0.5442
 3208SOL    HW221258   0.145   2.057   4.566 -1.6658  2.1315 -0.2391
 3209SOL     OW21259   3.738   4.068   0.998 -0.5719 -0.0886 -0.4661
 3209SOL    HW121260   3.737   4.152   1.043  1.6805 -1.5280  2.2695
 3209SOL    HW221261   3.821   4.072   0.950 -0.7896  0.5646 -0.7830
 3210SOL     OW21262   3.266   1.541   9.303  0.2323 -0.3562  0.2002
 3210SOL    HW121263   3.183   1.589   9.299  1.5998  1.7813 -2.6906
 3210SOL    HW221264   3.274   1.520   9.210 -2.4439  0.3622 -0.2158
 3211SOL     OW21265   2.526   1.306   0.031  0.6039 -0.2940  0.0670
 3211SOL    HW121266   2.488   1.249   0.098  0.2193  0.7942  0.7730
 3211SOL    HW221267   2.618   1.283   0.050  1.0039 -1.0126 -2.7505
 3212SOL     OW21268   4.477   1.198   5.832 -0.3909  0.0182 -0.2369
 3212SOL    HW121269   4.541   1.191   5.762  0.2675 -0.1798  0.3808
 3212SOL    HW221270   4.403   1.186   5.773 -0.2117  3.0538 -1.0860
 3213SOL     OW21271   0.017   3.358  13.448  0.4020  0.1455 -0.3233
 3213SOL    HW121272   0.030   3.378  13.540 -3.1717  0.4000  0.1121
 3213SOL    HW221273   0.015   3.264  13.466  0.5487  0.3061  0.5269
 3214SOL     OW21274   1.251   3.767   9.599 -0.1852 -0.5688 -0.4696
 3214SOL    HW121275   1.220   3.795   9.513  0.2091 -1.9838 -1.0759
 3214SOL    HW221276   1.187   3.821   9.645  0.5022  1.1680 -1.5801
 3215SOL     OW21277   0.333   2.664  14.765 -0.3707  0.2371 -0.0377
 3215SOL    HW121278   0.287   2.626  14.840 -0.1703 -1.9345 -1.0167
 3215SOL    HW221279   0.349   2.751  14.802  2.9769 -0.1678 -0.4683
 3216SOL     OW21280   3.174   1.761   4.002 -0.4651 -0.5801 -0.1719
 3216SOL    HW121281   3.093   1.805   3.974 -0.1200 -0.6448 -1.2597
 3216SOL    HW221282   3.213   1.827   4.060 -2.4207 -1.3696  2.0417
 3217SOL     OW21283   1.789   0.737   5.592  0.0916  0.6747  0.3158
 3217SOL    HW121284   1.824   0.663   5.641  2.8426  1.8770  0.1933
 3217SOL    HW221285   1.745   0.696   5.518 -1.1758 -1.0540  2.0410
 3218SOL     OW21286   3.364   0.341  14.697  0.5893 -0.7363  0.1878
 3218SOL    HW121287   3.401   0.272  14.641 -0.9929 -1.3568 -0.1120
 3218SOL    HW221288   3.300   0.384  14.641  0.2728 -1.0979  0.2699
 3219SOL     OW21289   2.866   3.561   3.515 -0.5876 -0.2935 -0.1553
 3219SOL    HW121290   2.846   3.521   3.600  4.0922 -1.7662  0.2442
 3219SOL    HW221291   2.833   3.491   3.458  0.7428 -1.3495  0.3603
 3220SOL     OW21292   0.377   3.696  10.695  1.3283  0.1842  0.0831
 3220SOL    HW121293   0.455   3.736  10.656  1.3379 -0.0671 -0.1544
 3220SOL    HW221294   0.348   3.653  10.615 -0.3167 -0.5614  1.0792
 3221SOL     OW21295   1.015   3.852   8.025  0.3924  0.4924  0.4447
 3221SOL    HW121296   0.996   3.805   7.944 -2.7397  0.9474  0.9026
 3221SOL    HW221297   0.940   3.826   8.079  0.5358 -2.3362 -0.6690
 3222SOL     OW21298   2.736   1.698   5.037  0.0151  0.5154  0.1788
 3222SOL    HW121299   2.752   1.604   5.028  0.4394  0.7750 -1.6980
 3222SOL    HW221300   2.689   1.717   4.956  0.7994  2.9384  0.3130
 3223SOL     OW21301   1.127   4.012   3.461 -0.3535 -0.4850 -0.0393
 3223SOL    HW121302   1.082   4.009   3.376 -0.2236 -1.3439 -0.0795
 3223SOL    HW221303   1.215   4.028   3.428 -0.1243 -0.5885  0.5273
 3224SOL     OW21304   3.755   2.877  15.700 -0.0800  0.0657  0.1806
 3224SOL    HW121305   3.744   2.972  15.704  0.5446  0.1719 -0.6094
 3224SOL    HW221306   3.688   2.855  15.636  2.7431 -1.5985 -2.2513
 3225SOL     OW21307   1.765   1.110   5.185 -0.4579  0.7373 -0.1141
 3225SOL    HW121308   1.829   1.064   5.130 -0.6613  1.4825 -0.9797
 3225SOL    HW221309   1.829   1.152   5.242  0.3376 -1.3079  0.4993
 3226SOL     OW21310   1.252   3.908   2.681  0.3924  0.5036  0.1655
 3226SOL    HW121311   1.235   3.960   2.603 -0.2996 -1.0549 -0.7116
 3226SOL    HW221312   1.222   3.823   2.650  0.6624  0.5324 -0.1743
 3227SOL     OW21313   4.242   0.276   3.067 -0.6552  0.0621 -0.1692
 3227SOL    HW121314   4.249   0.289   2.972  1.2495  2.2351  0.2537
 3227SOL    HW221315   4.248   0.182   3.080  0.9624  0.4543  1.9118
 3228SOL     OW21316   0.551   1.718  13.008 -0.0358 -0.1088 -0.1236
 3228SOL    HW121317   0.516   1.638  13.045 -3.0167  1.2260 -0.1024
 3228SOL    HW221318   0.611   1.683  12.943  0.8679  0.2874  0.4864
 3229SOL     OW21319   1.967   0.694   6.784  0.8174 -0.5224 -0.1057
 3229SOL    HW121320   1.987   0.617   6.837  1.2866 -0.5709 -0.3495
 3229SOL    HW221321   1.968   0.761   6.853  0.5226  0.1524 -0.7538
 3230SOL     OW21322   2.328   2.623  14.027 -0.5352  0.6768 -0.2307
 3230SOL    HW121323   2.331   2.527  14.027 -2.2780  0.6187 -1.6603
 3230SOL    HW221324   2.238   2.624  13.994 -0.6280 -2.2573 -0.0281
 3231SOL     OW21325   2.331   3.957   6.793 -0.4204  0.4242  0.0690
 3231SOL    HW121326   2.349   3.879   6.741 -2.0451  0.0096  0.1367
 3231SOL    HW221327   2.344   4.027   6.729  0.4468  1.4611  1.3629
 3232SOL     OW21328   3.480   4.077  10.611 -0.3693  0.3098 -0.6145
 3232SOL    HW121329   3.535   4.015  10.659 -0.1637 -1.1662 -2.7704
 3232SOL    HW221330   3.495   4.035  10.527  3.1667  4.5701 -2.1155
 3233SOL     OW21331   3.283   4.375   5.090 -1.0341  0.8567 -0.1582
 3233SOL    HW121332   3.304   4.435   5.019  0.1358  2.4782  1.5528
 3233SOL    HW221333   3.328   4.292   5.072 -2.4555 -0.5297  2.5372
 3234SOL     OW21334   3.492   3.665   0.780  0.4752  0.0302 -0.4152
 3234SOL    HW121335   3.528   3.595   0.726 -0.1174  1.6465 -2.8527
 3234SOL    HW221336   3.463   3.605   0.849  0.2605  1.0230  0.3693
 3235SOL     OW21337   4.437   2.451   8.603  0.0986 -0.2724  0.4901
 3235SOL    HW121338   4.446   2.477   8.695 -0.8551 -3.2340  1.4175
 3235SOL    HW221339   4.418   2.533   8.558  2.3943 -1.3272 -2.3722
 3236SOL     OW21340   3.098   2.117   4.640  0.4935  0.2136 -0.1372
 3236SOL    HW121341   3.114   2.158   4.725  2.1904  0.4184 -0.5538
 3236SOL    HW221342   3.038   2.184   4.605  0.0176 -0.6426 -0.9668
 3237SOL     OW21343   2.224   3.458   9.473  0.2295 -1.0045  0.0221
 3237SOL    HW121344   2.177   3.396   9.417  0.2159 -1.2147  0.2688
 3237SOL    HW221345   2.174   3.447   9.553 -0.9319 -2.0946 -0.8662
 3238SOL     OW21346   2.504   3.394  12.118 -0.0016 -0.5589  0.0513
 3238SOL    HW121347   2.553   3.468  12.153  0.5255 -2.6266  3.7994
 3238SOL    HW221348   2.469   3.370  12.204 -0.0081  1.5067  0.6253
 3239SOL     OW21349   1.891   1.401  17.581 -0.6282  0.0744 -0.5011
 3239SOL    HW121350   1.845   1.341  17.639 -3.3078  0.2658 -2.4210
 3239SOL    HW221351   1.838   1.403  17.501  0.5258 -0.5952 -1.2817
 3240SOL     OW21352   1.135   4.063  13.731 -0.4762 -0.3382 -0.7779
 3240SOL    HW121353   1.137   4.051  13.826 -2.8715  1.8885 -0.4482
 3240SOL    HW221354   1.226   4.041  13.710 -0.7723 -1.6892 -0.6725
 3241SOL     OW21355   3.183   0.728   7.855 -0.2717  0.2831  0.1009
 3241SOL    HW121356   3.259   0.784   7.836  0.2930 -0.4482  0.2253
 3241SOL    HW221357   3.168   0.751   7.947 -0.3525 -0.3804  0.2477
 3242SOL     OW21358   4.493   1.400   3.600 -0.6423 -0.1631  0.0571
 3242SOL    HW121359   4.547   1.460   3.651  0.7296 -3.2047  2.1954
 3242SOL    HW221360   4.427   1.367   3.662 -0.4461  0.5734  0.6408
 3243SOL     OW21361   3.314   2.602   5.799  0.1128  0.3094  0.1966
 3243SOL    HW121362   3.293   2.630   5.710 -1.0063 -0.8130  0.1136
 3243SOL    HW221363   3.235   2.619   5.851  1.2698  1.0635  1.7261
 3244SOL     OW21364   2.995   3.231  13.472  0.9573  0.0674 -0.3154
 3244SOL    HW121365   2.942   3.151  13.475  1.4149 -0.2335 -0.2572
 3244SOL    HW221366   3.014   3.233  13.378 -1.2398  1.0030 -0.7405
 3245SOL     OW21367   3.349   4.685   7.460  0.4446  0.2196 -0.3871
 3245SOL    HW121368   3.388   0.026   7.421  0.0992 -0.7867 -2.7428
 3245SOL    HW221369   3.318   4.646   7.378  0.3291  2.6615 -1.5233
 3246SOL     OW21370   3.309   1.365   4.844 -0.0638  0.0196  0.0209
 3246SOL    HW121371   3.401   1.347   4.859 -0.5617 -0.2788  2.9061
 3246SOL    HW221372   3.317   1.442   4.788  1.5423  0.2964  0.6434
 3247SOL     OW21373   3.712   3.613   1.017 -0.2836 -0.1759 -0.1681
 3247SOL    HW121374   3.686   3.705   1.026 -1.4184 -0.4442 -0.6947
 3247SOL    HW221375   3.640   3.586   0.960 -0.9729  0.8578  0.2143
 3248SOL     OW21376   3.574   1.191   7.969  0.4768 -0.2213 -0.0997
 3248SOL    HW121377   3.619   1.237   7.897 -0.8310 -0.8816 -1.3398
 3248SOL    HW221378   3.510   1.260   7.989  0.2891  0.1099 -1.8263
 3249SOL     OW21379   2.764   1.251   2.597 -0.6740  0.4331  0.1806
 3249SOL    HW121380   2.803   1.223   2.514 -1.0663  1.4372 -0.3395
 3249SOL    HW221381   2.820   1.318   2.637 -0.2016  1.1134 -1.6285
 3250SOL     OW21382   0.016   1.903   3.552 -0.0403  0.0708 -0.3018
 3250SOL    HW121383   0.082   1.833   3.544 -1.6238 -1.4118 -0.3210
 3250SOL    HW221384   4.697   1.882   3.478 -0.3997 -2.1733  0.6165
 3251SOL     OW21385   2.225   0.504  13.661  0.4973  0.2237 -0.2235
 3251SOL    HW121386   2.306   0.492  13.711 -0.2846 -1.1278  0.7164
 3251SOL    HW221387   2.227   0.599  13.666  0.2028  0.0306  3.3615
 3252SOL     OW21388   3.343   2.029   3.370 -0.2476  0.3492 -0.1835
 3252SOL    HW121389   3.414   2.089   3.391  0.9795 -1.3872  0.6656
 3252SOL    HW221390   3.383   1.957   3.322 -0.0216  0.2474  0.1607
 3253SOL     OW21391   2.428   0.888   8.232  0.5034  0.2573  0.1228
 3253SOL    HW121392   2.393   0.816   8.285  0.6915 -1.1488 -1.6810
 3253SOL    HW221393   2.370   0.956   8.268 -0.7953 -0.1447 -1.2435
 3254SOL     OW21394   3.426   2.169  10.278  0.4163  0.0075  0.5423
 3254SOL    HW121395   3.477   2.148  10.356  0.4208  0.7246  0.7358
 3254SOL    HW221396   3.426   2.091  10.224  3.1250  0.2035  0.2797
 3255SOL     OW21397   2.368   3.086   4.064 -0.4267  0.6195  0.2818
 3255SOL    HW121398   2.369   3.068   3.970 -4.0597  1.2593  0.1472
 3255SOL    HW221399   2.275   3.104   4.071 -0.4145  0.4607  0.8343
 3256SOL     OW21400   4.706   3.527   5.441 -0.1221  0.5330 -0.2547
 3256SOL    HW121401   4.671   3.512   5.529  1.6571  0.6668  0.4733
 3256SOL    HW221402   0.058   3.493   5.430  0.1437  1.1229  0.0970
 3257SOL     OW21403   2.270   3.672  12.666 -0.3714 -0.3128 -0.0090
 3257SOL    HW121404   2.325   3.686  12.743 -0.5073 -0.5487  0.1296
 3257SOL    HW221405   2.249   3.763  12.645  0.4097 -0.4999 -1.6210
 3258SOL     OW21406   2.071   1.812   7.636 -0.3639  0.5451 -0.3335
 3258SOL    HW121407   1.996   1.788   7.581 -1.3078  0.2319  1.0835
 3258SOL    HW221408   2.135   1.762   7.586 -0.7078 -0.6048  0.3899
 3259SOL     OW21409   3.796   4.182  13.349  0.0094  0.1790 -0.0052
 3259SOL    HW121410   3.861   4.252  13.352 -1.3415  1.5168 -2.4982
 3259SOL    HW221411   3.728   4.214  13.290  1.1654  1.6947 -0.5186
 3260SOL     OW21412   0.753   2.897  16.680 -0.3914 -0.4107 -0.1197
 3260SOL    HW121413   0.794   2.982  16.698  1.2337 -1.9478  3.3354
 3260SOL    HW221414   0.689   2.893  16.751 -1.5814 -1.1388 -1.2162
 3261SOL     OW21415   1.886   1.415   7.348 -0.3144  0.6616  0.1642
 3261SOL    HW121416   1.885   1.402   7.443  2.5612  0.6421  0.1743
 3261SOL    HW221417   1.824   1.349   7.316 -0.4558  0.7914  0.1691
 3262SOL     OW21418   2.978   0.378   8.409 -0.3222 -0.7379 -0.3087
 3262SOL    HW121419   3.023   0.432   8.474 -1.1437  0.3961 -0.6639
 3262SOL    HW221420   2.972   0.288   8.441  0.4489 -0.4325  0.6661
 3263SOL     OW21421   3.763   2.143   4.775 -0.0430  0.0318  0.1428
 3263SOL    HW121422   3.692   2.117   4.834  1.4947 -1.8610  1.1888
 3263SOL    HW221423   3.719   2.141   4.690  0.4366 -0.5515 -0.0973
 3264SOL     OW21424   0.592   0.180   3.830  0.5857  0.3384 -0.4062
 3264SOL    HW121425   0.639   0.234   3.765 -0.2548 -0.3270 -1.5525
 3264SOL    HW221426   0.525   0.139   3.777  2.1370 -1.7574 -0.7330
 3265SOL     OW21427   3.428   4.159  16.729  0.5974  0.7105 -0.3317
 3265SOL    HW121428   3.421   4.137  16.637  1.4996  0.2252 -0.2872
 3265SOL    HW221429   3.476   4.085  16.766  0.4677 -0.3171 -2.2379
 3266SOL     OW21430   4.045   3.597  13.745 -0.4494  0.3400  0.4484
 3266SOL    HW121431   4.004   3.592  13.658  0.7378 -0.3768 -0.0616
 3266SOL    HW221432   3.974   3.589  13.808 -0.9471 -2.9905 -0.5077
 3267SOL     OW21433   0.236   3.295   4.016  0.6124 -0.9549  0.1881
 3267SOL    HW121434   0.261   3.247   3.937 -0.2004  1.7282 -1.6916
 3267SOL    HW221435   0.300   3.366   4.012  1.2277 -1.4196  1.5900
 3268SOL     OW21436   1.963   4.111  12.538 -0.1216 -0.4413  0.2118
 3268SOL    HW121437   1.902   4.038  12.525 -2.3831  1.6281 -0.6657
 3268SOL    HW221438   1.912   4.163  12.600  0.2825 -1.3715  1.3297
 3269SOL     OW21439   0.386   0.427   1.714  0.4033  0.7493  0.6009
 3269SOL    HW121440   0.358   0.336   1.723 -0.0960  0.7856 -0.5213
 3269SOL    HW221441   0.372   0.444   1.807 -0.3537  1.2736  0.3960
 3270SOL     OW21442   4.271   2.028  11.878  0.3723 -0.4020 -0.3383
 3270SOL    HW121443   4.223   1.946  11.890 -1.0018  0.4635  0.2416
 3270SOL    HW221444   4.235   2.058  11.794 -0.7995 -0.5912  0.0913
 3271SOL     OW21445   4.100   4.670   7.503 -0.2870  0.0170  0.0401
 3271SOL    HW121446   4.063   4.593   7.459 -0.1637  1.3382 -2.4184
 3271SOL    HW221447   4.106   4.716   7.419  1.7834  1.4150  0.9593
 3272SOL     OW21448   0.936   2.472  16.561 -0.3441  0.1349 -0.2976
 3272SOL    HW121449   0.911   2.521  16.482  2.1146  1.0277 -0.5151
 3272SOL    HW221450   0.885   2.520  16.626 -0.6756  1.2913 -1.4093
 3273SOL     OW21451   3.729   0.350   9.100  0.9263  0.0026  0.0600
 3273SOL    HW121452   3.814   0.362   9.142  1.0260  0.2705 -0.2161
 3273SOL    HW221453   3.692   0.439   9.101 -1.6897 -1.0412 -2.4744
 3274SOL     OW21454   3.789   4.279   3.250 -0.2954 -0.5749  0.2338
 3274SOL    HW121455   3.807   4.187   3.270  0.2687 -0.2488  1.2478
 3274SOL    HW221456   3.847   4.325   3.311 -0.1086 -0.6819  0.1364
 3275SOL     OW21457   0.802   2.296   4.767 -0.5248  0.0828 -0.6186
 3275SOL    HW121458   0.718   2.308   4.722 -0.2406 -0.1994 -1.2290
 3275SOL    HW221459   0.852   2.372   4.737  0.9077 -0.7184 -0.2280
 3276SOL     OW21460   3.345   3.792   5.929 -0.3518 -0.0670 -0.3482
 3276SOL    HW121461   3.335   3.841   5.848 -1.8124  1.0819  0.5234
 3276SOL    HW221462   3.433   3.810   5.961  0.1993  0.3204 -2.1116
 3277SOL     OW21463   1.830   4.223  12.799 -0.0333  0.2327 -0.2940
 3277SOL    HW121464   1.762   4.283  12.769 -0.6473  0.1879  1.0109
 3277SOL    HW221465   1.785   4.143  12.828 -1.2891  1.9664  2.5208
 3278SOL     OW21466   3.074   0.308  10.299  0.2726 -0.2046 -0.8270
 3278SOL    HW121467   3.105   0.218  10.287 -0.1887 -0.2814 -1.4337
 3278SOL    HW221468   2.980   0.295  10.313  0.2248  0.4766 -0.5243
 3279SOL     OW21469   2.929   4.260   4.049 -0.0782  0.5529 -0.1935
 3279SOL    HW121470   2.962   4.336   4.097  1.9677  1.9779 -3.8089
 3279SOL    HW221471   2.850   4.303   4.016 -1.6235 -2.8347 -0.9087
 3280SOL     OW21472   3.495   2.047   7.581 -0.1294 -0.3755  0.7561
 3280SOL    HW121473   3.549   2.090   7.648 -0.6116  0.8130  0.3845
 3280SOL    HW221474   3.451   2.118   7.534 -2.3289 -1.1338  1.6304
 3281SOL     OW21475   1.165   1.381   8.073 -0.3639  0.3855 -0.8806
 3281SOL    HW121476   1.134   1.390   7.983 -1.0956 -0.7103 -0.7351
 3281SOL    HW221477   1.153   1.469   8.107  0.4172 -0.0296  0.4647
 3282SOL     OW21478   1.564   0.282   8.849  0.2616 -0.3674 -0.0407
 3282SOL    HW121479   1.518   0.233   8.918 -0.1892  0.4879  0.2689
 3282SOL    HW221480   1.493   0.331   8.809  0.1886 -0.0963  0.4131
 3283SOL     OW21481   3.796   3.293   5.951  0.0322  0.5325  0.3413
 3283SOL    HW121482   3.747   3.215   5.925  0.3192  1.0114 -1.6376
 3283SOL    HW221483   3.728   3.360   5.956 -0.3861  0.2838 -1.7503
 3284SOL     OW21484   2.171   1.535   6.899 -0.2828  0.3964 -0.3468
 3284SOL    HW121485   2.093   1.481   6.890 -0.8167  0.7423  2.1574
 3284SOL    HW221486   2.177   1.580   6.815 -0.8158 -2.3696 -1.8669
 3285SOL     OW21487   2.626   2.413   7.571 -0.0443  0.1522  0.2446
 3285SOL    HW121488   2.675   2.459   7.502 -0.1567 -1.4799 -0.9165
 3285SOL    HW221489   2.581   2.344   7.523  0.6782  0.3041 -0.6425
 3286SOL     OW21490   4.677   1.871   1.478  0.1531  0.1873  0.2985
 3286SOL    HW121491   4.716   1.793   1.517 -0.5273  0.8314  2.2465
 3286SOL    HW221492   4.599   1.886   1.531 -0.6409 -0.4550 -0.7004
 3287SOL     OW21493   3.548   2.953   5.263 -0.3505  0.1916  0.5795
 3287SOL    HW121494   3.563   2.907   5.180 -0.5675 -2.0856  1.7912
 3287SOL    HW221495   3.488   3.024   5.240 -0.8313 -0.5328 -0.4195
 3288SOL     OW21496   4.622   0.701   8.465  0.5567 -0.1673 -0.2743
 3288SOL    HW121497   4.690   0.752   8.423  0.7088 -1.6740 -1.8569
 3288SOL    HW221498   4.622   0.625   8.407  2.4590 -0.1066 -0.3417
 3289SOL     OW21499   3.261   3.642   5.182  0.1248 -0.9473 -0.1403
 3289SOL    HW121500   3.207   3.615   5.256 -0.6319  0.3828 -0.2042
 3289SOL    HW221501   3.219   3.728   5.179  0.5514 -0.7279  0.2543
 3290SOL     OW21502   1.206   1.494  10.997  0.3486 -0.1218 -0.0775
 3290SOL    HW121503   1.161   1.563  11.046  0.7020 -0.6090  0.9357
 3290SOL    HW221504   1.222   1.429  11.065  1.5334  0.7700  0.5055
 3291SOL     OW21505   4.298   0.654   7.727  0.5569 -0.6213 -0.2921
 3291SOL    HW121506   4.383   0.633   7.690 -0.1430 -1.3440 -1.4927
 3291SOL    HW221507   4.263   0.573   7.762 -2.1170  0.6773  0.0639
 3292SOL     OW21508   1.806   1.171  11.184  0.4258  0.3257 -0.6482
 3292SOL    HW121509   1.873   1.237  11.202  1.8225 -1.6043  1.2725
 3292SOL    HW221510   1.862   1.097  11.158 -0.0059 -0.4689  0.6518
 3293SOL     OW21511   4.276   3.717  13.745  0.1521 -0.2545 -0.0168
 3293SOL    HW121512   4.183   3.712  13.767 -0.1139  3.9127 -0.1818
 3293SOL    HW221513   4.278   3.621  13.739 -1.8019 -0.3872  1.3971
 3294SOL     OW21514   4.492   0.138   0.587 -0.3425 -0.4974 -0.3311
 3294SOL    HW121515   4.430   0.109   0.653 -0.1711 -0.8473 -0.3245
 3294SOL    HW221516   4.444   0.154   0.506  0.4901 -0.0336 -0.7338
 3295SOL     OW21517   1.357   3.523  13.037  0.2028  0.5818  0.5544
 3295SOL    HW121518   1.448   3.553  13.043  0.7031 -0.6428 -0.7808
 3295SOL    HW221519   1.321   3.566  13.114  0.7626 -1.8228  2.1586
 3296SOL     OW21520   3.826   1.855   7.665  0.4967  0.4411 -0.0668
 3296SOL    HW121521   3.880   1.778   7.645  0.7295  0.2199  1.3836
 3296SOL    HW221522   3.861   1.918   7.602  1.8798 -0.1659  0.0824
 3297SOL     OW21523   2.802   3.117  16.933  0.4643  0.2318  0.2432
 3297SOL    HW121524   2.813   3.126  16.839 -1.4323 -0.6455 -0.0730
 3297SOL    HW221525   2.763   3.030  16.948 -0.6458  0.7974  0.6752
 3298SOL     OW21526   1.772   1.418   2.731 -0.3693 -0.2398  0.4941
 3298SOL    HW121527   1.752   1.335   2.689 -1.7183  1.0041 -1.2903
 3298SOL    HW221528   1.683   1.451   2.740  0.0594  1.8656 -3.1976
 3299SOL     OW21529   1.010   0.999   0.504  0.1460 -0.2201 -0.4864
 3299SOL    HW121530   0.954   1.020   0.578  0.4271  2.0645 -0.9181
 3299SOL    HW221531   1.088   1.044   0.538 -0.2455 -0.6336  0.9410
 3300SOL     OW21532   1.831   4.498   0.248 -0.0524 -0.5246  0.1930
 3300SOL    HW121533   1.822   4.406   0.223  1.7791 -1.0268  1.3569
 3300SOL    HW221534   1.825   4.506   0.344  1.1736 -1.3553  0.3373
 3301SOL     OW21535   2.480   2.009  11.760 -0.2044 -0.1764 -0.0887
 3301SOL    HW121536   2.451   1.974  11.844 -1.3522  0.4381 -0.2290
 3301SOL    HW221537   2.448   2.100  11.764 -0.7898 -0.2654 -2.6224
 3302SOL     OW21538   3.720   1.650   9.557 -0.2411  0.5244 -0.0593
 3302SOL    HW121539   3.802   1.693   9.531 -0.9406  0.8352 -1.7738
 3302SOL    HW221540   3.704   1.581   9.493  3.1750 -0.3597  0.0040
 3303SOL     OW21541   3.768   3.274  14.703 -0.0137  0.1346 -0.5902
 3303SOL    HW121542   3.793   3.232  14.786 -0.7594  0.4491 -0.2061
 3303SOL    HW221543   3.743   3.363  14.728  0.6277  0.3765 -0.8137
 3304SOL     OW21544   2.135   4.489   1.490  0.5202  0.1586  0.4900
 3304SOL    HW121545   2.182   4.460   1.412  1.2328  0.7063  0.7177
 3304SOL    HW221546   2.049   4.503   1.450  0.7052 -0.7143 -0.2060
 3305SOL     OW21547   3.717   0.523   2.461 -0.4343 -0.4382 -0.0547
 3305SOL    HW121548   3.793   0.465   2.462 -0.0608  0.0530 -0.0337
 3305SOL    HW221549   3.647   0.461   2.483 -0.7245  0.2229  0.8944
 3306SOL     OW21550   1.796   3.431   6.302 -0.0679 -0.0891  0.3810
 3306SOL    HW121551   1.828   3.518   6.326  1.0989 -0.1360 -0.9936
 3306SOL    HW221552   1.711   3.424   6.344 -0.8012  1.4285 -0.8371
 3307SOL     OW21553   4.643   3.401   4.379  0.4211  0.4536 -0.1736
 3307SOL    HW121554   4.673   3.430   4.465  0.0607  2.4538 -0.7166
 3307SOL    HW221555   4.684   3.315   4.375 -1.8045 -0.5156 -1.8434
 3308SOL     OW21556   4.025   1.513   7.779  0.3996 -0.2413 -0.1693
 3308SOL    HW121557   4.039   1.532   7.686 -2.8351 -0.1586 -0.6416
 3308SOL    HW221558   4.043   1.604   7.805  1.9544 -0.5645 -0.0805
 3309SOL     OW21559   1.979   2.933   3.389 -0.4571 -0.1007 -0.2732
 3309SOL    HW121560   1.974   2.888   3.305  0.7938 -0.7936  0.0184
 3309SOL    HW221561   2.058   2.896   3.428 -0.5899 -1.7831 -1.6098
 3310SOL     OW21562   4.343   4.018  10.307 -0.5403 -0.4399 -0.0330
 3310SOL    HW121563   4.418   4.077  10.318 -0.3549 -0.7158  0.1918
 3310SOL    HW221564   4.356   3.976  10.222  0.1622  0.3778 -0.3303
 3311SOL     OW21565   3.794   2.462   1.755  0.1659  0.1415 -0.3389
 3311SOL    HW121566   3.811   2.381   1.708  0.5241  0.6213 -1.0386
 3311SOL    HW221567   3.872   2.517   1.744  0.0216  0.1065 -1.5435
 3312SOL     OW21568   1.864   2.508   8.106 -0.3200  0.1324  0.2891
 3312SOL    HW121569   1.874   2.568   8.180 -0.0341  0.2935  0.1192
 3312SOL    HW221570   1.953   2.482   8.084 -0.7281 -0.9578 -0.0493
 3313SOL     OW21571   1.313   4.320   4.272 -0.3052 -0.0906 -1.2080
 3313SOL    HW121572   1.225   4.319   4.310 -0.4011 -0.3996 -1.4409
 3313SOL    HW221573   1.349   4.401   4.309  2.6670 -2.8853  1.8994
 3314SOL     OW21574   1.827   0.362   2.068 -0.2960 -0.0131 -0.4115
 3314SOL    HW121575   1.915   0.344   2.034  0.1193 -1.2184  1.2787
 3314SOL    HW221576   1.849   0.447   2.107  1.4038 -0.3789 -0.5637
 3315SOL     OW21577   2.189   2.046   2.637  0.0065 -0.1134  0.1920
 3315SOL    HW121578   2.113   2.028   2.583  0.9895 -1.7542 -0.6664
 3315SOL    HW221579   2.243   2.086   2.569 -0.4873 -1.1737 -0.8080
 3316SOL     OW21580   0.783   1.564   8.435 -0.3603  0.1063 -0.1439
 3316SOL    HW121581   0.782   1.605   8.522  0.9314 -2.2513  0.9836
 3316SOL    HW221582   0.869   1.525   8.426 -0.0688  0.6046  0.4486
 3317SOL     OW21583   0.125   2.056   6.923 -0.0029 -0.5849  0.1027
 3317SOL    HW121584   0.183   2.115   6.972  1.1039 -1.1043 -0.5577
 3317SOL    HW221585   0.108   2.112   6.847  0.0865  0.0674  0.5635
 3318SOL     OW21586   3.997   2.822   1.839  0.6346 -0.3898 -0.3208
 3318SOL    HW121587   3.982   2.772   1.760  2.0232 -0.7636 -0.3457
 3318SOL    HW221588   3.958   2.908   1.822  0.9549  0.0103  0.9258
 3319SOL     OW21589   2.102   0.952  14.855 -1.1158  0.1594 -0.1485
 3319SOL    HW121590   2.028   0.893  14.871 -0.0483 -0.7050  1.6006
 3319SOL    HW221591   2.168   0.886  14.834 -1.3747  0.1846 -1.0633
 3320SOL     OW21592   2.017   2.121   2.015  0.0598 -0.7469 -0.3822
 3320SOL    HW121593   2.060   2.131   2.100  0.4459 -0.3691 -0.6179
 3320SOL    HW221594   1.928   2.112   2.048  0.0825  2.6789  0.5512
 3321SOL     OW21595   4.159   2.488   7.054 -0.2328  0.1564 -0.2146
 3321SOL    HW121596   4.114   2.564   7.017 -0.7338  0.6236  1.3581
 3321SOL    HW221597   4.099   2.446   7.116 -0.9696 -2.2609 -2.5546
 3322SOL     OW21598   3.602   4.616   7.177  0.4152 -0.0049  0.0553
 3322SOL    HW121599   3.585   4.532   7.218 -1.0792 -0.8837 -2.3392
 3322SOL    HW221600   3.678   4.649   7.226  1.0001  1.7272 -1.9830
 3323SOL     OW21601   3.444   0.761   2.894  0.4312  0.2612 -0.4911
 3323SOL    HW121602   3.475   0.836   2.945  0.1309  0.0562 -0.0156
 3323SOL    HW221603   3.385   0.727   2.961  2.4335 -1.4052  0.4364
 3324SOL     OW21604   2.114   1.000   2.243  0.3928  1.0830 -0.0767
 3324SOL    HW121605   2.048   1.036   2.184  0.5705 -0.4935 -1.2691
 3324SOL    HW221606   2.191   1.056   2.229  1.7961 -1.0216 -0.9242
 3325SOL     OW21607   1.659   1.444   3.772  0.1802 -0.3255 -0.2490
 3325SOL    HW121608   1.716   1.456   3.697 -2.2832  0.1570 -2.0464
 3325SOL    HW221609   1.589   1.386   3.743 -1.2015  0.1524  2.0392
 3326SOL     OW21610   2.568   1.631   2.712  0.2699 -0.0323 -0.6179
 3326SOL    HW121611   2.526   1.568   2.771  0.6671  0.5598  0.2904
 3326SOL    HW221612   2.519   1.622   2.629  1.2139  1.4335 -1.3286
 3327SOL     OW21613   0.063   1.029   2.737  0.2981 -0.1808  0.3697
 3327SOL    HW121614   0.132   0.962   2.733  1.1252  0.7173 -0.6053
 3327SOL    HW221615   0.099   1.109   2.775  3.1597 -1.2357 -0.1402
 3328SOL     OW21616   2.587   0.559  13.450 -0.1485  0.4638  0.6053
 3328SOL    HW121617   2.664   0.611  13.474 -0.2113  0.4029  0.9379
 3328SOL    HW221618   2.579   0.582  13.357  2.2428 -0.6761  0.1124
 3329SOL     OW21619   0.101   0.458   9.296  0.2327 -0.4917 -0.6982
 3329SOL    HW121620   0.046   0.415   9.361 -2.3183  0.5330 -2.1822
 3329SOL    HW221621   0.172   0.395   9.295  1.1680  0.5365  0.6564
 3330SOL     OW21622   4.101   0.773  15.595  0.5303 -0.1977  0.0256
 3330SOL    HW121623   4.062   0.772  15.508  0.2631  0.0339  0.1439
 3330SOL    HW221624   4.114   0.680  15.615 -0.1215 -0.5925 -1.4361
 3331SOL     OW21625   3.133   3.545  14.421 -0.5265  0.2286 -0.0062
 3331SOL    HW121626   3.049   3.544  14.376  0.3364 -2.0285 -1.5981
 3331SOL    HW221627   3.188   3.499  14.358 -1.2553 -0.3195 -0.2356
 3332SOL     OW21628   2.303   3.954   2.311 -0.0564  0.3928 -0.1867
 3332SOL    HW121629   2.330   3.960   2.403 -0.7977 -2.0714  0.1879
 3332SOL    HW221630   2.271   4.044   2.307 -1.3021  0.0078  1.1163
 3333SOL     OW21631   4.140   0.146  12.362  0.3594  0.6749  0.1223
 3333SOL    HW121632   4.069   0.181  12.415  0.8802  0.6521  0.8359
 3333SOL    HW221633   4.214   0.139  12.422  0.4995  1.1920  0.0097
 3334SOL     OW21634   0.992   0.339   8.983  0.1618 -0.0325  0.1720
 3334SOL    HW121635   1.002   0.252   9.021 -0.8970  0.4264  1.5369
 3334SOL    HW221636   1.081   0.345   8.949 -1.1374  0.7635 -3.0953
 3335SOL     OW21637   3.866   2.572   8.441 -0.1945 -0.6820 -0.8973
 3335SOL    HW121638   3.893   2.530   8.522  1.9934  2.7901  0.1534
 3335SOL    HW221639   3.906   2.517   8.374  0.0299 -1.4553 -0.1148
 3336SOL     OW21640   0.123   1.790  14.717  0.5748  0.3527 -0.6842
 3336SOL    HW121641   0.129   1.822  14.807  1.8083 -0.2048 -0.5754
 3336SOL    HW221642   0.036   1.828  14.701  1.0291  0.6969 -2.3658
 3337SOL     OW21643   0.639   4.614   3.181 -0.2348 -0.0058 -0.3744
 3337SOL    HW121644   0.685   4.574   3.107  0.8946 -1.3162  1.0316
 3337SOL    HW221645   0.545   4.606   3.161 -0.4354 -0.4303  0.7114
 3338SOL     OW21646   1.850   3.755   2.482  0.3610  0.2855 -0.1582
 3338SOL    HW121647   1.799   3.770   2.403 -2.4170 -1.4499  1.3121
 3338SOL    HW221648   1.919   3.821   2.481  0.8747 -0.2107  2.1288
 3339SOL     OW21649   4.203   2.489   5.450  0.1224 -0.1852  0.0173
 3339SOL    HW121650   4.194   2.404   5.409  1.1389 -0.8294  1.1245
 3339SOL    HW221651   4.138   2.491   5.520  0.5555 -1.6436  0.4415
 3340SOL     OW21652   2.943   1.962   2.007 -0.0746 -0.6922 -0.4418
 3340SOL    HW121653   2.979   1.931   2.090  2.2361  0.9020 -0.8293
 3340SOL    HW221654   2.898   2.045   2.023  0.6881 -0.5337  0.9792
 3341SOL     OW21655   0.549   4.333   7.471 -0.2449 -0.2193  0.0362
 3341SOL    HW121656   0.521   4.412   7.518  1.5546  1.0548 -1.0982
 3341SOL    HW221657   0.589   4.289   7.546 -0.2733 -0.1000  0.1220
 3342SOL     OW21658   2.093   4.200  12.320  0.0702  0.2500 -0.2111
 3342SOL    HW121659   2.068   4.150  12.398  0.9943 -0.6702 -0.5043
 3342SOL    HW221660   2.095   4.290  12.355  0.3709  0.2955 -0.3482
 3343SOL     OW21661   2.560   1.070   6.040 -0.0962  0.0799  0.4079
 3343SOL    HW121662   2.541   0.989   6.087 -0.0607  0.9137  1.8498
 3343SOL    HW221663   2.507   1.134   6.086 -0.5060 -1.2002  1.7174
 3344SOL     OW21664   2.377   3.952   4.230  0.0846 -0.0858 -0.0986
 3344SOL    HW121665   2.469   3.945   4.205  0.0471  1.3014 -0.6267
 3344SOL    HW221666   2.371   3.870   4.278  0.8661 -1.4789 -2.4191
 3345SOL     OW21667   0.516   4.619   0.830  0.3634  0.0702  0.4273
 3345SOL    HW121668   0.566   4.689   0.790 -0.4193  0.5697  0.3306
 3345SOL    HW221669   0.471   4.572   0.760 -2.5747  1.6389  1.2533
 3346SOL     OW21670   1.920   4.689   5.055 -0.0757 -0.4074  0.5681
 3346SOL    HW121671   1.888   0.040   5.070 -0.3938 -0.5006  0.4385
 3346SOL    HW221672   2.004   4.708   5.013  0.0946  1.7807  1.8817
 3347SOL     OW21673   1.156   4.497   4.388  0.2846 -0.5886 -0.0520
 3347SOL    HW121674   1.071   4.540   4.376  0.6258 -0.1076 -0.7623
 3347SOL    HW221675   1.135   4.441   4.463 -3.2775  0.8353  0.0520
 3348SOL     OW21676   0.838   1.573   5.406 -0.0315 -0.1503 -0.0878
 3348SOL    HW121677   0.842   1.602   5.315  0.1811 -2.6259 -0.8491
 3348SOL    HW221678   0.783   1.495   5.412 -0.6885  0.3572  0.5039
 3349SOL     OW21679   2.781   1.035   8.849  0.0255  0.0688 -0.3781
 3349SOL    HW121680   2.778   1.116   8.798 -0.4213  0.2748 -0.0253
 3349SOL    HW221681   2.872   1.005   8.848 -0.2927 -0.8954 -1.1673
 3350SOL     OW21682   3.527   4.358   5.791 -0.1576 -0.3985 -0.0807
 3350SOL    HW121683   3.503   4.322   5.877 -1.2399  1.1047  0.2445
 3350SOL    HW221684   3.558   4.446   5.812 -0.2493 -0.2837 -0.4231
 3351SOL     OW21685   1.432   3.355   6.183 -0.1414  0.6269 -0.2898
 3351SOL    HW121686   1.439   3.415   6.257 -0.0098 -2.5264  2.2586
 3351SOL    HW221687   1.343   3.321   6.190 -0.2141  0.7907 -0.4032
 3352SOL     OW21688   2.241   0.439  14.686 -0.3671 -0.4188 -0.1203
 3352SOL    HW121689   2.173   0.492  14.643 -0.6745 -1.9425 -1.4993
 3352SOL    HW221690   2.280   0.400  14.608 -0.0463 -0.0079 -0.1646
 3353SOL     OW21691   4.544   3.277   5.065  0.5794 -0.7075 -0.2473
 3353SOL    HW121692   4.538   3.362   5.107  2.4913  0.3655 -2.1281
 3353SOL    HW221693   4.551   3.297   4.972  3.1087  0.9914  0.3139
 3354SOL     OW21694   4.405   3.353   7.925  0.2430 -0.0590  0.6303
 3354SOL    HW121695   4.329   3.329   7.872 -1.8936  1.8623  2.8237
 3354SOL    HW221696   4.449   3.273   7.898 -1.4776 -1.2867  1.4214
 3355SOL     OW21697   2.547   4.121   2.044  0.2773  0.2787 -0.1581
 3355SOL    HW121698   2.452   4.130   2.043  0.0348 -2.3540 -0.7684
 3355SOL    HW221699   2.575   4.190   2.104  0.1617  1.1143 -1.0649
 3356SOL     OW21700   4.622   3.583   8.545  0.5095  0.6577  0.0299
 3356SOL    HW121701   4.678   3.508   8.564 -1.0758 -1.2075 -2.8076
 3356SOL    HW221702   4.545   3.546   8.588 -2.1060  4.6621 -1.1417
 3357SOL     OW21703   2.181   0.485   1.326 -0.3912  0.5076 -0.0973
 3357SOL    HW121704   2.273   0.511   1.327 -0.4875  0.8290  1.1689
 3357SOL    HW221705   2.140   0.548   1.268 -0.9319  0.8924  0.7062
 3358SOL     OW21706   0.902   0.961   2.839 -0.3416  0.1267 -0.1262
 3358SOL    HW121707   0.952   1.007   2.771  1.6004  2.4167  2.8729
 3358SOL    HW221708   0.977   0.914   2.875  1.1433  0.5701 -2.6264
 3359SOL     OW21709   2.630   3.974   5.242 -0.1545 -0.0864 -0.4897
 3359SOL    HW121710   2.607   4.057   5.202  1.3766  0.8672  0.6260
 3359SOL    HW221711   2.582   3.977   5.325 -0.1865  1.5648 -0.5763
 3360SOL     OW21712   0.576   1.537   5.971  0.0627 -0.3504  0.8667
 3360SOL    HW121713   0.600   1.628   5.954 -2.1935  0.7839  3.6848
 3360SOL    HW221714   0.574   1.500   5.883 -3.0452 -2.9604  2.0229
 3361SOL     OW21715   2.815   2.837  12.891 -1.0146  0.5963  0.2752
 3361SOL    HW121716   2.880   2.835  12.820  0.9786 -0.0022  2.1051
 3361SOL    HW221717   2.870   2.806  12.963 -3.2435  0.4102  1.8834
 3362SOL     OW21718   3.786   2.610   7.058  0.7330  0.3789  0.1216
 3362SOL    HW121719   3.712   2.633   7.002  1.2373 -1.1190 -1.1577
 3362SOL    HW221720   3.782   2.678   7.126  1.7516 -1.4441  2.0105
 3363SOL     OW21721   0.590   4.302   8.530  0.3808 -0.2229 -0.0221
 3363SOL    HW121722   0.635   4.364   8.588  2.3070 -0.4039 -1.3336
 3363SOL    HW221723   0.529   4.362   8.487  2.7025  0.6268 -2.1259
 3364SOL     OW21724   3.711   2.161   4.519  0.6592 -0.1647 -0.7250
 3364SOL    HW121725   3.717   2.236   4.461 -1.4579  0.2588 -0.4125
 3364SOL    HW221726   3.633   2.117   4.485  0.6366 -1.4122  0.9144
 3365SOL     OW21727   0.502   3.709   1.145 -0.0592 -0.4438 -0.4116
 3365SOL    HW121728   0.432   3.703   1.211  0.0897 -0.1152 -0.2237
 3365SOL    HW221729   0.479   3.623   1.109 -0.1520  0.7364 -3.1295
 3366SOL     OW21730   2.910   1.896  14.681  0.0165 -0.1892 -0.0053
 3366SOL    HW121731   2.826   1.939  14.698  0.8418  1.4486 -0.0470
 3366SOL    HW221732   2.974   1.967  14.679 -0.3990  0.2106  1.1692
 3367SOL     OW21733   2.808   3.273   0.674 -0.0549  0.2058 -0.0011
 3367SOL    HW121734   2.715   3.277   0.695  0.2683 -0.6063  1.6235
 3367SOL    HW221735   2.839   3.284   0.764  0.0401 -3.1505  0.3903
 3368SOL     OW21736   2.155   3.880   8.740  0.0942 -0.4057  0.1054
 3368SOL    HW121737   2.178   3.960   8.787 -2.3727  0.3029  0.1168
 3368SOL    HW221738   2.216   3.824   8.790 -0.2454 -1.2807 -0.4557
 3369SOL     OW21739   2.002   2.126   9.168  0.2862 -0.2794 -0.7798
 3369SOL    HW121740   2.007   2.182   9.091 -2.1221  0.6362 -0.2629
 3369SOL    HW221741   1.907   2.130   9.176  0.2549  2.0055 -2.2965
 3370SOL     OW21742   4.060   1.489   0.997 -0.1174 -0.0811  0.1660
 3370SOL    HW121743   4.030   1.483   0.906 -1.2820 -0.8229  0.5995
 3370SOL    HW221744   4.096   1.577   0.990 -0.9768  0.2863  0.3238
 3371SOL     OW21745   1.345   4.533  12.825  0.5573 -0.6458  0.0257
 3371SOL    HW121746   1.281   4.535  12.895 -2.0641  1.1766 -2.4117
 3371SOL    HW221747   1.338   4.628  12.810 -0.3468 -0.9614 -1.5493
 3372SOL     OW21748   3.455   1.380   5.757 -0.0732 -0.1730  0.3530
 3372SOL    HW121749   3.498   1.294   5.762 -0.7634 -0.6191 -1.3775
 3372SOL    HW221750   3.391   1.349   5.693 -2.1548  0.1829  2.2617
 3373SOL     OW21751   1.559   0.400   4.679 -0.2887  0.0404 -0.5107
 3373SOL    HW121752   1.517   0.317   4.654  0.7153 -0.7233  0.3589
 3373SOL    HW221753   1.479   0.452   4.689  0.5771  1.1833  0.5320
 3374SOL     OW21754   1.325   1.733   7.624  0.0338  0.4430  0.2486
 3374SOL    HW121755   1.285   1.738   7.537 -1.4128  1.0907  0.9600
 3374SOL    HW221756   1.342   1.826   7.639 -0.0001  0.7261 -1.4862
 3375SOL     OW21757   0.850   2.183  15.783 -0.4190 -0.2628  0.4671
 3375SOL    HW121758   0.885   2.243  15.717  0.3363 -1.5032 -0.2730
 3375SOL    HW221759   0.921   2.118  15.781 -0.2785 -0.1215  0.9269
 3376SOL     OW21760   2.507   3.706   2.565  0.3343 -0.1273  0.3335
 3376SOL    HW121761   2.436   3.740   2.619  1.0882  0.2485  1.0885
 3376SOL    HW221762   2.570   3.778   2.576  0.5632  0.0256 -1.9182
 3377SOL     OW21763   0.246   2.995   7.915  0.5327  0.1370  0.6025
 3377SOL    HW121764   0.321   3.011   7.858 -0.8347 -0.3400 -1.3491
 3377SOL    HW221765   0.282   3.003   8.003  2.1651 -1.6414  0.1105
 3378SOL     OW21766   3.779   0.444  11.102 -0.2308  0.3260  0.1655
 3378SOL    HW121767   3.810   0.496  11.176  2.2829  1.9064 -2.0111
 3378SOL    HW221768   3.858   0.439  11.048 -0.9277 -2.2401 -0.6308
 3379SOL     OW21769   0.553   2.988  11.957  0.2018  0.5033  0.3660
 3379SOL    HW121770   0.517   2.983  12.046  0.2418  0.8064  0.4000
 3379SOL    HW221771   0.551   3.081  11.933  3.8213  1.0481  2.1023
 3380SOL     OW21772   4.552   4.022   6.600  1.0079 -0.0078 -0.6860
 3380SOL    HW121773   4.518   4.090   6.542  1.2110  0.4485 -0.2705
 3380SOL    HW221774   4.509   4.049   6.681 -0.9849 -1.9130 -1.1049
 3381SOL     OW21775   0.515   1.136   3.412 -0.0771 -0.2007  0.0966
 3381SOL    HW121776   0.499   1.042   3.401 -1.2092 -0.0550  0.5097
 3381SOL    HW221777   0.451   1.163   3.347  0.6921 -0.7518 -0.8771
 3382SOL     OW21778   2.299   3.071   3.794 -0.2569 -0.1497 -0.0069
 3382SOL    HW121779   2.227   3.057   3.732 -0.3325  0.7027 -0.1137
 3382SOL    HW221780   2.352   2.998   3.763  1.1305  1.5132 -1.6031
 3383SOL     OW21781   4.023   0.148  13.150 -0.6477 -0.0852 -0.1868
 3383SOL    HW121782   4.029   0.054  13.170 -3.6448  0.3143  2.6438
 3383SOL    HW221783   4.058   0.184  13.232  0.1791 -1.2518 -0.0204
 3384SOL     OW21784   2.551   1.295   4.862  0.6199  0.1136 -0.0358
 3384SOL    HW121785   2.465   1.331   4.883  0.4770  0.1104 -0.6308
 3384SOL    HW221786   2.564   1.248   4.945  1.3743 -1.0152 -0.8028
 3385SOL     OW21787   4.567   4.063  17.031  0.6257  0.5926  0.6472
 3385SOL    HW121788   4.640   4.041  16.974 -0.5313 -1.8076  0.0966
 3385SOL    HW221789   4.611   4.093  17.111 -0.7633 -0.0881  1.6683
 3386SOL     OW21790   4.038   2.691   2.474 -0.4857  0.0356  0.4467
 3386SOL    HW121791   4.052   2.672   2.567  1.4864 -0.5198  0.0409
 3386SOL    HW221792   4.121   2.726   2.441  0.1741 -0.9735  1.0321
 3387SOL     OW21793   0.293   4.460   5.874 -0.1756 -0.3982 -0.3137
 3387SOL    HW121794   0.367   4.403   5.895 -0.6623 -0.0822  2.2271
 3387SOL    HW221795   0.326   4.522   5.809 -0.8589  1.0150  0.6912
 3388SOL     OW21796   1.866   2.511   5.400 -0.3859 -0.7558  0.4746
 3388SOL    HW121797   1.828   2.598   5.388 -0.6227 -1.3167 -2.8315
 3388SOL    HW221798   1.887   2.520   5.493 -1.4956  2.6193  0.3678
 3389SOL     OW21799   3.212   4.603   1.002  0.2133 -0.4706 -0.6541
 3389SOL    HW121800   3.307   4.607   0.995  0.3265 -1.9964  0.0182
 3389SOL    HW221801   3.183   4.551   0.928 -0.0402 -1.8108  0.3982
 3390SOL     OW21802   4.234   2.745   5.293  0.0027 -0.1199  0.2040
 3390SOL    HW121803   4.224   2.677   5.360  0.6983  0.2075  0.6443
 3390SOL    HW221804   4.189   2.815   5.341 -0.4657 -1.1590  1.2958
 3391SOL     OW21805   2.836   2.093   2.901 -0.3757  0.3311 -0.2356
 3391SOL    HW121806   2.769   2.051   2.955  0.9987  1.3517  2.2501
 3391SOL    HW221807   2.912   2.104   2.958 -0.8590 -0.4630  0.5614
 3392SOL     OW21808   2.917   1.945   4.699  0.2927  0.1342 -0.6042
 3392SOL    HW121809   2.855   1.978   4.763 -1.6560 -3.0378 -0.8440
 3392SOL    HW221810   2.979   2.017   4.686  1.0341 -0.5840 -1.0922
 3393SOL     OW21811   4.377   3.933   7.991 -0.3035  0.1259 -0.0101
 3393SOL    HW121812   4.433   3.905   8.063 -1.3965  0.9046  1.1284
 3393SOL    HW221813   4.431   3.992   7.939  0.6638 -2.4602 -1.9435
 3394SOL     OW21814   4.389   2.424  10.428  0.4942 -0.3751 -0.2574
 3394SOL    HW121815   4.337   2.350  10.458 -0.3713 -0.2265 -1.3950
 3394SOL    HW221816   4.423   2.454  10.512  1.4470  0.7002 -1.0189
 3395SOL     OW21817   1.595   2.306  14.300 -0.2847 -0.1349  0.0724
 3395SOL    HW121818   1.577   2.320  14.393 -1.3310 -0.3988 -0.0861
 3395SOL    HW221819   1.635   2.219  14.301  2.6967  1.2439  0.1082
 3396SOL     OW21820   3.539   1.223  10.757 -0.2100  0.4507 -0.4216
 3396SOL    HW121821   3.481   1.156  10.722 -3.5061  2.0183  2.1215
 3396SOL    HW221822   3.576   1.265  10.679  1.8338  1.8433  1.2690
 3397SOL     OW21823   2.046   0.501  11.199  0.1694  0.3353 -0.1724
 3397SOL    HW121824   2.052   0.413  11.236  0.5527  0.9417  1.2045
 3397SOL    HW221825   2.137   0.519  11.176 -0.0495  0.3529 -1.0338
 3398SOL     OW21826   0.601   3.472  12.853 -0.4859 -0.1530  0.0402
 3398SOL    HW121827   0.642   3.480  12.766  0.5640  1.1434  0.6499
 3398SOL    HW221828   0.577   3.380  12.850 -1.9071  0.2346 -0.1424
 3399SOL     OW21829   0.019   3.949   3.469 -0.1660 -0.2992  0.5761
 3399SOL    HW121830   4.678   3.971   3.518  0.4719  0.9371  1.0266
 3399SOL    HW221831   0.021   3.855   3.487 -2.3163 -0.9215 -2.3454
 3400SOL     OW21832   3.306   1.014  15.686  0.1825  0.0206  0.1682
 3400SOL    HW121833   3.212   1.006  15.674 -0.0089 -0.9716  2.5193
 3400SOL    HW221834   3.308   1.109  15.696  0.0861  0.1253 -0.7884
 3401SOL     OW21835   0.843   4.468   3.021  0.0084  0.0557  0.0557
 3401SOL    HW121836   0.868   4.445   3.111 -0.6939 -1.0058 -0.0243
 3401SOL    HW221837   0.929   4.473   2.979 -1.0831  1.2112 -1.9865
 3402SOL     OW21838   2.398   2.284   4.335 -0.5285 -0.4134 -0.2510
 3402SOL    HW121839   2.373   2.201   4.377  1.7429 -0.7611  0.4401
 3402SOL    HW221840   2.411   2.258   4.244  2.9689 -0.7302  0.3611
 3403SOL     OW21841   2.873   3.381   2.076  0.0132 -0.4490 -0.3101
 3403SOL    HW121842   2.891   3.341   1.991  0.1947  1.1769 -1.0466
 3403SOL    HW221843   2.828   3.311   2.123  2.0579 -1.4730  0.1445
 3404SOL     OW21844   0.531   3.665   6.128 -0.2349  0.5634  0.2133
 3404SOL    HW121845   0.589   3.599   6.092 -0.8914  0.7707 -1.2538
 3404SOL    HW221846   0.445   3.640   6.095 -1.5399  0.9330  3.3411
 3405SOL     OW21847   1.664   3.803   7.521 -0.4943  0.5705  0.3833
 3405SOL    HW121848   1.615   3.807   7.603  1.5109  0.2259  1.6122
 3405SOL    HW221849   1.754   3.786   7.550 -0.6262 -0.2389  0.3397
 3406SOL     OW21850   3.886   1.067   3.657  0.1770  0.1169 -0.9022
 3406SOL    HW121851   3.819   1.004   3.683 -0.0229 -0.7142 -3.4414
 3406SOL    HW221852   3.938   1.014   3.597  1.0299 -1.7943  1.5827
 3407SOL     OW21853   0.284   4.445   1.876  0.0040 -0.4410 -0.0196
 3407SOL    HW121854   0.294   4.391   1.954  0.5735 -0.8816 -0.3966
 3407SOL    HW221855   0.276   4.373   1.814 -0.0103  1.0200 -1.7040
 3408SOL     OW21856   2.332   0.891   2.504  0.6918 -0.3856 -0.1077
 3408SOL    HW121857   2.335   0.985   2.486 -1.1290 -0.5396 -1.2392
 3408SOL    HW221858   2.241   0.886   2.536  0.8172 -1.0678  0.1452
 3409SOL     OW21859   0.554   1.611   6.726 -0.4028 -0.2061  0.1045
 3409SOL    HW121860   0.640   1.630   6.764 -1.1260 -0.5963  1.9262
 3409SOL    HW221861   0.573   1.577   6.638 -0.2448  0.5808 -0.1615
 3410SOL     OW21862   0.985   3.972  12.851 -0.0978 -0.2271  0.0469
 3410SOL    HW121863   1.003   3.928  12.934  0.0926 -1.7516 -0.8009
 3410SOL    HW221864   0.891   3.954  12.840  0.2421 -3.7897  2.8447
 3411SOL     OW21865   1.373   1.448   1.665  0.3054  0.0382  0.0018
 3411SOL    HW121866   1.425   1.389   1.611  0.6585  0.2903  0.0647
 3411SOL    HW221867   1.404   1.453   1.756  1.4308 -1.5713 -0.3011
 3412SOL     OW21868   0.955   3.227  13.726  0.1138 -0.3094  0.1965
 3412SOL    HW121869   1.030   3.242  13.784 -0.4042  3.5288 -0.1128
 3412SOL    HW221870   0.920   3.315  13.714  0.0117 -0.2266  1.1181
 3413SOL     OW21871   0.611   1.426   2.340 -0.1568 -0.1231  0.0013
 3413SOL    HW121872   0.591   1.361   2.272  0.9000 -0.1668 -0.2676
 3413SOL    HW221873   0.695   1.454   2.305 -0.2339  2.0020  1.5614
 3414SOL     OW21874   4.482   0.346  16.353  0.5119 -0.5195  0.2804
 3414SOL    HW121875   4.436   0.383  16.428  1.2871  0.0022  0.5044
 3414SOL    HW221876   4.464   0.412  16.286  1.0605 -1.3852 -0.7284
 3415SOL     OW21877   0.299   0.609   3.269  0.3415 -0.4414  0.2720
 3415SOL    HW121878   0.222   0.654   3.233  1.1001  1.0094  0.4686
 3415SOL    HW221879   0.259   0.532   3.311  1.0935 -0.0084  1.7894
 3416SOL     OW21880   0.443   2.499  17.490  0.1316 -0.2057  0.2836
 3416SOL    HW121881   0.389   2.464  17.418 -0.2797  1.1727 -0.0727
 3416SOL    HW221882   0.461   2.415  17.532  0.6352 -1.6958 -2.9346
 3417SOL     OW21883   1.500   0.843   8.729 -0.0938 -0.3315  0.3278
 3417SOL    HW121884   1.585   0.799   8.732  0.9059  1.6786  1.7525
 3417SOL    HW221885   1.482   0.847   8.635 -0.2599 -0.7900  0.3411
 3418SOL     OW21886   3.108   0.157   4.531  0.0201 -0.0104 -0.3097
 3418SOL    HW121887   3.057   0.179   4.453 -0.0159  0.4427 -0.1588
 3418SOL    HW221888   3.091   0.240   4.576 -1.3542 -0.5012  0.0856
 3419SOL     OW21889   3.725   0.231   7.552 -0.0077 -0.2255  0.0395
 3419SOL    HW121890   3.820   0.216   7.557  0.3262  0.9528 -2.8808
 3419SOL    HW221891   3.708   0.229   7.458  1.1757 -0.2152 -0.1845
 3420SOL     OW21892   0.613   2.708   4.333  0.0462  0.0414  0.1055
 3420SOL    HW121893   0.670   2.773   4.292  1.7571 -1.5549 -0.0415
 3420SOL    HW221894   0.605   2.743   4.421  1.0691 -1.0957  0.6442
 3421SOL     OW21895   4.392   3.784   8.707  0.3273 -0.0904  0.1002
 3421SOL    HW121896   4.310   3.764   8.661 -0.4536  0.9810  1.0111
 3421SOL    HW221897   4.406   3.704   8.758  0.2236 -0.8768 -1.0957
 3422SOL     OW21898   2.232   4.549  11.374  0.3156 -0.3264  0.3484
 3422SOL    HW121899   2.204   4.464  11.409 -2.1557  0.1695 -0.3858
 3422SOL    HW221900   2.222   4.525  11.282 -1.5385 -0.2408  0.5090
 3423SOL     OW21901   1.476   0.050   5.564 -0.0079 -0.1103  0.2875
 3423SOL    HW121902   1.461   0.143   5.552 -2.1336 -0.4225  0.5130
 3423SOL    HW221903   1.509   0.018   5.480  1.1928 -0.4041  0.8768
 3424SOL     OW21904   2.913   2.380  11.793 -0.0005 -0.0905 -0.2448
 3424SOL    HW121905   2.992   2.432  11.779  0.1789  0.1337  1.5805
 3424SOL    HW221906   2.942   2.289  11.793  2.9378  0.8829 -2.4160
 3425SOL     OW21907   3.079   1.739   3.277 -0.5609  0.6274  0.1707
 3425SOL    HW121908   3.009   1.675   3.286  0.8816 -1.1033 -0.8809
 3425SOL    HW221909   3.154   1.686   3.250 -0.6342 -0.4452  2.0631
 3426SOL     OW21910   2.487   4.036   7.922 -0.0351  0.2873 -0.5129
 3426SOL    HW121911   2.408   4.007   7.878  1.2485 -1.7753 -1.4392
 3426SOL    HW221912   2.459   4.127   7.932 -1.0280 -0.2155  1.4468
 3427SOL     OW21913   3.174   2.503  11.729  0.1639 -0.2952 -0.5835
 3427SOL    HW121914   3.210   2.440  11.666  0.5952 -0.6074 -0.0213
 3427SOL    HW221915   3.226   2.478  11.805 -0.1027  0.3608 -0.1877
 3428SOL     OW21916   3.765   1.119   7.787  0.5682 -0.5193  0.0224
 3428SOL    HW121917   3.778   1.051   7.722 -1.4420 -1.7280  0.8680
 3428SOL    HW221918   3.842   1.104   7.841  0.2423 -1.0517  0.3428
 3429SOL     OW21919   2.292   3.085   5.950  0.3593 -0.3094 -0.1769
 3429SOL    HW121920   2.261   2.997   5.972 -0.6978  0.1325  0.0854
 3429SOL    HW221921   2.215   3.140   5.965  1.1772  0.8448 -0.1781
 3430SOL     OW21922   4.602   2.048   8.132 -0.9444  0.1308  0.6226
 3430SOL    HW121923   4.669   2.048   8.064 -3.8378 -0.5442 -2.2475
 3430SOL    HW221924   4.640   2.107   8.197 -0.0377  1.6942 -1.3214
 3431SOL     OW21925   2.946   0.831   7.816  0.2802  0.0295 -0.0789
 3431SOL    HW121926   2.903   0.796   7.894  0.2132  1.5720  0.5700
 3431SOL    HW221927   3.037   0.803   7.812  0.9408  2.0398  0.9185
 3432SOL     OW21928   4.483   2.706   0.730  1.1724  0.4202  0.4367
 3432SOL    HW121929   4.554   2.705   0.795  1.8519  0.7299 -0.3015
 3432SOL    HW221930   4.506   2.650   0.656 -0.9806 -1.0540  0.8920
 3433SOL     OW21931   2.432   0.488   4.899 -0.3086 -0.3053 -0.0625
 3433SOL    HW121932   2.512   0.537   4.920 -1.4047  2.1196 -1.5236
 3433SOL    HW221933   2.460   0.403   4.933  0.1946 -0.3302 -0.5436
 3434SOL     OW21934   2.123   2.994  15.300  0.0776  1.1473 -0.3628
 3434SOL    HW121935   2.080   2.909  15.296 -3.0092  2.7562 -1.5995
 3434SOL    HW221936   2.061   3.040  15.356 -0.7670  0.5657 -0.8214
 3435SOL     OW21937   0.067   3.868   4.800 -0.5585 -0.7654  0.0876
 3435SOL    HW121938   0.013   3.833   4.871  0.4533 -0.4009  1.0440
 3435SOL    HW221939   0.140   3.806   4.793 -1.0444 -1.2781 -0.3654
 3436SOL     OW21940   0.898   0.876   7.959  0.0529  1.2012 -0.7301
 3436SOL    HW121941   0.804   0.886   7.944  0.0358  1.7762 -0.2291
 3436SOL    HW221942   0.945   0.873   7.875 -0.0999  2.5427 -0.8700
 3437SOL     OW21943   1.763   4.282   3.206 -0.7614 -0.3541 -0.7386
 3437SOL    HW121944   1.708   4.230   3.148 -1.1522  0.9350 -1.5263
 3437SOL    HW221945   1.774   4.361   3.153  1.1920 -0.3476 -0.3273
 3438SOL     OW21946   3.880   3.785   2.510 -0.1134 -0.5202 -0.0419
 3438SOL    HW121947   3.819   3.855   2.535  0.5551  1.0332 -2.7767
 3438SOL    HW221948   3.815   3.715   2.502 -0.5410 -0.3529  1.8166
 3439SOL     OW21949   1.878   3.198   0.145 -0.2623 -0.4403 -0.1273
 3439SOL    HW121950   1.823   3.170   0.072  0.9952  0.7657 -1.5363
 3439SOL    HW221951   1.958   3.231   0.104 -1.2856  3.5038  1.0439
 3440SOL     OW21952   3.211   3.654  16.881  0.0335 -0.3973 -0.4883
 3440SOL    HW121953   3.208   3.561  16.856 -0.7790 -0.7613  0.9743
 3440SOL    HW221954   3.160   3.654  16.962 -0.2932 -1.4363 -0.6821
 3441SOL     OW21955   0.683   1.376   3.415  0.1866 -0.0206 -0.5224
 3441SOL    HW121956   0.663   1.283   3.417 -1.2390  0.2990  0.5070
 3441SOL    HW221957   0.771   1.373   3.378  0.3568 -1.0542 -0.0114
 3442SOL     OW21958   4.283   1.521   5.208 -0.2782  0.0586  0.1326
 3442SOL    HW121959   4.246   1.455   5.267 -0.9496 -2.8426 -3.5495
 3442SOL    HW221960   4.377   1.505   5.207 -0.4069 -0.7841  1.0485
 3443SOL     OW21961   0.858   0.643   5.698  0.0625  0.1200 -0.2552
 3443SOL    HW121962   0.766   0.617   5.686  0.3559 -1.4406  0.8454
 3443SOL    HW221963   0.841   0.734   5.723  1.2668 -0.0191  1.0523
 3444SOL     OW21964   0.153   0.847   6.916 -0.2711  0.2560 -0.7587
 3444SOL    HW121965   0.093   0.788   6.962  0.7867 -0.5400 -0.3808
 3444SOL    HW221966   0.125   0.929   6.956  1.0082  1.0374 -1.4719
 3445SOL     OW21967   4.260   4.065   5.812 -0.7230  0.0273 -0.3251
 3445SOL    HW121968   4.248   4.137   5.750  2.1556  1.0241  0.2477
 3445SOL    HW221969   4.352   4.041   5.819 -1.1262 -1.6163 -0.8310
 3446SOL     OW21970   0.564   3.284   8.102  0.4102 -0.1211 -0.0475
 3446SOL    HW121971   0.588   3.198   8.069  0.6569  0.0013 -0.1911
 3446SOL    HW221972   0.493   3.305   8.042  1.6554  1.4146 -0.9876
 3447SOL     OW21973   0.904   2.777   8.336  0.2873  0.2314  0.6903
 3447SOL    HW121974   0.949   2.726   8.269 -1.3090 -0.9649  0.5338
 3447SOL    HW221975   0.937   2.741   8.418  2.1726 -0.2695 -0.2851
 3448SOL     OW21976   1.690   1.080   7.428 -0.0730  0.7825  0.7503
 3448SOL    HW121977   1.611   1.027   7.438 -0.6979  1.6511  0.3878
 3448SOL    HW221978   1.760   1.029   7.469  1.2903  1.0899 -1.1999
 3449SOL     OW21979   3.781   0.118  15.970 -0.2476  0.4759 -0.1083
 3449SOL    HW121980   3.731   0.186  15.925 -0.3200  1.0088  0.7985
 3449SOL    HW221981   3.802   0.057  15.898  1.1511  0.5069  0.2751
 3450SOL     OW21982   4.080   4.651   3.537  0.0642  0.1702 -0.0984
 3450SOL    HW121983   4.130   4.611   3.608 -0.2232  1.5573  0.8909
 3450SOL    HW221984   4.067   0.001   3.573 -1.3920  0.5776 -1.6004
 3451SOL     OW21985   0.223   0.102  15.260  0.2813 -0.0474 -0.1519
 3451SOL    HW121986   0.294   0.075  15.319 -0.1088  2.1731  1.3221
 3451SOL    HW221987   0.263   0.142  15.184  0.0816  3.4668  1.6074
 3452SOL     OW21988   3.694   1.487   3.389  0.1121 -0.2571  0.6035
 3452SOL    HW121989   3.744   1.422   3.438 -0.2658 -0.6096  0.5228
 3452SOL    HW221990   3.709   1.475   3.295 -0.0659  3.0411  0.1383
 3453SOL     OW21991   0.864   3.667  10.535  0.3980  0.2497  0.7458
 3453SOL    HW121992   0.938   3.676  10.595  2.1324 -0.7958 -1.2434
 3453SOL    HW221993   0.896   3.731  10.472 -1.5561 -0.6698 -1.1988
 3454SOL     OW21994   2.025   2.328   5.591 -0.2510  0.0605 -0.2287
 3454SOL    HW121995   2.079   2.251   5.572  1.0430  0.6296  1.2017
 3454SOL    HW221996   2.059   2.395   5.532 -0.3773 -0.6544 -1.1260
 3455SOL     OW21997   3.917   0.530  11.622 -0.0066  0.3801  0.4235
 3455SOL    HW121998   4.005   0.508  11.651 -0.3004 -2.0443 -0.4875
 3455SOL    HW221999   3.945   0.614  11.587 -1.0386  0.6073  0.1333
 3456SOL     OW22000   0.553   0.251  12.662  0.1782 -0.3705  0.2413
 3456SOL    HW122001   0.504   0.321  12.619 -0.5533 -0.8592  0.2759
 3456SOL    HW222002   0.555   0.279  12.754 -1.2856  0.0652  0.1411
 3457SOL     OW22003   4.653   1.539  10.036  0.4660 -0.3118 -0.3822
 3457SOL    HW122004   4.695   1.538   9.950 -0.2769  2.8281 -0.7697
 3457SOL    HW222005   4.714   1.485  10.086  2.0465  1.1046 -0.7568
 3458SOL     OW22006   0.411   1.527   2.907  0.2202 -0.2290  0.2718
 3458SOL    HW122007   0.459   1.490   2.981  0.8146  1.2640  0.6245
 3458SOL    HW222008   0.329   1.540   2.954  0.0019  1.3752 -0.5664
 3459SOL     OW22009   3.117   2.695   8.745 -0.2109  0.1374 -0.3741
 3459SOL    HW122010   3.202   2.651   8.738 -0.5507 -1.0008  2.4491
 3459SOL    HW222011   3.063   2.640   8.689 -1.5293  2.2528 -1.1651
 3460SOL     OW22012   4.402   0.753   9.212  0.5664 -0.1554 -0.2521
 3460SOL    HW122013   4.491   0.731   9.183  0.7561  3.1172 -2.0935
 3460SOL    HW222014   4.423   0.818   9.278 -2.3273 -0.4749  1.0026
 3461SOL     OW22015   4.119   3.953   3.876  0.2864 -0.2297  0.4397
 3461SOL    HW122016   4.183   3.884   3.858 -0.3043 -0.7819  0.4923
 3461SOL    HW222017   4.042   3.897   3.870 -0.7782  1.4184 -1.2502
 3462SOL     OW22018   2.765   3.452   6.204 -0.4223 -0.4249  0.3907
 3462SOL    HW122019   2.786   3.369   6.159  1.6270  0.1019  0.3458
 3462SOL    HW222020   2.737   3.506   6.131  2.1838  0.0354 -0.2912
 3463SOL     OW22021   4.524   1.128   2.674 -0.1573  0.4131 -0.3001
 3463SOL    HW122022   4.605   1.090   2.640  2.3096  3.4084  2.2116
 3463SOL    HW222023   4.487   1.161   2.593 -1.5270 -1.3533 -0.4184
 3464SOL     OW22024   3.888   0.402   8.669 -0.1328  0.1789  0.3722
 3464SOL    HW122025   3.917   0.494   8.671 -0.0826  0.1617  0.4121
 3464SOL    HW222026   3.856   0.398   8.579 -0.6974  0.0337  0.5781
 3465SOL     OW22027   4.595   3.759   1.823  0.0050  0.2823 -0.0747
 3465SOL    HW122028   4.529   3.732   1.885 -1.5637  0.2119 -1.7705
 3465SOL    HW222029   4.551   3.827   1.771 -2.1305 -1.0370  0.0561
 3466SOL     OW22030   4.015   3.270   3.150  0.1877  0.2721  0.0030
 3466SOL    HW122031   4.059   3.309   3.226  0.2343 -0.1467  0.1924
 3466SOL    HW222032   3.925   3.299   3.163 -0.0414 -1.3755  2.2403
 3467SOL     OW22033   3.122   0.656  12.148  0.4675  0.6877  0.8043
 3467SOL    HW122034   3.102   0.749  12.142  0.5248  0.4419 -3.3314
 3467SOL    HW222035   3.152   0.659  12.238 -0.0418  0.0681  0.9923
 3468SOL     OW22036   0.324   3.855   4.324  0.3524 -0.7948 -0.5419
 3468SOL    HW122037   0.268   3.932   4.333  1.5896  0.0913 -0.3678
 3468SOL    HW222038   0.252   3.794   4.339  1.2920 -1.6184  0.6149
 3469SOL     OW22039   2.167   3.824   1.919 -0.3328  0.0881 -0.6418
 3469SOL    HW122040   2.104   3.853   1.985  1.2773 -1.5117  1.5696
 3469SOL    HW222041   2.134   3.852   1.833 -0.0242 -1.9391 -1.4034
 3470SOL     OW22042   1.402   2.690   2.544 -0.3431  0.3037  0.1762
 3470SOL    HW122043   1.396   2.775   2.500 -2.6730 -0.7375 -1.5515
 3470SOL    HW222044   1.412   2.707   2.637  0.5969 -0.8936  0.2871
 3471SOL     OW22045   2.457   1.454   8.023  0.5016 -0.5257  0.3841
 3471SOL    HW122046   2.495   1.462   7.936  3.6603  1.0438  1.9111
 3471SOL    HW222047   2.443   1.360   8.038  0.4269 -0.0961  3.0292
 3472SOL     OW22048   0.922   1.735   9.600  0.2050 -0.4960 -0.2993
 3472SOL    HW122049   0.975   1.806   9.636 -1.2079  0.2623  0.2829
 3472SOL    HW222050   0.891   1.696   9.682 -2.2355 -2.3293 -2.0889
 3473SOL     OW22051   2.637   4.243   6.829 -0.4348 -0.4623 -0.0350
 3473SOL    HW122052   2.631   4.181   6.902 -1.9918 -0.8413 -0.4785
 3473SOL    HW222053   2.684   4.192   6.763 -0.6553 -0.2148 -0.3816
 3474SOL     OW22054   2.351   1.262   9.067 -0.2527 -0.3663  0.4612
 3474SOL    HW122055   2.326   1.241   9.158  3.0432 -3.3130  0.6820
 3474SOL    HW222056   2.325   1.182   9.022 -1.5051 -0.0676  0.6623
 3475SOL     OW22057   1.473   0.242  15.635 -0.1391  0.2018 -0.1127
 3475SOL    HW122058   1.425   0.162  15.652  0.6938  0.0456  1.5272
 3475SOL    HW222059   1.552   0.202  15.672  0.9615  0.0696 -2.5533
 3476SOL     OW22060   0.969   3.839   5.967 -0.2671 -0.8144 -0.5286
 3476SOL    HW122061   0.936   3.918   6.008 -1.5166 -2.4717  1.6646
 3476SOL    HW222062   1.060   3.867   5.954  0.0079 -1.0553  0.8931
 3477SOL     OW22063   2.835   4.050  17.116  0.3550  0.1952  0.0602
 3477SOL    HW122064   2.873   4.136  17.127 -0.1271  0.3918  0.1735
 3477SOL    HW222065   2.762   4.072  17.058 -0.1830  1.3295  1.2029
 3478SOL     OW22066   3.621   3.134  15.683 -0.2110  0.2557  0.0070
 3478SOL    HW122067   3.543   3.106  15.636  0.1929 -0.0316 -0.4878
 3478SOL    HW222068   3.612   3.227  15.663 -0.1513  0.8610  2.7658
 3479SOL     OW22069   0.235   3.105   4.672  0.6041 -0.4347 -0.9290
 3479SOL    HW122070   0.169   3.081   4.737  1.2464  0.1752 -0.0655
 3479SOL    HW222071   0.270   3.186   4.709 -0.5040 -0.5136  0.3103
 3480SOL     OW22072   3.679   0.735  16.570 -0.4350  0.6668  0.1260
 3480SOL    HW122073   3.663   0.805  16.507  1.6073  1.2869  0.3142
 3480SOL    HW222074   3.643   0.659  16.525 -0.3183  0.5826  0.1761
 3481SOL     OW22075   1.023   2.622   7.546  0.0141 -0.1709  0.1924
 3481SOL    HW122076   1.105   2.620   7.596  0.4995 -1.3524 -0.6618
 3481SOL    HW222077   1.053   2.607   7.456  2.2534 -0.2900  0.9380
 3482SOL     OW22078   4.550   3.531   5.175  0.2063  0.6000 -0.0958
 3482SOL    HW122079   4.501   3.614   5.173  0.4320  0.7503  0.8323
 3482SOL    HW222080   4.597   3.545   5.257  2.0504 -1.1895 -0.8421
 3483SOL     OW22081   0.306   2.465   3.834  0.6954  0.1144  0.3645
 3483SOL    HW122082   0.212   2.464   3.853  0.7201 -1.2853  0.3652
 3483SOL    HW222083   0.321   2.371   3.832 -2.4594 -0.3780 -0.3140
 3484SOL     OW22084   2.084   2.371   3.425  0.3318  0.0733  0.0349
 3484SOL    HW122085   2.142   2.423   3.480 -0.0931  1.7378 -1.0976
 3484SOL    HW222086   2.122   2.283   3.430  3.2994  1.3668 -0.4090
 3485SOL     OW22087   0.011   3.184  17.063 -0.4665 -0.1278 -0.0351
 3485SOL    HW122088   0.088   3.197  17.006  0.2217 -0.6138  0.7825
 3485SOL    HW222089   4.718   3.274  17.074  0.2080 -0.1209  1.8043
 3486SOL     OW22090   0.949   1.481  11.853  0.0293  0.3731 -0.2408
 3486SOL    HW122091   0.997   1.528  11.785  3.3803 -2.3121  0.2252
 3486SOL    HW222092   1.009   1.470  11.927 -0.6604 -0.0123  0.2632
 3487SOL     OW22093   3.082   4.344  12.897  0.5002 -0.0855  0.3302
 3487SOL    HW122094   3.013   4.391  12.850  0.4052 -1.3457 -0.8010
 3487SOL    HW222095   3.037   4.303  12.970  2.1126 -1.5585  0.5128
 3488SOL     OW22096   1.969   3.662   7.167  0.3952 -0.6314  0.6734
 3488SOL    HW122097   1.878   3.634   7.173  0.1828 -0.5080 -1.9446
 3488SOL    HW222098   1.972   3.662   7.071 -0.4758  1.0512  0.6567
 3489SOL     OW22099   2.927   1.600   7.788  0.4672 -0.2819  0.3041
 3489SOL    HW122100   2.965   1.531   7.734  0.6471  0.7715 -0.9172
 3489SOL    HW222101   2.981   1.674   7.760 -1.5737  1.3914  0.7856
 3490SOL     OW22102   3.825   2.730   0.657  0.1928 -0.3684  0.7370
 3490SOL    HW122103   3.855   2.796   0.595 -0.0067 -1.1114 -0.1518
 3490SOL    HW222104   3.734   2.716   0.633  0.0780 -0.5633  1.2757
 3491SOL     OW22105   0.514   4.585  11.960  0.0478 -0.2705 -0.2702
 3491SOL    HW122106   0.440   4.554  11.907 -0.3853  1.0208 -0.4246
 3491SOL    HW222107   0.489   4.556  12.048 -0.6112 -3.3206 -1.4671
 3492SOL     OW22108   2.362   0.211  11.243 -0.2164  0.4283 -0.0067
 3492SOL    HW122109   2.381   0.193  11.336 -0.6271 -0.2112 -0.0432
 3492SOL    HW222110   2.267   0.215  11.252 -0.0965  0.5744  1.1967
 3493SOL     OW22111   1.535   2.341   3.745  1.0498 -0.1328 -0.1900
 3493SOL    HW122112   1.626   2.315   3.756  0.6849 -0.8663  1.0380
 3493SOL    HW222113   1.527   2.405   3.816  1.2589  2.7289 -2.7567
 3494SOL     OW22114   2.410   1.968   6.322  0.4330 -0.4348  0.8986
 3494SOL    HW122115   2.479   1.955   6.388  0.4529  1.8828  1.3289
 3494SOL    HW222116   2.462   2.025   6.266 -1.2876  0.3683  0.1247
 3495SOL     OW22117   2.658   2.581  11.053 -0.3796 -0.0464  0.4488
 3495SOL    HW122118   2.625   2.591  11.142 -0.3306  3.5681  0.1026
 3495SOL    HW222119   2.649   2.487  11.045  0.0417 -0.2016  1.8276
 3496SOL     OW22120   0.637   0.701   2.938 -0.1716  0.3566 -0.7441
 3496SOL    HW122121   0.635   0.639   2.865 -0.6018  0.2253 -0.6235
 3496SOL    HW222122   0.543   0.702   2.959 -0.5168  2.7173 -2.3645
 3497SOL     OW22123   0.428   3.735   6.919 -0.1520 -0.0939 -0.0791
 3497SOL    HW122124   0.388   3.736   6.833  0.0127 -1.5390 -0.1708
 3497SOL    HW222125   0.389   3.817   6.948  1.8492  0.8441 -0.0052
 3498SOL     OW22126   1.136   2.240   5.130  0.3490  0.1142  0.2933
 3498SOL    HW122127   1.208   2.178   5.122  0.5660  0.2769  0.9595
 3498SOL    HW222128   1.126   2.263   5.038  0.1447 -4.3549 -0.7937
 3499SOL     OW22129   4.651   0.922   3.009 -0.2342 -0.3175 -0.5388
 3499SOL    HW122130   4.564   0.913   2.970 -0.0892  0.4180 -1.0423
 3499SOL    HW222131   4.679   1.007   2.976 -0.1207 -0.2198 -0.1888
 3500SOL     OW22132   3.518   0.553   1.645  0.0842  0.0812  0.2164
 3500SOL    HW122133   3.600   0.557   1.694 -0.3101 -1.2053  0.9628
 3500SOL    HW222134   3.454   0.513   1.704  1.5356 -1.3929  0.7704
 3501SOL     OW22135   4.729   0.669   2.784  0.1667 -0.1083  1.0341
 3501SOL    HW122136   0.055   0.740   2.796 -2.0250  1.5876  2.6191
 3501SOL    HW222137   4.704   0.673   2.692 -1.1965  1.4225  1.4733
 3502SOL     OW22138   3.102   0.661   1.654 -0.4350  0.3849 -0.2274
 3502SOL    HW122139   3.010   0.637   1.668 -0.0700 -0.4474  0.7817
 3502SOL    HW222140   3.136   0.578   1.620  0.2337  0.7986 -0.5743
 3503SOL     OW22141   0.177   1.676   3.569 -0.4306 -0.2691  0.0486
 3503SOL    HW122142   0.181   1.636   3.483  0.8692  0.1064 -0.0761
 3503SOL    HW222143   0.141   1.605   3.621  0.0372 -0.1381  0.5596
 3504SOL     OW22144   1.937   0.188   9.913  0.2298  0.3537  0.2507
 3504SOL    HW122145   1.953   0.162  10.004  1.6264  1.6423  0.3782
 3504SOL    HW222146   1.890   0.113   9.878  1.4203 -0.1567 -0.2376
 3505SOL     OW22147   1.539   3.566   4.075 -0.1955 -0.5204 -0.0655
 3505SOL    HW122148   1.481   3.620   4.129 -1.8659 -1.2275 -1.1409
 3505SOL    HW222149   1.487   3.563   3.994 -0.6858  2.1788  0.1483
 3506SOL     OW22150   0.658   2.374   7.554  0.3043 -0.3544 -0.6762
 3506SOL    HW122151   0.596   2.307   7.581  0.9482  0.0547  1.7996
 3506SOL    HW222152   0.682   2.362   7.462  2.4578 -3.2311  0.2775
 3507SOL     OW22153   3.385   0.074   4.920 -0.0228 -0.1744  0.5897
 3507SOL    HW122154   3.406   0.032   4.836  0.7138 -0.4081  0.8921
 3507SOL    HW222155   3.458   0.134   4.935  0.1187 -0.4258  0.8956
 3508SOL     OW22156   2.551   0.669   9.144  0.5350  0.2317  0.0011
 3508SOL    HW122157   2.593   0.604   9.087 -0.1835  0.0383 -0.3171
 3508SOL    HW222158   2.459   0.642   9.144  1.3626 -2.5999  2.4542
 3509SOL     OW22159   3.878   1.035  15.542 -0.3033 -0.5967 -0.4373
 3509SOL    HW122160   3.818   1.104  15.567  1.7218  1.4087 -1.0872
 3509SOL    HW222161   3.827   0.954  15.547  0.3369 -1.0013 -0.4161
 3510SOL     OW22162   0.021   3.165   6.325  0.1542 -0.5352  0.1207
 3510SOL    HW122163   0.064   3.212   6.396 -2.6388 -0.3978  1.7487
 3510SOL    HW222164   4.683   3.133   6.374 -1.4974  1.3471 -1.1805
 3511SOL     OW22165   0.104   4.049   4.329  0.5727  0.6127  0.2484
 3511SOL    HW122166   0.013   4.069   4.308  1.0002  1.2535 -0.9861
 3511SOL    HW222167   0.103   4.053   4.425  3.5959 -1.0371  0.3460
 3512SOL     OW22168   0.926   4.227   5.619 -0.1786 -0.0443 -0.0910
 3512SOL    HW122169   1.004   4.237   5.565  0.4568 -0.9856  0.6492
 3512SOL    HW222170   0.945   4.138   5.648  2.0549  0.7524  0.9290
 3513SOL     OW22171   0.805   3.350   2.038  0.2742  0.2481 -0.4392
 3513SOL    HW122172   0.772   3.271   1.995 -0.5883  2.0380 -3.0436
 3513SOL    HW222173   0.888   3.344   1.991 -0.3225 -1.3163 -1.2770
 3514SOL     OW22174   4.153   1.880   9.126  0.2341  0.1762  0.0994
 3514SOL    HW122175   4.123   1.799   9.085  0.2297  0.4059 -0.3543
 3514SOL    HW222176   4.245   1.880   9.098  0.3931 -0.8869  0.6115
 3515SOL     OW22177   0.799   0.271   4.797  0.2262  0.3910  0.4200
 3515SOL    HW122178   0.893   0.286   4.795  0.2392  0.1065 -1.4058
 3515SOL    HW222179   0.782   0.260   4.891 -0.8503  0.2036  0.2090
 3516SOL     OW22180   0.663   1.695   9.459  0.1474 -0.4871 -0.1672
 3516SOL    HW122181   0.749   1.734   9.472  1.2709 -2.7224 -0.9165
 3516SOL    HW222182   0.631   1.689   9.549  1.5995 -0.7416  0.3286
 3517SOL     OW22183   1.741   0.018  16.466 -0.9080 -0.3774 -0.3694
 3517SOL    HW122184   1.669   0.067  16.506  0.2012  1.7031 -0.9328
 3517SOL    HW222185   1.696   4.672  16.449 -0.6947 -0.4534 -0.5544
 3518SOL     OW22186   1.078   2.342   3.609 -0.1744 -0.2222 -0.3998
 3518SOL    HW122187   1.115   2.303   3.688  0.4558  0.8717 -0.1572
 3518SOL    HW222188   1.139   2.408   3.575 -2.3649  2.5213  1.0518
 3519SOL     OW22189   1.258   1.168   6.389  0.2437 -0.2911 -0.3254
 3519SOL    HW122190   1.243   1.248   6.337 -1.8000  1.0411  2.3375
 3519SOL    HW222191   1.314   1.197   6.461 -0.9753  2.0701 -0.3344
 3520SOL     OW22192   0.227   2.877   9.274  0.3791 -0.3201 -0.1991
 3520SOL    HW122193   0.319   2.876   9.248  0.5449 -0.3726  0.4077
 3520SOL    HW222194   0.215   2.784   9.293 -0.9060  0.4389  2.6325
 3521SOL     OW22195   3.379   2.148   7.209 -0.0979  0.2097 -0.0639
 3521SOL    HW122196   3.393   2.216   7.276  0.1633 -2.4667  2.5998
 3521SOL    HW222197   3.289   2.162   7.179  0.5245 -1.5598 -2.6838
 3522SOL     OW22198   1.671   0.968   3.271  0.5085 -0.3286 -0.4759
 3522SOL    HW122199   1.611   0.972   3.196 -3.6644 -2.5283  2.7670
 3522SOL    HW222200   1.661   1.054   3.313 -0.0441  0.2964 -1.8709
 3523SOL     OW22201   3.450   3.559  16.133  0.1286 -0.0518 -0.3308
 3523SOL    HW122202   3.538   3.536  16.105  0.2258 -0.6893  0.5185
 3523SOL    HW222203   3.474   3.649  16.156 -2.9000  0.8546 -0.6065
 3524SOL     OW22204   1.834   4.675   5.310  0.0188  0.6030  0.6539
 3524SOL    HW122205   1.925   4.702   5.326  0.3794 -1.0176  1.3843
 3524SOL    HW222206   1.840   4.672   5.215 -0.6296 -0.8102  0.6687
 3525SOL     OW22207   2.543   1.781   8.026 -0.0205 -0.6046 -0.1374
 3525SOL    HW122208   2.576   1.818   8.108 -1.6951 -0.3504  0.4056
 3525SOL    HW222209   2.582   1.693   8.029 -0.9599 -1.0180 -0.1822
 3526SOL     OW22210   1.360   0.890  14.877 -0.1338 -0.2280  0.0499
 3526SOL    HW122211   1.289   0.910  14.816  1.5600  0.5745 -1.6783
 3526SOL    HW222212   1.339   0.948  14.950 -3.1534 -1.5789  0.2586
 3527SOL     OW22213   4.291   0.804   1.376 -0.9292  0.8805  0.2438
 3527SOL    HW122214   4.215   0.754   1.405 -0.2909 -0.7267 -0.8444
 3527SOL    HW222215   4.285   0.887   1.424  0.5370  0.8527  0.4936
 3528SOL     OW22216   2.732   3.718   6.971 -0.3444  0.1302  0.0922
 3528SOL    HW122217   2.712   3.713   7.064 -2.3532  1.2080 -0.2782
 3528SOL    HW222218   2.765   3.806   6.955 -1.4943  0.5172 -0.1730
 3529SOL     OW22219   1.701   4.351   3.471  0.1232 -0.1330 -0.1400
 3529SOL    HW122220   1.736   4.314   3.391 -0.1105  0.7906 -0.6659
 3529SOL    HW222221   1.676   4.272   3.518  0.4866  0.7464  1.5489
 3530SOL     OW22222   0.990   3.801  12.234 -0.6914 -0.1037  0.0020
 3530SOL    HW122223   0.995   3.896  12.226 -1.0789 -0.1826 -1.2357
 3530SOL    HW222224   1.076   3.784  12.271  0.1008  1.4065 -1.1170
 3531SOL     OW22225   1.443   0.545   4.220 -0.5444 -0.2871  0.0834
 3531SOL    HW122226   1.425   0.504   4.136  1.7480 -2.6567  0.7449
 3531SOL    HW222227   1.534   0.515   4.229 -0.7818 -0.4551  1.9073
 3532SOL     OW22228   0.600   3.532   9.312  0.1062 -0.4392 -0.5134
 3532SOL    HW122229   0.630   3.465   9.251 -0.1920 -0.8848 -0.1705
 3532SOL    HW222230   0.592   3.474   9.388 -0.2625  0.5763  0.2346
 3533SOL     OW22231   0.466   0.769   4.402  0.3662 -0.6696  0.6688
 3533SOL    HW122232   0.411   0.703   4.445  0.6433 -1.1351  0.3053
 3533SOL    HW222233   0.497   0.805   4.485  0.4515  1.5029 -0.3060
 3534SOL     OW22234   1.824   0.379   8.382 -0.4019  0.3078  0.4155
 3534SOL    HW122235   1.868   0.330   8.452 -0.6912 -0.3716  0.1309
 3534SOL    HW222236   1.753   0.427   8.425 -0.0300  0.0820  1.2835
 3535SOL     OW22237   4.507   4.129  12.410  0.6605  0.1261 -0.4072
 3535SOL    HW122238   4.487   4.071  12.483 -0.4118  1.2745  0.2138
 3535SOL    HW222239   4.415   4.141  12.388  0.5804 -0.3514 -0.3225
 3536SOL     OW22240   1.241   0.871   4.526  0.6432  0.3475 -0.5243
 3536SOL    HW122241   1.225   0.825   4.443  0.6121  0.8266 -0.7834
 3536SOL    HW222242   1.171   0.834   4.581  2.5581 -1.5385  0.6363
 3537SOL     OW22243   4.118   3.064   2.239 -0.0895 -0.5534 -0.3670
 3537SOL    HW122244   4.192   3.033   2.186 -0.0683 -0.2653 -0.5039
 3537SOL    HW222245   4.160   3.127   2.297 -1.5802  0.0650  0.0395
 3538SOL     OW22246   3.734   2.197   7.368 -0.4505  0.9898  0.0213
 3538SOL    HW122247   3.650   2.210   7.412 -2.1518 -0.9796 -2.6182
 3538SOL    HW222248   3.786   2.239   7.437 -0.7873 -0.5973  1.2389
 3539SOL     OW22249   3.107   3.330   9.988 -0.2671  0.0118 -0.7611
 3539SOL    HW122250   3.045   3.383   9.938 -1.1098  0.1640  0.4696
 3539SOL    HW222251   3.176   3.364   9.930  0.0105  2.0050  0.7410
 3540SOL     OW22252   3.338   3.368   2.818 -0.1075 -0.3433  0.5081
 3540SOL    HW122253   3.394   3.299   2.785 -0.1197  0.7952 -1.9029
 3540SOL    HW222254   3.252   3.326   2.811 -0.9113  1.6451 -1.7597
 3541SOL     OW22255   1.439   1.337   1.177 -0.4862 -0.3299 -0.0823
 3541SOL    HW122256   1.402   1.370   1.096 -0.1097  0.0897 -0.0844
 3541SOL    HW222257   1.455   1.246   1.150  1.4962 -0.8769  2.9256
 3542SOL     OW22258   0.769   4.527   8.353 -0.2017  0.1938 -0.3926
 3542SOL    HW122259   0.829   4.453   8.341 -0.8514 -0.1998 -1.2083
 3542SOL    HW222260   0.768   4.574   8.269 -0.5412 -0.5815 -0.8223
 3543SOL     OW22261   1.790   1.377   5.455 -0.3536  0.7066  0.1322
 3543SOL    HW122262   1.740   1.389   5.536 -1.4575  0.1770 -0.4754
 3543SOL    HW222263   1.856   1.307   5.463 -1.0427  0.3413  2.4477
 3544SOL     OW22264   2.225   2.915   8.136  0.0194  0.4413  0.6574
 3544SOL    HW122265   2.166   2.879   8.069  1.0102  0.7614 -0.3933
 3544SOL    HW222266   2.187   3.002   8.151 -1.7307 -0.3293  0.7294
 3545SOL     OW22267   1.367   1.487  14.013  0.3143 -0.1189  0.6528
 3545SOL    HW122268   1.356   1.578  14.038  0.4052  0.1582 -0.3264
 3545SOL    HW222269   1.281   1.461  13.980  0.5489 -0.7136  0.5041
 3546SOL     OW22270   1.978   1.163   3.793 -0.3286 -0.3894 -0.2798
 3546SOL    HW122271   1.944   1.092   3.739  1.6691 -1.7523  0.2599
 3546SOL    HW222272   2.036   1.118   3.855 -1.6402  0.1771  1.3646
 3547SOL     OW22273   3.325   3.431   3.330  0.1395  0.8475  0.2809
 3547SOL    HW122274   3.343   3.346   3.369 -1.1143 -0.1528 -1.3293
 3547SOL    HW222275   3.389   3.431   3.260  0.6659  0.7258  0.7637
 3548SOL     OW22276   4.304   4.376   8.883 -0.1046  1.1552  0.8379
 3548SOL    HW122277   4.381   4.400   8.832  0.0585  1.0457  1.0329
 3548SOL    HW222278   4.249   4.450   8.859 -0.2589  0.7301 -0.1191
 3549SOL     OW22279   3.138   2.482   7.137  0.1760 -0.2978 -0.2927
 3549SOL    HW122280   3.163   2.533   7.214  0.3938 -1.2050  0.2382
 3549SOL    HW222281   3.101   2.538   7.069  0.5531  1.1911  0.7075
 3550SOL     OW22282   3.403   0.102   3.172 -0.5734  0.4127  0.2535
 3550SOL    HW122283   3.370   0.139   3.090 -0.9891  0.8850  0.6318
 3550SOL    HW222284   3.498   0.116   3.167 -0.0420 -3.3937  0.2364
 3551SOL     OW22285   1.705   0.654   6.716 -0.2300 -0.2012 -0.2641
 3551SOL    HW122286   1.675   0.745   6.715  0.2531 -0.0588 -1.7492
 3551SOL    HW222287   1.797   0.669   6.737 -0.1512  2.3202 -2.4663
 3552SOL     OW22288   0.459   3.348   7.492 -0.5670 -0.0656  0.0630
 3552SOL    HW122289   0.491   3.302   7.414 -0.6295  2.5005 -1.4716
 3552SOL    HW222290   0.529   3.328   7.555  1.4741  2.0905 -1.5181
 3553SOL     OW22291   2.086   4.605   6.905  0.7595 -0.3814  0.1469
 3553SOL    HW122292   2.056   4.663   6.974 -0.2657 -0.9316  0.1587
 3553SOL    HW222293   2.101   4.676   6.842  0.7877  1.0444  1.7535
 3554SOL     OW22294   3.734   1.786   8.810 -0.1853 -0.1412  0.2888
 3554SOL    HW122295   3.715   1.738   8.890 -0.4454  0.6674  0.7206
 3554SOL    HW222296   3.688   1.737   8.742 -1.1621 -0.8397  1.4550
 3555SOL     OW22297   2.888   4.216  17.426  0.0302  0.2984  0.0256
 3555SOL    HW122298   2.806   4.203  17.380  0.2738 -0.0285 -0.3180
 3555SOL    HW222299   2.948   4.143  17.409  1.6095  1.4183  0.7199
 3556SOL     OW22300   3.492   1.342   5.395  0.3931 -0.3527  0.3545
 3556SOL    HW122301   3.468   1.432   5.417 -1.2369 -0.7715  0.2204
 3556SOL    HW222302   3.406   1.303   5.408  0.6241 -0.8352  0.4095
 3557SOL     OW22303   4.285   1.348  15.341 -0.5247 -0.4157 -0.4000
 3557SOL    HW122304   4.246   1.297  15.412  1.2823 -1.4719 -0.1545
 3557SOL    HW222305   4.373   1.310  15.332 -0.8230 -1.7243  2.3093
 3558SOL     OW22306   2.901   4.215  10.159 -0.3595 -0.1361 -0.3584
 3558SOL    HW122307   2.906   4.226  10.254 -1.8854  1.0942 -0.4348
 3558SOL    HW222308   2.813   4.177  10.158 -1.3007  1.9853  1.4298
 3559SOL     OW22309   3.767   0.431   4.307  0.2056 -0.2917 -0.8886
 3559SOL    HW122310   3.829   0.360   4.319 -2.2358 -1.9956  1.7762
 3559SOL    HW222311   3.822   0.507   4.325 -0.0750 -0.8901  2.4724
 3560SOL     OW22312   4.431   1.661   6.256 -0.1649 -0.1603  0.1405
 3560SOL    HW122313   4.526   1.661   6.267  0.2091  1.6202 -3.2646
 3560SOL    HW222314   4.420   1.756   6.256  0.1177 -0.1552 -3.1349
 3561SOL     OW22315   1.440   3.442   4.551 -0.3834  0.3571 -0.7410
 3561SOL    HW122316   1.360   3.493   4.541  0.8594  2.6067  0.6865
 3561SOL    HW222317   1.477   3.497   4.620 -1.9549 -0.4625  0.7511
 3562SOL     OW22318   3.681   3.487   9.117  0.4411 -0.4140  0.2792
 3562SOL    HW122319   3.676   3.421   9.048  3.2581 -0.0506 -0.2750
 3562SOL    HW222320   3.771   3.519   9.106  0.7689 -2.1011 -1.9715
 3563SOL     OW22321   3.603   3.103  16.967  0.1432 -0.5009 -0.9679
 3563SOL    HW122322   3.599   3.190  16.927  1.3847 -0.6775 -1.4679
 3563SOL    HW222323   3.692   3.073  16.952  0.5209 -1.3518  2.9949
 3564SOL     OW22324   2.416   3.963  12.995  0.3957 -0.0238 -0.1633
 3564SOL    HW122325   2.372   4.020  13.057  0.4197  0.6991 -0.8216
 3564SOL    HW222326   2.507   3.961  13.025  0.4386 -1.3220 -0.3666
 3565SOL     OW22327   2.602   3.889  17.718 -0.3212  0.3228 -0.2425
 3565SOL    HW122328   2.531   3.934   0.016  0.5947  1.0574  0.4521
 3565SOL    HW222329   2.682   3.916   0.014 -0.3257  0.7693 -0.5100
 3566SOL     OW22330   0.443   2.346   4.381 -0.8177  0.6429  0.1318
 3566SOL    HW122331   0.389   2.270   4.360  2.4905 -1.2905 -1.5370
 3566SOL    HW222332   0.396   2.423   4.349 -1.3828  0.2651  0.0576
 3567SOL     OW22333   1.088   1.121  13.596 -0.3067  0.3736 -0.6666
 3567SOL    HW122334   1.151   1.148  13.662  0.5516 -1.0620 -0.8888
 3567SOL    HW222335   1.130   1.043  13.559 -1.6882 -1.1792  1.0795
 3568SOL     OW22336   4.543   0.124   5.126  0.0901 -0.0809 -0.0839
 3568SOL    HW122337   4.631   0.152   5.100 -1.1423  0.8096 -3.2062
 3568SOL    HW222338   4.564   0.037   5.160 -0.5384  0.4982  1.8414
 3569SOL     OW22339   1.141   0.726  17.223 -0.0947  0.5216 -0.2282
 3569SOL    HW122340   1.106   0.776  17.297 -1.9559 -0.1766 -0.6589
 3569SOL    HW222341   1.219   0.781  17.212  1.0190 -0.6573  1.6921
 3570SOL     OW22342   4.305   2.879   0.945 -0.2030 -0.2028  0.3371
 3570SOL    HW122343   4.241   2.888   0.874  2.0350  2.2952 -1.3265
 3570SOL    HW222344   4.347   2.796   0.923 -1.6482 -0.9685  0.4499
 3571SOL     OW22345   1.962   0.689   7.228  0.2587  0.1561 -0.1122
 3571SOL    HW122346   1.980   0.742   7.306 -0.7527  1.0673 -0.4972
 3571SOL    HW222347   2.048   0.686   7.187  0.5457  0.1562  0.4845
 3572SOL     OW22348   0.454   0.102  15.368 -0.4015 -0.0712 -0.0195
 3572SOL    HW122349   0.468   0.170  15.433  0.5296 -2.2374  2.0179
 3572SOL    HW222350   0.519   0.127  15.302 -1.8366  0.1941 -1.3601
 3573SOL     OW22351   1.499   1.069  17.728  0.2523  0.1371  0.0221
 3573SOL    HW122352   1.514   0.982  17.690  0.4152  0.0989  0.1774
 3573SOL    HW222353   1.513   1.047   0.071 -2.2774 -0.1590  0.3492
 3574SOL     OW22354   0.417   1.469   5.428 -0.0097 -0.1193  0.1970
 3574SOL    HW122355   0.486   1.486   5.492 -0.8434 -1.5879  1.5027
 3574SOL    HW222356   0.388   1.383   5.459  1.4257 -0.0399  1.7205
 3575SOL     OW22357   3.841   3.841   3.199 -0.0803  0.2556 -0.1019
 3575SOL    HW122358   3.910   3.812   3.139 -1.6539 -0.6043 -1.4757
 3575SOL    HW222359   3.783   3.884   3.136 -0.0741 -0.1959 -0.4116
 3576SOL     OW22360   0.832   1.445   4.275 -0.0703  0.0596 -0.5393
 3576SOL    HW122361   0.852   1.411   4.188 -1.6994  0.3908 -1.0565
 3576SOL    HW222362   0.833   1.540   4.263 -0.7922 -0.0338 -1.3187
 3577SOL     OW22363   3.880   1.523   2.109  0.3824  0.0348 -0.4410
 3577SOL    HW122364   3.906   1.449   2.164 -1.3806 -0.3127 -0.0898
 3577SOL    HW222365   3.965   1.565   2.092  0.1764 -0.4649 -2.7044
 3578SOL     OW22366   1.249   3.866   5.940 -0.2006  0.2881 -0.5424
 3578SOL    HW122367   1.272   3.956   5.963 -1.1018  0.1005  1.0991
 3578SOL    HW222368   1.276   3.864   5.848  3.7734  1.9168  0.6066
 3579SOL     OW22369   1.335   4.327   6.141  0.1644 -0.8001  0.1593
 3579SOL    HW122370   1.380   4.331   6.226 -1.4465  0.7355  0.9316
 3579SOL    HW222371   1.295   4.413   6.130 -0.8655 -1.5194 -1.6442
 3580SOL     OW22372   3.171   4.389   2.879  0.0807 -0.1987  0.2897
 3580SOL    HW122373   3.160   4.306   2.926 -1.3317  0.4657  1.1390
 3580SOL    HW222374   3.082   4.422   2.877 -0.5704 -1.8021  2.9483
 3581SOL     OW22375   3.868   0.850   5.421 -0.2498  0.3334 -0.5135
 3581SOL    HW122376   3.881   0.814   5.509  1.8698  0.5704 -0.7308
 3581SOL    HW222377   3.914   0.785   5.368  1.9620  2.2637 -0.9451
 3582SOL     OW22378   3.682   2.461  11.167 -0.4625 -0.0741 -0.3994
 3582SOL    HW122379   3.599   2.420  11.141 -1.5058 -0.2199  3.2351
 3582SOL    HW222380   3.748   2.392  11.161 -0.3537  0.1791 -2.2419
 3583SOL     OW22381   0.015   1.350   0.568 -0.3582  0.3653  0.1691
 3583SOL    HW122382   4.726   1.268   0.526 -2.1380  0.9086  0.2286
 3583SOL    HW222383   4.736   1.324   0.659 -1.9630  0.2529 -0.1580
 3584SOL     OW22384   2.959   2.305   3.304  0.4225  0.2783  0.3807
 3584SOL    HW122385   3.040   2.316   3.352 -0.2350  3.9998  0.6381
 3584SOL    HW222386   2.960   2.213   3.280 -1.5982  0.1215  0.8920
 3585SOL     OW22387   4.679   2.667   8.357 -0.2094  0.1530  0.2628
 3585SOL    HW122388   4.703   2.578   8.330  4.9631  1.7198 -0.3610
 3585SOL    HW222389   4.679   2.717   8.275 -1.0547  1.0977  0.8333
 3586SOL     OW22390   1.489   4.244   2.459  0.3101 -0.0954  0.5926
 3586SOL    HW122391   1.470   4.328   2.418 -0.2018 -1.6643 -2.3541
 3586SOL    HW222392   1.404   4.201   2.449  0.9861 -0.9522 -1.3444
 3587SOL     OW22393   2.270   2.802  17.613 -0.1059 -0.0818 -0.1503
 3587SOL    HW122394   2.285   2.887  17.654 -0.5030 -0.3073  0.4634
 3587SOL    HW222395   2.243   2.831  17.526 -1.4166  0.4757  0.4445
 3588SOL     OW22396   4.426   2.163   7.592  0.8432  0.7493  0.7529
 3588SOL    HW122397   4.446   2.213   7.512 -1.3623  1.0483  0.3914
 3588SOL    HW222398   4.434   2.074   7.558 -1.0166  0.4470  1.1096
 3589SOL     OW22399   3.204   3.418   6.185  0.3793  0.2662 -0.2167
 3589SOL    HW122400   3.294   3.417   6.153  0.6117  1.4951  0.4131
 3589SOL    HW222401   3.178   3.510   6.182 -1.7455 -0.3022  0.1760
 3590SOL     OW22402   1.922   4.117   4.580 -0.4602  0.0283  0.1147
 3590SOL    HW122403   2.008   4.156   4.565 -0.3028 -1.5491 -3.1006
 3590SOL    HW222404   1.901   4.153   4.666  0.7449 -2.2452  1.3762
 3591SOL     OW22405   2.375   1.366   4.385  0.2848 -0.5157 -0.6485
 3591SOL    HW122406   2.361   1.424   4.309  2.4851 -0.9258 -1.3706
 3591SOL    HW222407   2.295   1.314   4.386  0.0498 -0.1464 -0.2175
 3592SOL     OW22408   3.316   4.018   3.601 -0.1055  0.0648  0.2539
 3592SOL    HW122409   3.338   4.061   3.683  0.8820  2.6119 -1.3301
 3592SOL    HW222410   3.337   3.926   3.620 -0.8902 -0.2115 -0.1983
 3593SOL     OW22411   1.321   2.104  15.807  0.1187  0.5700 -0.2276
 3593SOL    HW122412   1.341   2.165  15.878  0.4633  0.3411 -0.1252
 3593SOL    HW222413   1.406   2.059  15.796  1.8943  3.4663  1.6940
 3594SOL     OW22414   3.856   2.044   9.391  0.1450 -0.7895  0.2105
 3594SOL    HW122415   3.869   2.123   9.338  0.0312 -0.6815  0.3455
 3594SOL    HW222416   3.828   1.976   9.329 -1.4931  0.3998 -0.3346
 3595SOL     OW22417   0.670   2.224   0.182 -1.1357 -0.3053 -0.4496
 3595SOL    HW122418   0.712   2.263   0.258 -1.5080 -1.3255  0.2708
 3595SOL    HW222419   0.745   2.175   0.149  1.6137  1.8714  2.6558
 3596SOL     OW22420   2.324   2.919  17.044 -0.1245 -0.0445  0.2840
 3596SOL    HW122421   2.354   3.010  17.044 -0.4162  0.0426  3.5265
 3596SOL    HW222422   2.345   2.883  17.130  0.0579  0.3366  0.3979
 3597SOL     OW22423   3.956   0.039   7.897  0.0830 -0.3929  0.7545
 3597SOL    HW122424   3.976   4.724   7.974  0.8116 -2.0820 -0.5716
 3597SOL    HW222425   3.862   0.023   7.893 -0.1444  0.9800  0.3975
 3598SOL     OW22426   3.516   3.803   2.200  0.0122 -0.3255  0.6937
 3598SOL    HW122427   3.567   3.884   2.203 -1.1713  0.4973 -2.3577
 3598SOL    HW222428   3.432   3.844   2.219 -0.2259 -1.0520  1.2263
 3599SOL     OW22429   4.681   4.531   2.735  0.2118 -0.2330 -0.2140
 3599SOL    HW122430   4.590   4.501   2.732 -0.1211  0.8623 -0.8848
 3599SOL    HW222431   4.718   4.450   2.703 -0.3488 -1.0517  1.1781
 3600SOL     OW22432   0.127   0.150   7.967 -0.5321 -0.4778 -0.9197
 3600SOL    HW122433   0.047   0.197   7.991 -1.3516 -0.9436 -2.7560
 3600SOL    HW222434   0.105   0.103   7.887 -1.9542 -0.2930 -0.6355
 3601SOL     OW22435   4.060   0.024   5.922 -0.9281 -0.2000 -0.2519
 3601SOL    HW122436   4.105   4.678   5.910  0.5437  0.4041  1.0555
 3601SOL    HW222437   4.011   0.003   6.002  0.1021  0.8927  0.6756
 3602SOL     OW22438   4.117   1.127  13.004 -0.0275  0.5867  0.1574
 3602SOL    HW122439   4.100   1.082  13.087 -1.2669  1.9009  0.6160
 3602SOL    HW222440   4.036   1.178  13.000 -0.2216  0.4719  2.3093
 3603SOL     OW22441   2.050   0.329   1.121  0.0449 -0.0195 -0.3465
 3603SOL    HW122442   2.126   0.360   1.170  0.8305  1.2011 -2.3134
 3603SOL    HW222443   2.000   0.409   1.106  1.1597  0.5418 -1.0884
 3604SOL     OW22444   4.400   1.928   6.001  0.3477  0.1542 -0.1214
 3604SOL    HW122445   4.450   1.850   5.977 -3.3792 -2.2683  0.0062
 3604SOL    HW222446   4.462   1.990   5.964  1.3679 -0.9810 -0.3319
 3605SOL     OW22447   3.866   0.098  13.486 -0.4052 -0.1420 -0.1465
 3605SOL    HW122448   3.770   0.096  13.491 -0.4014 -0.2049 -0.1015
 3605SOL    HW222449   3.877   0.009  13.453 -2.3781 -0.0342 -1.1086
 3606SOL     OW22450   2.378   2.068  10.007  0.0712 -0.5196  0.1126
 3606SOL    HW122451   2.369   2.148  10.059  1.9350 -0.0217 -0.3055
 3606SOL    HW222452   2.466   2.079   9.970  0.5757 -0.9905  1.1963
 3607SOL     OW22453   0.086   2.073   3.993  0.1514  0.1314  0.5225
 3607SOL    HW122454   0.094   2.001   3.931 -0.1605  1.1747 -0.7121
 3607SOL    HW222455   4.729   2.083   3.995 -0.0475 -1.6156  0.0127
 3608SOL     OW22456   3.252   2.755   0.006 -0.4534 -0.1046 -0.4232
 3608SOL    HW122457   3.288   2.687  17.698  1.7391  1.3669 -0.7846
 3608SOL    HW222458   3.167   2.716   0.027 -0.5404  0.8766  1.0234
 3609SOL     OW22459   0.695   3.804   7.392  0.2425 -0.0338 -0.1390
 3609SOL    HW122460   0.659   3.737   7.450 -2.9136  1.0962 -0.8222
 3609SOL    HW222461   0.718   3.748   7.318 -2.3947 -0.6931 -0.4607
 3610SOL     OW22462   1.572   0.359   7.898  0.5410 -0.2791  0.0691
 3610SOL    HW122463   1.482   0.325   7.900  0.9859 -1.4364  0.5719
 3610SOL    HW222464   1.569   0.427   7.831  0.8428  0.5489  0.8959
 3611SOL     OW22465   0.771   3.953  16.319  0.1606 -0.1409  0.1844
 3611SOL    HW122466   0.856   3.931  16.282  1.7105  1.2321  2.9188
 3611SOL    HW222467   0.713   3.885  16.286  0.3901 -0.4037  0.3167
 3612SOL     OW22468   2.929   2.357   0.012  0.0466 -0.1301  0.0442
 3612SOL    HW122469   2.887   2.317  17.684  2.5053 -1.6963 -0.4876
 3612SOL    HW222470   2.866   2.338   0.082 -1.8474 -1.4545 -1.9972
 3613SOL     OW22471   3.666   2.478   0.442  0.7099  0.2548  0.3164
 3613SOL    HW122472   3.644   2.567   0.469  0.7972  0.4228 -0.1496
 3613SOL    HW222473   3.757   2.500   0.422  0.4688  1.4578  0.4994
 3614SOL     OW22474   0.532   3.730   9.857  0.6651  0.4983  0.1472
 3614SOL    HW122475   0.513   3.811   9.905 -2.6989 -0.5463  0.5691
 3614SOL    HW222476   0.485   3.660   9.902 -0.0508  1.2005  0.4856
 3615SOL     OW22477   3.602   0.434   4.957 -0.2242  0.0563 -0.1637
 3615SOL    HW122478   3.515   0.434   4.919  0.6734 -2.1099 -2.2977
 3615SOL    HW222479   3.631   0.348   4.925 -1.3395  0.0075 -1.0301
 3616SOL     OW22480   1.085   1.385  10.771  0.7759 -0.2727 -0.4405
 3616SOL    HW122481   1.118   1.418  10.854  4.0372 -1.0329 -1.4283
 3616SOL    HW222482   1.015   1.328  10.803  0.5956 -1.0140 -2.1289
 3617SOL     OW22483   0.961   3.635   1.769 -0.4000  0.0523 -0.5840
 3617SOL    HW122484   1.000   3.684   1.697 -2.1886  1.0952 -0.8640
 3617SOL    HW222485   0.913   3.697   1.824 -0.0657  0.7587 -1.0906
 3618SOL     OW22486   0.167   1.168   8.194  0.1859  0.2905 -0.4234
 3618SOL    HW122487   0.098   1.208   8.142  0.3338 -0.7471 -1.4198
 3618SOL    HW222488   0.145   1.206   8.279 -1.4083  0.7055 -1.0112
 3619SOL     OW22489   3.978   1.849  14.763 -0.3531 -0.0504  0.1329
 3619SOL    HW122490   4.027   1.846  14.845 -0.1857  0.7373  0.0566
 3619SOL    HW222491   3.949   1.757  14.759  0.5369 -0.2321 -2.2533
 3620SOL     OW22492   2.745   0.872   8.328 -0.2460 -0.5991 -0.2875
 3620SOL    HW122493   2.703   0.881   8.414  0.2642 -3.3042  0.2328
 3620SOL    HW222494   2.737   0.779   8.307  0.8514 -1.0184  1.1726
 3621SOL     OW22495   2.829   2.851   5.511 -0.0463 -0.3428  0.2698
 3621SOL    HW122496   2.915   2.844   5.553  1.2022 -0.2409 -2.2758
 3621SOL    HW222497   2.842   2.795   5.434  0.8956 -0.0291  0.2079
 3622SOL     OW22498   3.535   2.032   4.913 -0.0662 -0.0286 -0.2343
 3622SOL    HW122499   3.540   1.937   4.902 -0.7120 -0.3258  1.9864
 3622SOL    HW222500   3.515   2.036   5.007 -0.7228 -1.2744 -0.3153
 3623SOL     OW22501   1.858   3.607  16.628 -0.4524 -0.3380 -0.9263
 3623SOL    HW122502   1.770   3.610  16.591 -0.8479  0.9758  0.1255
 3623SOL    HW222503   1.912   3.585  16.552 -2.4813  0.1583 -2.5064
 3624SOL     OW22504   4.651   2.060   7.206  0.1417  0.5168  0.2449
 3624SOL    HW122505   4.655   2.156   7.199  1.6026  0.3267 -1.5043
 3624SOL    HW222506   4.669   2.050   7.300 -0.3328  2.4674  0.5592
 3625SOL     OW22507   0.687   3.823   6.725  0.2195 -0.4536  0.1296
 3625SOL    HW122508   0.752   3.849   6.660 -2.2646  2.3459 -1.2296
 3625SOL    HW222509   0.726   3.826   6.813 -1.1383 -1.1811  0.7419
 3626SOL     OW22510   1.491   3.941   7.344  0.2958  0.3248  0.4147
 3626SOL    HW122511   1.556   3.966   7.278 -0.2687  3.8400  1.1843
 3626SOL    HW222512   1.530   3.868   7.393 -0.5140 -0.2679  0.1758
 3627SOL     OW22513   1.185   0.617  12.996 -0.0636  0.0578 -0.0819
 3627SOL    HW122514   1.115   0.613  13.061  1.1541 -3.1200  1.0535
 3627SOL    HW222515   1.192   0.711  12.980 -2.9840  0.3209  0.0879
 3628SOL     OW22516   1.299   1.788   2.137  0.1173 -0.4554  0.4269
 3628SOL    HW122517   1.355   1.719   2.171  0.6878  0.4610  1.3510
 3628SOL    HW222518   1.362   1.822   2.073 -0.8106  1.0023  0.2702
 3629SOL     OW22519   3.269   1.783  10.851  1.3827 -0.1035  0.1578
 3629SOL    HW122520   3.357   1.821  10.851  0.5551  1.8331 -0.9713
 3629SOL    HW222521   3.226   1.841  10.789 -1.4682 -1.4330  0.9197
 3630SOL     OW22522   0.609   1.165   0.242 -0.0251  0.6222  0.1514
 3630SOL    HW122523   0.541   1.231   0.260  0.4561  1.7418 -2.1036
 3630SOL    HW222524   0.609   1.125   0.328  0.8427  1.5540  0.5876
 3631SOL     OW22525   1.529   1.943   3.737  0.1111  0.3149  0.3177
 3631SOL    HW122526   1.535   1.849   3.758 -1.0057 -0.3645 -2.3324
 3631SOL    HW222527   1.514   1.975   3.826 -0.0600  3.1249 -0.7286
 3632SOL     OW22528   1.577   3.752   5.499  0.3978  0.1445  0.3454
 3632SOL    HW122529   1.539   3.746   5.411  0.9069 -0.2998  0.1530
 3632SOL    HW222530   1.608   3.841   5.512 -0.1785  0.0832  2.1373
 3633SOL     OW22531   0.140   1.234   3.501 -0.3828  0.3021  0.2744
 3633SOL    HW122532   0.052   1.251   3.467 -0.0399  0.6963 -0.4173
 3633SOL    HW222533   0.125   1.177   3.576  0.7405  1.7638  1.5931
 3634SOL     OW22534   2.915   3.667   5.251 -0.4853  0.2322  0.9318
 3634SOL    HW122535   2.932   3.761   5.263  3.4294 -0.1205 -1.7902
 3634SOL    HW222536   2.884   3.672   5.160 -2.6925 -1.3496  1.5930
 3635SOL     OW22537   1.664   1.376   0.143 -0.5566  0.1120  0.3771
 3635SOL    HW122538   1.592   1.386   0.081 -0.0745  3.1512  0.3047
 3635SOL    HW222539   1.703   1.301   0.099 -0.6700  0.4507 -0.3140
 3636SOL     OW22540   2.133   4.627   8.102  0.0820 -0.3712  0.2138
 3636SOL    HW122541   2.098   4.667   8.022 -1.3833  1.2875  1.6760
 3636SOL    HW222542   2.066   4.650   8.166  1.7549 -3.4874  3.0906
 3637SOL     OW22543   3.395   1.550   4.664  0.6435  0.6313 -0.3321
 3637SOL    HW122544   3.490   1.538   4.672  0.1796 -1.8820  1.2707
 3637SOL    HW222545   3.402   1.645   4.652  0.7576  0.6277 -0.2999
 3638SOL     OW22546   1.600   0.750  14.309  0.6295  0.0446  0.2310
 3638SOL    HW122547   1.512   0.786  14.305  1.0506  0.8748 -1.4619
 3638SOL    HW222548   1.614   0.709  14.394  0.6590  1.7648  1.0577
 3639SOL     OW22549   4.576   1.874   7.798  0.2216 -0.1641 -0.0375
 3639SOL    HW122550   4.631   1.836   7.866  0.3231 -0.5539 -0.3424
 3639SOL    HW222551   4.580   1.966   7.825 -0.7616  0.4031 -1.7992
 3640SOL     OW22552   4.394   1.167  12.984 -0.5407  0.0307 -0.1212
 3640SOL    HW122553   4.388   1.253  12.942 -3.0871 -1.3996 -2.6271
 3640SOL    HW222554   4.300   1.150  12.991 -0.6786  0.8497 -0.0251
 3641SOL     OW22555   3.314   0.385   5.151 -0.2743  0.4737  0.5007
 3641SOL    HW122556   3.263   0.359   5.228 -0.7635  1.9042  0.6547
 3641SOL    HW222557   3.267   0.346   5.078 -2.1208 -0.4202  2.1876
 3642SOL     OW22558   4.019   0.094   2.774  0.4532  0.0910 -0.1662
 3642SOL    HW122559   3.990   0.089   2.865  2.6994  0.7185  0.5989
 3642SOL    HW222560   4.096   0.151   2.779  1.3867 -1.3364  1.7037
 3643SOL     OW22561   4.196   4.146   9.034 -0.2253 -0.3136 -0.1445
 3643SOL    HW122562   4.110   4.177   9.006  0.3665  0.5810 -0.9891
 3643SOL    HW222563   4.249   4.209   8.984 -0.8781 -0.0103 -0.4621
 3644SOL     OW22564   4.346   0.730   7.407  0.3900 -0.2000  0.1352
 3644SOL    HW122565   4.289   0.675   7.354 -2.5326  1.0042  1.9980
 3644SOL    HW222566   4.287   0.775   7.468 -1.1050 -0.7627 -0.9235
 3645SOL     OW22567   3.528   0.652   2.299 -0.0951  0.8468 -0.1174
 3645SOL    HW122568   3.581   0.613   2.368 -0.1062 -1.2721 -1.2810
 3645SOL    HW222569   3.513   0.738   2.338  0.7366 -0.1794  2.4089
 3646SOL     OW22570   0.936   2.582   5.339  0.0281  0.6517  0.0619
 3646SOL    HW122571   1.018   2.629   5.328  0.7240 -0.3122  1.1740
 3646SOL    HW222572   0.934   2.530   5.258  2.9225 -2.8619  2.2505
 3647SOL     OW22573   0.636   4.008   3.689  0.1530 -0.2021 -1.1568
 3647SOL    HW122574   0.604   3.920   3.672 -2.5403  0.3906  0.7785
 3647SOL    HW222575   0.606   4.067   3.620 -0.4792 -1.7218 -2.1655
 3648SOL     OW22576   3.403   0.816  16.497 -0.2579 -0.5798 -0.4217
 3648SOL    HW122577   3.423   0.904  16.528 -0.5987 -0.5232 -0.3558
 3648SOL    HW222578   3.367   0.786  16.581  0.9598 -0.7656  0.0307
 3649SOL     OW22579   3.926   0.349   3.849 -0.0709 -1.2576  0.2874
 3649SOL    HW122580   3.911   0.442   3.836 -0.9760 -1.4566 -0.0867
 3649SOL    HW222581   3.996   0.339   3.913  0.4787  0.0397 -0.1200
 3650SOL     OW22582   3.984   3.844  10.075 -0.6225 -0.2278 -0.1561
 3650SOL    HW122583   4.054   3.865  10.013 -1.1820 -0.3653 -0.8282
 3650SOL    HW222584   4.026   3.864  10.159 -0.0784  3.2966 -1.2756
 3651SOL     OW22585   1.223   2.986   1.348 -0.2001 -0.0805 -0.2226
 3651SOL    HW122586   1.162   2.971   1.420  0.6255  1.9798  0.8902
 3651SOL    HW222587   1.163   3.028   1.287 -0.9763 -0.2597  0.4167
 3652SOL     OW22588   1.279   2.232   9.277  0.1530  0.4787 -0.2296
 3652SOL    HW122589   1.345   2.234   9.208  2.4822 -3.6676  1.8980
 3652SOL    HW222590   1.289   2.139   9.294  2.2815  0.2019 -2.9760
 3653SOL     OW22591   1.306   0.437   1.780  0.6900  0.3938 -0.2983
 3653SOL    HW122592   1.240   0.425   1.712  0.2215  2.5954 -0.2344
 3653SOL    HW222593   1.366   0.368   1.753  1.5692  0.5142  1.3294
 3654SOL     OW22594   2.454   3.675   1.281 -0.3700 -0.1035 -0.6270
 3654SOL    HW122595   2.494   3.607   1.227  1.6109  0.3810  0.2239
 3654SOL    HW222596   2.409   3.616   1.342 -1.1097  0.3538 -0.7315
 3655SOL     OW22597   0.431   4.291   4.209  0.7008  0.3879  0.3310
 3655SOL    HW122598   0.507   4.349   4.212 -0.2275  1.5672  0.8410
 3655SOL    HW222599   0.435   4.242   4.291 -0.6687 -0.2112  0.0276
 3656SOL     OW22600   0.717   3.700   8.980 -0.0368  0.5897 -0.1274
 3656SOL    HW122601   0.636   3.706   9.030 -0.3920  0.1691 -0.6552
 3656SOL    HW222602   0.767   3.765   9.030 -1.4980  1.0556  0.7155
 3657SOL     OW22603   1.625   2.050   4.462  0.5487 -0.5919  0.5530
 3657SOL    HW122604   1.638   2.098   4.380  0.1546 -2.5888 -0.6788
 3657SOL    HW222605   1.628   1.956   4.441  3.2745 -0.8820  2.3014
 3658SOL     OW22606   2.379   3.281  12.425 -0.5858 -0.1382 -0.6199
 3658SOL    HW122607   2.433   3.329  12.488 -1.9454  1.9202 -1.0385
 3658SOL    HW222608   2.444   3.232  12.374  0.7998 -0.2145  1.2147
 3659SOL     OW22609   2.856   4.120   4.675  0.5305  0.4502  0.1265
 3659SOL    HW122610   2.884   4.181   4.743  1.0402 -0.3171  0.6075
 3659SOL    HW222611   2.773   4.093   4.713  0.2091  0.2230 -0.7266
 3660SOL     OW22612   1.800   1.130   5.739 -0.5516  0.1894  0.2702
 3660SOL    HW122613   1.737   1.071   5.780  0.3408  0.3393  1.8315
 3660SOL    HW222614   1.785   1.126   5.645  0.3351 -0.6691  0.1743
 3661SOL     OW22615   2.031   4.128   1.218 -0.0755 -0.4173 -0.2925
 3661SOL    HW122616   2.123   4.147   1.204  0.1141 -0.9108  0.2849
 3661SOL    HW222617   2.006   4.073   1.143  0.4352  0.4631 -1.1114
 3662SOL     OW22618   3.934   4.728   2.101  0.0155 -0.0623  0.7760
 3662SOL    HW122619   3.912   4.675   2.024 -1.8581  0.4322  0.9648
 3662SOL    HW222620   3.876   4.696   2.170 -3.4632  2.5219 -0.9302
 3663SOL     OW22621   2.755   3.186   2.216 -0.1723  0.2522  0.2283
 3663SOL    HW122622   2.750   3.109   2.160 -0.1234 -0.0210  0.5981
 3663SOL    HW222623   2.667   3.196   2.252 -0.3992 -1.1305  0.0149
 3664SOL     OW22624   3.018   0.924  12.112  0.1918 -0.7343 -0.3456
 3664SOL    HW122625   3.029   0.997  12.173 -0.0643 -0.5206 -0.5518
 3664SOL    HW222626   2.924   0.908  12.122  0.4616 -1.7672  0.5097
 3665SOL     OW22627   0.960   1.931  17.143  1.1616  0.1467 -0.0283
 3665SOL    HW122628   0.969   2.020  17.178  2.4419  0.2730 -0.6625
 3665SOL    HW222629   1.021   1.879  17.194  3.6743  1.5160 -1.6602
 3666SOL     OW22630   2.979   3.571  14.654 -0.1669  0.0997 -0.4699
 3666SOL    HW122631   2.949   3.661  14.667 -2.2870 -0.6312 -0.3079
 3666SOL    HW222632   3.008   3.573  14.562 -0.0183  0.8266 -0.4159
 3667SOL     OW22633   2.286   2.520   3.564  0.0295  0.1606  0.0853
 3667SOL    HW122634   2.313   2.434   3.597 -1.7652 -0.6597 -0.5701
 3667SOL    HW222635   2.361   2.579   3.573 -1.0278  1.4145  0.6661
 3668SOL     OW22636   3.989   0.607  17.277  0.4353 -0.1715 -0.5993
 3668SOL    HW122637   3.917   0.562  17.235  0.2535 -1.5548  1.2013
 3668SOL    HW222638   3.965   0.697  17.255 -0.4139 -0.1830  0.3125
 3669SOL     OW22639   1.789   3.973   6.285  0.1213 -0.2050  0.4833
 3669SOL    HW122640   1.760   4.012   6.367  0.7917  3.4220 -0.9978
 3669SOL    HW222641   1.869   4.024   6.272 -0.1595  0.2127  0.4065
 3670SOL     OW22642   1.169   3.932   5.499 -0.1149 -0.1108  0.5388
 3670SOL    HW122643   1.207   3.868   5.438 -0.5671 -0.2920  0.4455
 3670SOL    HW222644   1.137   3.890   5.579 -1.9534 -0.1252 -0.1958
 3671SOL     OW22645   2.461   1.447   1.660  0.0652  0.3815  0.0224
 3671SOL    HW122646   2.439   1.366   1.706  1.6489 -0.4396 -0.6850
 3671SOL    HW222647   2.509   1.408   1.588  1.2338  0.3352  0.8334
 3672SOL     OW22648   0.901   2.232   8.470  0.0824 -0.0402 -0.1103
 3672SOL    HW122649   0.969   2.298   8.465 -0.4171  0.4811 -0.0909
 3672SOL    HW222650   0.932   2.187   8.549 -1.2569  2.2106  1.7055
 3673SOL     OW22651   0.295   2.259   8.322  0.6387  0.1942 -0.2618
 3673SOL    HW122652   0.200   2.264   8.327  0.5614 -0.5247 -1.0143
 3673SOL    HW222653   0.299   2.164   8.314 -1.3682  0.1277 -0.5153
 3674SOL     OW22654   0.851   2.071   4.213 -0.2335  0.4510 -0.6119
 3674SOL    HW122655   0.811   2.131   4.275 -2.7882 -1.0569 -0.7807
 3674SOL    HW222656   0.769   2.048   4.169  0.5508 -1.5965 -1.0228
 3675SOL     OW22657   2.592   2.738   0.537 -0.7332  0.3616  0.0047
 3675SOL    HW122658   2.657   2.756   0.605 -0.5256  2.8456 -0.8435
 3675SOL    HW222659   2.518   2.711   0.591 -0.5480  1.2219  0.6992
 3676SOL     OW22660   2.300   0.810   7.669 -0.3607 -0.2368  0.0011
 3676SOL    HW122661   2.361   0.858   7.726  0.7963 -0.2279 -1.2405
 3676SOL    HW222662   2.245   0.886   7.646  1.6649  0.9404 -0.9723
 3677SOL     OW22663   3.882   3.782  17.400  0.3873  0.2100 -0.0731
 3677SOL    HW122664   3.792   3.813  17.395  0.2202  0.2626  2.8215
 3677SOL    HW222665   3.901   3.783  17.494 -2.7665 -0.3970  0.5478
 3678SOL     OW22666   1.343   4.389   2.846  0.2644 -0.0827  0.5066
 3678SOL    HW122667   1.279   4.370   2.915 -1.3213  2.9811 -0.1042
 3678SOL    HW222668   1.388   4.462   2.888 -0.3012  1.6276 -1.8450
 3679SOL     OW22669   0.898   2.726  17.532  0.2000  0.3944 -0.1004
 3679SOL    HW122670   0.820   2.670  17.528 -0.0185  0.6145  1.2184
 3679SOL    HW222671   0.854   2.810  17.548 -1.2552 -0.5277  0.7230
 3680SOL     OW22672   3.256   0.617  10.875 -0.2760  0.1001  0.0320
 3680SOL    HW122673   3.221   0.533  10.904 -0.0665  0.4644  1.3667
 3680SOL    HW222674   3.321   0.627  10.945 -1.6408 -0.4113  1.3609
 3681SOL     OW22675   1.980   1.220   7.041 -0.2213 -0.0093  0.0480
 3681SOL    HW122676   1.885   1.213   7.045 -0.4538  3.4558  0.2855
 3681SOL    HW222677   1.988   1.313   7.062 -3.2537  0.1791  0.4084
 3682SOL     OW22678   0.965   2.517   2.138 -0.3519 -0.3277 -0.2086
 3682SOL    HW122679   1.022   2.441   2.122  2.8068  2.0748 -0.4659
 3682SOL    HW222680   0.969   2.519   2.233  0.0521 -1.2977 -0.1962
 3683SOL     OW22681   2.821   2.414  16.355  0.5260  0.1785 -0.3551
 3683SOL    HW122682   2.858   2.414  16.444  0.7900  4.1235 -0.4289
 3683SOL    HW222683   2.733   2.380  16.369  1.5115 -1.7759  1.1158
 3684SOL     OW22684   3.048   0.746  15.766  0.6706  0.2654 -0.5927
 3684SOL    HW122685   3.024   0.659  15.799 -0.2002  0.9720  0.6078
 3684SOL    HW222686   3.118   0.762  15.830 -0.8281 -1.5895  1.5135
 3685SOL     OW22687   0.091   3.765   6.803  0.6333  0.3586 -0.8429
 3685SOL    HW122688   0.099   3.811   6.720  0.9516  1.7351 -0.0410
 3685SOL    HW222689   0.026   3.696   6.787  0.7425 -0.0532  0.4577
 3686SOL     OW22690   3.887   2.646   5.442  0.2091  0.7020  0.1131
 3686SOL    HW122691   3.944   2.669   5.516  0.7815 -0.6900  0.1099
 3686SOL    HW222692   3.898   2.718   5.380  0.8837  0.1779 -0.3700
 3687SOL     OW22693   0.321   1.061   6.508 -0.0770  0.4138 -0.3534
 3687SOL    HW122694   0.254   1.059   6.577 -0.8740  1.4261 -1.0826
 3687SOL    HW222695   0.267   1.098   6.437  0.0704 -0.0840 -0.7221
 3688SOL     OW22696   2.726   0.520  15.246  0.4337 -0.1528 -0.0917
 3688SOL    HW122697   2.801   0.535  15.303  1.2326  0.2923 -1.2709
 3688SOL    HW222698   2.686   0.437  15.272  1.0539  0.1065  1.7119
 3689SOL     OW22699   3.740   2.273   2.123  0.2694 -0.4575  0.5110
 3689SOL    HW122700   3.686   2.255   2.046  0.3826 -1.9493  0.7839
 3689SOL    HW222701   3.684   2.218   2.179 -0.2038 -0.2050  0.2879
 3690SOL     OW22702   1.591   2.395  15.911 -0.3058  0.2309 -0.3068
 3690SOL    HW122703   1.562   2.368  15.823  0.5650  0.4150 -0.6518
 3690SOL    HW222704   1.665   2.334  15.908 -0.2106  0.4045 -1.8332
 3691SOL     OW22705   1.140   4.101  12.449 -0.4272 -0.2002 -0.0791
 3691SOL    HW122706   1.089   4.180  12.467 -0.6675  0.2096 -2.6707
 3691SOL    HW222707   1.091   4.028  12.490 -1.7497 -0.3185 -1.8774
 3692SOL     OW22708   1.649   2.178   4.194 -0.3370 -0.2741  0.0907
 3692SOL    HW122709   1.597   2.133   4.127 -1.5412  1.5067 -0.1478
 3692SOL    HW222710   1.718   2.206   4.133 -0.0900 -0.7627  0.1467
 3693SOL     OW22711   3.955   1.837   3.726 -0.3493 -0.0223  0.1720
 3693SOL    HW122712   3.943   1.932   3.730 -1.7444 -0.1173 -1.6501
 3693SOL    HW222713   3.874   1.821   3.677 -0.3270  1.0670 -0.2205
 3694SOL     OW22714   2.774   1.696  17.541 -0.0428 -0.2205 -0.2037
 3694SOL    HW122715   2.772   1.752  17.618  1.4539  0.7996 -0.8989
 3694SOL    HW222716   2.682   1.703  17.517 -0.3098 -0.6405  0.7103
 3695SOL     OW22717   2.639   2.422   4.408 -0.2900  0.7091 -0.3226
 3695SOL    HW122718   2.599   2.477   4.475 -0.6734 -0.4479  0.3983
 3695SOL    HW222719   2.573   2.357   4.383  1.2465 -0.5505 -1.1037
 3696SOL     OW22720   2.362   1.596   2.510  0.6230  0.3683  0.0432
 3696SOL    HW122721   2.435   1.651   2.482 -1.0692  2.1272 -0.8443
 3696SOL    HW222722   2.293   1.612   2.446  0.8513  0.6691 -0.1283
 3697SOL     OW22723   0.288   1.089   4.156 -0.4527  0.3002  0.4829
 3697SOL    HW122724   0.338   1.165   4.126 -1.1636  0.5968  0.0505
 3697SOL    HW222725   0.268   1.121   4.244  0.1640  0.4181  0.5828
 3698SOL     OW22726   3.550   1.216   4.572 -0.1220 -0.4062  0.3380
 3698SOL    HW122727   3.526   1.276   4.643 -1.3007  1.4159 -1.6076
 3698SOL    HW222728   3.463   1.202   4.535 -0.3446 -2.3402  1.6056
 3699SOL     OW22729   1.279   0.529   8.437 -0.1128  0.1819  0.3508
 3699SOL    HW122730   1.271   0.437   8.465  1.9381 -0.5729 -1.5077
 3699SOL    HW222731   1.239   0.517   8.351 -0.5592 -1.3949  0.7736
 3700SOL     OW22732   3.233   3.990   2.773  0.7501  0.1724  0.4241
 3700SOL    HW122733   3.191   3.910   2.805  1.2207  0.2858  1.3138
 3700SOL    HW222734   3.154   4.030   2.739  1.0715 -0.2064 -0.7781
 3701SOL     OW22735   4.169   3.188   4.707  0.2937 -0.2359  0.1128
 3701SOL    HW122736   4.150   3.109   4.657  2.8011 -0.8884  0.2122
 3701SOL    HW222737   4.121   3.166   4.787 -1.2381 -0.0688 -0.7673
 3702SOL     OW22738   0.531   1.174   0.880  0.5789 -0.2452 -0.7317
 3702SOL    HW122739   0.503   1.089   0.844 -1.3945  0.5416 -1.0806
 3702SOL    HW222740   0.585   1.191   0.803  0.0804  0.8098 -0.8555
 3703SOL     OW22741   1.412   2.671   8.257 -0.3188  0.2834  0.3145
 3703SOL    HW122742   1.428   2.580   8.284 -1.9478 -0.1062 -0.0169
 3703SOL    HW222743   1.381   2.665   8.167  0.0325 -0.3580  0.2343
 3704SOL     OW22744   4.672   2.562   7.365 -0.3022 -0.0938 -0.7661
 3704SOL    HW122745   0.024   2.547   7.394  0.4104  0.9836 -2.4373
 3704SOL    HW222746   4.646   2.635   7.421 -2.9026 -1.4187 -0.2377
 3705SOL     OW22747   4.115   3.832   2.625 -0.3956 -0.2234  0.6153
 3705SOL    HW122748   4.098   3.926   2.636  2.1672  0.1885  1.0555
 3705SOL    HW222749   4.029   3.800   2.596 -0.0406 -1.7417  1.2610
 3706SOL     OW22750   2.159   0.724   9.269  0.2160  0.0210  0.2348
 3706SOL    HW122751   2.096   0.776   9.219  0.7629  0.5221  0.0643
 3706SOL    HW222752   2.214   0.797   9.299 -1.4182  0.8163  1.3307
 3707SOL     OW22753   3.439   3.312   6.854 -0.1272  0.1679 -0.3042
 3707SOL    HW122754   3.439   3.346   6.765 -0.4919 -1.0846 -0.7894
 3707SOL    HW222755   3.356   3.267   6.869 -0.7076  1.7134  1.0665
 3708SOL     OW22756   0.102   4.320  17.014 -0.0454 -0.5569  0.6076
 3708SOL    HW122757   0.071   4.242  16.969  2.8835 -2.6044  2.1314
 3708SOL    HW222758   0.094   4.274  17.097 -0.5282  1.4156  1.6692
 3709SOL     OW22759   2.697   0.407  12.728  0.0731  0.4438 -0.5250
 3709SOL    HW122760   2.641   0.465  12.677 -0.5144  0.8866  0.6065
 3709SOL    HW222761   2.685   0.322  12.687  0.7804 -0.6063  1.4279
 3710SOL     OW22762   2.118   3.353   4.912 -0.7754 -0.0112 -1.1475
 3710SOL    HW122763   2.084   3.339   5.001  0.6471 -2.3200 -0.9594
 3710SOL    HW222764   2.197   3.405   4.926 -0.6588 -0.6482  0.5788
 3711SOL     OW22765   4.065   3.272   1.025 -0.1465  0.8436 -0.0750
 3711SOL    HW122766   4.063   3.318   0.941 -2.0151 -0.4590 -0.7626
 3711SOL    HW222767   3.982   3.310   1.056 -2.2798 -1.5857 -2.8854
 3712SOL     OW22768   0.179   1.808  12.123 -0.1401 -0.6396  0.4999
 3712SOL    HW122769   0.113   1.840  12.061  0.8042  1.3890  0.5529
 3712SOL    HW222770   0.124   1.791  12.199  0.0255 -0.8158  0.5799
 3713SOL     OW22771   1.144   2.906   1.581 -0.2138  0.1987 -0.1490
 3713SOL    HW122772   1.086   2.829   1.582 -0.2912  0.2586  0.0353
 3713SOL    HW222773   1.184   2.892   1.667  1.9255  1.2886 -0.9505
 3714SOL     OW22774   0.995   4.560   9.859  0.2608  0.3827  0.1114
 3714SOL    HW122775   1.059   4.623   9.828 -0.0194  0.9886  0.7530
 3714SOL    HW222776   0.951   4.610   9.928  2.1170 -0.3036  1.8026
 3715SOL     OW22777   3.974   0.840   4.816 -0.0809 -0.2331  0.0931
 3715SOL    HW122778   3.965   0.745   4.820  2.4103 -0.3791  2.1257
 3715SOL    HW222779   4.027   0.863   4.893 -1.8583  2.9074  0.4057
 3716SOL     OW22780   0.846   2.008   6.741 -0.5085  0.8288 -0.1627
 3716SOL    HW122781   0.828   2.101   6.755  1.1468  1.2324 -0.6904
 3716SOL    HW222782   0.765   1.970   6.776 -1.4677  2.8664 -0.1653
 3717SOL     OW22783   1.634   3.061  10.791 -0.0285 -0.1192  0.4229
 3717SOL    HW122784   1.589   3.125  10.845  1.4336  1.3798 -0.1478
 3717SOL    HW222785   1.605   2.988  10.847 -2.1056  0.3783 -0.0282
 3718SOL     OW22786   0.360   0.605   8.769 -0.0740 -0.3013 -0.3853
 3718SOL    HW122787   0.284   0.656   8.796 -0.9665 -1.3177 -0.9885
 3718SOL    HW222788   0.420   0.614   8.843 -0.3351 -1.5896 -0.0072
 3719SOL     OW22789   3.801   3.521  16.501  0.3513 -0.1986  0.7096
 3719SOL    HW122790   3.850   3.589  16.454  0.0234 -0.3742  0.1058
 3719SOL    HW222791   3.776   3.480  16.418  0.5737 -0.3630  0.7258
 3720SOL     OW22792   0.863   0.337   3.014 -0.1380 -0.2037  0.6623
 3720SOL    HW122793   0.769   0.333   3.030 -0.1158  4.9707  2.1410
 3720SOL    HW222794   0.898   0.324   3.103 -1.2548  0.0399  1.1395
 3721SOL     OW22795   1.730   2.978   3.127  0.2436 -0.2945  0.0188
 3721SOL    HW122796   1.741   2.950   3.036 -3.3749 -0.2900 -0.4156
 3721SOL    HW222797   1.816   2.948   3.156  0.0912 -0.4063  0.3574
 3722SOL     OW22798   2.061   3.245  16.429 -0.4527  0.4498  0.0463
 3722SOL    HW122799   2.133   3.188  16.402 -0.5982 -0.5467  1.7169
 3722SOL    HW222800   1.998   3.173  16.433  1.1232 -0.9215  0.2817
 3723SOL     OW22801   2.264   1.875  14.454 -0.0411 -0.4435 -0.2201
 3723SOL    HW122802   2.260   1.967  14.480 -0.7077 -0.2576 -0.9790
 3723SOL    HW222803   2.170   1.862  14.444  0.1278 -0.3784 -1.8877
 3724SOL     OW22804   4.215   0.060   5.147  0.0916  0.5316  0.3182
 3724SOL    HW122805   4.194   4.705   5.135  1.4190  0.3815 -0.8286
 3724SOL    HW222806   4.302   0.077   5.111  0.7748 -2.8124  0.3531
 3725SOL     OW22807   4.545   2.330   6.900 -1.1573 -0.5518  0.5480
 3725SOL    HW122808   4.504   2.417   6.895  1.1371  0.4912 -0.0397
 3725SOL    HW222809   4.575   2.310   6.988  1.6395  1.7530  0.1225
 3726SOL     OW22810   1.124   0.175   0.919  0.1586  0.0507 -1.1234
 3726SOL    HW122811   1.050   0.114   0.914  0.3116 -0.1211 -1.2638
 3726SOL    HW222812   1.072   0.256   0.918 -0.2020 -0.1766 -1.0058
 3727SOL     OW22813   3.001   4.090   6.112 -0.2978  0.4840 -0.6598
 3727SOL    HW122814   3.066   4.154   6.141  0.2421 -0.3154 -0.1061
 3727SOL    HW222815   2.927   4.147   6.093 -0.7772  0.8707  2.3018
 3728SOL     OW22816   0.314   2.721   6.743  0.1140 -0.7520 -0.4199
 3728SOL    HW122817   0.396   2.738   6.790  0.1486 -0.2754 -0.6547
 3728SOL    HW222818   0.319   2.625   6.739  0.1790 -0.8130  0.9517
 3729SOL     OW22819   3.321   0.962   0.370 -0.0899  0.2267  0.2997
 3729SOL    HW122820   3.313   0.998   0.458 -0.4125 -2.8038  1.5005
 3729SOL    HW222821   3.381   1.025   0.328  1.1100  0.3421  2.2022
 3730SOL     OW22822   4.533   3.471   2.627 -0.2191 -0.2415  0.6957
 3730SOL    HW122823   4.616   3.501   2.664  0.1201  0.3523 -0.5460
 3730SOL    HW222824   4.508   3.399   2.685  0.5129  0.0163  1.3347
 3731SOL     OW22825   4.186   3.996   4.151  1.2283 -0.1351  0.1327
 3731SOL    HW122826   4.259   4.056   4.138  0.2125  0.7572 -1.3792
 3731SOL    HW222827   4.142   4.000   4.067 -0.1361  1.6939  0.9425
 3732SOL     OW22828   1.990   1.661   7.419 -0.4251  0.0632  0.1790
 3732SOL    HW122829   2.069   1.632   7.464  1.5218  2.6920 -1.6158
 3732SOL    HW222830   1.949   1.576   7.399 -1.0280  0.1065  1.2001
 3733SOL     OW22831   1.535   1.003   9.294  0.1172  0.2582  0.0212
 3733SOL    HW122832   1.500   0.976   9.379  1.0508  2.5709  1.1408
 3733SOL    HW222833   1.454   1.044   9.263 -0.0899  0.0397  0.2701
 3734SOL     OW22834   1.916   1.767   8.663 -0.2346  0.0270  0.3752
 3734SOL    HW122835   1.934   1.798   8.752  0.6496 -0.7869  0.4820
 3734SOL    HW222836   2.001   1.729   8.641 -0.7283  0.3289 -2.0051
 3735SOL     OW22837   1.876   3.333   8.725  0.0709 -0.2420  0.3185
 3735SOL    HW122838   1.955   3.314   8.774  2.6352 -0.6116 -3.9717
 3735SOL    HW222839   1.886   3.421   8.688 -0.9516 -0.3113 -0.1450
 3736SOL     OW22840   2.046   0.228   0.841 -0.1897  0.3603  0.4593
 3736SOL    HW122841   1.969   0.171   0.838  0.2038 -0.2188  1.4856
 3736SOL    HW222842   2.030   0.265   0.928 -1.2678 -2.5989  1.5016
 3737SOL     OW22843   4.269   3.253   7.105 -0.6046 -0.0941  0.0388
 3737SOL    HW122844   4.189   3.268   7.056  0.5220  0.6254 -1.5612
 3737SOL    HW222845   4.288   3.345   7.126 -0.8561  0.0459 -0.3638
 3738SOL     OW22846   2.530   0.375   7.430  0.1124  0.7170  0.2994
 3738SOL    HW122847   2.533   0.415   7.517 -0.9401  2.4211 -0.4584
 3738SOL    HW222848   2.572   0.440   7.374  0.3292  0.2553 -0.0789
 3739SOL     OW22849   3.955   1.047  16.669 -0.0839 -0.1197 -0.2021
 3739SOL    HW122850   4.017   1.069  16.739 -0.0718 -2.7613  0.6244
 3739SOL    HW222851   3.993   1.081  16.588 -0.5858 -2.6178 -1.4762
 3740SOL     OW22852   3.628   2.831   1.545  0.0457 -0.4522  0.1125
 3740SOL    HW122853   3.590   2.747   1.518  1.6371 -1.2697  0.3635
 3740SOL    HW222854   3.583   2.846   1.628  1.7635  0.0040  0.9607
 3741SOL     OW22855   4.095   0.671   6.712 -0.8435  0.0783 -0.2733
 3741SOL    HW122856   4.125   0.632   6.794  0.5617  1.2592 -0.2248
 3741SOL    HW222857   4.082   0.764   6.731  0.7601 -0.7992  5.0209
 3742SOL     OW22858   1.243   3.936   7.739  0.1780 -0.6021 -0.0305
 3742SOL    HW122859   1.331   3.933   7.704  0.2126  0.4492 -0.0463
 3742SOL    HW222860   1.252   3.951   7.833  0.1053 -1.5322  0.1253
 3743SOL     OW22861   2.634   3.072   4.096  0.5920 -0.0764 -0.0616
 3743SOL    HW122862   2.539   3.079   4.088  0.5732 -1.0363 -0.5661
 3743SOL    HW222863   2.635   3.002   4.161 -1.3996  1.2933  1.4400
 3744SOL     OW22864   1.647   2.176   3.015  0.2049 -0.4148 -0.1555
 3744SOL    HW122865   1.679   2.202   3.101  0.1894 -0.1799 -0.2211
 3744SOL    HW222866   1.574   2.236   2.996 -0.5172 -1.2559 -0.0135
 3745SOL     OW22867   2.091   0.554   6.444 -0.1231  0.0596  0.1657
 3745SOL    HW122868   2.139   0.537   6.362  1.2545  2.7719  0.3961
 3745SOL    HW222869   2.032   0.479   6.446 -1.5788  1.2202  0.5709
 3746SOL     OW22870   2.140   3.208   7.051 -0.0829  0.0144 -0.2898
 3746SOL    HW122871   2.233   3.195   7.072 -0.2097  0.5564  0.6275
 3746SOL    HW222872   2.140   3.186   6.958 -1.3697  1.6715 -0.6703
 3747SOL     OW22873   2.028   4.499   4.603 -0.3975 -0.0194  0.0159
 3747SOL    HW122874   2.046   4.405   4.593 -3.2229 -0.5335 -0.0935
 3747SOL    HW222875   1.934   4.514   4.592  0.0037  0.8813 -2.0029
 3748SOL     OW22876   2.660   2.381   2.905  0.0085 -0.3928 -0.4646
 3748SOL    HW122877   2.695   2.307   2.955 -2.7252 -1.9423 -0.8491
 3748SOL    HW222878   2.572   2.349   2.890 -0.5574  1.2007 -0.5695
 3749SOL     OW22879   3.007   1.467   6.474  0.0112 -0.2381 -0.4283
 3749SOL    HW122880   3.081   1.522   6.500  0.3578 -0.6270 -0.5952
 3749SOL    HW222881   2.960   1.437   6.551  0.9865 -0.4691  0.0732
 3750SOL     OW22882   2.326   2.789   6.204  0.2851  0.2107 -0.2437
 3750SOL    HW122883   2.395   2.844   6.241  1.7399 -2.3930  0.9230
 3750SOL    HW222884   2.287   2.762   6.286 -0.0089  2.2915  0.3056
 3751SOL     OW22885   1.346   0.521   9.178  0.1677  0.2131  0.6284
 3751SOL    HW122886   1.346   0.576   9.100  1.0476  0.0747  0.5359
 3751SOL    HW222887   1.436   0.497   9.199  0.6377  1.3507 -0.1370
 3752SOL     OW22888   1.905   2.503  13.518 -0.1183 -0.1387 -0.4138
 3752SOL    HW122889   1.920   2.593  13.549 -1.7246  0.2740 -0.8730
 3752SOL    HW222890   1.979   2.453  13.553 -1.8139 -0.6075  2.5071
 3753SOL     OW22891   1.024   2.880   8.791 -0.2969 -0.4515 -0.3066
 3753SOL    HW122892   1.064   2.954   8.746 -1.7192 -1.5171 -3.3087
 3753SOL    HW222893   1.100   2.825   8.813 -0.2324 -1.0496 -2.0406
 3754SOL     OW22894   0.803   3.763   9.395 -0.3498 -0.1028  0.6511
 3754SOL    HW122895   0.767   3.693   9.342  0.8952  1.5563 -2.3507
 3754SOL    HW222896   0.754   3.745   9.475  0.3783  1.0713  1.3681
 3755SOL     OW22897   4.298   0.579   2.957  0.6768  0.3049  0.0665
 3755SOL    HW122898   4.326   0.488   2.954  1.3607  0.5407 -0.9752
 3755SOL    HW222899   4.375   0.612   3.004  1.2267 -0.1209 -0.5299
 3756SOL     OW22900   1.064   4.311   9.049 -0.0866 -0.2972 -0.1478
 3756SOL    HW122901   1.064   4.242   8.982  0.1772 -1.7741  1.3868
 3756SOL    HW222902   1.152   4.346   9.037  0.5302 -1.7831 -0.0506
 3757SOL     OW22903   2.457   2.330   8.096  0.2308  0.6351 -0.4207
 3757SOL    HW122904   2.470   2.268   8.169  0.7716 -0.5987 -1.5688
 3757SOL    HW222905   2.506   2.406   8.127 -0.5982  0.9677  0.0560
 3758SOL     OW22906   2.930   2.070   6.203  0.2970  0.2978 -0.1761
 3758SOL    HW122907   2.915   2.028   6.118 -1.8127  1.1597 -0.2202
 3758SOL    HW222908   2.863   2.139   6.206 -0.3960 -0.4522  1.2785
 3759SOL     OW22909   1.347   3.446   1.299  0.3028  0.3906 -0.0557
 3759SOL    HW122910   1.290   3.511   1.259 -1.4693 -0.9604  0.2826
 3759SOL    HW222911   1.295   3.368   1.282  0.3944 -0.2989  2.7081
 3760SOL     OW22912   1.890   2.261   4.075 -0.4519  0.1611  0.3090
 3760SOL    HW122913   1.849   2.347   4.060 -1.1476 -0.5701 -1.8866
 3760SOL    HW222914   1.964   2.266   4.014  0.5672 -1.0272  1.4465
 3761SOL     OW22915   1.130   4.662   8.525 -0.0723  0.4857  0.0386
 3761SOL    HW122916   1.204   4.658   8.465  0.0089  1.6905  0.0737
 3761SOL    HW222917   1.169   4.718   8.591  1.1005  0.9557 -1.0585
 3762SOL     OW22918   2.629   1.047   1.228  0.3038 -0.3977 -0.5152
 3762SOL    HW122919   2.555   0.990   1.205 -2.0581  1.3936  2.7089
 3762SOL    HW222920   2.601   1.135   1.205  1.5501  0.0410 -0.3696
 3763SOL     OW22921   4.495   2.042   3.971 -0.2578  0.5013 -1.0215
 3763SOL    HW122922   4.480   1.952   3.999  1.4109  0.4295 -0.3686
 3763SOL    HW222923   4.424   2.089   4.015  1.2122  0.2818  1.5769
 3764SOL     OW22924   0.419   4.501   8.466  0.1806 -0.2840 -0.2192
 3764SOL    HW122925   0.347   4.465   8.518 -0.5060  1.0105 -0.2550
 3764SOL    HW222926   0.455   4.567   8.526 -0.4061 -0.6740  0.5747
 3765SOL     OW22927   4.258   0.008   3.057 -0.4604  0.5552 -0.5512
 3765SOL    HW122928   4.241   4.719   3.147  0.9621  2.1129  0.1577
 3765SOL    HW222929   4.322   4.675   3.042  1.4010  2.0825  0.3075
 3766SOL     OW22930   2.425   1.822  13.377  0.6358  0.4943  0.4472
 3766SOL    HW122931   2.395   1.897  13.428 -2.5575 -0.1076 -0.5272
 3766SOL    HW222932   2.341   1.786  13.345  1.3744 -1.2424  0.4396
 3767SOL     OW22933   4.274   1.727   9.765  0.1883 -0.1912  0.0413
 3767SOL    HW122934   4.239   1.710   9.678 -0.3149 -0.5810  0.3169
 3767SOL    HW222935   4.354   1.778   9.756 -0.3855  1.0407  1.8677
 3768SOL     OW22936   0.545   2.982   4.894 -1.1259 -0.5716  0.2925
 3768SOL    HW122937   0.517   3.071   4.873 -1.3912 -0.4901  0.9744
 3768SOL    HW222938   0.486   2.958   4.967 -1.6709 -0.0428  0.0249
 3769SOL     OW22939   2.051   2.648  11.736  0.1597  0.3738 -0.5071
 3769SOL    HW122940   2.118   2.648  11.667  1.0606 -0.3179  0.3628
 3769SOL    HW222941   2.088   2.649  11.824  0.0628 -0.3527 -0.4584
 3770SOL     OW22942   4.527   2.666   4.181 -0.5794 -0.1243 -0.1199
 3770SOL    HW122943   4.560   2.638   4.266 -1.6162 -1.2466 -0.0936
 3770SOL    HW222944   4.466   2.734   4.208  0.4294  1.5620 -2.0484
 3771SOL     OW22945   4.151   3.286   6.664  0.2638 -0.0393 -0.0608
 3771SOL    HW122946   4.180   3.312   6.576 -1.2482 -2.1804 -1.1917
 3771SOL    HW222947   4.056   3.287   6.653  0.5425  0.7234 -2.5877
 3772SOL     OW22948   2.834   2.081   8.962  0.0379  0.5187 -0.1503
 3772SOL    HW122949   2.830   2.000   8.911 -0.8623  0.4109  0.0901
 3772SOL    HW222950   2.914   2.067   9.013  0.4957  0.0860 -0.9760
 3773SOL     OW22951   3.361   3.337   4.159 -0.2263  0.3085 -0.3353
 3773SOL    HW122952   3.361   3.287   4.077 -0.5880  0.0821 -0.2015
 3773SOL    HW222953   3.455   3.343   4.177 -0.5754 -1.1154  1.9892
 3774SOL     OW22954   1.878   1.068   6.127  0.0403 -0.0349 -0.0959
 3774SOL    HW122955   1.940   0.998   6.106  0.1767 -0.3753  1.4064
 3774SOL    HW222956   1.930   1.147   6.144  0.2245 -0.2456  0.3378
 3775SOL     OW22957   0.782   3.202   6.980 -0.2642  0.2828 -0.0709
 3775SOL    HW122958   0.756   3.272   6.920 -1.5257 -0.3831 -0.3035
 3775SOL    HW222959   0.694   3.172   7.004 -0.1670  0.8422  0.9555
 3776SOL     OW22960   4.673   1.086   8.467 -0.6957  0.5517 -0.2075
 3776SOL    HW122961   4.701   1.177   8.464  2.4308 -0.4089  0.9802
 3776SOL    HW222962   4.663   1.083   8.562 -1.0101 -0.7773 -0.2783
 3777SOL     OW22963   1.091   0.009  12.894  0.2913 -0.0985  0.2260
 3777SOL    HW122964   1.093   4.659  12.934  1.9320 -0.9991 -1.8680
 3777SOL    HW222965   0.997   0.024  12.889  0.4573  1.4719  1.7395
 3778SOL     OW22966   4.199   4.623   8.901  0.1094  0.3558  0.0566
 3778SOL    HW122967   4.247   4.679   8.961  1.4834  0.5730 -1.2467
 3778SOL    HW222968   4.114   4.611   8.944 -1.3844  1.3225 -2.5964
 3779SOL     OW22969   0.322   4.253   8.970 -0.7052  0.1344  0.4173
 3779SOL    HW122970   0.267   4.267   8.893  0.3913 -0.3698 -0.4602
 3779SOL    HW222971   0.393   4.215   8.919  0.9931 -0.1829  3.0165
 3780SOL     OW22972   3.413   3.394  11.435 -0.3379 -0.2138  0.6241
 3780SOL    HW122973   3.430   3.428  11.347 -0.8841 -1.1381  0.1593
 3780SOL    HW222974   3.338   3.337  11.415  1.0681 -2.2306  1.1132
 3781SOL     OW22975   3.930   0.646  10.190  0.7165 -0.4142  0.4746
 3781SOL    HW122976   3.898   0.556  10.197  0.7187 -0.5014 -0.6177
 3781SOL    HW222977   3.942   0.669  10.282 -2.0744  1.3556  0.3722
 3782SOL     OW22978   2.523   4.493   5.398  0.0677  0.5127 -0.9227
 3782SOL    HW122979   2.604   4.534   5.431 -1.2061  2.1072  0.2244
 3782SOL    HW222980   2.456   4.555   5.427 -0.9789 -1.9794  1.9880
 3783SOL     OW22981   3.750   0.536   1.144  0.0937  0.0047 -0.1394
 3783SOL    HW122982   3.688   0.589   1.193  0.1410  1.2272 -1.4050
 3783SOL    HW222983   3.696   0.466   1.107 -0.0543  1.2074 -2.1991
 3784SOL     OW22984   4.187   2.290   5.279  0.1366 -0.1319  0.3361
 3784SOL    HW122985   4.206   2.359   5.216  0.3864  0.1644  0.7324
 3784SOL    HW222986   4.166   2.210   5.231 -1.5823  0.9153 -0.6487
 3785SOL     OW22987   1.271   2.567   4.667 -0.6737  0.5840  0.2704
 3785SOL    HW122988   1.315   2.483   4.653 -3.5471 -0.7051 -1.0798
 3785SOL    HW222989   1.334   2.608   4.726  0.7301 -0.7144 -0.3125
 3786SOL     OW22990   1.089   4.481  16.132  0.1233 -0.0974 -0.2564
 3786SOL    HW122991   1.180   4.461  16.157  0.0565 -0.3640 -0.2279
 3786SOL    HW222992   1.076   4.576  16.138  0.6947  0.0244 -0.9400
 3787SOL     OW22993   2.494   4.053   4.541 -0.2880  0.2898  0.3837
 3787SOL    HW122994   2.450   4.074   4.459  0.2217  0.5153  0.1682
 3787SOL    HW222995   2.581   4.039   4.504  0.1829 -1.5566  2.1696
 3788SOL     OW22996   2.219   1.088  15.067  0.0586 -0.0346  0.5706
 3788SOL    HW122997   2.132   1.121  15.046  0.6868  1.0524 -0.2836
 3788SOL    HW222998   2.230   1.046  14.982  0.4814  1.7322 -0.2374
 3789SOL     OW22999   1.800   0.756  17.109 -0.5338 -0.1478  0.3826
 3789SOL    HW123000   1.759   0.672  17.086 -1.5606  0.6362 -0.6497
 3789SOL    HW223001   1.750   0.781  17.187  0.2945 -0.9025  1.1567
 3790SOL     OW23002   1.501   3.254   6.844 -0.4901 -0.3632 -0.4674
 3790SOL    HW123003   1.510   3.164   6.813 -0.2113 -0.8088  0.9074
 3790SOL    HW223004   1.449   3.292   6.773 -1.8332 -2.5151 -0.6203
 3791SOL     OW23005   3.992   4.533   4.923 -0.0318 -0.4425  0.4280
 3791SOL    HW123006   4.039   4.523   4.840  1.5593  0.4955  1.2197
 3791SOL    HW223007   3.906   4.558   4.890 -1.3306 -2.2247  2.4517
 3792SOL     OW23008   2.264   4.120   0.864  0.3947 -0.0187 -0.6401
 3792SOL    HW123009   2.226   4.033   0.872 -2.2088  1.3742  2.1613
 3792SOL    HW223010   2.293   4.125   0.955  0.8628 -1.0678 -0.7306
 3793SOL     OW23011   4.006   0.969  15.845  0.3218  0.2356 -0.1363
 3793SOL    HW123012   4.042   0.883  15.869  0.6403 -0.0881 -1.7619
 3793SOL    HW223013   4.010   0.955  15.750  0.2652  0.2494 -0.1408
 3794SOL     OW23014   0.080   1.309   8.417  0.1853  0.0734  0.1496
 3794SOL    HW123015   0.137   1.359   8.475  0.0472  0.6908 -0.2576
 3794SOL    HW223016   0.019   1.378   8.392 -0.8005 -0.3990  1.2347
 3795SOL     OW23017   0.246   0.140   5.868  0.2142  0.3034 -0.0141
 3795SOL    HW123018   0.197   0.155   5.949 -1.8847 -0.3843 -1.1699
 3795SOL    HW223019   0.320   0.092   5.905  0.2444  0.9569  0.7813
 3796SOL     OW23020   3.006   1.590   9.269 -0.0298  0.2688 -0.5272
 3796SOL    HW123021   2.945   1.525   9.235 -0.1661 -0.0893  0.4013
 3796SOL    HW223022   2.958   1.627   9.343  0.4880  0.2893 -0.1978
 3797SOL     OW23023   0.642   4.139   9.017 -0.0695 -0.3287  0.5008
 3797SOL    HW123024   0.606   4.126   8.929  3.0182 -2.1827 -0.5019
 3797SOL    HW223025   0.597   4.071   9.068 -0.6284 -0.4233 -0.1065
 3798SOL     OW23026   2.781   4.512   5.477  0.5506 -0.4405  0.3594
 3798SOL    HW123027   2.845   4.513   5.406 -0.6000  3.8067 -0.5822
 3798SOL    HW223028   2.838   4.474   5.544  0.3504  0.9297  1.2856
 3799SOL     OW23029   0.228   4.181   9.433  0.2950 -0.0279 -0.1049
 3799SOL    HW123030   0.292   4.230   9.382  1.4335  0.0930  1.4601
 3799SOL    HW223031   0.181   4.123   9.373 -1.0766 -2.5196  3.3476
 3800SOL     OW23032   2.490   4.501   2.024 -0.2005  0.8860 -0.3532
 3800SOL    HW123033   2.512   4.494   1.931 -1.1580 -1.1935 -0.4224
 3800SOL    HW223034   2.498   4.595   2.039 -1.1293  0.5643  2.0700
 3801SOL     OW23035   4.659   0.366   2.532  0.2002  0.2829  0.1777
 3801SOL    HW123036   4.696   0.313   2.461 -3.3430 -0.8050 -0.8859
 3801SOL    HW223037   4.681   0.456   2.508  1.5012  0.0192  0.4104
 3802SOL     OW23038   2.536   3.968   7.128 -0.5134 -0.0776  0.1322
 3802SOL    HW123039   2.586   3.924   7.197 -0.8319 -2.0675 -0.9102
 3802SOL    HW223040   2.478   3.900   7.094  0.9937 -0.8383 -0.8572
 3803SOL     OW23041   4.668   1.881   6.982  0.1853  0.3187  0.2481
 3803SOL    HW123042   0.001   1.937   6.950  0.0652 -0.1319 -0.8289
 3803SOL    HW223043   4.651   1.922   7.067 -0.6209  1.3963 -0.4272
 3804SOL     OW23044   0.483   2.603   3.991 -0.3406 -0.1810 -0.2500
 3804SOL    HW123045   0.430   2.530   3.960 -1.5908 -0.5505  2.7678
 3804SOL    HW223046   0.552   2.553   4.033  0.3362 -0.0668 -1.2268
 3805SOL     OW23047   2.580   1.271   2.197 -0.3734  0.2353  0.5358
 3805SOL    HW123048   2.592   1.189   2.244  1.1836  0.2933  0.2268
 3805SOL    HW223049   2.588   1.337   2.266  1.9614  1.2404 -0.7029
 3806SOL     OW23050   2.988   4.721   4.766 -0.0067 -0.2862  0.0800
 3806SOL    HW123051   3.028   0.011   4.684  3.0413  2.1830  2.3854
 3806SOL    HW223052   2.958   4.633   4.747  0.0449 -0.2717 -0.0686
 3807SOL     OW23053   0.694   0.685   6.975  0.0325 -0.5718 -0.0374
 3807SOL    HW123054   0.773   0.705   6.926  0.5305 -1.8226  0.2706
 3807SOL    HW223055   0.670   0.594   6.959 -0.6963 -0.0100 -2.1406
 3808SOL     OW23056   4.125   0.625   8.424 -0.7187 -0.2767 -0.0233
 3808SOL    HW123057   4.101   0.689   8.490 -0.4195 -0.3089  0.1126
 3808SOL    HW223058   4.158   0.675   8.349  1.2756 -1.2610  0.1956
 3809SOL     OW23059   4.500   0.576  15.372 -0.2507 -0.1969 -0.3614
 3809SOL    HW123060   4.582   0.555  15.327 -1.9865 -0.9150 -3.1599
 3809SOL    HW223061   4.438   0.515  15.332 -2.4067  0.8174  1.4450
 3810SOL     OW23062   0.736   1.466   3.996  0.3384 -0.1346 -0.0539
 3810SOL    HW123063   0.699   1.419   3.922 -0.7607  0.7482 -0.0647
 3810SOL    HW223064   0.703   1.556   3.985  0.9427  0.1076  0.0749
 3811SOL     OW23065   3.262   3.293   8.770  0.3249 -0.4732 -0.0597
 3811SOL    HW123066   3.308   3.263   8.848  0.8267  0.2516 -0.0767
 3811SOL    HW223067   3.175   3.259   8.789 -0.1791  0.7529 -0.1687
 3812SOL     OW23068   4.447   2.226   4.589  0.8761 -0.0669  0.4143
 3812SOL    HW123069   4.484   2.304   4.549 -0.9751  0.9771  0.7365
 3812SOL    HW223070   4.518   2.206   4.650 -0.2147 -2.2893  0.9826
 3813SOL     OW23071   3.780   0.066   5.684  0.6935  0.1250 -0.0535
 3813SOL    HW123072   3.839   0.028   5.749 -0.3252 -1.0361  0.1959
 3813SOL    HW223073   3.845   0.103   5.625  0.5645  0.2314 -0.1305
 3814SOL     OW23074   1.428   0.771   2.442  0.2206  0.4865 -0.1515
 3814SOL    HW123075   1.384   0.717   2.376  0.3179  0.2890 -0.0547
 3814SOL    HW223076   1.467   0.706   2.501  1.1711  1.4954  0.3502
 3815SOL     OW23077   3.818   3.577  16.764  0.2678 -0.0395  0.3186
 3815SOL    HW123078   3.803   3.576  16.670 -1.3558 -0.9130  0.5701
 3815SOL    HW223079   3.913   3.564  16.768  0.4017  1.3082  1.3706
 3816SOL     OW23080   2.867   2.227  13.285 -0.1339 -0.0565  0.0669
 3816SOL    HW123081   2.857   2.206  13.378  1.1920 -0.3761  0.1454
 3816SOL    HW223082   2.956   2.193  13.273  0.2153  0.2932  1.5744
 3817SOL     OW23083   1.289   1.837   1.132 -0.4215 -0.3904  0.3473
 3817SOL    HW123084   1.219   1.847   1.198  0.8473  0.8026  1.5108
 3817SOL    HW223085   1.309   1.746   1.156  0.0480 -0.4446 -0.2415
 3818SOL     OW23086   0.385   3.973  10.105  0.0435  0.6136 -0.3010
 3818SOL    HW123087   0.409   3.949  10.195 -1.7339 -1.8440 -0.4631
 3818SOL    HW223088   0.345   4.055  10.133  1.4611  1.3210 -0.3513
 3819SOL     OW23089   2.305   4.632   1.669  0.1616 -0.2200 -0.2539
 3819SOL    HW123090   2.312   4.706   1.608 -2.3316 -0.3415 -0.6654
 3819SOL    HW223091   2.228   4.590   1.630  0.8885 -0.9135 -0.9353
 3820SOL     OW23092   1.873   0.754  14.346  0.4969 -0.1667  0.0615
 3820SOL    HW123093   1.782   0.724  14.339  0.9751 -1.5107 -0.3210
 3820SOL    HW223094   1.871   0.840  14.390 -2.0480 -0.0808 -0.2407
 3821SOL     OW23095   1.731   0.189   0.513  0.4137 -0.0204  0.5491
 3821SOL    HW123096   1.673   0.139   0.570 -1.1813 -0.0350 -1.0425
 3821SOL    HW223097   1.811   0.138   0.518 -0.6184 -1.8177 -1.0932
 3822SOL     OW23098   0.227   2.545  10.926  0.3432 -0.1487  0.0279
 3822SOL    HW123099   0.228   2.527  11.020  0.7647 -0.4929 -0.0398
 3822SOL    HW223100   0.141   2.584  10.912  1.1570  1.1955 -1.1906
 3823SOL     OW23101   4.376   3.845   6.814  0.0983  0.4900 -0.8521
 3823SOL    HW123102   4.404   3.935   6.827 -0.8023  0.6315  0.0938
 3823SOL    HW223103   4.309   3.868   6.749 -0.1406  2.0517 -0.0427
 3824SOL     OW23104   1.401   4.597   8.699 -0.4557 -0.3932  0.3395
 3824SOL    HW123105   1.396   4.689   8.724 -0.9410 -0.2178 -0.4092
 3824SOL    HW223106   1.345   4.565   8.769  0.6887 -0.9339  1.0029
 3825SOL     OW23107   2.134   1.081   6.364 -0.1660  0.0468  0.0845
 3825SOL    HW123108   2.086   1.051   6.441  1.3861 -1.7111  0.3709
 3825SOL    HW223109   2.064   1.117   6.309 -0.5182  2.7824  2.2496
 3826SOL     OW23110   0.410   3.467  11.549  0.0171 -0.3638 -0.0072
 3826SOL    HW123111   0.481   3.512  11.595  1.1591  0.7288 -2.8336
 3826SOL    HW223112   0.359   3.437  11.624  0.2900 -0.4075  0.1596
 3827SOL     OW23113   0.840   3.777   6.934 -0.2527 -0.0260  0.5040
 3827SOL    HW123114   0.886   3.858   6.954 -0.5823 -0.0035  1.1492
 3827SOL    HW223115   0.912   3.715   6.921 -0.8112 -0.2481 -1.6311
 3828SOL     OW23116   1.354   3.340   9.458  0.5097  0.3603  0.3792
 3828SOL    HW123117   1.354   3.335   9.362  0.6811 -0.5842  0.4251
 3828SOL    HW223118   1.404   3.259   9.472  0.6058 -0.2007 -3.1018
 3829SOL     OW23119   3.958   2.504   8.673  0.0960 -0.0316 -0.2647
 3829SOL    HW123120   4.032   2.495   8.734  1.7319 -0.2586 -2.2685
 3829SOL    HW223121   3.934   2.412   8.684  1.7483 -0.2692  1.4915
 3830SOL     OW23122   2.471   2.435   6.303 -0.5849 -0.3622 -0.2172
 3830SOL    HW123123   2.550   2.397   6.341 -0.8028 -1.6970 -1.1423
 3830SOL    HW223124   2.509   2.484   6.230 -1.7491  0.4159 -0.3073
 3831SOL     OW23125   2.259   2.763  11.334  0.1364 -0.1644  0.1111
 3831SOL    HW123126   2.340   2.793  11.294 -0.9047  3.1764  0.4985
 3831SOL    HW223127   2.212   2.839  11.370 -0.4825  1.6078 -4.5388
 3832SOL     OW23128   1.043   0.193   7.069  0.5082 -0.0704  0.3536
 3832SOL    HW123129   0.949   0.210   7.057  0.4766  0.3936  1.2513
 3832SOL    HW223130   1.047   0.108   7.113 -0.3880  0.6234  1.7735
 3833SOL     OW23131   0.495   1.976   4.327 -0.3997  0.3459 -0.1860
 3833SOL    HW123132   0.522   1.958   4.417  1.4059 -0.0600 -0.8043
 3833SOL    HW223133   0.524   1.893   4.288 -1.4743  0.0732 -0.4085
 3834SOL     OW23134   3.422   0.357   8.561 -0.5198 -0.1647 -0.7787
 3834SOL    HW123135   3.437   0.452   8.566  1.4346 -0.5780  1.0164
 3834SOL    HW223136   3.508   0.320   8.541  0.2031  1.2678 -0.3509
 3835SOL     OW23137   0.779   0.820   3.148 -0.0214 -0.3873  0.1856
 3835SOL    HW123138   0.709   0.794   3.208  0.1022 -1.4379 -0.1214
 3835SOL    HW223139   0.736   0.777   3.074 -1.4675 -0.3570  1.0109
 3836SOL     OW23140   3.338   2.552  17.611 -0.2084  0.0043 -0.2788
 3836SOL    HW123141   3.430   2.564  17.589 -0.3916  1.6154 -0.1193
 3836SOL    HW223142   3.300   2.549  17.523 -0.4326 -0.5899 -0.1660
 3837SOL     OW23143   1.139   3.041   7.042 -0.1615  0.4817 -0.1846
 3837SOL    HW123144   1.118   3.024   6.950  0.2983 -1.3600  0.0636
 3837SOL    HW223145   1.201   3.114   7.036  0.4096 -0.0903 -1.2767
 3838SOL     OW23146   0.882   3.859   6.527  0.2913 -0.4930 -0.3059
 3838SOL    HW123147   0.897   3.765   6.515  1.5126 -0.3195 -0.2060
 3838SOL    HW223148   0.974   3.885   6.522 -0.5808  2.5947  0.1675
 3839SOL     OW23149   1.494   1.092  11.494  0.3221 -0.0319 -0.2023
 3839SOL    HW123150   1.466   1.003  11.471 -0.0439 -0.4109  1.7137
 3839SOL    HW223151   1.517   1.142  11.416 -0.0943  0.5921  0.0807
 3840SOL     OW23152   0.064   1.682   7.883 -0.0083  0.0031 -0.0601
 3840SOL    HW123153   0.141   1.634   7.914  0.2666  0.1038 -0.5904
 3840SOL    HW223154   0.085   1.763   7.930 -2.1041 -0.6938  2.0410
 3841SOL     OW23155   4.210   4.543   2.262  0.5211 -0.3377  0.1037
 3841SOL    HW123156   4.248   4.465   2.222  1.5652  0.1878  0.0672
 3841SOL    HW223157   4.283   4.550   2.324  1.0386 -0.7332 -0.4645
 3842SOL     OW23158   1.439   1.860   9.024 -0.1618 -0.4979 -0.4078
 3842SOL    HW123159   1.463   1.920   8.953  1.7210 -0.2266  0.4658
 3842SOL    HW223160   1.364   1.807   8.998 -1.0218 -0.4670  2.0286
 3843SOL     OW23161   1.265   3.054   6.529  0.3005 -0.3052 -0.1916
 3843SOL    HW123162   1.262   2.969   6.484  0.0777  0.5914 -1.8591
 3843SOL    HW223163   1.218   3.048   6.612 -0.5336  1.1562 -0.5596
 3844SOL     OW23164   4.177   2.521   5.106 -0.7289 -0.0946 -1.1298
 3844SOL    HW123165   4.142   2.592   5.160  2.7080  0.4039  0.4660
 3844SOL    HW223166   4.270   2.541   5.096 -1.2220  0.7805 -3.7343
 3845SOL     OW23167   0.352   3.239   9.206  0.1834  0.0480  0.1603
 3845SOL    HW123168   0.431   3.226   9.259  1.0315 -0.1714 -1.1616
 3845SOL    HW223169   0.316   3.151   9.198 -1.1315  0.5993 -0.1671
 3846SOL     OW23170   4.663   2.297   4.057 -0.2102 -0.3707 -0.0667
 3846SOL    HW123171   4.591   2.234   4.058  1.7985 -2.6568  0.0896
 3846SOL    HW223172   4.634   2.361   3.991  0.7413  1.5869  1.4006
 3847SOL     OW23173   4.356   0.258   7.752  0.1750 -0.0210 -0.3676
 3847SOL    HW123174   4.414   0.189   7.783 -1.9916 -1.4443  0.4682
 3847SOL    HW223175   4.335   0.210   7.672 -0.7050 -0.7790  0.3134
 3848SOL     OW23176   4.497   2.528   5.414  0.0283 -0.1178  0.4173
 3848SOL    HW123177   4.406   2.498   5.418  0.6069 -1.5259  3.3844
 3848SOL    HW223178   4.538   2.447   5.385  0.5285  0.6152 -0.9057
 3849SOL     OW23179   4.661   1.748   8.208  0.2024  0.1626 -0.2688
 3849SOL    HW123180   4.610   1.825   8.181  0.1973  0.3625  0.3258
 3849SOL    HW223181   0.014   1.773   8.189  0.1464  1.3425  1.0422
 3850SOL     OW23182   3.869   3.729  12.957  0.3413 -0.0894 -0.1577
 3850SOL    HW123183   3.936   3.796  12.968  2.7548 -2.4784 -0.2094
 3850SOL    HW223184   3.838   3.751  12.869  2.5582  2.7583 -0.2268
 3851SOL     OW23185   2.419   4.489  12.960 -0.0996  0.0970 -0.0768
 3851SOL    HW123186   2.335   4.501  13.005  0.1582  0.1902  0.3783
 3851SOL    HW223187   2.434   4.405  13.003 -0.9016 -0.4830 -0.9479
 3852SOL     OW23188   0.321   1.918  11.547  0.3113 -0.1586  0.3021
 3852SOL    HW123189   0.283   1.864  11.478 -1.8167 -0.8721  2.0493
 3852SOL    HW223190   0.348   2.000  11.506  1.1172 -0.6465 -0.1659
 3853SOL     OW23191   1.236   2.754   6.102 -0.0014 -0.2326 -0.2938
 3853SOL    HW123192   1.222   2.803   6.182  0.7655 -0.3141 -0.1192
 3853SOL    HW223193   1.331   2.760   6.096  0.1062 -1.9924 -0.4358
 3854SOL     OW23194   0.240   2.265   6.310 -0.8636  0.2657 -0.6008
 3854SOL    HW123195   0.321   2.256   6.260 -0.5049  1.7315 -0.3118
 3854SOL    HW223196   0.252   2.352   6.350  2.4906  0.5394 -2.1671
 3855SOL     OW23197   3.773   1.511   8.095  0.6389 -0.1480  0.3096
 3855SOL    HW123198   3.724   1.451   8.151 -1.9190 -1.4422 -3.3371
 3855SOL    HW223199   3.751   1.483   8.007  2.0752  3.5978 -1.2508
 3856SOL     OW23200   3.099   1.536   7.187 -0.0458 -0.4286 -0.1475
 3856SOL    HW123201   3.082   1.482   7.110 -0.6590 -0.6087  0.1195
 3856SOL    HW223202   3.135   1.475   7.252  0.6188  1.6115  1.3969
 3857SOL     OW23203   2.378   0.147   7.412  0.1667  0.1328 -0.0321
 3857SOL    HW123204   2.424   0.093   7.348 -0.8357 -1.4160  0.5453
 3857SOL    HW223205   2.432   0.226   7.420 -1.5262  1.1900  0.9880
 3858SOL     OW23206   1.715   3.792   1.673 -0.0562  0.6109  0.1154
 3858SOL    HW123207   1.628   3.785   1.712 -0.0351  2.6772  0.5520
 3858SOL    HW223208   1.701   3.811   1.580  0.0159  2.3941  0.4728
 3859SOL     OW23209   3.719   2.112   8.411  0.1951 -0.3584  0.2916
 3859SOL    HW123210   3.644   2.161   8.377 -1.0063 -2.0048  0.5511
 3859SOL    HW223211   3.667   2.052   8.465  0.6633 -1.1187 -0.0944
 3860SOL     OW23212   1.461   1.281   3.702 -0.5268  0.5170 -0.5276
 3860SOL    HW123213   1.421   1.278   3.615  0.6800 -0.9912 -1.0384
 3860SOL    HW223214   1.417   1.203   3.737  0.1645 -1.0320 -3.0928
 3861SOL     OW23215   2.268   1.894   8.170 -0.5277 -0.0643  0.2239
 3861SOL    HW123216   2.230   1.900   8.258  1.5011  1.2627  1.0141
 3861SOL    HW223217   2.303   1.805   8.171 -0.2515  0.0337 -0.9736
 3862SOL     OW23218   2.428   4.323  14.672 -0.4758  0.3639  0.5898
 3862SOL    HW123219   2.467   4.254  14.618 -0.0890  1.7844 -0.9189
 3862SOL    HW223220   2.439   4.294  14.763  0.1106  0.3139  0.5005
 3863SOL     OW23221   4.021   4.262   5.310  0.3365  0.0336  0.1295
 3863SOL    HW123222   4.078   4.330   5.275 -2.8570  3.0818  0.9442
 3863SOL    HW223223   4.078   4.185   5.302 -0.2390 -0.4435  0.6228
 3864SOL     OW23224   1.568   0.910   6.744  0.6093  0.6651  0.1409
 3864SOL    HW123225   1.480   0.898   6.779  0.7761  1.2964  0.7726
 3864SOL    HW223226   1.608   0.983   6.791 -2.0148  1.7259  0.7074
 3865SOL     OW23227   0.799   1.719   4.905  0.4256 -0.1037  0.2643
 3865SOL    HW123228   0.797   1.660   4.829 -0.2528  0.8842 -0.4816
 3865SOL    HW223229   0.708   1.745   4.914  0.9511  1.9573 -0.3082
 3866SOL     OW23230   0.587   3.381   9.537  0.2418 -0.3700 -0.0212
 3866SOL    HW123231   0.602   3.315   9.605  0.5335  0.3721  0.6232
 3866SOL    HW223232   0.500   3.417   9.550  0.0904 -1.6277  2.3297
 3867SOL     OW23233   2.215   2.478   3.120 -0.1348  0.0033  0.1297
 3867SOL    HW123234   2.303   2.464   3.157 -0.2574  2.2943  1.2996
 3867SOL    HW223235   2.154   2.427   3.173 -0.1460 -0.6550 -0.5149
 3868SOL     OW23236   1.393   1.025   5.730 -0.4028  0.2920  0.7199
 3868SOL    HW123237   1.480   0.986   5.730 -0.1830  0.7640  2.3562
 3868SOL    HW223238   1.395   1.081   5.652 -2.5215 -2.1396 -1.0972
 3869SOL     OW23239   3.032   1.998  13.403 -0.6322  0.1859  0.2610
 3869SOL    HW123240   2.956   1.941  13.391 -0.8374  0.1106  1.8671
 3869SOL    HW223241   3.065   1.960  13.485 -0.3919  0.9435  0.5190
 3870SOL     OW23242   0.879   1.923   5.363  0.2697  0.0449 -0.3911
 3870SOL    HW123243   0.947   1.903   5.427  2.0223  1.0177 -1.9450
 3870SOL    HW223244   0.861   2.017   5.370 -3.2698 -0.7331  1.3606
 3871SOL     OW23245   1.613   3.383   4.353  0.0152  0.0885  0.2419
 3871SOL    HW123246   1.535   3.402   4.406 -0.9766  0.1285 -1.2504
 3871SOL    HW223247   1.674   3.411   4.422 -0.2799  0.3631  0.3915
 3872SOL     OW23248   2.465   1.529   3.584  0.2966  0.2135 -0.4892
 3872SOL    HW123249   2.441   1.609   3.631  0.2832 -2.1126  3.4622
 3872SOL    HW223250   2.419   1.531   3.500 -0.2990 -0.5644 -0.1803
 3873SOL     OW23251   0.621   0.998   6.946  0.0633  0.1204 -0.1744
 3873SOL    HW123252   0.587   1.080   6.909  0.3499  1.1870  1.9123
 3873SOL    HW223253   0.553   0.937   6.915  0.5377 -1.0335  1.0347
 3874SOL     OW23254   2.702   4.011  11.846  0.1293  0.0866  0.4562
 3874SOL    HW123255   2.615   4.037  11.875  0.2551 -0.2927  1.1651
 3874SOL    HW223256   2.679   3.949  11.777 -1.7020  0.9467  0.2983
 3875SOL     OW23257   2.785   3.660   5.527  0.4146  0.0281 -0.4384
 3875SOL    HW123258   2.857   3.722   5.541 -0.3399  0.7828  0.1129
 3875SOL    HW223259   2.783   3.648   5.432 -1.7286  1.7378 -0.6281
 3876SOL     OW23260   2.059   2.325  13.895  0.0043 -0.4971 -0.2017
 3876SOL    HW123261   2.098   2.239  13.913 -0.4873 -0.7833 -0.5130
 3876SOL    HW223262   2.102   2.375  13.965  0.7882  3.2516 -3.3488
 3877SOL     OW23263   0.858   1.433  11.483 -0.1400 -0.0064 -0.0707
 3877SOL    HW123264   0.868   1.365  11.550  3.0163  0.1279 -0.4171
 3877SOL    HW223265   0.890   1.508  11.533 -0.2574  0.0472 -0.0758
 3878SOL     OW23266   4.091   1.519   6.043 -0.3984 -0.6537 -0.1118
 3878SOL    HW123267   4.087   1.482   6.132 -0.5547 -0.4333 -0.0292
 3878SOL    HW223268   4.068   1.442   5.991  2.9529 -1.8490  0.1743
 3879SOL     OW23269   3.716   3.801   2.824 -0.0922  0.1506 -0.1984
 3879SOL    HW123270   3.646   3.737   2.816  0.2201 -0.3858  1.2506
 3879SOL    HW223271   3.796   3.753   2.847  1.1627  1.7888 -1.0734
 3880SOL     OW23272   2.663   1.548   2.266 -0.1761  0.0597 -0.8089
 3880SOL    HW123273   2.729   1.522   2.330  0.2139  0.6315 -0.9773
 3880SOL    HW223274   2.649   1.639   2.294  3.1102  0.4530 -0.5155
 3881SOL     OW23275   2.605   0.418   3.528  0.2468 -0.0027  0.1259
 3881SOL    HW123276   2.653   0.339   3.502  0.6822  0.6865 -1.1563
 3881SOL    HW223277   2.549   0.379   3.595  1.5315  2.3024  2.5847
 3882SOL     OW23278   0.559   0.274   6.602  0.2319  0.1479  0.2645
 3882SOL    HW123279   0.575   0.367   6.587 -0.8690 -0.1531 -2.8432
 3882SOL    HW223280   0.641   0.230   6.581  0.9837  2.3997 -1.4249
 3883SOL     OW23281   1.522   3.541   3.113  0.1767 -0.2720  0.7858
 3883SOL    HW123282   1.447   3.501   3.068  0.5306 -0.3281  0.2479
 3883SOL    HW223283   1.540   3.616   3.055 -1.3144 -0.1623  0.4654
 3884SOL     OW23284   2.039   1.596   2.622 -0.1427 -0.5089  0.2521
 3884SOL    HW123285   2.033   1.502   2.605  0.7168  0.2173 -3.9933
 3884SOL    HW223286   2.004   1.632   2.541  1.1619 -1.4011 -0.7157
 3885SOL     OW23287   0.038   0.287  15.376  0.3332  0.0524  0.1782
 3885SOL    HW123288   0.090   0.209  15.360  1.7262  0.9421  0.3329
 3885SOL    HW223289   0.106   0.353  15.392  0.6780 -0.5605  1.2421
 3886SOL     OW23290   1.719   4.676   7.932  0.3227 -0.4920 -0.2921
 3886SOL    HW123291   1.734   4.712   8.019 -1.1796 -1.2339  0.2787
 3886SOL    HW223292   1.686   4.588   7.951  1.1498 -0.6738  0.3297
 3887SOL     OW23293   1.519   1.609   8.757 -0.3871 -0.3346 -0.2127
 3887SOL    HW123294   1.569   1.660   8.821 -0.2341  0.7446 -1.1782
 3887SOL    HW223295   1.510   1.531   8.812  2.1676 -0.7738 -0.4281
 3888SOL     OW23296   2.346   0.431   2.447  0.0604  0.1663 -0.9769
 3888SOL    HW123297   2.308   0.346   2.425  2.8042 -1.7430  1.7160
 3888SOL    HW223298   2.265   0.478   2.468 -1.2425 -2.6323  0.2059
 3889SOL     OW23299   2.778   1.433   5.053 -0.4721  0.1649  0.1274
 3889SOL    HW123300   2.713   1.378   5.097 -1.0120  0.9084  0.2688
 3889SOL    HW223301   2.805   1.377   4.981 -0.1637  1.5496 -0.8439
 3890SOL     OW23302   0.518   2.239  14.855  0.6105  0.4368 -0.8137
 3890SOL    HW123303   0.607   2.214  14.876  0.3254  0.3433  0.2721
 3890SOL    HW223304   0.476   2.181  14.919  1.2281  2.1224  1.1203
 3891SOL     OW23305   0.357   3.650   7.178 -0.4641 -0.2855 -0.6369
 3891SOL    HW123306   0.439   3.644   7.226 -0.2015  3.2902 -0.6728
 3891SOL    HW223307   0.391   3.664   7.089 -1.2607 -2.3281 -1.2752
 3892SOL     OW23308   4.678   3.018   8.713 -0.6525  0.5832  0.2052
 3892SOL    HW123309   0.032   3.036   8.730 -0.8070 -0.0549  1.7094
 3892SOL    HW223310   4.641   3.034   8.800  0.0575 -2.6222  1.1313
 3893SOL     OW23311   3.227   3.760   0.924  0.2714 -0.1088  0.2316
 3893SOL    HW123312   3.171   3.826   0.883 -1.1880 -0.3421  1.8659
 3893SOL    HW223313   3.307   3.771   0.871  0.6638  1.3836  1.1482
 3894SOL     OW23314   2.904   3.774  16.801 -0.0204 -0.4806  0.4549
 3894SOL    HW123315   2.942   3.857  16.771 -1.3487 -1.2387 -3.2808
 3894SOL    HW223316   2.983   3.721  16.810  0.1922 -0.2359  0.0948
 3895SOL     OW23317   4.703   3.951   2.235  0.0866  0.6595  0.1856
 3895SOL    HW123318   4.709   4.039   2.199  1.5648  1.3892  2.1937
 3895SOL    HW223319   4.614   3.931   2.207 -0.1150  1.3873  0.3201
 3896SOL     OW23320   1.396   0.727  16.876  0.2465  0.1567 -0.1831
 3896SOL    HW123321   1.324   0.777  16.838 -1.1671 -1.4944  0.2874
 3896SOL    HW223322   1.341   0.672  16.932  1.9516  1.3081  2.5917
 3897SOL     OW23323   3.657   2.360   6.193  0.0937 -0.5658  0.2762
 3897SOL    HW123324   3.655   2.264   6.196  1.6668 -0.6187 -0.3689
 3897SOL    HW223325   3.618   2.372   6.107  3.1596  0.1545 -1.0159
 3898SOL     OW23326   2.304   2.646  11.565 -0.0567  0.1378 -0.6723
 3898SOL    HW123327   2.316   2.552  11.550 -1.0821  0.2427 -2.0977
 3898SOL    HW223328   2.274   2.672  11.478 -0.4340  1.7793 -0.0581
 3899SOL     OW23329   1.353   2.137   5.732  0.0314 -0.4545 -0.2931
 3899SOL    HW123330   1.412   2.062   5.721  0.6015 -0.2645  1.4478
 3899SOL    HW223331   1.348   2.176   5.645  0.7867  1.3069  0.4524
 3900SOL     OW23332   2.922   1.464  17.539 -0.4110 -0.1509 -1.0740
 3900SOL    HW123333   2.834   1.439  17.512 -0.9516  0.6930 -0.0835
 3900SOL    HW223334   2.915   1.557  17.562  1.2279 -0.1216 -0.7009
 3901SOL     OW23335   4.236   0.089  15.348 -0.1575  0.0714 -0.1149
 3901SOL    HW123336   4.251   0.109  15.256  2.3889  2.0213  0.7112
 3901SOL    HW223337   4.309   0.133  15.392 -0.4708  1.2716 -0.8101
 3902SOL     OW23338   1.077   1.016   4.986 -0.1595 -0.4290 -0.2171
 3902SOL    HW123339   1.133   0.967   5.046 -1.2413  0.2475  1.3446
 3902SOL    HW223340   0.996   0.964   4.983 -0.1676 -0.3747 -1.2999
 3903SOL     OW23341   2.869   3.719   7.682 -0.3064 -0.2170  0.0658
 3903SOL    HW123342   2.901   3.722   7.772 -0.1680  1.4514 -0.0315
 3903SOL    HW223343   2.941   3.683   7.632  0.7324  1.0139  0.6712
 3904SOL     OW23344   1.536   1.319   1.430 -0.4558 -0.4032  0.0389
 3904SOL    HW123345   1.618   1.365   1.448  0.1472 -1.6494  0.5146
 3904SOL    HW223346   1.504   1.360   1.350  2.4740 -0.8357 -1.3674
 3905SOL     OW23347   3.421   3.156   8.012  0.1395  0.2024 -0.0966
 3905SOL    HW123348   3.354   3.216   8.044  0.0869  0.5000 -0.7673
 3905SOL    HW223349   3.394   3.155   7.920 -0.9759  0.9421  0.2357
 3906SOL     OW23350   2.396   1.250   7.798 -0.5867  0.1665  0.4798
 3906SOL    HW123351   2.438   1.221   7.716 -0.1578  0.2219  0.6777
 3906SOL    HW223352   2.352   1.170   7.825 -0.5155  0.2699  0.8995
 3907SOL     OW23353   0.377   0.854   6.230  0.6761 -0.0524 -0.0580
 3907SOL    HW123354   0.363   0.937   6.184 -1.1669  0.0607  0.7317
 3907SOL    HW223355   0.296   0.808   6.210  1.2871 -0.2241 -2.1583
 3908SOL     OW23356   4.307   0.686   4.734  0.0329 -0.0300  0.6299
 3908SOL    HW123357   4.400   0.677   4.716 -0.0169 -0.9239  0.8416
 3908SOL    HW223358   4.290   0.778   4.712 -2.9753 -0.8190 -0.3447
 3909SOL     OW23359   2.703   3.778   0.779 -0.1782 -0.2182 -0.6604
 3909SOL    HW123360   2.699   3.757   0.873  0.8927  0.2567 -0.5012
 3909SOL    HW223361   2.620   3.743   0.747  0.3092 -0.7554 -1.3403
 3910SOL     OW23362   3.913   2.841   3.726  0.1356  0.2518 -0.2543
 3910SOL    HW123363   3.832   2.890   3.718 -0.2046 -0.5385 -1.5791
 3910SOL    HW223364   3.963   2.886   3.795  1.3992 -0.7575 -0.4932
 3911SOL     OW23365   1.423   3.229   1.793  0.2001  0.0690 -0.6541
 3911SOL    HW123366   1.423   3.208   1.700  0.3182  0.0735 -0.6556
 3911SOL    HW223367   1.331   3.216   1.815  0.2268 -3.2075 -2.4803
 3912SOL     OW23368   2.918   2.589   7.916  0.8708 -0.1012 -0.7275
 3912SOL    HW123369   2.987   2.551   7.970 -1.4844 -0.2688  2.1364
 3912SOL    HW223370   2.885   2.507   7.879  1.9291 -0.9055  0.1253
 3913SOL     OW23371   2.609   3.907  13.946 -0.6395  0.3457  0.5401
 3913SOL    HW123372   2.696   3.913  13.908 -0.3343 -0.2572  1.1423
 3913SOL    HW223373   2.561   3.899  13.863 -0.8336  1.2691  0.5643
 3914SOL     OW23374   0.097   4.465   5.189 -0.0698 -0.0098  0.1878
 3914SOL    HW123375   0.160   4.522   5.145  1.1178  0.0384  1.9539
 3914SOL    HW223376   0.148   4.434   5.263  1.1460 -1.8111 -1.3939
 3915SOL     OW23377   4.150   0.996   4.369 -0.0813  0.0546  0.3336
 3915SOL    HW123378   4.096   1.075   4.372  0.9299  0.8361 -1.6155
 3915SOL    HW223379   4.151   0.985   4.464  2.2975  0.5370  0.3591
 3916SOL     OW23380   0.699   1.946   1.147  0.2577 -0.3987 -0.1927
 3916SOL    HW123381   0.637   2.011   1.114 -0.8283 -1.3388  0.0160
 3916SOL    HW223382   0.734   1.994   1.223 -1.5997  0.5427  0.0665
 3917SOL     OW23383   3.338   3.166   3.526  0.4220  0.2994  0.8577
 3917SOL    HW123384   3.260   3.149   3.472  0.8413  1.9553 -0.2646
 3917SOL    HW223385   3.406   3.165   3.458  0.3990  0.9307  0.8245
 3918SOL     OW23386   1.140   0.012  16.141  0.2368 -0.5236 -0.2316
 3918SOL    HW123387   1.201   0.046  16.207 -0.3671 -2.5163  1.3650
 3918SOL    HW223388   1.099   0.092  16.108 -1.0913 -1.1827 -0.1938
 3919SOL     OW23389   2.283   1.590  10.210  0.1923 -0.1605 -0.0707
 3919SOL    HW123390   2.303   1.676  10.249 -0.0608  0.0830 -0.4804
 3919SOL    HW223391   2.266   1.546  10.294 -0.1396 -1.0408 -0.6047
 3920SOL     OW23392   2.086   4.005  11.262 -0.2945 -0.1498  0.2088
 3920SOL    HW123393   2.169   4.052  11.265 -1.1775  1.4135  0.0591
 3920SOL    HW223394   2.041   4.025  11.344  0.3791 -0.7868  0.7302
 3921SOL     OW23395   1.361   1.370   4.676 -0.7767  0.4364  0.3641
 3921SOL    HW123396   1.289   1.413   4.721 -1.0809  1.9633 -1.6414
 3921SOL    HW223397   1.326   1.282   4.690 -1.2226  0.1895 -2.4621
 3922SOL     OW23398   3.435   3.769   8.840 -0.3307  0.0924  0.4279
 3922SOL    HW123399   3.455   3.699   8.777  2.2593  0.1263  1.2169
 3922SOL    HW223400   3.405   3.711   8.911  0.0234  1.0304  1.3328
 3923SOL     OW23401   3.868   1.706   1.299  0.2211  0.1418 -0.6856
 3923SOL    HW123402   3.814   1.632   1.327  2.7483 -0.9808  1.2684
 3923SOL    HW223403   3.842   1.707   1.207 -2.8932  3.5194  0.2259
 3924SOL     OW23404   0.712   3.598  17.231 -0.3450 -0.3330  0.3375
 3924SOL    HW123405   0.785   3.600  17.292 -0.2350 -0.5439  0.2111
 3924SOL    HW223406   0.678   3.510  17.247 -1.8519 -0.4456 -3.3901
 3925SOL     OW23407   4.541   2.612  12.660  0.1883 -0.1079 -0.0416
 3925SOL    HW123408   4.533   2.523  12.625 -2.4721  0.0504  0.2159
 3925SOL    HW223409   4.503   2.603  12.748 -0.6384 -3.4344 -0.7375
 3926SOL     OW23410   2.306   0.412   7.963 -0.2860  0.2679  0.4629
 3926SOL    HW123411   2.353   0.396   7.881  2.1581  0.3189  1.8594
 3926SOL    HW223412   2.344   0.344   8.019 -0.9530 -1.8875 -1.7009
 3927SOL     OW23413   0.050   1.813   7.634  0.5022 -0.6405  0.0902
 3927SOL    HW123414   0.064   1.733   7.684 -1.6443 -0.7356  0.5381
 3927SOL    HW223415   4.706   1.841   7.676  0.7635  0.3377 -0.0378
 3928SOL     OW23416   2.829   4.689   3.196  0.4772  0.1488 -0.5582
 3928SOL    HW123417   2.918   4.659   3.175 -0.0857 -1.0665 -1.2129
 3928SOL    HW223418   2.811   4.622   3.261 -1.7444  1.3670  0.0750
 3929SOL     OW23419   0.460   0.452   7.909 -0.0788  0.3449  0.1344
 3929SOL    HW123420   0.463   0.547   7.919 -0.7923  0.5737 -1.8253
 3929SOL    HW223421   0.422   0.426   7.993 -1.8363 -2.7294 -1.5843
 3930SOL     OW23422   1.649   3.899   3.314 -0.5914 -0.2052  0.0365
 3930SOL    HW123423   1.592   3.842   3.367 -1.3363  1.1524  0.6842
 3930SOL    HW223424   1.729   3.849   3.300 -0.3745  1.3814 -4.2792
 3931SOL     OW23425   4.682   3.219   8.096 -0.7692 -0.0784 -0.6197
 3931SOL    HW123426   4.700   3.129   8.121  1.6742  0.0617 -1.8901
 3931SOL    HW223427   4.605   3.244   8.147  0.5399  0.3622  1.1424
 3932SOL     OW23428   1.625   4.570   1.541  0.6487 -0.0303 -0.0936
 3932SOL    HW123429   1.602   4.478   1.529 -0.7155  0.6347 -2.4784
 3932SOL    HW223430   1.709   4.563   1.496  0.0972  0.4961 -1.1970
 3933SOL     OW23431   3.918   3.407   6.441 -0.4169 -0.2271  0.2492
 3933SOL    HW123432   3.859   3.381   6.370 -0.1485 -0.6443  0.1732
 3933SOL    HW223433   3.899   3.355   6.519 -0.0804  0.9295  1.0939
 3934SOL     OW23434   1.940   1.002  14.492  0.6139  0.0775  0.4302
 3934SOL    HW123435   2.016   1.022  14.436  0.8313  1.1136  1.0996
 3934SOL    HW223436   1.899   1.087  14.506  0.5655  0.0598  0.3940
 3935SOL     OW23437   1.041   4.089  15.683 -0.0051 -0.1364  0.5453
 3935SOL    HW123438   1.112   4.130  15.732 -0.8817 -0.2481  1.9100
 3935SOL    HW223439   0.977   4.157  15.706 -3.2257 -3.2154  0.8121
 3936SOL     OW23440   4.337   4.471   8.341  0.3961 -0.2125 -0.5979
 3936SOL    HW123441   4.393   4.429   8.407  2.4745  0.9426 -1.6015
 3936SOL    HW223442   4.296   4.388   8.316  0.1753 -0.3120  0.1014
 3937SOL     OW23443   2.173   1.490   4.231 -0.4593  0.1846 -0.4859
 3937SOL    HW123444   2.106   1.532   4.178 -0.0650 -0.5853 -1.6090
 3937SOL    HW223445   2.218   1.450   4.156 -1.1316  1.9935 -1.8346
 3938SOL     OW23446   4.582   1.038   6.773  0.0421  0.0100 -0.4656
 3938SOL    HW123447   4.676   1.036   6.758 -0.1399  4.3346 -2.1459
 3938SOL    HW223448   4.551   1.100   6.707  0.6405  0.8310  0.0329
 3939SOL     OW23449   3.360   2.794  17.280  0.2254 -0.0417 -0.5586
 3939SOL    HW123450   3.407   2.827  17.356 -0.2606 -1.6619  0.4611
 3939SOL    HW223451   3.296   2.864  17.270  0.1560  0.1348  1.0820
 3940SOL     OW23452   1.170   3.631  10.451 -0.2572 -0.1158  0.9096
 3940SOL    HW123453   1.186   3.539  10.432 -2.0645 -0.2946  0.3496
 3940SOL    HW223454   1.145   3.626  10.543 -1.8804 -0.7519  0.4217
 3941SOL     OW23455   0.259   2.968   3.607 -0.6887 -0.5247 -1.0028
 3941SOL    HW123456   0.340   2.916   3.608 -1.2140 -1.3290  0.2080
 3941SOL    HW223457   0.200   2.892   3.603 -0.6875 -0.5657 -0.0639
 3942SOL     OW23458   3.386   3.410   0.311  0.6462  0.0475 -0.1542
 3942SOL    HW123459   3.363   3.400   0.403  1.6992 -0.4201  0.0567
 3942SOL    HW223460   3.392   3.317   0.290  2.7961 -0.1535  1.3038
 3943SOL     OW23461   3.931   3.351   2.627 -0.1933 -0.2149  0.2767
 3943SOL    HW123462   3.892   3.377   2.543  1.7787  1.0110 -0.2855
 3943SOL    HW223463   3.934   3.256   2.613 -0.0791 -0.5110  2.3927
 3944SOL     OW23464   4.688   1.912   4.400  0.4001  0.3961 -0.4375
 3944SOL    HW123465   0.007   1.967   4.345 -1.7402  1.2697 -1.7645
 3944SOL    HW223466   4.727   1.924   4.486  0.9503 -1.4455 -0.4226
 3945SOL     OW23467   0.066   1.987   9.770  0.0099  0.9050  0.4927
 3945SOL    HW123468   0.156   1.997   9.737  0.0987 -0.7871  0.1987
 3945SOL    HW223469   0.042   2.074   9.739 -0.1152  0.6018 -0.2682
 3946SOL     OW23470   2.750   1.860   3.477  0.0908 -0.0442 -0.2978
 3946SOL    HW123471   2.763   1.767   3.491  0.9429  0.5703  3.0371
 3946SOL    HW223472   2.811   1.890   3.545 -1.9117 -0.3891  1.6482
 3947SOL     OW23473   3.209   2.939   7.535  0.0583 -0.1414 -0.6492
 3947SOL    HW123474   3.205   2.897   7.621  1.1016  0.2910 -0.3860
 3947SOL    HW223475   3.249   2.871   7.481  0.9043 -0.1487 -0.0286
 3948SOL     OW23476   4.657   3.318   4.796 -0.0634 -0.0728 -0.2947
 3948SOL    HW123477   4.673   3.260   4.722 -3.4748  2.1087 -2.7407
 3948SOL    HW223478   4.566   3.346   4.788  0.3470  1.0790 -0.8843
 3949SOL     OW23479   2.737   1.221   0.894 -0.0169  0.5590  0.2980
 3949SOL    HW123480   2.817   1.174   0.870 -0.9673 -0.3871 -0.9942
 3949SOL    HW223481   2.765   1.266   0.974  0.1611 -0.5805  0.8791
 3950SOL     OW23482   4.466   2.564  13.898  0.2048 -0.0968  0.3245
 3950SOL    HW123483   4.453   2.599  13.809  0.3316 -0.6040  0.1062
 3950SOL    HW223484   4.394   2.502  13.905  0.8765 -0.7272  1.5489
 3951SOL     OW23485   1.949   2.794   2.123  0.5070  0.4003 -0.2830
 3951SOL    HW123486   2.003   2.775   2.046  0.6487 -2.5025  0.5353
 3951SOL    HW223487   1.888   2.859   2.086  0.0149 -1.1594 -2.1992
 3952SOL     OW23488   1.821   1.279   1.204 -0.1687  0.3237 -0.1874
 3952SOL    HW123489   1.792   1.203   1.254 -0.2734 -1.1408 -2.5087
 3952SOL    HW223490   1.814   1.349   1.269  1.0219  0.2023  0.0636
 3953SOL     OW23491   0.582   3.816  12.604  0.1314 -0.2694 -0.0811
 3953SOL    HW123492   0.641   3.835  12.677 -3.1804 -1.1886  2.7903
 3953SOL    HW223493   0.640   3.841  12.532  0.3374  0.2114  0.2495
 3954SOL     OW23494   2.296   2.058   4.373  0.3679 -0.2387  0.4179
 3954SOL    HW123495   2.314   1.983   4.430 -0.8175 -0.1606  0.8977
 3954SOL    HW223496   2.280   2.024   4.286  1.9562 -0.8486  0.3610
 3955SOL     OW23497   4.092   2.584   2.763 -0.5458  0.0482 -0.1122
 3955SOL    HW123498   4.161   2.650   2.768 -0.2413 -0.5471  3.4841
 3955SOL    HW223499   4.111   2.538   2.845 -1.1516 -0.4938 -0.2789
 3956SOL     OW23500   3.753   1.453   8.841 -0.0346 -0.0623 -0.1025
 3956SOL    HW123501   3.712   1.426   8.759  2.3336 -1.5049 -0.8169
 3956SOL    HW223502   3.831   1.495   8.804 -0.4103 -1.2154 -2.2315
 3957SOL     OW23503   1.092   4.253  13.419 -0.4929 -0.1312 -0.2727
 3957SOL    HW123504   1.107   4.262  13.513  0.2095  0.2277 -0.4218
 3957SOL    HW223505   1.125   4.169  13.386  0.3824 -0.9799  2.8011
 3958SOL     OW23506   1.187   2.913   4.972 -0.2516 -0.0325  0.2841
 3958SOL    HW123507   1.101   2.914   5.014 -0.3581 -1.0533  0.0814
 3958SOL    HW223508   1.199   3.004   4.947  2.0764 -0.3705  0.1583
 3959SOL     OW23509   2.887   2.939   4.217  0.6564 -0.2263 -0.3418
 3959SOL    HW123510   2.799   2.931   4.256  0.1000  1.2638 -1.2804
 3959SOL    HW223511   2.908   3.032   4.225  0.6655 -0.1850 -0.8571
 3960SOL     OW23512   1.115   1.746   3.203 -0.5057 -0.0546 -0.6871
 3960SOL    HW123513   1.043   1.750   3.139 -0.1783 -0.2750 -1.0683
 3960SOL    HW223514   1.146   1.655   3.201  1.1839  0.4789  2.0370
 3961SOL     OW23515   4.228   1.139   2.454  0.3239  0.0454  0.0906
 3961SOL    HW123516   4.320   1.117   2.440 -0.2039 -1.8546 -0.3907
 3961SOL    HW223517   4.188   1.082   2.388 -0.0350 -0.7106  0.9579
 3962SOL     OW23518   3.680   2.035   1.488  0.0279  0.7994  0.6504
 3962SOL    HW123519   3.702   1.942   1.481 -0.4146  0.6724  0.9402
 3962SOL    HW223520   3.628   2.037   1.569  0.5663  0.1639  1.0201
 3963SOL     OW23521   3.553   4.383   7.288 -0.3013  0.5754  0.0120
 3963SOL    HW123522   3.527   4.303   7.244 -0.2725 -0.8583  2.6383
 3963SOL    HW223523   3.567   4.344   7.374  2.0172 -1.1318 -1.1544
 3964SOL     OW23524   0.705   1.347   2.787 -0.3657  0.4706  0.1544
 3964SOL    HW123525   0.663   1.279   2.734  0.2225 -1.5226  2.2672
 3964SOL    HW223526   0.781   1.365   2.731 -1.8323  2.9271 -1.0556
 3965SOL     OW23527   2.787   3.849   6.535 -0.2609 -0.2274  0.3463
 3965SOL    HW123528   2.838   3.865   6.456 -0.3080 -2.3098 -0.1171
 3965SOL    HW223529   2.727   3.781   6.503 -0.6179 -0.8410  2.3015
 3966SOL     OW23530   4.254   1.385   8.052  0.2561 -0.2040 -0.0822
 3966SOL    HW123531   4.267   1.396   8.146  0.2030 -1.2462  0.0469
 3966SOL    HW223532   4.331   1.438   8.029  0.6885 -1.0241 -0.5274
 3967SOL     OW23533   1.648   2.893  11.169 -0.1944  0.5271 -0.0250
 3967SOL    HW123534   1.624   2.873  11.078 -2.1214  1.2510  0.3288
 3967SOL    HW223535   1.593   2.970  11.181 -1.4716 -0.4540  0.4357
 3968SOL     OW23536   3.744   0.710   6.142  0.0379  0.1665 -0.7266
 3968SOL    HW123537   3.661   0.691   6.099 -0.7194 -1.0652  1.2783
 3968SOL    HW223538   3.707   0.704   6.230 -0.0621  0.3859 -0.7537
 3969SOL     OW23539   3.527   2.268   8.284 -0.0638 -0.3997  0.1869
 3969SOL    HW123540   3.449   2.297   8.331 -1.6536 -1.9540 -1.5185
 3969SOL    HW223541   3.501   2.242   8.196 -0.6499 -2.5828  1.0119
 3970SOL     OW23542   2.796   2.120   2.644  0.4486 -0.0484 -0.0151
 3970SOL    HW123543   2.704   2.145   2.660 -0.0469 -1.6515 -0.4261
 3970SOL    HW223544   2.829   2.117   2.733 -2.3324  1.2847  1.0872
 3971SOL     OW23545   2.691   1.631  15.348 -0.1814  0.1373 -0.1244
 3971SOL    HW123546   2.743   1.611  15.270 -0.1275  2.9375 -0.8117
 3971SOL    HW223547   2.618   1.677  15.306 -1.6097  0.5111  2.7750
 3972SOL     OW23548   4.397   1.333   7.468 -0.5455  0.1905  0.2088
 3972SOL    HW123549   4.395   1.241   7.440 -0.6474  0.5609 -0.9912
 3972SOL    HW223550   4.489   1.340   7.490 -0.5979  2.2663 -0.2365
 3973SOL     OW23551   4.616   1.223   5.059 -0.6315  0.3942 -0.3253
 3973SOL    HW123552   4.695   1.258   5.102 -0.2882 -0.0204 -0.6185
 3973SOL    HW223553   4.657   1.179   4.985  0.8612  0.0585  0.6798
 3974SOL     OW23554   2.704   2.814   6.574 -0.5028 -0.4458  0.1604
 3974SOL    HW123555   2.638   2.745   6.573  1.1599 -2.0402 -0.5579
 3974SOL    HW223556   2.655   2.888   6.538 -0.0810 -1.6080 -2.8689
 3975SOL     OW23557   3.310   1.300   8.012  0.5996  0.0786 -0.4304
 3975SOL    HW123558   3.237   1.253   8.053  0.0672  0.3138 -1.0932
 3975SOL    HW223559   3.275   1.314   7.923 -0.0149  0.4007 -0.1409
 3976SOL     OW23560   0.300   1.772   3.972 -0.3944 -0.1218  0.1369
 3976SOL    HW123561   0.269   1.833   3.906  0.8326  1.0783  0.6660
 3976SOL    HW223562   0.236   1.701   3.979  0.9856 -1.3865  0.0793
 3977SOL     OW23563   0.267   0.774   5.579  0.7014 -0.6125 -0.3217
 3977SOL    HW123564   0.257   0.780   5.484 -0.3508  2.6014 -0.0083
 3977SOL    HW223565   0.235   0.685   5.589  1.1999 -0.9179 -1.4545
 3978SOL     OW23566   3.131   2.028   9.089  0.3634  0.4190  0.0277
 3978SOL    HW123567   3.140   2.047   9.182 -2.2794 -0.2215  0.4122
 3978SOL    HW223568   3.127   1.932   9.094  0.6317  0.2919 -2.1993
 3979SOL     OW23569   0.150   0.832   8.566 -0.1380  0.4207  0.4365
 3979SOL    HW123570   0.186   0.921   8.564 -0.9138  0.7636  1.5770
 3979SOL    HW223571   0.084   0.839   8.635  0.4459 -1.5743  1.1914
 3980SOL     OW23572   2.359   3.091   9.898  0.1872 -0.5220  0.3774
 3980SOL    HW123573   2.293   3.082   9.829  0.4192  0.5115  0.0206
 3980SOL    HW223574   2.413   3.165   9.871 -2.4074  1.9882  2.0042
 3981SOL     OW23575   4.515   4.171   5.804 -0.5411  0.3996  0.1164
 3981SOL    HW123576   4.469   4.220   5.872  0.3082 -1.6092  2.1186
 3981SOL    HW223577   4.596   4.222   5.799 -0.3444 -0.0001 -0.6926
 3982SOL     OW23578   4.729   2.007   0.002  0.7576 -0.5186 -0.2542
 3982SOL    HW123579   4.707   2.055   0.082 -0.8137 -2.7459  0.6511
 3982SOL    HW223580   4.684   1.927   0.029 -0.2160  0.9493  2.5628
 3983SOL     OW23581   0.865   2.039   2.143  0.2923 -0.0494 -0.6907
 3983SOL    HW123582   0.825   2.124   2.125 -1.3705 -0.6020  0.3523
 3983SOL    HW223583   0.878   2.001   2.056 -0.2543 -0.7785 -0.4613
 3984SOL     OW23584   2.537   3.361  14.795  0.5803 -0.7050 -0.0037
 3984SOL    HW123585   2.553   3.351  14.702  2.3377  0.5359  0.1701
 3984SOL    HW223586   2.626   3.385  14.821  0.5909 -1.5147  0.7367
 3985SOL     OW23587   0.247   1.543   0.878 -0.0246  0.9199 -0.3582
 3985SOL    HW123588   0.259   1.471   0.940  0.1513 -0.2494 -1.7394
 3985SOL    HW223589   0.166   1.575   0.919  0.4497 -0.2987  1.5612
 3986SOL     OW23590   2.257   3.491  11.543  0.0459 -0.0803 -0.1795
 3986SOL    HW123591   2.175   3.542  11.542 -0.5095 -0.9941 -1.0413
 3986SOL    HW223592   2.242   3.422  11.607  0.1460  1.2100  1.2363
 3987SOL     OW23593   2.167   1.321   3.688  0.0766 -0.1946  0.2544
 3987SOL    HW123594   2.088   1.299   3.738 -0.1450 -1.1292 -0.4936
 3987SOL    HW223595   2.139   1.391   3.630 -0.5700  0.6407  1.5765
 3988SOL     OW23596   1.224   3.225   6.303 -0.0552  0.2795 -0.0822
 3988SOL    HW123597   1.224   3.152   6.365  1.1266  0.3268 -0.0264
 3988SOL    HW223598   1.198   3.297   6.361  0.9359  0.3242  0.3012
 3989SOL     OW23599   0.153   4.635  14.129 -0.1652 -0.4920 -0.1216
 3989SOL    HW123600   0.085   4.601  14.187  0.3763 -1.1882  0.1114
 3989SOL    HW223601   0.191   4.700  14.188  2.5432 -0.7008 -1.6107
 3990SOL     OW23602   2.118   4.494   6.339  0.4250  0.0759 -0.4969
 3990SOL    HW123603   2.046   4.536   6.292  0.7420  0.7600 -0.3762
 3990SOL    HW223604   2.144   4.422   6.281 -0.6520 -1.3358  0.7728
 3991SOL     OW23605   1.967   4.475   2.602  0.1137  0.6347  0.1421
 3991SOL    HW123606   2.029   4.523   2.548  1.1048 -0.6290  0.1607
 3991SOL    HW223607   1.903   4.429   2.549  0.9179 -0.7533  0.3852
 3992SOL     OW23608   1.075   0.627   6.240  0.3438 -0.3326 -0.1003
 3992SOL    HW123609   1.079   0.720   6.262  1.3661 -0.0177 -1.5997
 3992SOL    HW223610   1.152   0.600   6.290  0.1391 -0.2239  0.2718
 3993SOL     OW23611   2.597   4.308   4.223  0.3523  0.1050 -0.7445
 3993SOL    HW123612   2.541   4.347   4.290  2.3056  0.2024  0.8643
 3993SOL    HW223613   2.667   4.372   4.239  0.3892 -0.0452 -0.2992
 3994SOL     OW23614   2.704   3.034   3.029  0.3395 -0.5692 -0.4372
 3994SOL    HW123615   2.764   2.959   3.027 -0.7917 -1.4299 -1.6122
 3994SOL    HW223616   2.718   3.075   3.114 -1.6284 -0.3662 -0.2325
 3995SOL     OW23617   3.682   2.978   8.158 -0.3884 -0.1619  0.0747
 3995SOL    HW123618   3.697   2.979   8.063 -3.0478  0.6888 -0.3202
 3995SOL    HW223619   3.651   3.068   8.161  2.4650  0.8845 -1.6320
 3996SOL     OW23620   3.689   3.229  13.182 -0.0252 -0.4455 -0.1466
 3996SOL    HW123621   3.685   3.137  13.210 -0.9225 -0.7824 -1.4010
 3996SOL    HW223622   3.731   3.221  13.097  2.1013 -1.2416  0.9651
 3997SOL     OW23623   3.277   0.362   3.587 -0.3228  0.5547 -0.2304
 3997SOL    HW123624   3.186   0.383   3.607 -0.3515  1.9023 -1.7155
 3997SOL    HW223625   3.287   0.285   3.643 -1.4283 -0.2408 -1.1268
 3998SOL     OW23626   0.184   4.672   8.751  0.0467 -0.0443 -0.0003
 3998SOL    HW123627   0.166   4.666   8.657  1.5587  0.8279 -0.3364
 3998SOL    HW223628   0.279   4.674   8.750 -0.0027  2.8573  1.5699
 3999SOL     OW23629   4.714   0.578   7.921 -0.5575  0.3868  0.5501
 3999SOL    HW123630   4.664   0.610   7.996  1.1031  1.7370  1.0530
 3999SOL    HW223631   4.653   0.521   7.873  0.0954 -0.4923  0.7661
 4000SOL     OW23632   2.362   0.174   0.849  0.3202 -0.1173  0.6508
 4000SOL    HW123633   2.386   0.100   0.793 -1.3285 -0.1704  0.0006
 4000SOL    HW223634   2.267   0.159   0.854  0.0914  0.8431 -1.1348
 4001SOL     OW23635   2.153   4.258   4.524  0.4741 -0.0161 -0.7071
 4001SOL    HW123636   2.236   4.277   4.567 -1.4216  2.5298  1.8031
 4001SOL    HW223637   2.177   4.248   4.432  0.1564 -1.0611 -0.6833
 4002SOL     OW23638   3.698   3.277  16.749 -0.1315 -0.6739  0.6735
 4002SOL    HW123639   3.698   3.236  16.663  0.0988  0.5450  0.0928
 4002SOL    HW223640   3.789   3.275  16.777 -0.2087 -0.7328  0.9246
 4003SOL     OW23641   0.805   3.028   8.360 -0.4465  0.6211  0.0755
 4003SOL    HW123642   0.840   2.940   8.343 -0.6385  0.6884 -0.6628
 4003SOL    HW223643   0.884   3.080   8.349 -0.7262  1.1259  0.4463
 4004SOL     OW23644   4.487   2.867   3.547  0.0590 -0.1698 -0.6570
 4004SOL    HW123645   4.529   2.821   3.474  0.8506  1.5396 -1.2973
 4004SOL    HW223646   4.547   2.861   3.621 -0.8548 -1.3360 -0.0216
 4005SOL     OW23647   2.604   0.233   5.368  0.1851 -0.5054 -0.2131
 4005SOL    HW123648   2.537   0.298   5.347  0.3594 -0.5220 -0.8168
 4005SOL    HW223649   2.586   0.222   5.461 -2.8788  0.3988 -0.6785
 4006SOL     OW23650   1.020   0.572  12.294  0.2742  0.0259  0.6356
 4006SOL    HW123651   1.003   0.663  12.270  1.5036 -0.2528 -1.2889
 4006SOL    HW223652   0.994   0.561  12.385 -2.1060  1.1356  0.0869
 4007SOL     OW23653   3.060   0.177   3.906 -0.6378 -0.0654 -0.5046
 4007SOL    HW123654   3.006   0.148   3.832 -0.6217  3.7047 -2.0111
 4007SOL    HW223655   3.138   0.215   3.866 -0.8774  1.3138  0.3038
 4008SOL     OW23656   4.513   2.102   6.631 -0.2796 -0.4117  0.5126
 4008SOL    HW123657   4.562   2.181   6.609 -2.4144  0.8722  0.4000
 4008SOL    HW223658   4.523   2.092   6.726 -0.1703  2.0875  0.7739
 4009SOL     OW23659   1.155   0.692   8.775  0.0137 -0.0086 -0.2555
 4009SOL    HW123660   1.248   0.677   8.791 -0.4292 -0.4657  1.9006
 4009SOL    HW223661   1.115   0.607   8.759  0.5141 -0.4031  0.5840
 4010SOL     OW23662   2.681   3.975   2.859  0.0338 -0.0740 -0.9109
 4010SOL    HW123663   2.589   3.950   2.868  0.4802 -0.4588  2.6249
 4010SOL    HW223664   2.721   3.900   2.903 -0.2016 -0.5952 -1.5762
 4011SOL     OW23665   3.900   3.242   9.941  0.2558 -0.2781  0.0073
 4011SOL    HW123666   3.847   3.287   9.875  1.3650 -0.5427 -1.0801
 4011SOL    HW223667   3.982   3.226   9.895  0.4731 -0.9867  0.6470
 4012SOL     OW23668   0.365   1.249   0.495 -0.2754  0.7364 -0.1384
 4012SOL    HW123669   0.299   1.216   0.433 -0.1681 -1.8052  1.0889
 4012SOL    HW223670   0.326   1.325   0.538  0.4438  1.5818 -0.9774
 4013SOL     OW23671   2.004   2.254  17.494 -0.3048  0.4918 -0.4885
 4013SOL    HW123672   1.982   2.197  17.420 -0.1295 -2.3494  1.6546
 4013SOL    HW223673   2.021   2.339  17.453  2.1400 -0.3234 -1.1222
 4014SOL     OW23674   2.583   1.457  11.327  0.4600  0.3429  0.5837
 4014SOL    HW123675   2.562   1.540  11.283  1.3823 -0.2370 -0.9615
 4014SOL    HW223676   2.642   1.419  11.261 -0.1193 -0.6269  0.6246
 4015SOL     OW23677   4.602   3.106   0.758 -0.0802  0.2756  0.1598
 4015SOL    HW123678   4.516   3.145   0.771  0.7021  2.5285 -1.3186
 4015SOL    HW223679   4.623   3.082   0.848 -1.6842  1.2378  0.7888
 4016SOL     OW23680   3.017   3.591   0.969  0.1582  0.1203 -0.0610
 4016SOL    HW123681   3.102   3.616   0.932 -0.4242 -1.8636 -2.7339
 4016SOL    HW223682   2.970   3.673   0.952 -1.5547 -0.6809  0.7516
 4017SOL     OW23683   4.583   4.335   2.350 -0.1328  0.2346  0.0227
 4017SOL    HW123684   4.536   4.260   2.314 -1.7294  1.2100  0.0605
 4017SOL    HW223685   4.576   4.398   2.279  0.8147 -0.2767 -0.5211
 4018SOL     OW23686   2.565   0.017   7.664 -0.7025  0.4280  0.3046
 4018SOL    HW123687   2.623   0.014   7.588 -1.6620 -2.2205 -0.3294
 4018SOL    HW223688   2.548   0.110   7.651 -0.4096  0.5388  0.7274
 4019SOL     OW23689   3.445   0.349   7.984  0.0930  0.1996  0.7810
 4019SOL    HW123690   3.419   0.259   7.968  1.8517  0.1315 -1.6951
 4019SOL    HW223691   3.498   0.364   7.906  0.0799 -0.2942  0.6797
 4020SOL     OW23692   4.123   1.387   1.255 -0.6709 -0.3547  0.2764
 4020SOL    HW123693   4.122   1.420   1.165 -1.6974  3.2764  1.5860
 4020SOL    HW223694   4.163   1.461   1.301  0.2632 -0.3753 -0.5146
 4021SOL     OW23695   2.369   4.620   6.045  0.0377 -0.3384 -0.1126
 4021SOL    HW123696   2.295   4.676   6.070 -0.1922 -1.6903  2.2087
 4021SOL    HW223697   2.320   4.547   6.008  1.0919 -0.0913 -2.0044
 4022SOL     OW23698   2.447   1.685   6.999  0.2910  0.6300  0.4217
 4022SOL    HW123699   2.532   1.683   6.955  0.6479 -1.7201  1.2212
 4022SOL    HW223700   2.426   1.593   6.980 -5.5118  1.6217  2.0429
 4023SOL     OW23701   4.483   1.661  10.481 -0.4519 -0.4639  0.0898
 4023SOL    HW123702   4.539   1.701  10.414 -4.5252  0.2509 -2.9632
 4023SOL    HW223703   4.399   1.638  10.441 -1.4918  3.0962  0.1990
 4024SOL     OW23704   3.042   1.301   5.743 -0.2163 -0.4251 -0.4056
 4024SOL    HW123705   2.988   1.380   5.748  1.3503  0.5623  0.6570
 4024SOL    HW223706   3.057   1.282   5.835  0.2069 -0.1015 -0.4090
 4025SOL     OW23707   3.081   2.747   4.230 -0.1460  0.2796  0.0314
 4025SOL    HW123708   3.107   2.732   4.139 -2.7638 -0.8021 -0.5266
 4025SOL    HW223709   3.009   2.807   4.210 -0.0306 -0.0673 -1.3989
 4026SOL     OW23710   4.016   0.559   1.194 -0.0761  0.0771  0.0930
 4026SOL    HW123711   3.931   0.540   1.154 -0.1413  1.9742 -0.6974
 4026SOL    HW223712   4.073   0.553   1.117 -0.6652  0.6373 -0.3849
 4027SOL     OW23713   0.785   0.049   3.346 -0.0966  0.0491 -0.3903
 4027SOL    HW123714   0.744   0.005   3.271  0.2849  2.3712 -1.9478
 4027SOL    HW223715   0.725   0.120   3.368  1.1298 -0.0017  3.1195
 4028SOL     OW23716   0.053   0.977   6.420 -0.5654 -0.0490  0.4757
 4028SOL    HW123717   0.040   0.928   6.501  0.5126  1.2694  1.4405
 4028SOL    HW223718   0.132   0.938   6.383 -0.2594  2.0999 -1.1140
 4029SOL     OW23719   1.675   3.356   7.035 -0.2053 -0.2424 -0.0517
 4029SOL    HW123720   1.652   3.308   7.114 -1.8724 -1.0743 -1.0496
 4029SOL    HW223721   1.638   3.303   6.965 -1.2811 -0.2239  0.5170
 4030SOL     OW23722   2.872   1.049   4.069 -0.2817 -0.1845  0.1076
 4030SOL    HW123723   2.782   1.023   4.088 -0.4597 -0.3458 -0.9363
 4030SOL    HW223724   2.906   1.077   4.154 -0.3438 -0.1041  0.1051
 4031SOL     OW23725   3.969   3.010  15.113 -0.6315  0.1893  0.2547
 4031SOL    HW123726   3.966   2.940  15.179 -1.8452 -1.4580 -1.5354
 4031SOL    HW223727   4.023   3.076  15.156  0.7731 -0.9213  0.2047
 4032SOL     OW23728   2.160   1.651   2.340  0.1987  0.1038 -0.3956
 4032SOL    HW123729   2.095   1.636   2.271  0.5873  0.8645 -0.9223
 4032SOL    HW223730   2.128   1.735   2.372 -0.0001  0.0043 -0.3304
 4033SOL     OW23731   1.679   0.616   1.432 -0.3183  0.2492 -0.1886
 4033SOL    HW123732   1.619   0.603   1.506 -0.6473  1.7506 -0.1781
 4033SOL    HW223733   1.622   0.674   1.381  0.8888 -1.2754 -3.2058
 4034SOL     OW23734   2.865   2.308   8.822  0.1315  0.2358 -0.1190
 4034SOL    HW123735   2.812   2.252   8.766 -1.4806  0.7617  0.8774
 4034SOL    HW223736   2.884   2.251   8.897 -0.8616 -0.8911 -0.7302
 4035SOL     OW23737   2.990   3.010   6.547  0.0985  0.3183 -0.1894
 4035SOL    HW123738   2.985   2.935   6.606 -0.9287  1.0719  0.6771
 4035SOL    HW223739   3.016   2.968   6.465 -2.4265  0.8070 -1.2395
 4036SOL     OW23740   0.241   3.487   5.520 -0.1417  0.1223  1.0746
 4036SOL    HW123741   0.320   3.505   5.469  0.5076  0.0637  2.0593
 4036SOL    HW223742   0.263   3.534   5.600 -1.2701  0.1519  1.3732
 4037SOL     OW23743   1.970   3.387   6.608  0.1966  0.4462  0.1514
 4037SOL    HW123744   1.875   3.398   6.615  0.5817  2.5852  1.8474
 4037SOL    HW223745   1.986   3.413   6.698  1.5107  1.6115 -0.4238
 4038SOL     OW23746   0.233   2.814  10.321  0.4069  0.3494  0.5742
 4038SOL    HW123747   0.218   2.889  10.379  2.1618  1.7252 -0.7349
 4038SOL    HW223748   0.199   2.745  10.378  1.7683 -1.8227 -1.2566
 4039SOL     OW23749   4.192   1.987   8.483  0.4347  0.7314  0.0275
 4039SOL    HW123750   4.264   1.997   8.421  0.2457  1.3056 -0.1028
 4039SOL    HW223751   4.150   2.072   8.472 -0.6687 -0.0207 -1.5716
 4040SOL     OW23752   3.107   1.857   6.316  0.1377  0.2134  0.5438
 4040SOL    HW123753   3.048   1.922   6.278 -0.0289 -0.0829  0.2955
 4040SOL    HW223754   3.147   1.828   6.234  0.4842  1.2935  0.3324
 4041SOL     OW23755   4.351   0.345   3.314  0.7555 -0.5699  0.3600
 4041SOL    HW123756   4.256   0.344   3.322  0.5861 -0.6110 -1.7488
 4041SOL    HW223757   4.360   0.347   3.219 -0.4711 -0.7417  0.2450
 4042SOL     OW23758   2.149   4.591   2.466 -0.3579 -0.4813 -0.0695
 4042SOL    HW123759   2.116   4.585   2.376 -0.9302 -1.3078  0.2018
 4042SOL    HW223760   2.239   4.616   2.442  0.5385 -1.7657  1.9621
 4043SOL     OW23761   4.052   2.604   3.736 -0.4250  0.4241 -0.0898
 4043SOL    HW123762   4.104   2.606   3.656  1.2094  1.5642  0.9661
 4043SOL    HW223763   4.010   2.690   3.743 -0.9585  0.2248 -0.9990
 4044SOL     OW23764   1.275   1.918   7.969  0.4696 -0.9015 -0.4828
 4044SOL    HW123765   1.239   1.842   7.924  0.0800 -0.6178 -0.6551
 4044SOL    HW223766   1.331   1.869   8.029  0.6995  0.1350  0.1585
 4045SOL     OW23767   4.518   3.002  13.590  0.5182 -0.7010 -0.0714
 4045SOL    HW123768   4.592   3.056  13.620  1.1892 -0.4834 -2.1350
 4045SOL    HW223769   4.499   3.047  13.508 -0.0341  0.9082  0.9441
 4046SOL     OW23770   1.370   1.931  15.410  0.1026 -0.1534  0.2897
 4046SOL    HW123771   1.292   1.901  15.457 -0.0634 -0.4482 -0.1687
 4046SOL    HW223772   1.327   1.932  15.324 -0.6136 -0.1166  0.6548
 4047SOL     OW23773   4.324   0.957   5.895 -0.2723 -0.1320  0.5051
 4047SOL    HW123774   4.239   0.998   5.912 -1.0610 -1.1528 -0.9166
 4047SOL    HW223775   4.373   0.987   5.971  0.3045 -1.8438  0.8000
 4048SOL     OW23776   0.630   1.119   8.059  0.0247  0.3416 -0.3512
 4048SOL    HW123777   0.653   1.116   8.152  0.8967 -3.3414 -0.6823
 4048SOL    HW223778   0.640   1.214   8.062 -0.5730  0.4529 -1.7762
 4049SOL     OW23779   2.317   4.437   3.615 -0.2232 -0.0053 -0.3060
 4049SOL    HW123780   2.388   4.449   3.553  0.3736  0.2345  0.4348
 4049SOL    HW223781   2.332   4.523   3.653 -0.3827 -0.3434  0.5191
 4050SOL     OW23782   2.181   2.176   3.619 -0.1135 -0.1631 -0.2863
 4050SOL    HW123783   2.229   2.224   3.686 -1.0252 -2.2267  1.8249
 4050SOL    HW223784   2.213   2.086   3.634 -2.4577 -0.6513  1.6696
 4051SOL     OW23785   0.256   4.244   0.043 -0.1360 -0.0240 -0.0572
 4051SOL    HW123786   0.191   4.249   0.114  0.0846  0.1583  0.1310
 4051SOL    HW223787   0.198   4.269  17.720 -1.2224  0.1728  0.8864
 4052SOL     OW23788   2.318   3.357   1.735 -0.1239 -0.0656 -0.0296
 4052SOL    HW123789   2.260   3.324   1.666 -0.6928 -0.5475  0.6850
 4052SOL    HW223790   2.299   3.451   1.734 -1.7890 -0.4106 -0.1603
 4053SOL     OW23791   3.705   2.651   5.919 -0.2164 -0.1585  0.5038
 4053SOL    HW123792   3.718   2.703   5.839  1.5255  0.3748  1.1344
 4053SOL    HW223793   3.726   2.559   5.898 -0.3472 -0.6033  2.3187
 4054SOL     OW23794   2.265   4.376   2.576  0.0591 -0.0390  0.6211
 4054SOL    HW123795   2.237   4.468   2.576  2.3106  0.6494 -1.5703
 4054SOL    HW223796   2.355   4.380   2.608  0.5718 -0.8773 -0.7177
 4055SOL     OW23797   1.010   2.956   2.057 -0.0289  0.7926  0.1589
 4055SOL    HW123798   0.923   2.991   2.077 -0.6917  0.4099 -2.0443
 4055SOL    HW223799   1.035   2.926   2.144 -0.9510 -1.3718 -0.3432
 4056SOL     OW23800   0.306   2.239   3.132 -0.3041  0.2070  0.3283
 4056SOL    HW123801   0.321   2.333   3.131 -1.7171  0.4533  1.4336
 4056SOL    HW223802   0.392   2.208   3.103 -0.9303 -0.6683 -0.6279
 4057SOL     OW23803   0.754   2.025   8.366 -0.3256 -0.7306 -0.5924
 4057SOL    HW123804   0.785   2.103   8.412  1.1019  0.0233 -2.8233
 4057SOL    HW223805   0.814   2.024   8.292  0.7508 -1.1195  0.2878
 4058SOL     OW23806   0.341   0.881   0.333 -0.2934 -0.3603 -0.5375
 4058SOL    HW123807   0.303   0.876   0.245  1.9931 -1.0333 -1.5046
 4058SOL    HW223808   0.266   0.905   0.387  0.2760  1.1792 -0.4323
 4059SOL     OW23809   3.306   1.125   5.901 -0.3373 -0.3507  0.2032
 4059SOL    HW123810   3.211   1.139   5.899 -0.4968 -1.0998  2.0499
 4059SOL    HW223811   3.317   1.138   5.996  1.0352  1.4442 -0.2063
 4060SOL     OW23812   4.069   0.183   8.662 -0.2018 -0.3069 -0.3467
 4060SOL    HW123813   3.985   0.223   8.639 -0.0824  0.7704  1.0566
 4060SOL    HW223814   4.129   0.252   8.632  1.2015 -1.1629  0.4827
 4061SOL     OW23815   1.403   2.514   4.370  0.3436 -0.2527  0.1474
 4061SOL    HW123816   1.423   2.588   4.427 -3.1659  1.1498 -0.4368
 4061SOL    HW223817   1.487   2.472   4.387 -0.0764 -1.5956 -1.1467
 4062SOL     OW23818   3.910   2.254   0.392 -0.0249  0.0042  0.2895
 4062SOL    HW123819   3.923   2.223   0.482  1.2179  2.3911  0.9271
 4062SOL    HW223820   3.934   2.346   0.402  0.6068 -0.2638  1.2784
 4063SOL     OW23821   0.342   1.602  12.606  0.5657 -0.3506 -0.3757
 4063SOL    HW123822   0.300   1.550  12.537  1.2483 -1.8077  0.3138
 4063SOL    HW223823   0.401   1.542  12.650  2.1506  2.0180  0.7162
 4064SOL     OW23824   2.703   3.375   3.351 -0.0300  0.5641 -0.0650
 4064SOL    HW123825   2.626   3.407   3.303 -0.2521 -0.5429 -0.4477
 4064SOL    HW223826   2.671   3.321   3.423  2.3613 -1.4291 -0.4797
 4065SOL     OW23827   0.997   3.584   3.440  0.1361  0.0425  0.3146
 4065SOL    HW123828   1.020   3.663   3.490 -1.0680  0.0287  0.8952
 4065SOL    HW223829   1.058   3.594   3.367  1.7996 -0.9822  1.5769
 4066SOL     OW23830   1.130   0.950   7.077  0.5004 -0.1302  0.8105
 4066SOL    HW123831   1.050   0.989   7.043  0.6028 -1.6582 -1.2337
 4066SOL    HW223832   1.089   0.892   7.141  1.9337 -1.1467  0.8231
 4067SOL     OW23833   2.450   1.320   6.152  0.5801  0.2527 -0.1898
 4067SOL    HW123834   2.378   1.257   6.148 -0.4552  1.5863 -2.4392
 4067SOL    HW223835   2.435   1.359   6.066 -1.0242  2.1102  0.9066
 4068SOL     OW23836   2.761   3.452   8.696 -0.2502  0.4381  0.1695
 4068SOL    HW123837   2.694   3.503   8.741 -0.1024  1.2162 -0.4853
 4068SOL    HW223838   2.808   3.533   8.678 -0.2223  0.5685  0.8494
 4069SOL     OW23839   2.791   4.190  15.398 -0.4684 -0.2123  0.4984
 4069SOL    HW123840   2.846   4.258  15.358 -1.1970  0.6314  0.9424
 4069SOL    HW223841   2.851   4.117  15.410 -0.5218 -0.3380  0.0272
 4070SOL     OW23842   1.965   2.699   2.575  0.6121 -0.4127 -0.5605
 4070SOL    HW123843   1.883   2.742   2.552  0.8600  0.8365  0.9396
 4070SOL    HW223844   2.023   2.770   2.550 -1.6963  0.8819 -2.2156
 4071SOL     OW23845   1.009   1.786   2.463 -0.6115 -0.8813 -0.2258
 4071SOL    HW123846   1.061   1.828   2.531 -0.7801 -1.1033  0.0405
 4071SOL    HW223847   0.933   1.755   2.512  0.5364 -1.3156  1.2851
 4072SOL     OW23848   0.595   2.480   0.058 -1.1452  0.1841 -0.3732
 4072SOL    HW123849   0.670   2.428   0.087 -0.7898  0.8392 -0.1206
 4072SOL    HW223850   0.524   2.419   0.081  0.9338 -2.1709 -0.1194
 4073SOL     OW23851   2.612   2.305   3.653 -0.3452 -0.2757 -0.4054
 4073SOL    HW123852   2.702   2.272   3.651  0.6021  2.1892  2.2298
 4073SOL    HW223853   2.572   2.246   3.589 -0.5750 -0.3037 -0.2327
 4074SOL     OW23854   3.781   3.060   0.414 -0.6063 -0.1165 -0.3174
 4074SOL    HW123855   3.790   3.045   0.320  0.6772  0.9802 -0.3673
 4074SOL    HW223856   3.859   3.020   0.451 -0.9572 -0.0521  0.4896
 4075SOL     OW23857   0.569   0.669  15.498 -0.3797  0.2306 -0.2114
 4075SOL    HW123858   0.509   0.672  15.573  1.6354  3.1363  1.2847
 4075SOL    HW223859   0.568   0.763  15.481 -0.3211  0.6575  2.1815
 4076SOL     OW23860   0.471   1.576   9.270  0.4429 -0.2742  0.4350
 4076SOL    HW123861   0.538   1.550   9.207 -0.6347  0.8499 -1.1805
 4076SOL    HW223862   0.524   1.631   9.328 -1.4034  1.1910  0.7319
 4077SOL     OW23863   3.988   1.807  15.065  0.1989 -0.4211 -0.2018
 4077SOL    HW123864   4.048   1.860  15.118  1.6700 -1.9434 -0.3362
 4077SOL    HW223865   3.909   1.810  15.118  0.8844 -1.8342  0.9117
 4078SOL     OW23866   0.139   2.177  14.719  0.1832  0.5734 -0.1066
 4078SOL    HW123867   0.188   2.259  14.720 -2.6439  2.2893 -0.9193
 4078SOL    HW223868   0.145   2.145  14.629 -4.2153 -1.6073  0.3510
 4079SOL     OW23869   1.806   1.621   2.417 -0.0638  0.7129 -0.6922
 4079SOL    HW123870   1.780   1.670   2.495 -0.1563  0.4627 -0.5665
 4079SOL    HW223871   1.760   1.539   2.433  1.1350 -0.0686 -1.2146
 4080SOL     OW23872   1.848   1.647   7.930  0.2357 -0.0748 -0.0269
 4080SOL    HW123873   1.932   1.694   7.925 -0.2445  0.8176  0.3669
 4080SOL    HW223874   1.813   1.650   8.019 -2.4098  2.4920 -1.1602
 4081SOL     OW23875   2.290   0.249  14.874 -0.5827  0.0871  0.3891
 4081SOL    HW123876   2.257   0.309  14.807  1.3457  0.8605  0.1219
 4081SOL    HW223877   2.291   0.299  14.956  0.9380  0.6198  0.0449
 4082SOL     OW23878   2.276   1.575  13.185  0.9396  0.3513  0.0687
 4082SOL    HW123879   2.199   1.621  13.218  0.5953 -0.1425 -0.0546
 4082SOL    HW223880   2.261   1.588  13.091  1.0998  0.5949  0.0764
 4083SOL     OW23881   1.973   2.266   6.541  0.3208 -0.0127  0.4193
 4083SOL    HW123882   2.063   2.297   6.535  0.1160  0.2907 -1.0297
 4083SOL    HW223883   1.987   2.172   6.530  1.9442  0.2827 -0.0067
 4084SOL     OW23884   4.329   3.184  15.109  0.1636 -0.1555  0.0472
 4084SOL    HW123885   4.287   3.188  15.023  2.6780  3.7886 -1.0233
 4084SOL    HW223886   4.254   3.207  15.163 -0.4220  2.6797 -1.9706
 4085SOL     OW23887   3.917   2.199   7.868  0.6880 -0.0332 -0.4638
 4085SOL    HW123888   3.904   2.166   7.957 -1.5055 -0.6778 -1.0088
 4085SOL    HW223889   3.985   2.145   7.828  2.1742  1.5102 -0.0103
 4086SOL     OW23890   3.218   1.951   4.171  0.4986 -0.1078  0.3071
 4086SOL    HW123891   3.177   1.964   4.257  0.8631 -1.4186  0.6792
 4086SOL    HW223892   3.290   2.015   4.173  0.3301 -0.0033  3.6557
 4087SOL     OW23893   2.855   2.509   4.877 -0.1704  0.3049 -0.7791
 4087SOL    HW123894   2.912   2.529   4.802 -0.0497  0.9922 -0.5027
 4087SOL    HW223895   2.842   2.601   4.899  1.9374  0.4379 -0.0341
 4088SOL     OW23896   1.466   3.290   5.432 -0.1710  0.3193 -0.4717
 4088SOL    HW123897   1.536   3.336   5.478  0.0522  0.3551 -0.8511
 4088SOL    HW223898   1.505   3.261   5.350  0.2734 -1.8200  0.4936
 4089SOL     OW23899   2.952   1.567   6.888  0.1074 -0.0987 -0.1462
 4089SOL    HW123900   3.011   1.603   6.822 -1.3159 -1.2052 -2.0126
 4089SOL    HW223901   2.952   1.476   6.860  0.2709  0.5797 -2.3647
 4090SOL     OW23902   3.795   0.377   5.824 -0.5444 -0.2126 -0.8981
 4090SOL    HW123903   3.775   0.310   5.759 -0.2636 -0.9581 -0.2143
 4090SOL    HW223904   3.884   0.353   5.849 -0.9485  0.5995  1.3132
 4091SOL     OW23905   2.115   1.315   2.977 -0.4184 -0.0424  0.0328
 4091SOL    HW123906   2.065   1.391   2.949 -3.0887 -1.4258  1.0414
 4091SOL    HW223907   2.135   1.340   3.067  1.5599 -1.2942 -0.0571
 4092SOL     OW23908   0.908   3.107   5.265 -0.0599  0.0821 -0.6405
 4092SOL    HW123909   0.929   3.188   5.219  0.1233  0.3677 -0.0631
 4092SOL    HW223910   0.948   3.039   5.211  2.1896  0.7366  0.1773
 4093SOL     OW23911   2.465   2.208   6.519 -0.7039 -0.0319  0.1866
 4093SOL    HW123912   2.381   2.250   6.500 -0.2220  1.7321  1.9389
 4093SOL    HW223913   2.475   2.163   6.435  1.5272  2.3438 -0.8346
 4094SOL     OW23914   4.579   1.734   8.852  0.6856 -0.4654 -0.4126
 4094SOL    HW123915   4.662   1.696   8.881  0.3857 -1.5440 -0.9643
 4094SOL    HW223916   4.605   1.756   8.763  1.8310  3.1859  0.8128
 4095SOL     OW23917   3.932   3.275   8.305  0.1297  0.3182 -0.6521
 4095SOL    HW123918   3.967   3.190   8.279 -0.9273 -0.1882 -0.4477
 4095SOL    HW223919   3.839   3.266   8.281 -0.5011  3.0584  0.7406
 4096SOL     OW23920   1.427   2.143   7.300  0.1798  0.0473  0.0268
 4096SOL    HW123921   1.482   2.196   7.242  0.6316 -0.0605  0.3587
 4096SOL    HW223922   1.447   2.054   7.272  0.9206  0.9982 -2.4557
 4097SOL     OW23923   1.655   1.041  14.647  0.2524 -0.7166  0.0096
 4097SOL    HW123924   1.650   1.106  14.716  1.3979  0.6326 -1.1956
 4097SOL    HW223925   1.609   0.963  14.679  3.3582 -1.8235  1.7867
 4098SOL     OW23926   0.641   1.514   5.584  0.0084  0.0177 -0.1914
 4098SOL    HW123927   0.656   1.423   5.609  0.3981 -0.0274 -0.5847
 4098SOL    HW223928   0.723   1.561   5.598 -0.5456  1.3871 -1.5115
 4099SOL     OW23929   2.695   4.222  17.681  0.0689  0.1363  0.1870
 4099SOL    HW123930   2.732   4.173   0.005 -0.5602  2.4004  2.0618
 4099SOL    HW223931   2.779   4.250  17.647 -0.6816  0.7382 -1.1655
 4100SOL     OW23932   1.947   4.033   2.144 -0.2129  0.4245 -0.1060
 4100SOL    HW123933   1.930   4.086   2.067 -2.6184 -0.2939 -0.0849
 4100SOL    HW223934   1.913   4.089   2.214  1.6060 -0.8690  1.8413
 4101SOL     OW23935   1.629   2.388   4.373 -0.3100  0.3547  0.3223
 4101SOL    HW123936   1.708   2.369   4.424 -0.0499 -0.7309 -0.4658
 4101SOL    HW223937   1.640   2.316   4.310  1.0927  1.3846 -0.6177
 4102SOL     OW23938   1.512   4.428   5.395 -0.3731 -0.1637  0.1453
 4102SOL    HW123939   1.493   4.335   5.379  0.1279 -0.2530  0.0434
 4102SOL    HW223940   1.453   4.445   5.468 -2.1295  1.1078 -1.5703
 4103SOL     OW23941   1.132   3.498  12.327 -0.5099  0.8330  0.9205
 4103SOL    HW123942   1.116   3.487  12.233  0.3245  1.4223  0.7134
 4103SOL    HW223943   1.158   3.590  12.329  0.8297  0.4719 -0.0278
 4104SOL     OW23944   4.685   3.286  13.152 -0.6778  0.2663  0.2390
 4104SOL    HW123945   4.594   3.265  13.171 -0.9925  1.4559  0.0938
 4104SOL    HW223946   4.715   3.302  13.241  0.8656 -1.8266  0.0951
 4105SOL     OW23947   3.885   0.888   6.902  0.3061 -0.5497  0.4859
 4105SOL    HW123948   3.920   0.881   6.991  1.4496  0.1010  0.0934
 4105SOL    HW223949   3.901   0.982   6.898  0.1913 -0.4554  2.3575
 4106SOL     OW23950   3.658   2.523  17.730  0.2162 -0.0440 -0.0559
 4106SOL    HW123951   3.618   2.560  17.651  0.1172 -0.4046 -0.1755
 4106SOL    HW223952   3.648   2.596   0.043 -1.1027 -1.0391  0.9033
 4107SOL     OW23953   4.134   1.498   5.563 -0.9091 -0.2699  0.3092
 4107SOL    HW123954   4.161   1.504   5.654  1.8484  3.5214 -0.7401
 4107SOL    HW223955   4.044   1.466   5.569 -0.5588 -0.6890  3.0866
 4108SOL     OW23956   4.001   2.928   1.329 -0.2211 -0.1560  0.3965
 4108SOL    HW123957   3.980   2.842   1.293 -1.7875  0.9424 -1.3028
 4108SOL    HW223958   4.070   2.950   1.267 -0.9709 -1.7932 -1.0183
 4109SOL     OW23959   0.095   2.650   2.465  0.6711 -0.4798  0.1420
 4109SOL    HW123960   0.081   2.736   2.426 -2.5643  0.0765  2.5593
 4109SOL    HW223961   0.009   2.617   2.440  0.1189  0.0561  1.3222
 4110SOL     OW23962   1.126   3.438   6.696 -0.0433 -0.1806 -0.3472
 4110SOL    HW123963   1.182   3.485   6.757 -1.3752  1.7941 -0.6501
 4110SOL    HW223964   1.189   3.368   6.679  0.4653  0.3875 -0.8033
 4111SOL     OW23965   3.604   2.945  12.983  0.2667 -0.6091 -0.1442
 4111SOL    HW123966   3.521   2.968  13.025  1.5737  1.0560  1.5434
 4111SOL    HW223967   3.596   3.018  12.922 -0.0783 -0.0362  0.5764
 4112SOL     OW23968   4.651   2.896  14.805  0.4374  0.2473  0.2250
 4112SOL    HW123969   4.614   2.878  14.892  2.6442  0.4086  1.1791
 4112SOL    HW223970   4.638   2.991  14.800  2.5631  0.5571  0.4944
 4113SOL     OW23971   2.662   4.525   5.718 -0.0546  0.0380 -0.2722
 4113SOL    HW123972   2.702   4.530   5.631  0.7262 -2.5083 -0.0519
 4113SOL    HW223973   2.704   4.454   5.765 -2.3250 -0.7862  0.5163
 4114SOL     OW23974   3.814   3.124   5.106  0.1427  0.0606 -0.3029
 4114SOL    HW123975   3.817   3.137   5.201 -1.4851 -0.4582 -0.1671
 4114SOL    HW223976   3.727   3.154   5.079 -0.8041 -0.7659  1.8140
 4115SOL     OW23977   0.797   0.632  10.951 -0.0350 -0.4162 -0.1909
 4115SOL    HW123978   0.804   0.638  10.856 -0.5120  0.4527 -0.1675
 4115SOL    HW223979   0.760   0.544  10.964  0.1943 -0.1654  2.1510
 4116SOL     OW23980   1.548   4.597   9.419 -0.1714  0.4005  0.2082
 4116SOL    HW123981   1.633   4.557   9.400 -0.3983  0.6488 -1.3895
 4116SOL    HW223982   1.517   4.533   9.483 -0.9130 -0.5058 -1.0544
 4117SOL     OW23983   4.156   4.257  16.645 -0.7493 -0.5026 -0.1200
 4117SOL    HW123984   4.223   4.321  16.620  1.7401 -3.0719 -0.0132
 4117SOL    HW223985   4.213   4.181  16.657  0.3672  0.1849 -1.0339
 4118SOL     OW23986   1.737   3.212  15.628  0.2305  0.2721 -0.2875
 4118SOL    HW123987   1.712   3.303  15.648  0.4873  0.2538  0.1211
 4118SOL    HW223988   1.649   3.180  15.649 -0.4174  0.5532 -2.5847
 4119SOL     OW23989   1.549   1.764   8.525  0.4199  0.4586  0.1847
 4119SOL    HW123990   1.570   1.690   8.468 -1.2375  0.8843 -0.9664
 4119SOL    HW223991   1.578   1.744   8.614  2.4615 -2.0249 -1.0268
 4120SOL     OW23992   2.624   2.662   2.595  0.2787  0.3388 -0.1429
 4120SOL    HW123993   2.698   2.703   2.550  1.7440 -0.6100  1.3871
 4120SOL    HW223994   2.638   2.667   2.690  0.7416  0.8428 -0.2332
 4121SOL     OW23995   2.954   4.239   6.876  0.4612  0.4601  0.0146
 4121SOL    HW123996   2.907   4.195   6.805  3.4552 -1.1097 -1.0350
 4121SOL    HW223997   2.891   4.240   6.947 -3.1431 -0.0490 -3.1640
 4122SOL     OW23998   1.583   1.095  14.387 -0.5961 -0.0778  0.3210
 4122SOL    HW123999   1.668   1.051  14.380 -0.4261 -0.0552  2.4282
 4122SOL    HW224000   1.589   1.117  14.480  1.3739 -0.6391  0.3153
 4123SOL     OW24001   0.862   1.624   1.220  0.2056 -0.3599  0.1758
 4123SOL    HW124002   0.865   1.672   1.138  0.6139  0.4172  0.6357
 4123SOL    HW224003   0.826   1.539   1.197  1.3892 -1.6781  3.1639
 4124SOL     OW24004   2.065   3.804  12.222 -0.8260 -0.5112  0.1817
 4124SOL    HW124005   1.984   3.755  12.207 -0.2293 -1.4565  0.0131
 4124SOL    HW224006   2.042   3.897  12.229  1.7015  0.0182  1.6104
 4125SOL     OW24007   3.243   4.622   2.169 -0.1469 -0.4018  0.0792
 4125SOL    HW124008   3.324   4.674   2.163  0.8133 -1.9162 -0.0284
 4125SOL    HW224009   3.239   4.615   2.265 -1.3413 -2.8070 -0.1631
 4126SOL     OW24010   0.728   0.534   8.625 -0.1670 -0.4295 -0.1259
 4126SOL    HW124011   0.746   0.525   8.718  0.3630  0.3585 -0.1456
 4126SOL    HW224012   0.808   0.514   8.576 -0.1084  2.8244 -1.3881
 4127SOL     OW24013   0.439   0.014   9.456  0.1983 -0.2346 -0.3592
 4127SOL    HW124014   0.379   4.696   9.406  0.2655  0.0402 -0.7458
 4127SOL    HW224015   0.513   4.734   9.397 -0.6047  0.7156 -1.6616
 4128SOL     OW24016   0.627   0.922   2.734  0.1882  0.0248  0.3232
 4128SOL    HW124017   0.611   0.867   2.811 -1.5478 -0.8889 -0.6987
 4128SOL    HW224018   0.711   0.954   2.766  0.8915 -0.7942 -0.7062
 4129SOL     OW24019   3.992   1.249   3.042  0.1812 -0.2242 -0.1393
 4129SOL    HW124020   3.953   1.284   3.122 -1.6523 -1.7972 -0.3407
 4129SOL    HW224021   3.912   1.219   2.998 -0.3016 -2.0640  1.9948
 4130SOL     OW24022   0.412   1.928   8.686 -0.4171 -0.0266 -0.1655
 4130SOL    HW124023   0.411   1.853   8.745 -1.3773 -1.2249 -1.7156
 4130SOL    HW224024   0.483   1.907   8.625 -2.2775 -0.1491 -2.2795
 4131SOL     OW24025   1.936   2.144   6.212  0.3938 -0.5686 -0.2361
 4131SOL    HW124026   1.929   2.134   6.117  0.5061  0.3915 -0.3425
 4131SOL    HW224027   2.023   2.107   6.228  0.2289 -0.0511  1.7927
 4132SOL     OW24028   1.135   0.140   8.266 -0.5147 -0.1786  0.9260
 4132SOL    HW124029   1.066   0.187   8.312 -0.3365  2.9896 -2.0355
 4132SOL    HW224030   1.084   0.082   8.209  0.5232 -1.5379  1.3819
 4133SOL     OW24031   0.398   2.625   9.102  0.3498  0.2196  0.0899
 4133SOL    HW124032   0.408   2.535   9.068  0.3184  0.0640  0.4938
 4133SOL    HW224033   0.402   2.679   9.023 -0.2922  0.6855  0.3824
 4134SOL     OW24034   0.495   1.344   7.080  0.1216 -0.6303 -0.7933
 4134SOL    HW124035   0.524   1.432   7.054 -0.3746 -0.6206 -1.3205
 4134SOL    HW224036   0.581   1.305   7.069  0.3770 -0.0915 -0.7085
 4135SOL     OW24037   2.591   2.104  16.761 -0.3556  0.1979  0.6697
 4135SOL    HW124038   2.616   2.107  16.854  0.5269  0.1610  0.4325
 4135SOL    HW224039   2.671   2.057  16.740  0.4497  1.9244 -0.1323
 4136SOL     OW24040   4.531   1.522   7.231  0.0848 -0.5254 -0.1640
 4136SOL    HW124041   4.440   1.493   7.231 -0.9664  2.8580 -1.6329
 4136SOL    HW224042   4.534   1.563   7.318 -0.3133 -3.0987  1.0715
 4137SOL     OW24043   4.081   3.473   2.827  0.0085  0.2763 -0.0554
 4137SOL    HW124044   4.133   3.394   2.847  0.4447  0.2575 -1.2526
 4137SOL    HW224045   4.019   3.437   2.764  0.4589  1.2193 -1.0268
 4138SOL     OW24046   3.240   2.022   6.917 -0.4758  0.0040 -0.0135
 4138SOL    HW124047   3.244   2.112   6.951 -0.5555 -0.3661  0.9559
 4138SOL    HW224048   3.166   2.013   6.857  0.4090  2.0510 -1.4296
 4139SOL     OW24049   2.023   4.551  15.179 -0.2525 -0.6434  0.7582
 4139SOL    HW124050   2.079   4.622  15.209 -1.2489  0.5765 -0.2769
 4139SOL    HW224051   2.024   4.555  15.083 -0.3662 -3.9887  0.6172
 4140SOL     OW24052   1.884   3.035   4.897  0.0312 -0.0345 -0.1051
 4140SOL    HW124053   1.888   3.093   4.973 -3.4001 -1.4269  1.0929
 4140SOL    HW224054   1.790   3.018   4.895  0.0234 -0.0804  0.5810
 4141SOL     OW24055   1.694   0.665  15.429  0.1353 -0.0695  0.1424
 4141SOL    HW124056   1.749   0.682  15.505 -0.4690  0.6017  0.4325
 4141SOL    HW224057   1.615   0.628  15.470 -0.9339 -0.3659 -2.2157
 4142SOL     OW24058   2.511   1.881   1.591 -0.3206  0.1122  0.7951
 4142SOL    HW124059   2.597   1.842   1.578 -0.9583 -1.3391  0.9393
 4142SOL    HW224060   2.505   1.948   1.524  2.9616 -0.2350  0.1600
 4143SOL     OW24061   3.799   1.981   0.761  0.0235  0.5177  0.5609
 4143SOL    HW124062   3.802   2.005   0.854  0.5167 -2.3318  1.2802
 4143SOL    HW224063   3.708   2.000   0.741  0.4388  0.9291 -0.9838
 4144SOL     OW24064   0.309   4.303   2.335  0.0319 -0.2211 -0.5263
 4144SOL    HW124065   0.245   4.367   2.367 -0.5306  0.1440 -2.3792
 4144SOL    HW224066   0.384   4.361   2.331  1.5304 -2.2230 -1.2885
 4145SOL     OW24067   0.172   4.316   4.225  0.0467 -0.2987 -0.0442
 4145SOL    HW124068   0.168   4.232   4.270  1.4136  0.6603  1.8879
 4145SOL    HW224069   0.266   4.315   4.207 -0.1122  2.0599 -1.0517
 4146SOL     OW24070   3.532   2.294   5.925 -0.5678  0.4798 -0.0966
 4146SOL    HW124071   3.585   2.308   5.846  1.3038  0.2273  1.1183
 4146SOL    HW224072   3.510   2.203   5.905  1.8222  0.1971 -1.5538
 4147SOL     OW24073   3.869   1.970   2.726  0.0307  0.1507  0.2509
 4147SOL    HW124074   3.906   1.990   2.640 -0.5031 -0.6986 -0.1791
 4147SOL    HW224075   3.841   1.879   2.714 -1.2594  0.6128 -0.2625
 4148SOL     OW24076   3.470   1.314   4.148  0.2057  0.0034  0.1085
 4148SOL    HW124077   3.454   1.408   4.140 -0.8876  0.0171  2.6202
 4148SOL    HW224078   3.484   1.293   4.055 -2.6849 -1.6621  0.0578
 4149SOL     OW24079   4.423   0.451   6.725  0.9867  0.3309 -0.0622
 4149SOL    HW124080   4.507   0.453   6.679  1.4122 -1.6865  0.6229
 4149SOL    HW224081   4.432   0.510   6.799  1.9849 -0.9749  0.8473
 4150SOL     OW24082   1.590   2.476   3.996 -0.0748  0.2752  0.1231
 4150SOL    HW124083   1.562   2.426   4.072 -2.3912 -0.2374 -1.0634
 4150SOL    HW224084   1.681   2.502   4.014 -0.8248  2.6622  0.3950
 4151SOL     OW24085   0.393   4.340  10.051 -0.2895  0.0814 -0.1375
 4151SOL    HW124086   0.385   4.435  10.052  1.4754  0.2417 -1.1790
 4151SOL    HW224087   0.314   4.308  10.095  0.6033 -1.8537  0.0758
 4152SOL     OW24088   2.966   2.495   7.606  0.4039 -0.7584  0.1534
 4152SOL    HW124089   2.981   2.557   7.676  2.0395  0.4509 -1.2690
 4152SOL    HW224090   2.967   2.414   7.658 -0.3869  1.1113  3.0094
 4153SOL     OW24091   1.566   0.729  14.028  0.1572 -0.1069  0.2579
 4153SOL    HW124092   1.589   0.741  14.120  0.5914  1.5677 -0.0749
 4153SOL    HW224093   1.646   0.770  13.996 -0.9429  1.8064 -0.0518
 4154SOL     OW24094   0.248   4.445   2.664 -0.1342  0.1218 -0.2019
 4154SOL    HW124095   0.171   4.395   2.692 -0.1326  0.1066 -0.2252
 4154SOL    HW224096   0.201   4.519   2.625  2.0914  1.5733 -0.1360
 4155SOL     OW24097   4.020   0.422   5.442 -0.2693  0.3086  0.0850
 4155SOL    HW124098   4.020   0.426   5.347 -1.8241 -0.8948  0.0276
 4155SOL    HW224099   4.038   0.330   5.460  2.0245  0.6915 -0.3565
 4156SOL     OW24100   0.447   2.694  10.223  0.3494 -0.0766  0.3631
 4156SOL    HW124101   0.464   2.665  10.312 -0.2017 -0.1202  0.4551
 4156SOL    HW224102   0.354   2.714  10.235 -0.2738 -2.6612 -0.2482
 4157SOL     OW24103   1.521   1.947   5.630  0.0475 -0.0103  0.3419
 4157SOL    HW124104   1.581   2.016   5.601  0.5245 -0.8167 -0.6005
 4157SOL    HW224105   1.549   1.916   5.716 -0.4334 -2.2604 -0.3189
 4158SOL     OW24106   3.592   3.681   7.161 -0.5845 -0.0270 -0.3619
 4158SOL    HW124107   3.606   3.679   7.256  1.1297 -0.9455 -0.6337
 4158SOL    HW224108   3.612   3.774   7.152  2.4418 -0.6070  0.3688
 4159SOL     OW24109   1.271   2.871   9.317 -0.4144  0.2675 -0.0779
 4159SOL    HW124110   1.357   2.893   9.280  1.2211 -3.0862  1.7684
 4159SOL    HW224111   1.282   2.776   9.319  1.7201  0.5205 -0.2230
 4160SOL     OW24112   0.556   1.667   3.956  0.4405  0.0812  0.0689
 4160SOL    HW124113   0.542   1.659   3.862  0.8384  0.3224 -0.0085
 4160SOL    HW224114   0.465   1.692   3.977  0.1350 -1.0579  0.0645
 4161SOL     OW24115   3.398   2.415   7.876 -0.9337 -0.7714 -0.1085
 4161SOL    HW124116   3.435   2.495   7.914  0.8953 -1.7198  0.1380
 4161SOL    HW224117   3.430   2.346   7.935 -3.9388 -0.5841  1.7610
 4162SOL     OW24118   3.704   2.946  13.228  0.1092  0.0705  0.6017
 4162SOL    HW124119   3.657   2.943  13.144  1.2996  0.5934 -0.0822
 4162SOL    HW224120   3.794   2.958  13.198 -0.0106 -3.0428 -1.0087
 4163SOL     OW24121   4.551   2.083   9.236 -0.3776  0.1102  0.1152
 4163SOL    HW124122   4.506   2.014   9.187  0.3007  0.9613 -1.6982
 4163SOL    HW224123   4.537   2.157   9.177 -2.0665  0.9410  1.5315
 4164SOL     OW24124   2.345   2.278  12.695  0.1436  0.7048 -0.1362
 4164SOL    HW124125   2.276   2.211  12.703  1.1418 -0.5433 -1.8881
 4164SOL    HW224126   2.362   2.290  12.788  2.9672  2.8890 -0.9453
 4165SOL     OW24127   3.572   3.381   5.059 -0.1425 -0.0106  0.3737
 4165SOL    HW124128   3.480   3.392   5.035 -0.8525 -2.0543  2.2034
 4165SOL    HW224129   3.608   3.312   5.004  0.0308 -0.6840  1.3353
 4166SOL     OW24130   3.744   1.351   8.525  0.0825  0.3551  0.2149
 4166SOL    HW124131   3.714   1.267   8.492 -0.0263  0.0260  1.1506
 4166SOL    HW224132   3.662   1.385   8.560 -0.5252 -0.7692 -0.1182
 4167SOL     OW24133   0.437   2.641   3.640  0.0258 -0.2226  0.0536
 4167SOL    HW124134   0.345   2.664   3.627 -0.0267 -0.4714 -0.0110
 4167SOL    HW224135   0.424   2.569   3.701  0.4439 -1.2596 -1.0774
 4168SOL     OW24136   0.488   1.763  16.569  0.5572  0.2792  0.0143
 4168SOL    HW124137   0.565   1.718  16.536  0.5674  0.1967  0.1472
 4168SOL    HW224138   0.418   1.735  16.509 -0.4705  2.9866 -0.0725
 4169SOL     OW24139   0.455   1.168   1.852  0.0253  0.0227 -0.0604
 4169SOL    HW124140   0.483   1.111   1.781 -1.3174  0.6537 -1.0963
 4169SOL    HW224141   0.397   1.111   1.904  0.0579  1.2102  1.2579
 4170SOL     OW24142   1.507   0.421   3.669 -0.0497 -0.6368  0.1059
 4170SOL    HW124143   1.582   0.405   3.611  0.2774 -0.2882  0.4326
 4170SOL    HW224144   1.550   0.488   3.722 -3.5918  0.5573  1.4752
 4171SOL     OW24145   4.278   1.415   2.350  0.6995  0.6062  0.5394
 4171SOL    HW124146   4.317   1.492   2.391 -1.9201  0.3589  3.4768
 4171SOL    HW224147   4.297   1.341   2.407 -1.9191  0.6575  1.4965
 4172SOL     OW24148   0.781   1.011  11.010 -0.3383  0.1429  0.3111
 4172SOL    HW124149   0.729   0.942  10.968 -1.4378  0.7469  0.6614
 4172SOL    HW224150   0.728   1.022  11.089 -2.9265 -1.7165 -1.1436
 4173SOL     OW24151   1.294   4.120   5.977  0.2030 -0.3310  0.3734
 4173SOL    HW124152   1.285   4.176   5.900  1.2587 -1.1792 -0.3703
 4173SOL    HW224153   1.304   4.184   6.047  0.5800 -1.1954  1.1039
 4174SOL     OW24154   0.177   1.853  15.071  0.6395  0.0337 -1.2514
 4174SOL    HW124155   0.160   1.936  15.027  1.0851  2.0948  2.4426
 4174SOL    HW224156   0.087   1.837  15.097  0.1069  3.4965 -0.9855
 4175SOL     OW24157   0.640   1.126   7.566  0.0894 -0.6483  0.2881
 4175SOL    HW124158   0.624   1.036   7.536 -1.2837 -0.7177  1.2435
 4175SOL    HW224159   0.590   1.173   7.499 -0.8839 -1.8354  0.1728
 4176SOL     OW24160   3.938   1.783   1.794 -0.9674 -0.5323 -0.4689
 4176SOL    HW124161   3.855   1.824   1.814  0.0359  0.3236  1.9038
 4176SOL    HW224162   4.004   1.837   1.838 -1.4682 -1.4545  1.3966
 4177SOL     OW24163   4.509   2.403   1.713 -0.5611 -0.5197 -0.2020
 4177SOL    HW124164   4.535   2.470   1.650 -2.2344  0.8498  0.5650
 4177SOL    HW224165   4.474   2.466   1.776 -0.6849  0.1121 -0.9045
 4178SOL     OW24166   0.152   0.921   9.331 -0.4397  0.2895 -0.0086
 4178SOL    HW124167   0.114   0.965   9.407 -2.4567  0.8871 -1.3755
 4178SOL    HW224168   0.230   0.975   9.315 -0.3317  0.1526  0.0536
 4179SOL     OW24169   0.761   4.393   5.410  0.4962 -0.2337 -0.3730
 4179SOL    HW124170   0.734   4.306   5.438  1.1426 -0.0638  0.7611
 4179SOL    HW224171   0.700   4.408   5.338  1.8987  0.0083 -1.5067
 4180SOL     OW24172   3.115   1.287  11.287  0.4424 -0.3637  0.3247
 4180SOL    HW124173   3.061   1.226  11.238  0.7776  0.7759 -1.4712
 4180SOL    HW224174   3.114   1.357  11.222 -0.6778 -0.1115  0.6191
 4181SOL     OW24175   4.238   2.603  17.030 -0.4673 -0.4708 -0.3146
 4181SOL    HW124176   4.252   2.572  16.941  0.0595  0.7218 -0.6561
 4181SOL    HW224177   4.331   2.607  17.055 -0.4077  3.5054 -1.2079
 4182SOL     OW24178   4.251   2.383   8.143  0.5577  0.1353  0.3975
 4182SOL    HW124179   4.302   2.304   8.163 -1.4486 -1.2609  0.0344
 4182SOL    HW224180   4.319   2.449   8.134  0.1619  0.2882 -1.4973
 4183SOL     OW24181   3.500   4.568  10.454 -0.2997 -0.1683 -1.0675
 4183SOL    HW124182   3.412   4.529  10.458 -0.7489  0.6215 -3.2476
 4183SOL    HW224183   3.507   4.595  10.546  0.2059  1.5367 -1.6007
 4184SOL     OW24184   2.794   4.029   5.763 -0.1553 -0.2220  0.1679
 4184SOL    HW124185   2.754   4.081   5.833 -1.0495  1.1705 -1.3849
 4184SOL    HW224186   2.719   3.989   5.720 -0.5765  1.1372 -0.3828
 4185SOL     OW24187   4.268   3.390   9.460  0.6491  0.1539 -0.1938
 4185SOL    HW124188   4.182   3.407   9.423 -0.2281  1.8591  2.6912
 4185SOL    HW224189   4.248   3.355   9.547 -0.6509  0.7265 -0.2684
 4186SOL     OW24190   0.792   0.228   5.521  0.0777 -0.4154 -0.2861
 4186SOL    HW124191   0.785   0.150   5.575  1.0609 -0.0191  0.4377
 4186SOL    HW224192   0.888   0.232   5.524  0.0394  0.4628 -0.2174
 4187SOL     OW24193   4.534   3.069   3.310 -0.4073  0.6156  0.0873
 4187SOL    HW124194   4.492   3.043   3.392  2.4125  1.1892  1.7567
 4187SOL    HW224195   4.475   3.032   3.245  0.3347 -1.5685  0.6500
 4188SOL     OW24196   4.176   3.329   6.388 -0.4419 -0.0505  0.4411
 4188SOL    HW124197   4.156   3.265   6.320 -0.8981 -1.0923  1.5588
 4188SOL    HW224198   4.091   3.371   6.400 -0.0049  1.0507 -0.2545
 4189SOL     OW24199   2.142   3.160   7.694  0.0650 -0.5560  0.4261
 4189SOL    HW124200   2.061   3.133   7.652  0.0005 -1.0464  0.8635
 4189SOL    HW224201   2.172   3.217   7.624  1.0752  1.6159  2.6303
 4190SOL     OW24202   3.373   2.963  15.161 -0.0847 -0.4805 -0.5746
 4190SOL    HW124203   3.322   2.889  15.196  0.7820 -0.6529  0.3130
 4190SOL    HW224204   3.335   3.042  15.199  0.5368 -1.1255  1.3935
 4191SOL     OW24205   4.225   4.158   3.767  0.2505  0.1608  0.1764
 4191SOL    HW124206   4.169   4.096   3.812  1.0422  0.6732  1.8657
 4191SOL    HW224207   4.262   4.103   3.697 -0.2016 -2.3324  1.9070
 4192SOL     OW24208   2.965   1.923   3.654  0.5561 -0.3573  0.1649
 4192SOL    HW124209   3.045   1.886   3.616  1.8807  1.3192  1.3023
 4192SOL    HW224210   2.973   1.902   3.747  1.9046 -0.4461  0.0357
 4193SOL     OW24211   0.631   2.700   0.247  0.0152  0.0217 -0.0095
 4193SOL    HW124212   0.600   2.666   0.330  0.5533 -0.5559 -0.0467
 4193SOL    HW224213   0.602   2.631   0.187  0.7952  0.4965 -0.9394
 4194SOL     OW24214   4.651   0.899  15.365  0.5892 -0.4180  0.0410
 4194SOL    HW124215   4.638   0.831  15.431  1.0904 -1.1827 -0.6514
 4194SOL    HW224216   4.613   0.860  15.287 -0.2263  1.7695 -0.6505
 4195SOL     OW24217   2.093   2.512  17.592  0.7946 -0.2349  0.1010
 4195SOL    HW124218   2.105   2.470  17.678  0.4722  2.0042  1.2592
 4195SOL    HW224219   2.160   2.581  17.599  0.1235  0.4511 -0.3141
 4196SOL     OW24220   3.387   2.678   1.826  0.0864 -0.4777 -0.3868
 4196SOL    HW124221   3.404   2.729   1.905  0.8088 -0.5885 -0.4761
 4196SOL    HW224222   3.314   2.627   1.861 -0.5086  0.2167 -0.5889
 4197SOL     OW24223   3.001   0.617  12.697 -0.3620  0.3871  0.3639
 4197SOL    HW124224   3.062   0.678  12.740  1.3246 -0.1881 -1.1935
 4197SOL    HW224225   2.984   0.554  12.767  1.8964 -0.7794 -0.1451
 4198SOL     OW24226   0.997   2.589   5.880 -0.1808  0.5180 -0.4993
 4198SOL    HW124227   0.925   2.550   5.929 -0.6090  1.2793 -0.5237
 4198SOL    HW224228   0.974   2.570   5.789 -0.5710  2.9823 -0.9236
 4199SOL     OW24229   0.648   0.745   8.394  0.8658 -0.0958 -0.0030
 4199SOL    HW124230   0.561   0.786   8.402  0.8029  0.1253 -1.6628
 4199SOL    HW224231   0.646   0.674   8.458  0.3131 -1.2997 -1.3333
 4200SOL     OW24232   3.938   1.558   5.146  0.2861  0.2222 -0.0847
 4200SOL    HW124233   3.923   1.648   5.118  1.5101  0.8571  1.2988
 4200SOL    HW224234   3.916   1.565   5.239 -2.0084  1.1224 -0.6810
 4201SOL     OW24235   1.905   3.125   5.171  0.3696  0.0593 -0.1748
 4201SOL    HW124236   1.882   3.039   5.207 -2.1608  0.9040  0.2193
 4201SOL    HW224237   1.828   3.174   5.201  0.4354 -0.1926  0.4062
 4202SOL     OW24238   0.365   0.586   2.871  0.1361 -0.4459  0.4947
 4202SOL    HW124239   0.446   0.556   2.831  0.0061 -0.0999 -0.0355
 4202SOL    HW224240   0.331   0.508   2.915  0.1283  0.2783  1.7664
 4203SOL     OW24241   0.798   1.573  10.545 -0.1586 -0.0533 -0.2484
 4203SOL    HW124242   0.833   1.499  10.595 -1.2607 -1.2923 -1.2905
 4203SOL    HW224243   0.714   1.532  10.524  0.3336 -0.4739 -1.4309
 4204SOL     OW24244   3.773   3.441  16.246 -0.0004 -0.7743 -0.5888
 4204SOL    HW124245   3.852   3.411  16.201  0.0856 -1.2022 -0.1548
 4204SOL    HW224246   3.725   3.459  16.165  0.3817 -0.7498 -0.8105
 4205SOL     OW24247   4.431   1.006   8.312  0.0909 -0.1671 -0.0494
 4205SOL    HW124248   4.408   1.051   8.231 -0.2791  0.6624  0.5178
 4205SOL    HW224249   4.521   1.036   8.325  0.0056  0.8182 -1.7389
 4206SOL     OW24250   3.024   0.548   6.408  0.6397 -0.4708  0.0001
 4206SOL    HW124251   3.055   0.496   6.334  1.8442 -0.6482  0.6296
 4206SOL    HW224252   3.055   0.632   6.372 -0.6563  0.6845  1.5589
 4207SOL     OW24253   2.228   1.072   4.458 -0.3639  0.0376 -0.4429
 4207SOL    HW124254   2.227   1.039   4.368  0.9726 -0.1965 -0.3657
 4207SOL    HW224255   2.194   1.161   4.449  0.2934  0.2537 -0.7744
 4208SOL     OW24256   0.411   4.530   2.219 -0.3254  0.4071  0.0384
 4208SOL    HW124257   0.330   4.581   2.211  0.1983  1.4536  1.4197
 4208SOL    HW224258   0.463   4.596   2.266  2.3141 -2.0149  0.5477
 4209SOL     OW24259   2.083   4.729   0.276 -0.6885 -0.1947 -0.5261
 4209SOL    HW124260   2.114   4.640   0.262  1.7379  0.3155  1.6015
 4209SOL    HW224261   2.137   0.039   0.212 -2.2879  1.9367 -0.3121
 4210SOL     OW24262   1.069   2.448   1.278  0.6125  0.2951  0.1305
 4210SOL    HW124263   1.109   2.455   1.365  1.4566  0.5323 -0.2741
 4210SOL    HW224264   1.050   2.541   1.264 -2.0957 -0.1140  0.9791
 4211SOL     OW24265   1.976   1.819   3.148 -0.3932  0.0769 -0.4247
 4211SOL    HW124266   1.958   1.733   3.187  1.0629 -0.2390 -0.4406
 4211SOL    HW224267   1.986   1.867   3.230 -0.4333 -0.1464 -0.2881
 4212SOL     OW24268   0.359   4.601   8.224 -0.2004 -0.1286  0.5606
 4212SOL    HW124269   0.385   4.546   8.298  0.8421  0.7570  0.8404
 4212SOL    HW224270   0.448   4.628   8.202  0.0379  0.0920  1.8092
 4213SOL     OW24271   2.409   0.002   5.510 -0.1142 -0.6392  0.0026
 4213SOL    HW124272   2.359   0.083   5.522 -1.5796 -1.8982  2.4131
 4213SOL    HW224273   2.495   0.024   5.546 -0.2654  2.7371 -1.6529
 4214SOL     OW24274   2.598   0.887   5.236 -0.0818 -0.4736 -0.5494
 4214SOL    HW124275   2.658   0.953   5.269  0.2949 -1.2456  0.3010
 4214SOL    HW224276   2.521   0.935   5.206 -1.5768 -1.0043  2.4014
 4215SOL     OW24277   2.531   1.883   6.008 -0.1193  0.4716 -0.0547
 4215SOL    HW124278   2.458   1.840   6.051  1.0112 -1.1986  0.1949
 4215SOL    HW224279   2.510   1.864   5.917 -0.8977 -2.9437  0.8603
 4216SOL     OW24280   2.906   0.912   5.475 -0.0661 -0.0084 -0.1676
 4216SOL    HW124281   2.884   0.969   5.549 -0.2418  0.4884 -0.6098
 4216SOL    HW224282   2.890   0.826   5.514  2.9239 -0.4029  0.1447
 4217SOL     OW24283   4.313   0.101   4.144 -0.2162  0.0718 -0.5540
 4217SOL    HW124284   4.398   0.063   4.167 -0.7733 -0.6809  0.2945
 4217SOL    HW224285   4.321   0.187   4.186 -4.7107 -1.6392  3.7837
 4218SOL     OW24286   3.926   0.846   2.564 -0.0732 -0.3217  0.4147
 4218SOL    HW124287   3.914   0.844   2.659  0.2035 -0.2055  0.4529
 4218SOL    HW224288   4.017   0.875   2.572  0.9061 -2.9114 -1.2633
 4219SOL     OW24289   2.622   0.702  14.018 -0.3614 -0.5304 -0.0368
 4219SOL    HW124290   2.577   0.621  14.044  2.5321 -1.6618  1.4881
 4219SOL    HW224291   2.541   0.742  13.987 -1.1136 -1.9236  0.1384
 4220SOL     OW24292   0.309   3.215   2.451 -0.2934  0.5353  0.9766
 4220SOL    HW124293   0.273   3.274   2.385 -0.4118  0.4166  0.9352
 4220SOL    HW224294   0.242   3.146   2.444  1.2695 -0.8813 -0.0401
 4221SOL     OW24295   3.827   4.206  12.856 -0.4690 -0.6350  0.1894
 4221SOL    HW124296   3.787   4.183  12.773  0.9482  1.4702 -1.0703
 4221SOL    HW224297   3.762   4.165  12.913 -1.9730  0.0586 -1.0515
 4222SOL     OW24298   0.636   3.805   0.866  0.0068  0.1319  0.7496
 4222SOL    HW124299   0.583   3.788   0.944 -0.7860 -0.7390  0.0278
 4222SOL    HW224300   0.642   3.901   0.869 -0.4680  0.2057 -0.5523
 4223SOL     OW24301   4.597   4.598  11.685  0.2889  0.6450  0.9008
 4223SOL    HW124302   4.596   4.512  11.728  0.0686  0.3522  0.3152
 4223SOL    HW224303   4.691   4.603  11.665  0.3368 -1.3758  0.5247
 4224SOL     OW24304   3.637   4.710   6.503 -0.4715 -0.3226 -0.3657
 4224SOL    HW124305   3.641   4.654   6.426 -1.5239  0.9823 -1.3654
 4224SOL    HW224306   3.656   0.060   6.471 -1.0309  0.0672  0.3652
 4225SOL     OW24307   0.133   2.852   5.633  0.3162 -0.3396  1.0112
 4225SOL    HW124308   0.110   2.944   5.647  0.6190 -0.1942  0.5431
 4225SOL    HW224309   0.051   2.818   5.597  0.2715  1.5656 -0.6948
 4226SOL     OW24310   4.343   1.386   5.456  0.5452  0.3428  0.0942
 4226SOL    HW124311   4.412   1.447   5.432  0.8177  0.0815  0.2148
 4226SOL    HW224312   4.275   1.439   5.497 -0.9498 -0.7856 -0.9321
 4227SOL     OW24313   4.706   0.699   9.294  0.4005  0.0321 -0.2054
 4227SOL    HW124314   0.054   0.739   9.309 -0.1349  1.2191 -0.3766
 4227SOL    HW224315   0.004   0.610   9.286 -0.4721 -0.1858 -1.5340
 4228SOL     OW24316   4.372   3.885  10.059 -0.1704 -0.5349 -0.2908
 4228SOL    HW124317   4.426   3.951  10.016  0.5453 -1.7514 -1.2961
 4228SOL    HW224318   4.318   3.859   9.984 -1.0348 -0.2829  0.2578
 4229SOL     OW24319   4.371   3.919   2.411 -0.2887 -0.2015 -0.8530
 4229SOL    HW124320   4.453   3.942   2.455  0.0592 -1.3020 -0.9255
 4229SOL    HW224321   4.367   3.826   2.431  2.6606 -0.1903 -0.3077
 4230SOL     OW24322   1.422   2.859   7.572 -0.3981  0.1681 -0.5631
 4230SOL    HW124323   1.404   2.869   7.479 -2.1899  0.2223 -0.2053
 4230SOL    HW224324   1.466   2.940   7.599 -0.0211 -0.1602 -0.1920
 4231SOL     OW24325   3.196   4.184  17.451  0.3053  0.6790 -0.2433
 4231SOL    HW124326   3.171   4.095  17.478 -0.2125  0.7350 -0.5522
 4231SOL    HW224327   3.253   4.156  17.378 -0.0544  0.8927 -0.6072
 4232SOL     OW24328   2.003   1.590   2.136 -0.5465 -0.3771  1.0103
 4232SOL    HW124329   1.908   1.594   2.137 -0.4653  1.6372 -1.2437
 4232SOL    HW224330   2.026   1.662   2.078  0.4090  0.3621  2.3134
 4233SOL     OW24331   0.831   3.280   1.336  1.2250 -0.3844  0.1112
 4233SOL    HW124332   0.861   3.242   1.419  0.9866  0.3119  0.5141
 4233SOL    HW224333   0.808   3.368   1.365  1.9538 -1.0319  2.6918
 4234SOL     OW24334   2.420   3.097   8.664  0.1779  0.0661  0.2589
 4234SOL    HW124335   2.506   3.123   8.629  1.9447 -1.7531  3.2516
 4234SOL    HW224336   2.367   3.147   8.601  0.1152  1.2372  1.2383
 4235SOL     OW24337   3.451   1.503   7.797 -0.1298  0.0291  0.3715
 4235SOL    HW124338   3.420   1.498   7.707  0.3807 -1.4674  0.2718
 4235SOL    HW224339   3.546   1.508   7.801 -0.0868 -0.2205 -0.4369
 4236SOL     OW24340   3.783   3.516   4.778  0.8409  0.2033 -0.0561
 4236SOL    HW124341   3.821   3.531   4.691  1.3699  0.5580  0.2398
 4236SOL    HW224342   3.788   3.420   4.780  1.4755  0.2988  2.3801
 4237SOL     OW24343   2.292   2.127  17.548 -0.0009 -0.4367 -0.0550
 4237SOL    HW124344   2.201   2.148  17.528  0.2228 -0.0802 -0.7068
 4237SOL    HW224345   2.302   2.033  17.564 -1.7925 -0.9187 -1.7817
 4238SOL     OW24346   3.880   4.166   8.087  0.1470 -0.2800 -0.7385
 4238SOL    HW124347   3.801   4.216   8.107 -0.0232  0.3239 -2.9176
 4238SOL    HW224348   3.849   4.097   8.028  0.8843 -2.2761  1.2224
 4239SOL     OW24349   3.860   3.080   7.128 -0.1052 -0.5787 -0.5417
 4239SOL    HW124350   3.773   3.113   7.104 -1.0256 -2.1407  0.7102
 4239SOL    HW224351   3.900   3.087   7.041  1.2813 -1.6903  0.0240
 4240SOL     OW24352   0.324   1.175   2.839  0.2417 -0.8045 -0.0788
 4240SOL    HW124353   0.412   1.161   2.874 -0.0387 -0.6768  0.6960
 4240SOL    HW224354   0.269   1.202   2.913  1.2315 -0.1846  0.4346
 4241SOL     OW24355   3.476   1.429  15.549 -0.6318 -0.2438 -0.1968
 4241SOL    HW124356   3.453   1.518  15.523 -0.4668 -0.6211 -1.6329
 4241SOL    HW224357   3.523   1.453  15.629  2.0453 -2.0597 -1.2124
 4242SOL     OW24358   3.555   2.838   9.035  0.4486  0.1137  0.2285
 4242SOL    HW124359   3.582   2.816   8.946  0.7688 -1.3391  0.6874
 4242SOL    HW224360   3.474   2.787   9.036  0.1365  0.6294  1.0181
 4243SOL     OW24361   2.485   1.451   2.901  0.1518  0.4571  0.0962
 4243SOL    HW124362   2.512   1.371   2.947 -2.4489  0.2594  1.2304
 4243SOL    HW224363   2.393   1.432   2.886  0.6511 -1.5938 -0.4354
 4244SOL     OW24364   0.034   0.543   5.256 -0.0691  0.5930 -0.1385
 4244SOL    HW124365   0.061   0.466   5.306 -0.0236  2.0243  2.0283
 4244SOL    HW224366   4.680   0.527   5.234  0.5919 -2.3962 -0.8124
 4245SOL     OW24367   3.250   0.190   5.696  0.3125  0.4665  0.1055
 4245SOL    HW124368   3.345   0.201   5.695  0.7475 -3.5937 -1.3279
 4245SOL    HW224369   3.232   0.133   5.622  0.1559  1.4575 -0.6233
 4246SOL     OW24370   2.981   2.486   5.148 -0.0740  0.2262  0.3399
 4246SOL    HW124371   2.938   2.401   5.145 -2.7343  1.5089  2.2491
 4246SOL    HW224372   2.966   2.511   5.057 -1.7995 -0.1111  0.5453
 4247SOL     OW24373   0.029   3.113  13.582  0.3372 -0.0154  0.2119
 4247SOL    HW124374   0.036   3.166  13.661  1.1572  0.0584  0.0849
 4247SOL    HW224375   0.119   3.092  13.557  1.0104  0.5662  2.1452
 4248SOL     OW24376   0.746   0.200   4.317 -0.4643 -0.7904 -0.1878
 4248SOL    HW124377   0.789   0.184   4.232 -0.0093 -2.2674  0.3215
 4248SOL    HW224378   0.652   0.202   4.302 -0.4956 -1.6127 -0.0695
 4249SOL     OW24379   2.354   3.518   4.538 -1.0785  0.6310 -0.7717
 4249SOL    HW124380   2.297   3.544   4.611  0.1598 -0.4863  0.5974
 4249SOL    HW224381   2.328   3.426   4.531  0.5229 -0.0365  2.2064
 4250SOL     OW24382   0.561   1.967   6.840  0.3096 -0.7606  0.6966
 4250SOL    HW124383   0.472   2.000   6.848  0.7730  0.8237 -0.6313
 4250SOL    HW224384   0.591   1.961   6.930 -0.9285 -0.6350  1.1076
 4251SOL     OW24385   2.165   0.788  12.784  0.2349  0.4299 -0.3366
 4251SOL    HW124386   2.216   0.868  12.773  1.7236 -0.3472  0.9321
 4251SOL    HW224387   2.235   0.723  12.782 -1.0349 -0.9116 -1.8061
 4252SOL     OW24388   4.274   1.184   5.647  0.0319 -0.2532  0.9634
 4252SOL    HW124389   4.346   1.201   5.586 -0.6848 -0.5503  0.0379
 4252SOL    HW224390   4.204   1.136   5.602  0.4920  1.7315 -1.8500
 4253SOL     OW24391   3.165   3.147   6.824 -0.1544  0.1877 -0.0412
 4253SOL    HW124392   3.168   3.115   6.733 -2.2377  0.6086 -0.2618
 4253SOL    HW224393   3.076   3.180   6.835 -0.1254  0.2050  0.1286
 4254SOL     OW24394   2.410   2.578   4.850 -0.5094  0.3517  0.0744
 4254SOL    HW124395   2.377   2.666   4.866  2.3332  1.9018 -2.6739
 4254SOL    HW224396   2.435   2.553   4.939 -1.6393 -2.7163 -0.4494
 4255SOL     OW24397   2.827   3.095   9.759  0.0190 -0.4982 -0.5332
 4255SOL    HW124398   2.859   3.136   9.679 -1.3867  0.2960 -0.6940
 4255SOL    HW224399   2.876   3.127   9.835  1.8127 -0.5914 -1.6587
 4256SOL     OW24400   2.196   2.722   7.596 -0.0892 -0.3209  0.0772
 4256SOL    HW124401   2.204   2.739   7.502 -1.0382 -1.7394 -0.2517
 4256SOL    HW224402   2.281   2.736   7.638  0.0812  1.0977 -0.7349
 4257SOL     OW24403   3.499   4.731   4.576  0.6070  0.7229  0.0062
 4257SOL    HW124404   3.474   0.026   4.489  0.5386  0.9001  0.0933
 4257SOL    HW224405   3.564   0.059   4.601  1.2282  0.4960 -0.9839
 4258SOL     OW24406   0.186   2.289   4.183 -0.3871 -0.2038  0.5566
 4258SOL    HW124407   0.222   2.205   4.156 -0.9222 -0.8865  1.9393
 4258SOL    HW224408   0.116   2.295   4.118  0.7963 -1.2107 -0.8120
 4259SOL     OW24409   0.665   3.052   6.182 -0.0386  0.2305 -0.5090
 4259SOL    HW124410   0.573   3.080   6.182 -0.1748 -0.2325  0.0053
 4259SOL    HW224411   0.652   2.973   6.234 -0.5382  1.1754  0.7820
 4260SOL     OW24412   0.165   4.196   6.669 -0.0194 -0.6155  0.2874
 4260SOL    HW124413   0.176   4.153   6.753 -0.4295 -0.8613  0.2147
 4260SOL    HW224414   0.157   4.114   6.619  0.9102  1.0864 -2.6461
 4261SOL     OW24415   2.148   4.052  10.144 -0.0857 -0.2988 -0.2230
 4261SOL    HW124416   2.057   4.078  10.133  0.2328  1.3693  1.2107
 4261SOL    HW224417   2.154   4.013  10.056  1.6838  2.1395 -1.1813
 4262SOL     OW24418   0.002   2.008  10.126 -0.9545 -0.1373 -0.5973
 4262SOL    HW124419   4.703   1.921  10.115 -1.8555 -0.0415  1.6229
 4262SOL    HW224420   0.082   1.993  10.175  0.5290  1.9748 -2.3430
 4263SOL     OW24421   0.054   4.369  17.643 -0.4794  0.4104 -0.0573
 4263SOL    HW124422   4.713   4.347  17.694  1.2485 -0.6946  2.1226
 4263SOL    HW224423   0.012   4.395  17.561  0.1553 -1.1625 -0.8836
 4264SOL     OW24424   3.496   1.978   8.511 -0.1694  0.1177 -0.0255
 4264SOL    HW124425   3.518   1.888   8.488 -0.5288  0.0529 -0.1157
 4264SOL    HW224426   3.412   2.004   8.472 -0.9616 -0.5052  1.2393
 4265SOL     OW24427   2.851   4.531   3.743 -0.4358  0.4478  0.2825
 4265SOL    HW124428   2.915   4.534   3.814  1.4613  1.3740 -1.4930
 4265SOL    HW224429   2.905   4.571   3.675  0.9749 -0.6848  0.7469
 4266SOL     OW24430   2.801   2.036   1.674 -0.2032  1.0527 -0.0342
 4266SOL    HW124431   2.780   2.042   1.581  1.2799  1.4059 -0.3489
 4266SOL    HW224432   2.731   1.994   1.725  2.1376  0.6770  2.8984
 4267SOL     OW24433   1.629   0.857  11.769  0.6360  0.0602 -0.1458
 4267SOL    HW124434   1.600   0.847  11.860  3.0211  0.4033  0.6626
 4267SOL    HW224435   1.622   0.951  11.752  0.4710  0.1938  0.6388
 4268SOL     OW24436   1.796   1.028  16.431 -0.0601  0.6018 -0.7458
 4268SOL    HW124437   1.758   1.095  16.375  0.2906 -1.7835 -3.8351
 4268SOL    HW224438   1.718   0.977  16.452 -0.5030  1.0934 -1.2070
 4269SOL     OW24439   2.570   0.742   1.620 -0.8062 -0.3590  0.1431
 4269SOL    HW124440   2.562   0.649   1.640 -0.1019 -0.3825  0.3209
 4269SOL    HW224441   2.665   0.749   1.618 -0.7842 -0.8284 -0.6724
 4270SOL     OW24442   3.057   2.206   3.039 -0.0299 -0.8019  0.0254
 4270SOL    HW124443   3.082   2.152   3.114 -0.4584 -2.6538 -1.1708
 4270SOL    HW224444   3.129   2.216   2.976 -0.7345 -1.6106 -0.9001
 4271SOL     OW24445   3.472   3.397   4.775 -0.2527  0.5314 -0.2639
 4271SOL    HW124446   3.442   3.488   4.782  0.6467  0.7483  0.8150
 4271SOL    HW224447   3.540   3.401   4.707  0.7310 -0.3385  0.6594
 4272SOL     OW24448   2.211   3.620   6.595 -0.0695  0.0543  0.6439
 4272SOL    HW124449   2.158   3.697   6.575  1.9758  1.5893  1.2077
 4272SOL    HW224450   2.222   3.617   6.690  0.1560 -4.0684  0.4811
 4273SOL     OW24451   0.572   2.143   6.381  0.4228  0.2723  0.1440
 4273SOL    HW124452   0.507   2.073   6.370  2.0609 -1.2837  0.4173
 4273SOL    HW224453   0.654   2.093   6.376  1.6197  2.2861 -0.3391
 4274SOL     OW24454   3.224   2.784  14.185  0.5417 -0.3650 -0.1486
 4274SOL    HW124455   3.170   2.769  14.263 -1.3008 -0.5828 -1.4597
 4274SOL    HW224456   3.248   2.695  14.158 -1.2297  0.0259 -3.0076
 4275SOL     OW24457   3.998   0.632   3.449  0.8082 -0.7011  0.7786
 4275SOL    HW124458   4.007   0.626   3.354 -2.5498 -0.3746  0.4667
 4275SOL    HW224459   4.079   0.587   3.475  2.3574  2.5915  1.6851
 4276SOL     OW24460   0.215   2.227  16.810  0.7705  0.3734 -0.0761
 4276SOL    HW124461   0.298   2.242  16.764 -0.4371  0.8223 -2.1363
 4276SOL    HW224462   0.188   2.143  16.773  1.2481 -0.2419  0.9949
 4277SOL     OW24463   4.675   0.370   9.489 -0.4988  0.1478 -0.2290
 4277SOL    HW124464   4.641   0.427   9.558  0.4036  0.1842  0.1893
 4277SOL    HW224465   4.729   0.319   9.549  0.0240  2.0808  0.9163
 4278SOL     OW24466   0.781   1.121   4.653 -0.1990 -0.1188 -0.0056
 4278SOL    HW124467   0.693   1.117   4.616 -0.8966  2.6539  1.3719
 4278SOL    HW224468   0.794   1.029   4.679  0.8718  0.3038  0.9485
 4279SOL     OW24469   0.769   2.286   7.314 -0.0269 -0.2446 -0.6738
 4279SOL    HW124470   0.711   2.305   7.240 -2.2274 -1.7157  0.6794
 4279SOL    HW224471   0.777   2.191   7.324  1.6989 -0.1960 -1.7023
 4280SOL     OW24472   2.841   0.166   6.303 -0.3106  0.0562  0.2514
 4280SOL    HW124473   2.866   0.183   6.212  0.9138  1.1150  0.7840
 4280SOL    HW224474   2.881   0.079   6.309  0.7291  0.4818 -0.5064
 4281SOL     OW24475   4.214   1.637  10.016  0.3187  0.3139 -0.2654
 4281SOL    HW124476   4.252   1.688   9.944 -1.5672 -1.7274 -2.7458
 4281SOL    HW224477   4.137   1.687  10.042 -0.2350 -0.9925  0.6234
 4282SOL     OW24478   3.359   4.665   3.944  0.0893  0.4032  0.1807
 4282SOL    HW124479   3.433   4.620   3.905 -2.6299 -2.3646 -1.8152
 4282SOL    HW224480   3.408   4.691   4.022 -0.7988 -0.2950  0.9820
 4283SOL     OW24481   1.858   2.584   0.630 -0.6069 -0.2447 -0.6828
 4283SOL    HW124482   1.770   2.594   0.665  0.0822  1.0893  0.6942
 4283SOL    HW224483   1.848   2.650   0.562 -2.9066 -0.7363 -0.8165
 4284SOL     OW24484   1.412   2.737   2.879  0.2987 -0.0672 -0.4962
 4284SOL    HW124485   1.488   2.679   2.882  0.2299 -0.0168  2.2147
 4284SOL    HW224486   1.391   2.721   2.971  1.5002  0.3001 -0.1574
 4285SOL     OW24487   4.686   0.500   0.307  0.2552 -0.4067  0.0002
 4285SOL    HW124488   4.686   0.419   0.255  1.3738  0.5121 -1.4272
 4285SOL    HW224489   4.675   0.468   0.397 -0.8076  2.5172  0.9169
 4286SOL     OW24490   0.813   2.267   1.629  0.5286 -0.2216 -0.2590
 4286SOL    HW124491   0.882   2.220   1.581 -0.4617 -1.1009 -0.8253
 4286SOL    HW224492   0.863   2.341   1.662 -0.8535  0.7052 -0.2720
 4287SOL     OW24493   3.690   0.050   8.071  0.2395  0.5299 -0.5871
 4287SOL    HW124494   3.673   0.036   7.978  1.3279  0.1573 -0.7238
 4287SOL    HW224495   3.673   4.696   8.093 -3.5769  1.7632  1.7314
 4288SOL     OW24496   0.397   2.584   4.641  0.1168 -0.4116 -0.2365
 4288SOL    HW124497   0.467   2.648   4.627  2.1134 -2.2488  1.2455
 4288SOL    HW224498   0.329   2.605   4.578  1.1505 -2.6003 -2.0976
 4289SOL     OW24499   1.773   3.387   4.598  0.4352  0.1382  0.0766
 4289SOL    HW124500   1.859   3.347   4.613 -0.5995 -3.1205 -2.6332
 4289SOL    HW224501   1.779   3.462   4.657 -0.0915  0.3384 -0.1247
 4290SOL     OW24502   0.332   4.380   9.212 -0.4809  0.3367 -0.5257
 4290SOL    HW124503   0.346   4.322   9.137 -1.2688 -1.6326  0.8512
 4290SOL    HW224504   0.416   4.366   9.257  0.6538 -1.2698 -3.1178
 4291SOL     OW24505   4.354   3.069   5.136 -0.0323  0.3538  0.1441
 4291SOL    HW124506   4.413   3.141   5.116 -1.0847  0.8311 -1.2555
 4291SOL    HW224507   4.265   3.099   5.118 -0.9575 -1.6309  1.3376
 4292SOL     OW24508   3.015   1.219  14.850  0.1631  0.3679  0.5580
 4292SOL    HW124509   2.920   1.225  14.847  0.0377 -1.4642  0.3679
 4292SOL    HW224510   3.029   1.146  14.911 -0.8145 -0.2347  0.0506
 4293SOL     OW24511   3.163   1.492   8.799  0.2830 -0.0339  0.1384
 4293SOL    HW124512   3.243   1.539   8.775  1.5464 -1.9753  0.5163
 4293SOL    HW224513   3.125   1.471   8.714  2.8077  0.5431 -1.1508
 4294SOL     OW24514   2.435   0.057   5.198 -0.3808 -0.2608 -0.0713
 4294SOL    HW124515   2.363   0.018   5.249  1.3184 -0.3942  2.2203
 4294SOL    HW224516   2.493   0.086   5.268 -1.1837 -2.1151  1.3862
 4295SOL     OW24517   1.360   2.032   7.552  0.0918 -0.3680  0.1282
 4295SOL    HW124518   1.356   2.047   7.457  0.4059 -2.3790 -0.2057
 4295SOL    HW224519   1.298   2.098   7.581  1.2344  1.0768 -0.7324
 4296SOL     OW24520   2.954   4.435  13.412 -0.3107  0.2425  0.3781
 4296SOL    HW124521   2.883   4.388  13.458 -2.3429  1.4313 -1.5751
 4296SOL    HW224522   2.899   4.450  13.335 -1.3389 -3.2646  0.3905
 4297SOL     OW24523   4.569   4.497   6.394 -0.4600 -0.6354 -0.3577
 4297SOL    HW124524   4.628   4.516   6.467 -1.9837  1.3164  0.3556
 4297SOL    HW224525   4.608   4.548   6.322  0.7758 -1.0475  0.0117
 4298SOL     OW24526   0.173   2.708   3.643  0.3431  0.1532 -0.2725
 4298SOL    HW124527   0.133   2.660   3.571  0.3244  1.7719 -1.3275
 4298SOL    HW224528   0.138   2.663   3.720  0.6344 -0.2950 -0.3985
 4299SOL     OW24529   1.538   4.178   2.072 -0.6054 -0.3496 -0.1740
 4299SOL    HW124530   1.491   4.249   2.029  0.2703  0.3099 -0.0359
 4299SOL    HW224531   1.520   4.104   2.015  1.3199  0.4625 -1.8228
 4300SOL     OW24532   4.354   2.107   8.225 -0.3314 -0.2877  0.1355
 4300SOL    HW124533   4.391   2.132   8.309 -1.3485 -0.4226  0.6280
 4300SOL    HW224534   4.431   2.086   8.173 -0.6327 -0.4263 -0.2552
 4301SOL     OW24535   4.365   3.717  16.132 -0.1657  0.3120 -0.1160
 4301SOL    HW124536   4.355   3.801  16.178  0.4258  0.5968 -0.5037
 4301SOL    HW224537   4.433   3.739  16.068  0.2460  0.1680  0.2669
 4302SOL     OW24538   0.473   2.709  16.683  0.4279 -0.0291  0.4793
 4302SOL    HW124539   0.517   2.768  16.744  2.3950 -0.7803 -0.2433
 4302SOL    HW224540   0.400   2.767  16.659  1.4252 -0.1289 -2.6694
 4303SOL     OW24541   1.926   0.506   1.583 -0.1197 -0.1619 -0.1736
 4303SOL    HW124542   1.858   0.556   1.539 -1.2899 -0.5357  1.2439
 4303SOL    HW224543   1.948   0.562   1.657  1.3452 -1.0308  0.0537
 4304SOL     OW24544   0.555   1.332   5.039  0.4154  0.1018 -0.3613
 4304SOL    HW124545   0.518   1.351   4.953 -0.5830  0.4738  0.1457
 4304SOL    HW224546   0.554   1.419   5.078 -0.1638 -0.0452 -0.0453
 4305SOL     OW24547   4.689   3.523   3.240  0.1925 -0.0569  0.7332
 4305SOL    HW124548   4.677   3.497   3.332 -0.3851 -3.1103 -0.2032
 4305SOL    HW224549   0.008   3.455   3.203  0.9214  0.5714  0.6936
 4306SOL     OW24550   3.729   4.024   2.636  0.1332 -0.4937 -0.1121
 4306SOL    HW124551   3.711   3.964   2.708  2.3540  1.1052  1.7612
 4306SOL    HW224552   3.650   4.021   2.581  0.1953  0.6450 -0.2647
 4307SOL     OW24553   0.497   2.925   2.590  0.5332  0.2265  0.2841
 4307SOL    HW124554   0.494   2.837   2.553 -0.6842 -0.3039  1.6820
 4307SOL    HW224555   0.538   2.968   2.514 -0.6023 -0.6594 -0.8351
 4308SOL     OW24556   4.526   4.527   6.882  0.1444  0.2797 -0.4505
 4308SOL    HW124557   4.617   4.496   6.882 -0.1123 -0.4706 -0.8863
 4308SOL    HW224558   4.497   4.526   6.973 -0.1126  0.1718 -0.5364
 4309SOL     OW24559   0.116   3.554   6.260 -0.1608  0.1295 -0.0888
 4309SOL    HW124560   0.053   3.499   6.214 -0.0403  0.9905 -1.2876
 4309SOL    HW224561   0.100   3.519   6.348  0.4590  2.6250  1.0195
 4310SOL     OW24562   0.754   0.299   7.410  0.4473 -0.4494 -0.0368
 4310SOL    HW124563   0.686   0.366   7.410  2.8788  2.0073  1.4477
 4310SOL    HW224564   0.709   0.217   7.428 -0.3939 -0.2501 -1.2063
 4311SOL     OW24565   2.469   2.705   4.110  0.0169 -0.0752 -0.3334
 4311SOL    HW124566   2.413   2.676   4.182  1.2192 -2.1286 -0.2105
 4311SOL    HW224567   2.399   2.742   4.056 -1.9747 -1.5234  1.2680
 4312SOL     OW24568   2.522   1.232   7.183  0.3855  0.2564  0.4178
 4312SOL    HW124569   2.480   1.317   7.194 -1.4106 -0.8047  1.6480
 4312SOL    HW224570   2.534   1.229   7.088  1.7360  1.9994  0.5271
 4313SOL     OW24571   2.846   1.906   2.467  0.0759  0.4431  0.2249
 4313SOL    HW124572   2.818   1.990   2.504 -0.6219  0.8969 -1.3209
 4313SOL    HW224573   2.881   1.868   2.547 -0.3787 -1.3446 -0.4316
 4314SOL     OW24574   1.255   0.562   3.779 -0.2226  0.5581 -0.7792
 4314SOL    HW124575   1.313   0.602   3.713  0.0162  1.3999 -0.0559
 4314SOL    HW224576   1.170   0.576   3.737 -0.4489  2.8705  0.4592
 4315SOL     OW24577   1.736   1.118  12.750 -0.2701  0.1421 -0.0928
 4315SOL    HW124578   1.829   1.110  12.729 -0.5582 -2.0885 -0.5686
 4315SOL    HW224579   1.737   1.054  12.822 -0.3953  1.1053  0.7641
 4316SOL     OW24580   4.472   4.687  10.331  0.0551 -0.0928  0.0353
 4316SOL    HW124581   4.510   0.033  10.302 -2.0224  0.6742 -0.4619
 4316SOL    HW224582   4.420   4.709  10.408  1.2584  0.9350  0.5748
 4317SOL     OW24583   2.522   2.718   3.149  0.1652 -0.1880 -0.0182
 4317SOL    HW124584   2.559   2.698   3.063  1.5609  0.6145  0.4002
 4317SOL    HW224585   2.444   2.759   3.111 -0.3850 -1.1293  0.1062
 4318SOL     OW24586   2.237   4.116  16.041  1.0577 -0.0782 -0.3579
 4318SOL    HW124587   2.221   4.039  16.095  2.7377  0.4642  0.9464
 4318SOL    HW224588   2.230   4.077  15.954  0.0082  0.5847 -0.5676
 4319SOL     OW24589   4.668   4.582   6.037  0.0781  0.1386  0.6751
 4319SOL    HW124590   4.635   4.642   6.105 -2.2606  1.2989 -1.4729
 4319SOL    HW224591   0.022   4.574   6.063  0.3867  0.9113 -0.1839
 4320SOL     OW24592   3.718   2.949   6.872  0.2799 -0.0959  0.3117
 4320SOL    HW124593   3.695   2.965   6.780 -0.7008  0.6763  0.6910
 4320SOL    HW224594   3.809   2.976   6.870  1.0774 -2.8793 -0.9889
 4321SOL     OW24595   2.245   2.825   7.050 -0.4566 -0.4038  0.2344
 4321SOL    HW124596   2.290   2.808   6.967 -0.9049 -2.2216  0.3582
 4321SOL    HW224597   2.166   2.848   7.002  0.2470  0.9377 -0.3039
 4322SOL     OW24598   3.183   0.719   7.073  0.5517 -0.3269  0.1215
 4322SOL    HW124599   3.175   0.699   7.166  1.1217 -2.3341 -0.2591
 4322SOL    HW224600   3.091   0.732   7.051  0.6229 -0.1284 -0.0620
 4323SOL     OW24601   1.500   2.001   4.033 -0.0656  0.4041  0.4450
 4323SOL    HW124602   1.406   1.984   4.024 -0.0850  0.2704  0.9045
 4323SOL    HW224603   1.533   1.920   4.070  1.8416  0.5941 -0.8785
 4324SOL     OW24604   2.394   1.670  14.301 -0.0444 -0.1151 -0.3441
 4324SOL    HW124605   2.348   1.717  14.371 -1.5657 -1.2168 -0.5889
 4324SOL    HW224606   2.481   1.649  14.334 -0.4756 -1.2258  0.1169
 4325SOL     OW24607   1.205   1.757   7.362  0.2335 -0.4168 -0.3523
 4325SOL    HW124608   1.128   1.812   7.343  1.5059  1.0089 -1.4179
 4325SOL    HW224609   1.267   1.795   7.299  0.0608  0.4975  0.0218
 4326SOL     OW24610   3.329   1.279  15.732  0.5976 -0.3027 -0.1794
 4326SOL    HW124611   3.274   1.345  15.773  0.8876 -0.2866  0.1861
 4326SOL    HW224612   3.362   1.325  15.655  1.5374  2.1566  1.6992
 4327SOL     OW24613   1.076   0.266   2.822 -0.0150  0.0435 -0.1852
 4327SOL    HW124614   1.025   0.186   2.830  1.8027 -1.0279  0.7260
 4327SOL    HW224615   1.033   0.312   2.894 -3.2256 -1.6389 -1.0253
 4328SOL     OW24616   3.289   3.102  10.621  0.6945  0.4940  0.2879
 4328SOL    HW124617   3.355   3.159  10.582  0.2312 -0.2289 -1.5434
 4328SOL    HW224618   3.224   3.093  10.551  0.2207  3.0689  0.3928
 4329SOL     OW24619   0.331   1.679   8.912  0.1889  0.2760  0.2040
 4329SOL    HW124620   0.396   1.658   8.845  1.5987  2.1606  0.9953
 4329SOL    HW224621   0.396   1.685   8.982 -0.3045  0.9264  0.6075
 4330SOL     OW24622   2.307   2.430   8.492  0.0471  0.7332 -0.3428
 4330SOL    HW124623   2.212   2.428   8.478  0.2424 -2.3491 -1.2612
 4330SOL    HW224624   2.336   2.517   8.465  0.1461  0.6981 -0.3491
 4331SOL     OW24625   2.466   0.901  14.264 -0.8598 -0.3090 -0.0554
 4331SOL    HW124626   2.494   0.817  14.229 -1.2707 -0.2617 -0.4981
 4331SOL    HW224627   2.552   0.936  14.286 -0.9745 -0.3922  0.5426
 4332SOL     OW24628   0.143   2.553   7.545 -0.8107  0.1613  0.2828
 4332SOL    HW124629   0.208   2.571   7.612  1.1150 -0.0390 -1.5299
 4332SOL    HW224630   0.081   2.507   7.602  0.5979 -1.1118  0.7864
 4333SOL     OW24631   4.389   1.474  15.811  0.4435  0.0162  0.1001
 4333SOL    HW124632   4.335   1.484  15.890  0.1092  0.9173 -0.2387
 4333SOL    HW224633   4.378   1.383  15.784 -0.6604  0.6385 -1.5390
 4334SOL     OW24634   4.119   0.333   4.883  0.0837  0.0413  0.0050
 4334SOL    HW124635   4.207   0.344   4.921 -0.1487  3.4881 -0.4136
 4334SOL    HW224636   4.126   0.397   4.811 -2.2308 -0.6909 -0.8592
 4335SOL     OW24637   4.529   1.669   9.194 -0.1966 -0.0301 -0.3486
 4335SOL    HW124638   4.599   1.605   9.178 -0.4298 -0.3830  0.0593
 4335SOL    HW224639   4.478   1.629   9.264  0.7694 -2.2636 -0.9140
 4336SOL     OW24640   1.832   0.805   8.681 -0.1776 -0.4673  0.2820
 4336SOL    HW124641   1.873   0.733   8.728  0.3546 -0.7703 -0.6306
 4336SOL    HW224642   1.811   0.874   8.744  0.2768 -0.5847  0.5620
 4337SOL     OW24643   1.672   4.682  12.156 -0.3863  0.0021  0.2959
 4337SOL    HW124644   1.733   4.662  12.227 -1.1914  0.3627  1.0897
 4337SOL    HW224645   1.733   4.673  12.083  0.9719  4.5587  0.9233
 4338SOL     OW24646   3.500   0.584   5.564  0.5289  0.0988  0.1679
 4338SOL    HW124647   3.476   0.634   5.486  3.0561 -0.6923 -1.0907
 4338SOL    HW224648   3.582   0.547   5.534  1.2294 -0.4350  2.6766
 4339SOL     OW24649   4.302   1.862   6.641 -0.8639 -0.6088 -1.1682
 4339SOL    HW124650   4.372   1.851   6.706 -0.8559  0.5296 -1.0003
 4339SOL    HW224651   4.336   1.929   6.582 -0.4390  0.9125  0.7982
 4340SOL     OW24652   2.258   0.956   7.941  0.0080 -0.3392 -0.2163
 4340SOL    HW124653   2.251   0.867   7.906  1.0717 -0.6806  0.4559
 4340SOL    HW224654   2.345   0.949   7.981 -0.1304 -2.7082 -0.3313
 4341SOL     OW24655   4.663   3.648  11.210  0.3619 -0.0159  0.2469
 4341SOL    HW124656   4.615   3.707  11.150 -1.1318 -2.1528 -0.6525
 4341SOL    HW224657   0.010   3.631  11.169 -0.2998  0.9420 -1.5393
 4342SOL     OW24658   4.246   1.148  16.034  0.0775 -0.0816  0.6128
 4342SOL    HW124659   4.291   1.067  16.057 -0.2874 -1.2852 -2.8339
 4342SOL    HW224660   4.272   1.154  15.942  0.8219 -0.0042  0.8326
 4343SOL     OW24661   4.555   0.956  13.095 -0.1644  0.1488  0.4393
 4343SOL    HW124662   4.643   0.980  13.064  0.2289  2.6411  3.5096
 4343SOL    HW224663   4.496   1.020  13.055 -1.9065 -2.1936 -0.7360
 4344SOL     OW24664   4.676   2.008   2.116 -0.2151 -0.3457  0.0986
 4344SOL    HW124665   4.731   1.986   2.042 -0.0402 -2.1254  0.7506
 4344SOL    HW224666   4.644   2.093   2.086  0.9653  0.7577  1.9321
 4345SOL     OW24667   2.808   2.192  15.459  0.0920  0.1979 -0.1589
 4345SOL    HW124668   2.752   2.114  15.459  1.2432 -0.6328  1.0783
 4345SOL    HW224669   2.748   2.266  15.473 -1.1519 -0.9523  0.6406
 4346SOL     OW24670   4.500   1.778   9.586  0.1457  0.3802  0.5060
 4346SOL    HW124671   4.527   1.827   9.664  1.0581  0.0174  0.4130
 4346SOL    HW224672   4.584   1.761   9.545  0.4271  1.2645  0.7185
 4347SOL     OW24673   4.586   3.612   7.262  0.2047  0.3958 -0.0583
 4347SOL    HW124674   4.535   3.578   7.188  0.0444  2.1800 -0.7598
 4347SOL    HW224675   4.560   3.704   7.251 -1.3184  0.0818  0.8004
 4348SOL     OW24676   4.684   1.761   6.313 -0.3820  0.2530 -0.2567
 4348SOL    HW124677   4.707   1.852   6.333  5.0068 -0.9730 -0.9272
 4348SOL    HW224678   4.672   1.729   6.403  2.4745  0.1711  0.1067
 4349SOL     OW24679   3.636   0.721   9.353  0.1996  0.0363 -0.2963
 4349SOL    HW124680   3.674   0.690   9.435  0.2400  0.2623 -0.2306
 4349SOL    HW224681   3.709   0.736   9.293  0.8390 -1.2670  0.1641
 4350SOL     OW24682   1.729   1.080  12.181  0.0734 -0.0897  0.2086
 4350SOL    HW124683   1.650   1.075  12.127 -0.8656  0.9213  1.4816
 4350SOL    HW224684   1.697   1.094  12.270  0.0670  0.2499  0.1539
 4351SOL     OW24685   1.289   4.208   6.907  0.7863  0.4262 -0.0827
 4351SOL    HW124686   1.230   4.248   6.971  0.9373  1.9326 -0.8821
 4351SOL    HW224687   1.348   4.156   6.961 -0.9579 -1.9953 -0.5113
 4352SOL     OW24688   3.453   0.078   5.956  0.5773  0.1220  0.2081
 4352SOL    HW124689   3.459   0.132   5.878 -0.6360  0.6384  0.4747
 4352SOL    HW224690   3.373   0.028   5.940  0.5410  0.4343 -0.5571
 4353SOL     OW24691   1.782   4.563   3.130  0.7956 -0.1498  0.4724
 4353SOL    HW124692   1.858   4.608   3.093  0.9739 -0.2551  0.7106
 4353SOL    HW224693   1.730   4.567   3.050 -0.2901 -1.0130  1.1288
 4354SOL     OW24694   3.758   0.618   1.736 -0.4476  0.4761  0.1049
 4354SOL    HW124695   3.798   0.703   1.715  0.0355  0.0659 -0.6041
 4354SOL    HW224696   3.774   0.576   1.652  0.4749  0.4176  0.3032
 4355SOL     OW24697   2.804   0.872   1.115 -0.1390  0.4523 -0.2491
 4355SOL    HW124698   2.731   0.930   1.135 -2.0801 -2.1151  0.0125
 4355SOL    HW224699   2.867   0.917   1.171 -0.0524  1.7454 -1.3863
 4356SOL     OW24700   2.017   1.656   6.393 -0.4191  0.2287  0.3492
 4356SOL    HW124701   1.939   1.600   6.392  0.0618 -0.4905  1.9514
 4356SOL    HW224702   2.012   1.695   6.306  1.2668  0.8215  0.5216
 4357SOL     OW24703   1.359   2.043  14.789  0.2825 -0.5480 -0.2150
 4357SOL    HW124704   1.440   2.049  14.840  0.6794  1.5704 -1.0768
 4357SOL    HW224705   1.295   2.045  14.860 -1.5139 -1.2845 -1.8284
 4358SOL     OW24706   2.712   2.953   6.810 -0.0989  0.6519 -0.4855
 4358SOL    HW124707   2.654   2.893   6.857 -0.0920  0.0217 -1.2905
 4358SOL    HW224708   2.724   2.894   6.736  0.1708  2.0923 -1.5912
 4359SOL     OW24709   1.288   1.678   1.542  0.1562  0.0655  0.1174
 4359SOL    HW124710   1.341   1.664   1.464  0.0202  1.7769 -0.2923
 4359SOL    HW224711   1.326   1.611   1.598  0.5173  0.0218 -0.1818
 4360SOL     OW24712   0.617   1.570  11.427 -0.2382  0.4483 -0.0321
 4360SOL    HW124713   0.706   1.536  11.418  0.2790  1.7055  0.2128
 4360SOL    HW224714   0.625   1.660  11.396  1.5783 -0.1109 -1.1719
 4361SOL     OW24715   2.240   3.094   4.839 -0.0266  0.7873 -0.0648
 4361SOL    HW124716   2.240   3.039   4.918  3.2271  0.9196 -0.0072
 4361SOL    HW224717   2.215   3.181   4.871 -0.3783  0.6376  0.0709
 4362SOL     OW24718   2.665   1.517   5.996  0.2178  0.0668  0.2424
 4362SOL    HW124719   2.736   1.576   6.024 -0.7784  0.8834  1.0362
 4362SOL    HW224720   2.619   1.522   6.079  1.3039 -0.3940  0.8759
 4363SOL     OW24721   2.018   4.567   7.609  0.3693  0.2876  0.0068
 4363SOL    HW124722   2.007   4.662   7.617 -0.0115  0.0565  2.2928
 4363SOL    HW224723   2.087   4.561   7.543  0.7146 -0.8811  0.4686
 4364SOL     OW24724   4.514   0.490   9.109 -0.1005  0.6507  0.3851
 4364SOL    HW124725   4.426   0.511   9.141 -1.1950 -1.5162 -1.1856
 4364SOL    HW224726   4.538   0.415   9.164  0.6795  1.9936  1.8765
 4365SOL     OW24727   0.603   3.780   8.425  0.1920  0.0939  0.3145
 4365SOL    HW124728   0.561   3.695   8.436  2.2171 -1.0408 -0.8130
 4365SOL    HW224729   0.693   3.762   8.452 -0.6311 -0.8321  2.4411
 4366SOL     OW24730   3.611   4.258  13.161 -0.3665 -0.4716 -0.3155
 4366SOL    HW124731   3.586   4.184  13.106  0.2126 -0.7639 -0.1838
 4366SOL    HW224732   3.535   4.312  13.143  0.8130  0.6340 -1.9836
 4367SOL     OW24733   0.856   2.964  17.028 -0.3165  0.2360  0.1405
 4367SOL    HW124734   0.787   3.023  16.998  0.2347  0.1220 -1.3340
 4367SOL    HW224735   0.930   2.970  16.968  1.3929  0.0051  2.2259
 4368SOL     OW24736   2.984   0.243  14.655 -0.0080  0.3526  0.2020
 4368SOL    HW124737   2.960   0.198  14.574  1.9041  0.3932 -0.3969
 4368SOL    HW224738   2.981   0.333  14.623  0.0799 -0.4432 -2.0803
 4369SOL     OW24739   3.918   4.040   2.018 -0.0811  0.3603  0.7272
 4369SOL    HW124740   3.944   4.081   2.100  1.8544 -2.7287  1.6325
 4369SOL    HW224741   3.857   3.969   2.040  0.7863 -0.2452  1.1854
 4370SOL     OW24742   3.277   3.100   1.762 -0.2670 -0.3268  0.2498
 4370SOL    HW124743   3.346   3.035   1.772 -0.3873 -0.6471 -1.0034
 4370SOL    HW224744   3.330   3.178   1.742 -2.4769  0.3755 -2.8241
 4371SOL     OW24745   3.089   0.657   7.581  0.8443 -0.3117  0.3426
 4371SOL    HW124746   3.005   0.612   7.595  0.2752  0.6088 -0.1518
 4371SOL    HW224747   3.119   0.657   7.671  0.2633 -1.6486  0.5498
 4372SOL     OW24748   2.736   2.289   3.149  0.8324 -0.6401 -0.3082
 4372SOL    HW124749   2.803   2.309   3.215 -0.1337  1.5579 -0.0162
 4372SOL    HW224750   2.725   2.198   3.177 -0.1924 -1.0905 -2.1728
 4373SOL     OW24751   2.299   1.869  10.222 -0.4017 -0.0823 -0.2518
 4373SOL    HW124752   2.230   1.914  10.173  2.1561  3.2033 -0.8378
 4373SOL    HW224753   2.372   1.882  10.161  0.2464  0.3639  0.6228
 4374SOL     OW24754   0.088   2.364   4.564 -0.5338  0.0734  0.1228
 4374SOL    HW124755   0.119   2.278   4.537  0.6107  0.9125 -1.2623
 4374SOL    HW224756   0.158   2.412   4.520  0.1683 -2.0694 -1.0614
 4375SOL     OW24757   0.346   1.321   6.775 -0.1384  0.1586 -0.6055
 4375SOL    HW124758   0.337   1.402   6.826  0.6846  0.0491 -0.2863
 4375SOL    HW224759   0.432   1.287   6.797 -0.9251 -2.0002 -0.8828
 4376SOL     OW24760   2.147   2.894   1.569  0.0817 -0.5135  0.3228
 4376SOL    HW124761   2.070   2.949   1.553 -0.1948 -1.1635 -0.5941
 4376SOL    HW224762   2.102   2.815   1.599 -1.6492  0.0055 -0.9239
 4377SOL     OW24763   0.647   4.537  12.356 -0.3263  0.3947 -0.4220
 4377SOL    HW124764   0.737   4.525  12.326  0.3185  1.3023  1.1799
 4377SOL    HW224765   0.651   4.627  12.389 -2.1272  0.2961  0.0977
 4378SOL     OW24766   0.937   4.338   8.223  0.0232 -0.1120  0.5376
 4378SOL    HW124767   0.987   4.323   8.303  1.5240 -0.4025 -0.4580
 4378SOL    HW224768   1.003   4.354   8.156 -1.3532 -0.0464 -0.8134
 4379SOL     OW24769   2.597   0.060   3.277 -0.2954 -0.0472 -0.6324
 4379SOL    HW124770   2.546   0.087   3.200 -0.3518  2.8484  0.4191
 4379SOL    HW224771   2.667   0.016   3.230  0.6483  0.2168  0.5442
 4380SOL     OW24772   3.557   1.429  12.956 -0.0089 -0.1528  0.1134
 4380SOL    HW124773   3.639   1.452  12.914  0.0727 -1.4493 -0.4405
 4380SOL    HW224774   3.593   1.407  13.042  1.1034  1.6631  0.1194
 4381SOL     OW24775   1.008   2.434  15.154  0.2063  0.1389  0.5360
 4381SOL    HW124776   0.982   2.343  15.137 -0.6049  0.7399 -1.4384
 4381SOL    HW224777   1.097   2.420  15.188  0.5055 -0.7415 -0.6155
 4382SOL     OW24778   0.845   1.923   8.800 -0.0876  0.1950 -0.9580
 4382SOL    HW124779   0.821   1.856   8.864 -0.3480 -0.1872 -1.4558
 4382SOL    HW224780   0.872   2.001   8.849  1.9689 -0.4759 -0.9884
 4383SOL     OW24781   0.150   0.394   7.723  0.3215  0.1599 -0.2572
 4383SOL    HW124782   0.112   0.393   7.811  1.0924  3.4077  0.0919
 4383SOL    HW224783   0.171   0.487   7.721  1.9986 -0.2576 -1.8335
 4384SOL     OW24784   3.058   3.941   0.831 -0.0330  0.2949  0.1600
 4384SOL    HW124785   3.075   3.999   0.757  1.6710  0.5323  0.7370
 4384SOL    HW224786   2.970   3.975   0.842  0.1409  1.4585 -1.9972
 4385SOL     OW24787   3.043   0.170  11.697 -0.3122  0.1266 -0.1534
 4385SOL    HW124788   2.987   0.159  11.774  0.9633 -1.2507  0.5859
 4385SOL    HW224789   3.116   0.222  11.729  0.0933 -0.1782 -0.5791
 4386SOL     OW24790   1.269   0.007   1.572  0.0655  0.2748 -0.1382
 4386SOL    HW124791   1.345   4.712   1.620 -0.7464 -2.1579 -0.5485
 4386SOL    HW224792   1.304   0.061   1.502  2.6591 -1.0071  0.1689
 4387SOL     OW24793   1.934   3.270   2.940  0.3173 -0.5880  0.1461
 4387SOL    HW124794   1.972   3.356   2.919  1.5321 -1.1003  0.2736
 4387SOL    HW224795   1.870   3.290   3.009  0.5236  1.7258 -0.3215
 4388SOL     OW24796   3.404   3.785   3.679 -0.2201 -0.5436 -0.1949
 4388SOL    HW124797   3.371   3.746   3.597 -0.3277  1.9528 -1.3420
 4388SOL    HW224798   3.379   3.723   3.748  1.6364  0.8266  1.6774
 4389SOL     OW24799   3.513   2.815   5.008  0.3043  0.2141  0.0405
 4389SOL    HW124800   3.440   2.755   4.993 -0.6300  1.0737  1.1259
 4389SOL    HW224801   3.505   2.865   4.927 -1.8248  0.9396  0.6801
 4390SOL     OW24802   3.268   3.415   5.058 -0.5155  0.4881 -0.6285
 4390SOL    HW124803   3.276   3.503   5.095 -3.8466  0.5935 -0.0844
 4390SOL    HW224804   3.185   3.427   5.012 -1.6478 -2.5066  0.6698
 4391SOL     OW24805   3.771   1.668   0.939 -0.1249  0.0127 -0.4250
 4391SOL    HW124806   3.759   1.574   0.951  1.0705 -0.0603  0.2413
 4391SOL    HW224807   3.763   1.670   0.844 -1.7910  1.5210 -0.2508
 4392SOL     OW24808   3.604   4.401   9.998 -0.5324  0.2299  0.6692
 4392SOL    HW124809   3.657   4.390  10.077 -0.0752  1.4523  0.5338
 4392SOL    HW224810   3.520   4.387  10.042 -0.8577 -0.4655 -0.1663
 4393SOL     OW24811   3.786   4.280  15.881  0.4572  0.2286  0.1865
 4393SOL    HW124812   3.878   4.300  15.863  0.6775  0.0382  1.1259
 4393SOL    HW224813   3.758   4.250  15.794  0.7752 -1.3305  0.6366
 4394SOL     OW24814   0.851   0.441   1.869 -0.3787 -0.3139  0.4836
 4394SOL    HW124815   0.822   0.526   1.836  0.7390  0.0732  0.5225
 4394SOL    HW224816   0.855   0.397   1.783 -0.8483  0.1329  0.2311
 4395SOL     OW24817   0.579   3.854  13.462  0.2508 -0.9061 -0.0643
 4395SOL    HW124818   0.489   3.887  13.461 -0.0174 -1.6049  0.6570
 4395SOL    HW224819   0.583   3.810  13.377  0.3957 -0.4387 -0.2999
 4396SOL     OW24820   2.956   1.956  10.351  0.0793  0.5606  0.4427
 4396SOL    HW124821   2.922   2.025  10.407  0.3763 -0.0303  1.3360
 4396SOL    HW224822   3.049   1.968  10.366  0.7182 -0.2028 -2.7681
 4397SOL     OW24823   1.977   1.548   4.040  0.2699  0.1738 -0.2661
 4397SOL    HW124824   1.919   1.612   4.000  1.7328  2.0643  0.6008
 4397SOL    HW224825   1.949   1.464   4.006  0.4993  0.2731 -0.6989
 4398SOL     OW24826   0.640   3.319  17.281 -0.6489  0.9433 -0.1198
 4398SOL    HW124827   0.698   3.281  17.346 -0.5151  0.3241 -0.6014
 4398SOL    HW224828   0.587   3.240  17.278 -0.9370  1.1517 -0.6607
 4399SOL     OW24829   2.655   2.207   8.677 -0.9342 -0.2225 -0.1507
 4399SOL    HW124830   2.622   2.297   8.670  0.0080  0.2452  1.5731
 4399SOL    HW224831   2.579   2.155   8.704 -1.9062  0.4881 -1.5297
 4400SOL     OW24832   4.026   1.048  13.256  0.1326  0.7163 -0.8838
 4400SOL    HW124833   4.101   1.084  13.304 -0.8476  1.7785 -0.1588
 4400SOL    HW224834   3.965   1.037  13.329  0.3101 -0.5343 -0.9256
 4401SOL     OW24835   2.643   3.864  16.833 -0.9963 -0.4805  0.0905
 4401SOL    HW124836   2.621   3.830  16.746 -0.7776 -0.1522 -0.0920
 4401SOL    HW224837   2.729   3.830  16.855 -0.7689  0.0820  0.0704
 4402SOL     OW24838   4.518   0.879   4.674  0.3721  0.4409  0.2889
 4402SOL    HW124839   4.518   0.884   4.579 -1.3321 -0.8738  0.2179
 4402SOL    HW224840   4.606   0.856   4.704  1.4789  1.3428 -2.3210
 4403SOL     OW24841   1.332   4.636   9.266  0.3285 -0.4141 -0.6007
 4403SOL    HW124842   1.383   4.625   9.186  2.2748  2.6948  0.2065
 4403SOL    HW224843   1.393   4.598   9.329 -0.6679 -2.9535 -1.1751
 4404SOL     OW24844   0.824   0.837  15.450  0.1067  0.3142  0.4488
 4404SOL    HW124845   0.738   0.877  15.451 -1.6024 -3.3324  0.5746
 4404SOL    HW224846   0.795   0.746  15.449  0.8477  0.0946 -0.8675
 4405SOL     OW24847   0.276   0.820   2.774  0.3654 -0.2070  0.2064
 4405SOL    HW124848   0.333   0.860   2.709  1.2714 -0.4700  0.8373
 4405SOL    HW224849   0.302   0.728   2.779  1.0276 -0.2019 -3.2351
 4406SOL     OW24850   4.643   2.395   6.158  0.4625 -0.7206  0.3674
 4406SOL    HW124851   4.712   2.339   6.124  1.4633 -0.3924  1.8255
 4406SOL    HW224852   4.687   2.477   6.137  0.9416 -0.7767  1.1346
 4407SOL     OW24853   0.033   3.668   3.517 -0.0114 -0.5028  0.0836
 4407SOL    HW124854   0.109   3.610   3.523  2.7474  3.4906  3.5224
 4407SOL    HW224855   0.019   3.694   3.608  3.4248 -1.6249  0.9219
 4408SOL     OW24856   2.475   2.660   6.654  0.1653  0.0697 -0.0196
 4408SOL    HW124857   2.392   2.657   6.703 -0.2404 -1.4209 -0.7809
 4408SOL    HW224858   2.447   2.694   6.570  3.1231  0.1403 -0.9617
 4409SOL     OW24859   3.260   4.236  10.353 -0.5202 -0.4250  0.2723
 4409SOL    HW124860   3.239   4.263  10.443 -2.2435  0.3191 -0.3446
 4409SOL    HW224861   3.251   4.141  10.358  1.4309 -0.6040  0.2962
 4410SOL     OW24862   0.418   2.792   3.348  0.1090  0.0496 -0.4863
 4410SOL    HW124863   0.446   2.762   3.434 -0.0885 -2.1041 -1.1759
 4410SOL    HW224864   0.449   2.732   3.280  1.3240  1.6357 -1.3547
 4411SOL     OW24865   2.376   4.311   4.655 -1.0775 -0.0219 -0.0296
 4411SOL    HW124866   2.435   4.244   4.690 -2.3771 -0.1431  2.0026
 4411SOL    HW224867   2.416   4.395   4.678 -0.2800 -0.8043  1.4438
 4412SOL     OW24868   3.746   1.303  16.880  0.2159 -0.2362  0.1450
 4412SOL    HW124869   3.777   1.218  16.912  1.4018  0.0649 -0.2104
 4412SOL    HW224870   3.691   1.344  16.947  1.9878  1.3324  0.6185
 4413SOL     OW24871   3.082   4.203   0.102  0.0601 -0.0384 -0.5157
 4413SOL    HW124872   3.111   4.208   0.193  1.4181  1.9083 -1.0641
 4413SOL    HW224873   3.011   4.268   0.101  0.7666  0.7648  0.9037
 4414SOL     OW24874   0.736   2.928  17.534 -0.5208 -0.1212 -0.4661
 4414SOL    HW124875   0.724   3.006  17.588  0.5763 -0.2493 -0.0345
 4414SOL    HW224876   0.770   2.967  17.453  1.3743  0.6120  0.6781
 4415SOL     OW24877   1.704   4.394   9.320  0.5707  0.5174 -0.2629
 4415SOL    HW124878   1.712   4.342   9.399 -1.3836  0.8105  0.1165
 4415SOL    HW224879   1.751   4.339   9.258  1.4794  0.6451  0.3191
 4416SOL     OW24880   0.422   2.901  16.110 -0.1599  0.3676  0.0481
 4416SOL    HW124881   0.411   2.937  16.198 -3.0801 -0.3308 -0.0200
 4416SOL    HW224882   0.496   2.951  16.076 -1.1121  2.4065  0.9726
 4417SOL     OW24883   1.386   3.311   9.180 -0.3265 -0.5300  0.5265
 4417SOL    HW124884   1.388   3.328   9.086  0.3105 -2.6003  0.1683
 4417SOL    HW224885   1.463   3.257   9.197 -0.9211 -2.0417 -1.6655
 4418SOL     OW24886   2.793   4.119   0.168  0.1361  0.0608  0.6624
 4418SOL    HW124887   2.810   4.096   0.260 -1.3726 -1.3944  0.5756
 4418SOL    HW224888   2.809   4.033   0.128  1.0992  0.5158  0.0795
 4419SOL     OW24889   3.846   2.196  10.918  0.0282 -0.0488 -0.2610
 4419SOL    HW124890   3.844   2.198  11.014  1.6163  0.4693 -0.2448
 4419SOL    HW224891   3.754   2.210  10.896 -1.0278 -1.3459  3.2757
 4420SOL     OW24892   4.286   3.000   3.836 -0.6951 -0.1127  0.9473
 4420SOL    HW124893   4.290   2.926   3.896 -1.8488 -1.9971 -1.3122
 4420SOL    HW224894   4.193   3.019   3.830 -0.4671  0.3673 -1.2068
 4421SOL     OW24895   4.560   3.485   5.698 -0.5452  0.3806  0.2009
 4421SOL    HW124896   4.627   3.428   5.736 -1.3039  1.4476  3.1008
 4421SOL    HW224897   4.533   3.535   5.775  0.1829 -0.6078  1.0854
 4422SOL     OW24898   1.956   3.162  15.455 -0.1773  0.6029  0.2955
 4422SOL    HW124899   1.992   3.178  15.542  0.3158 -3.3417  0.8217
 4422SOL    HW224900   1.865   3.182  15.477 -0.1074  0.0554  1.0621
 4423SOL     OW24901   2.277   1.948   9.020 -0.3814 -0.0682 -0.3360
 4423SOL    HW124902   2.303   2.023   8.967  2.5517 -1.2616 -0.5984
 4423SOL    HW224903   2.319   1.968   9.104  1.0958 -0.2543 -1.0331
 4424SOL     OW24904   0.357   1.244   5.561  0.0676 -0.5763 -0.4647
 4424SOL    HW124905   0.267   1.219   5.580  0.0028  0.2229  0.2483
 4424SOL    HW224906   0.408   1.200   5.629 -1.8064 -3.1422 -0.7025
 4425SOL     OW24907   1.299   2.605   5.027 -0.3842  0.1644 -0.0247
 4425SOL    HW124908   1.362   2.653   4.974 -0.8158  1.2363  0.4250
 4425SOL    HW224909   1.290   2.520   4.984  1.2229 -0.6334  1.2269
 4426SOL     OW24910   3.842   4.696   8.419  0.7875  0.1195 -0.4714
 4426SOL    HW124911   3.763   0.009   8.398  1.9329  2.1950  0.2317
 4426SOL    HW224912   3.916   0.015   8.400  1.8320 -0.8343  0.8210
 4427SOL     OW24913   0.423   0.536   6.809  0.6458 -0.5270 -0.0378
 4427SOL    HW124914   0.507   0.499   6.837 -0.4314 -1.5043  1.9317
 4427SOL    HW224915   0.432   0.628   6.833  2.3355 -0.2175 -1.8367
 4428SOL     OW24916   1.903   0.327   6.078  0.2724  0.6839 -0.0332
 4428SOL    HW124917   1.895   0.232   6.067  0.3567  0.5798  0.8163
 4428SOL    HW224918   1.997   0.335   6.061  0.0201 -0.5217 -1.9928
 4429SOL     OW24919   1.018   2.216   3.368 -0.7353 -0.1841  0.4429
 4429SOL    HW124920   1.064   2.136   3.391  0.2831 -0.1394 -1.3928
 4429SOL    HW224921   1.035   2.271   3.444  1.1367 -1.2713  0.8113
 4430SOL     OW24922   4.338   4.360   4.749 -0.6016 -0.1491 -0.0151
 4430SOL    HW124923   4.313   4.272   4.776  0.8930 -1.7883 -3.9537
 4430SOL    HW224924   4.407   4.392   4.807 -1.4049  3.1956 -0.8563
 4431SOL     OW24925   1.733   3.093  10.534 -0.3047  0.3189 -0.2641
 4431SOL    HW124926   1.807   3.153  10.542 -2.3496  2.9784 -1.4510
 4431SOL    HW224927   1.702   3.097  10.624 -1.1800  0.9394 -0.5940
 4432SOL     OW24928   1.523   3.533   7.346 -0.5925 -0.3843 -0.5672
 4432SOL    HW124929   1.482   3.579   7.419 -0.6208 -1.9178  0.3915
 4432SOL    HW224930   1.548   3.447   7.381 -0.9480 -0.6759 -1.0389
 4433SOL     OW24931   2.301   0.535   3.753  0.2546 -0.1148  0.5198
 4433SOL    HW124932   2.233   0.501   3.810  1.9583 -3.0140  0.8262
 4433SOL    HW224933   2.237   0.574   3.694  0.4724  0.8286  0.9076
 4434SOL     OW24934   0.582   0.857   8.703  0.1508 -0.2536 -0.4024
 4434SOL    HW124935   0.586   0.763   8.685 -2.2323 -0.4148 -0.1561
 4434SOL    HW224936   0.495   0.862   8.744  0.9605  2.3268  1.0045
 4435SOL     OW24937   0.772   1.200   4.925 -0.0287 -0.6551 -0.4941
 4435SOL    HW124938   0.773   1.217   4.831 -1.2370 -0.3664 -0.4467
 4435SOL    HW224939   0.692   1.240   4.957 -0.7689 -0.2579 -2.8237
 4436SOL     OW24940   1.329   1.961   3.565 -0.8157 -0.0510 -0.1229
 4436SOL    HW124941   1.404   1.968   3.624 -1.3218 -1.8016  0.7068
 4436SOL    HW224942   1.323   2.055   3.545 -0.2018 -0.2625 -1.3332
 4437SOL     OW24943   2.304   3.451   1.376 -0.0501  0.7347  0.4289
 4437SOL    HW124944   2.319   3.403   1.295  1.4194 -3.7366  3.3535
 4437SOL    HW224945   2.294   3.374   1.431 -0.2027 -1.4139 -2.6427
 4438SOL     OW24946   1.814   3.337   7.618  0.6073 -0.1178 -0.0704
 4438SOL    HW124947   1.853   3.307   7.700  0.2005  4.2341  1.7339
 4438SOL    HW224948   1.838   3.258   7.569 -1.1026 -0.8736  0.3200
 4439SOL     OW24949   1.706   1.259   4.963 -0.5514  0.2062 -0.1969
 4439SOL    HW124950   1.654   1.324   5.012  1.2114  0.7091  0.9963
 4439SOL    HW224951   1.721   1.194   5.032  2.0200  0.8572 -0.1673
 4440SOL     OW24952   2.225   3.634   4.754  0.0753 -0.5111 -0.6431
 4440SOL    HW124953   2.303   3.608   4.802  0.1529 -1.2242 -1.1603
 4440SOL    HW224954   2.191   3.717   4.789  1.8229  0.3868 -1.0930
 4441SOL     OW24955   0.541   0.745   6.414  0.2375  0.0267  0.2113
 4441SOL    HW124956   0.494   0.794   6.347 -0.7889  2.3791  2.6357
 4441SOL    HW224957   0.489   0.665   6.424 -1.1471  0.7207 -1.4009
 4442SOL     OW24958   2.342   4.695   6.434  0.6555  0.0822 -0.2626
 4442SOL    HW124959   2.318   0.043   6.399 -0.5703  0.0699  0.5494
 4442SOL    HW224960   2.304   4.651   6.358 -1.2926  2.2970 -0.5489
 4443SOL     OW24961   1.035   2.055   5.850 -0.2259  0.1221  0.1864
 4443SOL    HW124962   0.994   1.984   5.800 -1.1622  0.2161  0.8195
 4443SOL    HW224963   1.059   2.118   5.782 -1.9145  0.4654 -0.1067
 4444SOL     OW24964   3.847   0.461   7.945 -0.1199  1.1337  0.5385
 4444SOL    HW124965   3.861   0.549   7.979 -2.3185  1.4961  0.4558
 4444SOL    HW224966   3.922   0.411   7.979  0.2091  0.4628 -1.1894
 4445SOL     OW24967   1.099   0.862  17.464  0.8538 -0.0306  0.6963
 4445SOL    HW124968   1.045   0.784  17.469 -0.9543  1.1103 -1.0227
 4445SOL    HW224969   1.037   0.926  17.499 -1.7011 -1.6246 -0.9678
 4446SOL     OW24970   1.379   1.194   2.376  0.0502 -0.2187  0.1923
 4446SOL    HW124971   1.385   1.176   2.282 -1.3327  0.5749 -0.0423
 4446SOL    HW224972   1.288   1.221   2.385 -0.2559 -0.9542 -0.6661
 4447SOL     OW24973   4.245   2.632   7.469  0.1833  0.2499  0.7871
 4447SOL    HW124974   4.309   2.611   7.401  1.1687  2.4545  1.0267
 4447SOL    HW224975   4.244   2.727   7.455 -2.4800  0.2353  0.7926
 4448SOL     OW24976   2.354   2.728  14.273 -0.1018 -0.0300  0.4189
 4448SOL    HW124977   2.438   2.772  14.288 -0.6564 -0.1664  3.7654
 4448SOL    HW224978   2.359   2.697  14.182 -1.0549 -1.4489  0.8643
 4449SOL     OW24979   1.351   2.290  16.026  0.3713 -0.1948  0.0014
 4449SOL    HW124980   1.424   2.351  16.014 -0.2361  0.6625  0.6415
 4449SOL    HW224981   1.324   2.314  16.115 -0.6080 -3.1301  0.4829
 4450SOL     OW24982   3.447   4.365   2.482  0.2936 -0.1270  0.6260
 4450SOL    HW124983   3.449   4.351   2.577 -1.2737  0.3944  0.7389
 4450SOL    HW224984   3.476   4.279   2.451 -1.6331 -0.3076 -0.6934
 4451SOL     OW24985   0.391   3.050   4.472 -0.4326  0.1127 -0.0634
 4451SOL    HW124986   0.358   3.060   4.383  0.4444 -0.7991 -0.4921
 4451SOL    HW224987   0.317   3.071   4.528 -1.5907  0.0714 -1.5799
 4452SOL     OW24988   2.264   4.144   2.025  0.0219  0.4065 -0.4868
 4452SOL    HW124989   2.281   4.225   2.073 -2.2795  0.2299  0.6028
 4452SOL    HW224990   2.176   4.117   2.051 -0.1624  1.0028 -0.4899
 4453SOL     OW24991   2.278   3.462   7.778 -0.2567  0.6728 -0.4400
 4453SOL    HW124992   2.260   3.397   7.710 -2.2318  0.6992  0.0674
 4453SOL    HW224993   2.276   3.546   7.732  0.7716  0.8237 -0.2015
 4454SOL     OW24994   2.903   0.562   0.400 -0.5622  1.0951 -0.2649
 4454SOL    HW124995   2.980   0.602   0.439 -0.6219  0.8005  0.1550
 4454SOL    HW224996   2.935   0.527   0.317 -0.7741  3.0171 -1.1738
 4455SOL     OW24997   3.617   2.518   0.973  0.1153  0.2286 -0.4780
 4455SOL    HW124998   3.559   2.455   1.015  1.1085  0.3329  1.0463
 4455SOL    HW224999   3.555   2.568   0.921 -0.5950 -0.2158 -0.0561
 4456SOL     OW25000   3.159   3.653   8.136 -0.2615  0.2338 -0.2338
 4456SOL    HW125001   3.145   3.629   8.228 -1.5063  0.1404 -0.4426
 4456SOL    HW225002   3.247   3.691   8.136 -0.2138  0.1213 -0.3221
 4457SOL     OW25003   2.416   1.915   2.275 -0.4831  0.4342  0.3955
 4457SOL    HW125004   2.430   1.987   2.336 -0.9728  3.1835 -2.7830
 4457SOL    HW225005   2.375   1.963   2.204 -2.1452 -2.7960 -0.8469
 4458SOL     OW25006   0.597   4.603   9.647 -0.2016  0.4385 -0.2943
 4458SOL    HW125007   0.535   4.642   9.585  1.9305 -1.0452 -3.3724
 4458SOL    HW225008   0.534   4.554   9.700 -1.6244  2.3560 -0.2182
 4459SOL     OW25009   1.854   4.196   1.920 -0.2110 -0.0424 -0.3850
 4459SOL    HW125010   1.798   4.180   1.844  1.4494 -0.6479 -1.4592
 4459SOL    HW225011   1.832   4.285   1.948  1.0737  0.4652 -0.9858
 4460SOL     OW25012   0.974   1.001   4.353  0.3010  0.3568  0.4699
 4460SOL    HW125013   0.994   1.060   4.426 -1.3958  0.4920  0.8176
 4460SOL    HW225014   1.041   1.036   4.295  2.9110 -4.0885  0.7752
 4461SOL     OW25015   1.054   0.135  13.544 -0.4543  0.5753 -0.6547
 4461SOL    HW125016   1.089   0.104  13.460  1.5910  2.1079 -0.3783
 4461SOL    HW225017   1.001   0.065  13.581  0.1830  0.2247 -0.4050
 4462SOL     OW25018   1.611   2.879   8.003  0.0479  0.2942  0.0934
 4462SOL    HW125019   1.609   2.890   8.098  1.3565  0.9168  0.0467
 4462SOL    HW225020   1.660   2.801   7.977  1.4746  0.7677  1.3814
 4463SOL     OW25021   2.618   0.388   6.702 -0.1989  0.5277  0.6602
 4463SOL    HW125022   2.656   0.307   6.669  0.5157  0.5260  1.4860
 4463SOL    HW225023   2.556   0.409   6.632  0.8478  0.5597 -0.2754
 4464SOL     OW25024   2.962   1.418   7.436  0.3216 -0.3322  0.4330
 4464SOL    HW125025   3.039   1.382   7.394 -0.2442 -0.3807 -0.5602
 4464SOL    HW225026   2.900   1.412   7.364 -0.1850  0.6388  0.7819
 4465SOL     OW25027   4.535   3.591  11.435 -0.2652  0.0093  0.0513
 4465SOL    HW125028   4.586   3.614  11.357  1.0530 -1.5984  0.4175
 4465SOL    HW225029   4.591   3.528  11.481  1.5682  1.3109 -0.3897
 4466SOL     OW25030   3.130   1.210   9.094  0.5654 -0.1024  0.8878
 4466SOL    HW125031   3.182   1.257   9.029 -1.2866 -0.2725 -0.6966
 4466SOL    HW225032   3.095   1.144   9.035 -0.3985  2.2020 -1.0799
 4467SOL     OW25033   0.517   1.686  16.017  0.2716  0.1621  0.4595
 4467SOL    HW125034   0.605   1.702  16.049  0.1108  0.4245  0.7634
 4467SOL    HW225035   0.498   1.758  15.957 -1.0407  0.6654  1.4679
 4468SOL     OW25036   2.821   0.638   1.637  0.6692 -0.4730  0.8509
 4468SOL    HW125037   2.770   0.562   1.668  2.3664 -1.8550  0.2362
 4468SOL    HW225038   2.822   0.684   1.721  0.9983 -0.7951  1.0267
 4469SOL     OW25039   2.046   0.160   6.299  0.3384 -0.1814  0.2998
 4469SOL    HW125040   2.024   0.239   6.349  0.9938  0.6187 -0.6660
 4469SOL    HW225041   2.028   0.098   6.369  0.1672 -0.0508  0.3697
 4470SOL     OW25042   3.780   0.604   9.570 -0.1408  0.3231  0.0705
 4470SOL    HW125043   3.855   0.555   9.539 -0.5594 -1.3124  1.6330
 4470SOL    HW225044   3.807   0.645   9.652  0.0758 -1.4481  0.8921
 4471SOL     OW25045   3.896   1.239   1.282 -0.4380  0.1991 -0.5919
 4471SOL    HW125046   3.966   1.301   1.304 -0.4765 -0.1519  0.4956
 4471SOL    HW225047   3.903   1.248   1.187 -0.7445 -0.8266 -0.7129
 4472SOL     OW25048   1.677   4.026   4.133  0.2722 -0.6315 -0.6371
 4472SOL    HW125049   1.588   4.019   4.099 -0.7401 -1.1966  2.0630
 4472SOL    HW225050   1.724   4.078   4.069  0.2498 -0.4022 -0.4681
 4473SOL     OW25051   3.591   4.536   8.057 -0.3354  0.0452  0.5969
 4473SOL    HW125052   3.498   4.541   8.080 -0.2132  2.6215  0.5133
 4473SOL    HW225053   3.622   4.456   8.099  2.5306  1.3158  0.9254
 4474SOL     OW25054   3.752   1.249   9.558 -0.9965  0.1923 -0.1150
 4474SOL    HW125055   3.739   1.218   9.648  0.6587 -0.9725 -0.2766
 4474SOL    HW225056   3.824   1.194   9.526 -0.6554  2.0755 -2.5954
 4475SOL     OW25057   1.974   0.625   9.471 -0.0498  0.1979 -0.5122
 4475SOL    HW125058   2.015   0.663   9.394 -0.7824  1.7134 -0.1577
 4475SOL    HW225059   1.968   0.705   9.523  1.4209 -0.1947  0.2473
 4476SOL     OW25060   3.339   4.210   4.509  0.6513  0.2268 -0.4050
 4476SOL    HW125061   3.274   4.143   4.534 -1.2053  2.5293  0.8997
 4476SOL    HW225062   3.288   4.280   4.548  1.4398  1.3845 -1.4741
 4477SOL     OW25063   4.288   0.792  15.933  0.3839 -0.0231 -0.4467
 4477SOL    HW125064   4.262   0.796  16.025 -1.4883  0.1295 -0.9681
 4477SOL    HW225065   4.310   0.699  15.927 -1.2645 -0.3811 -0.9817
 4478SOL     OW25066   2.103   3.596   0.808 -0.0602  0.1394  0.0978
 4478SOL    HW125067   2.092   3.534   0.736  1.4952  0.1806 -0.1651
 4478SOL    HW225068   2.038   3.560   0.868  0.1870  1.4223  1.1371
 4479SOL     OW25069   2.192   2.509  10.151  0.2224  0.0777 -0.2092
 4479SOL    HW125070   2.286   2.494  10.138  0.1615 -1.2987  0.9865
 4479SOL    HW225071   2.163   2.537  10.064 -0.7935 -1.8215 -0.4828
 4480SOL     OW25072   0.347   2.451   2.975  0.5037  0.3255 -0.5044
 4480SOL    HW125073   0.357   2.468   2.882  0.0926  0.0120 -0.6055
 4480SOL    HW225074   0.436   2.417   2.985  0.2144  0.0062  0.9855
 4481SOL     OW25075   2.723   0.462   8.518  0.3785 -0.4091 -0.3319
 4481SOL    HW125076   2.655   0.474   8.452  0.6442 -1.6031 -0.8197
 4481SOL    HW225077   2.800   0.450   8.461  1.1129 -2.5870  1.1292
 4482SOL     OW25078   2.751   1.555   3.516 -0.0255  0.1780 -0.0073
 4482SOL    HW125079   2.816   1.507   3.566  1.7630  0.0410 -2.4735
 4482SOL    HW225080   2.667   1.520   3.547  0.8484 -3.0081 -1.2933
 4483SOL     OW25081   4.091   0.277   3.388 -0.4951 -0.5983 -0.4041
 4483SOL    HW125082   4.054   0.245   3.470  0.1425 -2.0578 -0.6833
 4483SOL    HW225083   4.056   0.207   3.333  1.8083 -0.6166 -1.8571
 4484SOL     OW25084   4.391   2.496   1.304 -0.0853  0.4521  0.3632
 4484SOL    HW125085   4.458   2.434   1.274 -3.5191 -2.4197 -1.4171
 4484SOL    HW225086   4.448   2.558   1.351  1.2445 -0.2086 -0.3617
 4485SOL     OW25087   2.759   3.082   7.684  0.7550 -0.0209  0.3498
 4485SOL    HW125088   2.812   3.152   7.721 -1.2182  1.2541  0.7719
 4485SOL    HW225089   2.779   3.020   7.754 -1.5165 -0.0034  1.0328
 4486SOL     OW25090   4.163   2.747   8.966  0.1611  0.2466 -0.6875
 4486SOL    HW125091   4.102   2.674   8.977 -0.9023  1.4531  1.5716
 4486SOL    HW225092   4.222   2.727   8.894  1.8263  0.6158  0.5804
 4487SOL     OW25093   0.912   1.214  13.388 -0.2290  0.0615 -0.2129
 4487SOL    HW125094   0.936   1.162  13.465 -1.2408  3.2121  2.1941
 4487SOL    HW225095   0.950   1.300  13.404  0.3315 -0.0603 -0.9081
 4488SOL     OW25096   0.744   3.052   5.924 -0.0416  0.8213  0.0707
 4488SOL    HW125097   0.833   3.088   5.926 -0.2832  1.3629  1.1961
 4488SOL    HW225098   0.721   3.053   6.017 -1.7165  0.5069 -0.3522
 4489SOL     OW25099   3.441   3.418  16.802 -0.5375 -0.7907 -0.0940
 4489SOL    HW125100   3.521   3.366  16.807 -1.0921 -1.7952 -1.6722
 4489SOL    HW225101   3.437   3.436  16.708 -1.1139  0.2587  0.1245
 4490SOL     OW25102   1.925   0.208   4.865  0.3906  0.0199  0.5431
 4490SOL    HW125103   1.887   0.217   4.952  1.7661 -0.1250  1.1527
 4490SOL    HW225104   1.910   0.296   4.831 -1.7622  0.1759  1.8859
 4491SOL     OW25105   0.293   0.341   6.963  0.3620  0.6420  0.2346
 4491SOL    HW125106   0.316   0.412   6.903 -0.2558  0.6842  0.0448
 4491SOL    HW225107   0.355   0.277   6.929  0.0877 -1.0269  2.9357
 4492SOL     OW25108   3.623   3.898  17.402 -0.4503 -0.3607  0.0110
 4492SOL    HW125109   3.640   3.900  17.308  0.9048  1.4191  0.3120
 4492SOL    HW225110   3.549   3.836  17.404 -0.4184 -0.4435 -1.2637
 4493SOL     OW25111   0.982   3.946   5.716 -0.4224  0.0265 -0.0902
 4493SOL    HW125112   0.942   3.888   5.651  1.1405 -0.2182 -0.8282
 4493SOL    HW225113   0.933   3.940   5.797 -1.2269  0.7831 -0.5161
 4494SOL     OW25114   2.680   2.606   9.289 -0.4816 -0.4036  0.8446
 4494SOL    HW125115   2.700   2.589   9.381 -0.5593  0.1501  0.9614
 4494SOL    HW225116   2.706   2.698   9.293  2.9082 -1.2598 -1.7068
 4495SOL     OW25117   2.186   0.729  10.365  0.4432 -0.2191  0.5079
 4495SOL    HW125118   2.277   0.758  10.363  0.7269 -1.0565  1.0620
 4495SOL    HW225119   2.160   0.716  10.274  3.1012 -1.7254 -0.0362
 4496SOL     OW25120   3.428   3.522   5.706 -0.4339 -0.0799 -0.0651
 4496SOL    HW125121   3.343   3.498   5.669 -1.0996  1.1213  0.6349
 4496SOL    HW225122   3.427   3.611   5.670 -0.3016  0.1485  0.4827
 4497SOL     OW25123   1.857   2.797  10.280 -0.0192  0.0688 -0.2351
 4497SOL    HW125124   1.938   2.833  10.243  1.3797 -1.8209  0.9798
 4497SOL    HW225125   1.856   2.705  10.256 -1.9247 -0.1384  0.6579
 4498SOL     OW25126   1.284   0.496   6.301  0.1166 -0.4236 -0.8374
 4498SOL    HW125127   1.293   0.406   6.332  1.6458  0.3765  1.0045
 4498SOL    HW225128   1.333   0.494   6.219  0.1638 -2.7848 -0.7687
 4499SOL     OW25129   0.564   3.007  14.022  0.4758 -0.7946 -0.1230
 4499SOL    HW125130   0.589   2.915  14.033 -2.0033 -1.3820  0.5539
 4499SOL    HW225131   0.619   3.028  13.946 -2.5954 -0.1918 -2.1743
 4500SOL     OW25132   0.619   2.001   7.379 -0.8343 -0.4754 -0.2439
 4500SOL    HW125133   0.536   2.037   7.408 -1.8216 -2.8359 -0.1297
 4500SOL    HW225134   0.660   1.946   7.446  0.8726  1.6483  0.4342
 4501SOL     OW25135   4.290   3.474   9.751 -0.8574  0.4816 -0.4549
 4501SOL    HW125136   4.342   3.542   9.708 -0.8918  1.0622  0.4292
 4501SOL    HW225137   4.264   3.511   9.835 -1.5320 -2.8809  0.8283
 4502SOL     OW25138   2.953   3.138   5.668  0.0199  0.6872  0.1623
 4502SOL    HW125139   3.019   3.088   5.716  1.0543 -0.5477 -2.5609
 4502SOL    HW225140   3.000   3.219   5.652  1.5072 -0.2573 -0.2210
 4503SOL     OW25141   0.307   0.094  13.112 -0.3741  0.1681 -0.1130
 4503SOL    HW125142   0.273   0.005  13.114 -0.8408  0.3811  1.7241
 4503SOL    HW225143   0.229   0.149  13.101 -1.3087 -1.4311 -1.3204
 4504SOL     OW25144   0.927   2.908   8.054 -0.3031 -0.2590  0.5924
 4504SOL    HW125145   1.004   2.935   8.104 -1.7329  0.3365  2.5086
 4504SOL    HW225146   0.954   2.824   8.016 -1.5857 -1.2810  1.9296
 4505SOL     OW25147   4.080   1.023   1.340 -0.6427 -0.1978  0.0028
 4505SOL    HW125148   4.076   0.983   1.253 -2.0104  1.5192 -0.7244
 4505SOL    HW225149   3.997   1.069   1.334 -0.0050  0.9298 -0.3056
 4506SOL     OW25150   0.062   3.218   2.855 -0.0237 -0.1365  0.0086
 4506SOL    HW125151   0.095   3.169   2.779 -1.1180  1.1203 -1.2708
 4506SOL    HW225152   0.113   3.170   2.921 -1.0635  1.0704  1.6888
 4507SOL     OW25153   2.074   3.651   3.869  0.0043  0.1533 -0.0310
 4507SOL    HW125154   1.982   3.630   3.883 -0.4381  3.5327  2.1357
 4507SOL    HW225155   2.064   3.746   3.860 -0.4849  0.1321  0.2689
 4508SOL     OW25156   2.817   0.425   2.943  0.0812 -0.7024  0.0783
 4508SOL    HW125157   2.868   0.349   2.973  0.4120  0.1106  1.5960
 4508SOL    HW225158   2.884   0.486   2.912  1.3036 -2.6897 -1.1819
 4509SOL     OW25159   4.549   3.359  10.588  0.0984  0.2429 -0.7757
 4509SOL    HW125160   4.462   3.354  10.548 -0.5816 -0.4729  0.7766
 4509SOL    HW225161   4.543   3.278  10.639  0.7240  1.1676  0.7657
 4510SOL     OW25162   0.439   1.853  15.798  0.5101  0.4736  0.2701
 4510SOL    HW125163   0.355   1.867  15.755 -0.0371 -1.6414  0.6103
 4510SOL    HW225164   0.443   1.926  15.859 -1.6696  1.3342 -0.6323
 4511SOL     OW25165   3.300   1.935   1.872 -0.1542 -0.0480 -0.1356
 4511SOL    HW125166   3.311   1.983   1.954 -0.6789 -1.5477  0.8111
 4511SOL    HW225167   3.213   1.961   1.844  1.1075  3.2225 -1.0013
 4512SOL     OW25168   4.205   1.920   4.132  0.1337 -0.1528 -0.4986
 4512SOL    HW125169   4.298   1.907   4.146 -0.2804 -1.4928  0.9414
 4512SOL    HW225170   4.195   2.006   4.175 -0.1472  0.6191 -2.0892
 4513SOL     OW25171   2.935   1.040   8.474  0.0765  0.2916  0.3492
 4513SOL    HW125172   2.903   0.972   8.415  1.6549  2.3933 -2.9517
 4513SOL    HW225173   2.930   0.993   8.557 -0.2571  1.7944  1.1895
 4514SOL     OW25174   2.816   0.636   3.554  0.4885 -0.2327 -0.2870
 4514SOL    HW125175   2.809   0.700   3.625 -1.3033 -0.2372 -0.4590
 4514SOL    HW225176   2.749   0.569   3.570 -0.6566  1.0041  0.0698
 4515SOL     OW25177   4.354   2.022   2.542 -0.0137  0.0942  0.3559
 4515SOL    HW125178   4.302   2.093   2.579  0.4859  0.2928  0.6675
 4515SOL    HW225179   4.443   2.056   2.535  0.1553 -0.8422 -2.0627
 4516SOL     OW25180   2.065   2.054   5.713 -0.4771 -0.2199  1.1485
 4516SOL    HW125181   2.020   1.972   5.691 -0.8588  0.3265 -0.1088
 4516SOL    HW225182   2.027   2.064   5.801  1.3879  0.2093  1.8983
 4517SOL     OW25183   4.106   2.889   0.763  0.1396 -0.0235 -0.3796
 4517SOL    HW125184   4.133   2.847   0.681 -1.3672  0.1843 -0.9782
 4517SOL    HW225185   4.016   2.860   0.775  0.6516 -0.7608  1.5710
 4518SOL     OW25186   4.705   0.898   6.032 -0.0764 -0.0290 -0.1158
 4518SOL    HW125187   4.636   0.836   6.055 -0.6466  0.0983 -1.4727
 4518SOL    HW225188   4.671   0.982   6.062  0.5485 -0.0449  0.6299
 4519SOL     OW25189   1.399   2.867   9.861 -0.5132  0.2651  0.2465
 4519SOL    HW125190   1.334   2.845   9.795 -2.8988  0.2965  2.5830
 4519SOL    HW225191   1.353   2.921   9.927  0.1378  1.3436 -0.1798
 4520SOL     OW25192   3.989   2.448   2.018 -0.0497 -0.2828  0.5687
 4520SOL    HW125193   3.940   2.528   2.035  1.7175  0.3473  2.6387
 4520SOL    HW225194   3.928   2.395   2.070 -0.7601  0.5798  0.6147
 4521SOL     OW25195   4.399   2.845   2.438 -0.5727  0.0433  0.3257
 4521SOL    HW125196   4.465   2.838   2.507  1.6983 -1.7673 -2.0312
 4521SOL    HW225197   4.456   2.837   2.361  1.0401  1.2381  1.4005
 4522SOL     OW25198   1.289   4.314   5.782  0.0292 -0.4032 -0.1832
 4522SOL    HW125199   1.249   4.277   5.703  3.9264  0.7159 -2.7008
 4522SOL    HW225200   1.317   4.399   5.750 -1.2072 -0.6448 -1.9187
 4523SOL     OW25201   1.357   3.316  11.541 -0.0114 -0.0766  0.2670
 4523SOL    HW125202   1.436   3.262  11.532  1.4255  2.1887 -0.7470
 4523SOL    HW225203   1.376   3.378  11.611  0.5592  1.1056 -0.9382
 4524SOL     OW25204   4.379   2.518   9.626  0.5975  0.0345  0.4247
 4524SOL    HW125205   4.443   2.561   9.682  1.0501  2.8424 -2.2563
 4524SOL    HW225206   4.331   2.595   9.596 -1.6645 -1.1314  1.0183
 4525SOL     OW25207   4.353   2.151   1.702  0.0041 -0.5652  0.0551
 4525SOL    HW125208   4.420   2.215   1.725  0.4152 -0.6476 -0.9139
 4525SOL    HW225209   4.279   2.189   1.750 -0.3021 -0.2589 -0.6588
 4526SOL     OW25210   1.949   4.001   8.528 -0.1620 -0.1098 -0.0848
 4526SOL    HW125211   2.031   4.040   8.559 -0.7871  0.1360  1.2564
 4526SOL    HW225212   1.976   3.923   8.479 -3.4683 -0.8834 -0.6477
 4527SOL     OW25213   2.118   4.607  10.631 -0.0160 -0.1257  0.0317
 4527SOL    HW125214   2.152   4.584  10.545 -2.5542 -1.3125 -0.6584
 4527SOL    HW225215   2.085   4.695  10.613  0.8505  0.9189  3.4297
 4528SOL     OW25216   1.260   3.076   0.184  0.2362  0.1628  0.2061
 4528SOL    HW125217   1.312   3.038   0.113  0.7526 -0.6254  0.9899
 4528SOL    HW225218   1.194   3.130   0.141 -0.7745 -1.6142 -0.5202
 4529SOL     OW25219   3.681   3.862  11.266 -0.2886  0.6631  0.0775
 4529SOL    HW125220   3.745   3.915  11.313 -1.2384  0.7706  1.2689
 4529SOL    HW225221   3.732   3.800  11.214  1.3460  1.2443  0.9865
 4530SOL     OW25222   3.002   0.817   2.290  0.0114 -0.5230  0.4125
 4530SOL    HW125223   3.009   0.771   2.373  1.0516 -1.1930 -0.0520
 4530SOL    HW225224   3.097   0.817   2.283 -0.0898 -0.9961 -0.9691
 4531SOL     OW25225   1.042   4.737   8.053 -0.0798  0.0126  0.6165
 4531SOL    HW125226   1.004   4.651   8.072  0.4535 -0.3818 -0.0760
 4531SOL    HW225227   1.021   0.002   7.960  0.6731 -0.2475  0.4381
 4532SOL     OW25228   2.608   2.519   6.068 -0.4043  0.4030  0.2394
 4532SOL    HW125229   2.674   2.463   6.027 -0.2928  1.5265 -1.1492
 4532SOL    HW225230   2.631   2.596   6.016 -1.6489  0.2279 -0.5663
 4533SOL     OW25231   3.557   3.995   7.461  0.1421 -0.0314 -0.8150
 4533SOL    HW125232   3.501   3.981   7.538 -0.2617 -0.1941 -1.1376
 4533SOL    HW225233   3.581   4.085   7.484  1.8761 -0.6151 -0.3691
 4534SOL     OW25234   2.370   4.144   6.604 -0.5074  0.4262 -0.1681
 4534SOL    HW125235   2.364   4.240   6.601  0.7073  0.5126  0.1656
 4534SOL    HW225236   2.439   4.137   6.538 -0.8889 -0.0689 -0.5200
 4535SOL     OW25237   2.895   3.515  14.304  0.6915  0.2147 -0.3258
 4535SOL    HW125238   2.857   3.546  14.222 -0.0218 -1.6411 -0.6899
 4535SOL    HW225239   2.819   3.495  14.359  0.7786  1.7413  0.3641
 4536SOL     OW25240   3.367   2.423   1.574  0.1792  0.1142  0.1125
 4536SOL    HW125241   3.307   2.377   1.633 -0.5219 -0.1848 -0.8480
 4536SOL    HW225242   3.373   2.364   1.498 -1.7264 -0.4125  0.3821
 4537SOL     OW25243   1.862   2.789   3.987  0.0603 -0.9213 -0.4954
 4537SOL    HW125244   1.915   2.867   3.972 -1.0236 -0.1051 -0.0599
 4537SOL    HW225245   1.784   2.806   3.933  1.1612  1.6269 -1.2603
 4538SOL     OW25246   0.425   4.248   6.916  0.1220 -0.0142 -0.0315
 4538SOL    HW125247   0.498   4.300   6.949  0.9442 -1.1159 -0.0905
 4538SOL    HW225248   0.476   4.201   6.850 -0.7264 -1.2009  0.1618
 4539SOL     OW25249   1.402   2.409   6.699 -0.3398 -0.3992  0.2623
 4539SOL    HW125250   1.382   2.326   6.742  0.2500  1.1279  3.4638
 4539SOL    HW225251   1.403   2.385   6.606  0.1369 -0.5192  0.2952
 4540SOL     OW25252   0.452   3.470   2.026  0.1798 -0.3193 -0.4002
 4540SOL    HW125253   0.394   3.499   2.097 -0.9879  3.3993 -2.8558
 4540SOL    HW225254   0.508   3.547   2.018 -1.3442  0.7290 -0.9725
 4541SOL     OW25255   3.818   0.719   0.920 -0.4092  0.2231 -0.6470
 4541SOL    HW125256   3.785   0.653   0.981 -1.3360  0.0448 -1.3427
 4541SOL    HW225257   3.871   0.676   0.853  0.3681  0.1175  0.0481
 4542SOL     OW25258   1.766   3.407   9.264 -0.4391 -0.0520  0.1187
 4542SOL    HW125259   1.846   3.410   9.317  1.1646  0.4563 -2.3191
 4542SOL    HW225260   1.708   3.468   9.310 -3.0670 -1.7855 -0.8987
 4543SOL     OW25261   3.218   2.062   2.377  0.1676  0.6543 -0.0969
 4543SOL    HW125262   3.292   2.008   2.404 -0.8688  0.3680  2.1937
 4543SOL    HW225263   3.239   2.147   2.417 -0.2799  0.7703 -0.1098
 4544SOL     OW25264   2.171   2.747   2.348  0.2764 -0.4172  0.0771
 4544SOL    HW125265   2.198   2.657   2.330 -0.0642 -0.6159  0.5461
 4544SOL    HW225266   2.101   2.762   2.284 -0.8139 -0.9500  1.1229
 4545SOL     OW25267   2.259   1.679   0.440 -0.1117 -0.4514 -0.1178
 4545SOL    HW125268   2.253   1.774   0.448  2.6168 -0.3844  0.9136
 4545SOL    HW225269   2.236   1.688   0.347 -0.0441  0.2537 -0.0658
 4546SOL     OW25270   1.535   2.448  15.642  0.2556  0.1636 -0.4461
 4546SOL    HW125271   1.541   2.370  15.587 -1.0813 -1.6633  1.9839
 4546SOL    HW225272   1.530   2.517  15.576 -0.8852  0.2863 -0.2301
 4547SOL     OW25273   2.400   0.233   6.414 -0.1643 -0.1963  0.4940
 4547SOL    HW125274   2.431   0.286   6.488 -1.1122  0.2306  0.5768
 4547SOL    HW225275   2.483   0.221   6.367  0.1787  0.8320  0.8245
 4548SOL     OW25276   3.481   4.120   5.016  0.3484  0.1746  0.1270
 4548SOL    HW125277   3.534   4.046   5.047  0.6083  0.4475  0.3400
 4548SOL    HW225278   3.544   4.193   5.018 -0.2591  0.7032 -0.0698
 4549SOL     OW25279   1.025   2.761   0.524 -0.5137  0.5593  0.2103
 4549SOL    HW125280   1.072   2.843   0.509 -0.0643  0.3402  0.4148
 4549SOL    HW225281   0.993   2.752   0.434 -0.1139 -3.2604  0.4564
 4550SOL     OW25282   0.897   1.303   5.203 -0.3996 -0.0878 -0.2398
 4550SOL    HW125283   0.846   1.316   5.283  1.5961  1.3074  0.8321
 4550SOL    HW225284   0.839   1.269   5.135 -1.6606 -1.3269  1.4561
 4551SOL     OW25285   3.347   2.617   8.327 -0.6139 -0.0551  0.8318
 4551SOL    HW125286   3.327   2.532   8.366 -2.8851  0.0485 -0.0921
 4551SOL    HW225287   3.437   2.629   8.356  0.1316 -1.0854 -1.0553
 4552SOL     OW25288   1.188   0.887   2.140 -0.7775  0.0980 -0.3281
 4552SOL    HW125289   1.098   0.854   2.136  0.0330 -1.9259 -1.4281
 4552SOL    HW225290   1.223   0.806   2.177  2.4148  0.7589 -1.9581
 4553SOL     OW25291   1.911   4.116   1.504 -0.2326  0.4965  0.2156
 4553SOL    HW125292   1.988   4.144   1.554  0.6041 -1.9748  0.3275
 4553SOL    HW225293   1.924   4.164   1.422  0.5166  1.2239  0.7680
 4554SOL     OW25294   2.358   1.637   1.499  0.3206  0.1402  0.2497
 4554SOL    HW125295   2.404   1.720   1.503  2.0234 -0.9005  2.1287
 4554SOL    HW225296   2.400   1.589   1.571  3.7563  1.8986 -0.5792
 4555SOL     OW25297   0.799   1.072  16.639 -0.1382  0.5255 -0.2632
 4555SOL    HW125298   0.728   1.029  16.686 -0.4344  1.1849 -0.1065
 4555SOL    HW225299   0.855   1.091  16.714 -0.5096  2.9538 -0.5945
 4556SOL     OW25300   1.591   4.641   2.005  0.6695 -0.2056 -0.2063
 4556SOL    HW125301   1.656   4.591   1.955  0.5632 -1.5620  0.9883
 4556SOL    HW225302   1.642   4.720   2.017  0.1492  0.2040 -0.6840
 4557SOL     OW25303   2.447   1.210   8.131  0.3024  0.1088  0.3553
 4557SOL    HW125304   2.504   1.184   8.204 -0.1960 -1.0863  0.3246
 4557SOL    HW225305   2.363   1.174   8.160 -0.0403  1.7908  1.4572
 4558SOL     OW25306   2.322   4.422   6.616 -0.2387  0.2040  0.9175
 4558SOL    HW125307   2.304   4.506   6.574  0.7632  0.7199  1.4967
 4558SOL    HW225308   2.347   4.454   6.703 -0.0189 -0.8109  1.2228
 4559SOL     OW25309   4.309   1.489   9.089  0.1350  0.0883  0.3637
 4559SOL    HW125310   4.310   1.545   9.011  0.8825 -0.1292  0.2141
 4559SOL    HW225311   4.366   1.540   9.146  1.3364 -0.2179 -0.5461
 4560SOL     OW25312   2.833   2.125   4.890 -0.1919 -0.0910 -0.1146
 4560SOL    HW125313   2.874   2.121   4.976  1.6607 -1.1367 -1.0419
 4560SOL    HW225314   2.762   2.189   4.896 -0.7222 -0.7771  0.7737
 4561SOL     OW25315   2.485   0.191  12.644  0.1488 -0.3447  0.0654
 4561SOL    HW125316   2.462   0.226  12.558  0.2900 -2.3569 -0.7972
 4561SOL    HW225317   2.404   0.171  12.690 -0.1408 -1.6554 -0.9987
 4562SOL     OW25318   4.689   3.578   2.186  0.6035  0.1865 -0.5545
 4562SOL    HW125319   4.605   3.607   2.221  1.4402 -0.7741  2.2426
 4562SOL    HW225320   4.680   3.549   2.095  0.4148  1.6452 -0.9993
 4563SOL     OW25321   1.221   1.859   4.371  0.2185  0.2220 -0.2347
 4563SOL    HW125322   1.220   1.764   4.363 -0.2684  0.1369  0.8827
 4563SOL    HW225323   1.168   1.862   4.451 -0.6140 -1.0652 -0.7412
 4564SOL     OW25324   3.935   1.431   6.547  0.0236 -0.4340  0.6567
 4564SOL    HW125325   3.991   1.376   6.601 -1.4811 -1.5476  1.0940
 4564SOL    HW225326   3.892   1.475   6.621  2.3825 -0.5972  2.1235
 4565SOL     OW25327   0.893   2.247   1.200 -0.6263  0.2287  0.0034
 4565SOL    HW125328   0.942   2.316   1.245  0.3507  0.7188 -1.8205
 4565SOL    HW225329   0.872   2.190   1.274 -0.7100  2.3887  1.6535
 4566SOL     OW25330   4.344   0.988   3.310  0.0459  0.0461 -0.0561
 4566SOL    HW125331   4.284   0.954   3.244  1.0481  0.2618 -1.0631
 4566SOL    HW225332   4.355   1.070   3.262 -3.6396  0.0386 -0.9148
 4567SOL     OW25333   0.558   1.042   3.945  0.1316  0.0052 -0.0682
 4567SOL    HW125334   0.506   1.067   3.869  0.5511  0.2131 -0.2932
 4567SOL    HW225335   0.531   1.115   4.002 -0.3818 -0.3516  0.1395
 4568SOL     OW25336   3.751   1.050   6.195 -0.2758 -0.1983 -0.3509
 4568SOL    HW125337   3.743   1.007   6.280 -1.2398 -0.5407 -0.6157
 4568SOL    HW225338   3.709   1.135   6.209  0.5496  0.2462 -0.5810
 4569SOL     OW25339   1.393   3.318   8.327  0.1463 -0.1151 -0.1982
 4569SOL    HW125340   1.450   3.244   8.347  1.0634  0.3503 -1.1078
 4569SOL    HW225341   1.391   3.366   8.409  0.0170  1.1911 -0.9629
 4570SOL     OW25342   4.522   2.685   9.813  0.0590  0.3852 -0.0118
 4570SOL    HW125343   4.609   2.723   9.797  0.0623  0.5794  0.4782
 4570SOL    HW225344   4.474   2.768   9.814 -1.9727 -0.8107  0.8335
 4571SOL     OW25345   2.991   1.723   1.622  0.5135 -0.2498 -0.6227
 4571SOL    HW125346   3.011   1.711   1.715 -0.3952  2.9617 -0.0277
 4571SOL    HW225347   2.942   1.645   1.597 -0.4963  0.2708 -0.2848
 4572SOL     OW25348   2.897   4.387   2.901 -0.4687 -0.2097  0.1729
 4572SOL    HW125349   2.837   4.313   2.895  0.3686 -1.0399  1.9712
 4572SOL    HW225350   2.851   4.450   2.845 -1.9610 -0.9948  0.5200
 4573SOL     OW25351   0.106   3.310   9.096  0.0088 -0.4201  0.5993
 4573SOL    HW125352   0.191   3.329   9.136 -0.8515  1.1804  1.6577
 4573SOL    HW225353   0.097   3.215   9.108  0.6591 -0.1244  3.2985
 4574SOL     OW25354   3.676   0.694  11.488  0.0887 -0.4487  0.1938
 4574SOL    HW125355   3.761   0.735  11.502 -0.2256 -0.0193  0.8672
 4574SOL    HW225356   3.683   0.606  11.527 -0.8093 -0.4081  0.4521
 4575SOL     OW25357   2.927   0.956   3.161 -0.1044  0.3677 -0.1868
 4575SOL    HW125358   2.849   0.955   3.106 -1.9784 -0.0794  2.4782
 4575SOL    HW225359   2.891   0.907   3.235 -3.7632 -0.6831 -2.6893
 4576SOL     OW25360   0.921   2.436  17.385  0.0747 -0.6436  0.0103
 4576SOL    HW125361   0.930   2.521  17.341 -2.4134  0.0189  0.7680
 4576SOL    HW225362   0.827   2.445  17.403 -0.2638  0.3327 -2.2112
 4577SOL     OW25363   1.575   0.328   9.307  0.1716  0.5561  0.1557
 4577SOL    HW125364   1.626   0.401   9.341  1.9726 -1.0524  0.9681
 4577SOL    HW225365   1.627   0.257   9.346 -0.5021 -0.6452 -1.1541
 4578SOL     OW25366   0.107   0.774   6.631 -0.2792  0.0561 -0.8982
 4578SOL    HW125367   0.150   0.693   6.601  2.2600  1.3008 -0.5909
 4578SOL    HW225368   0.139   0.776   6.722  1.6469 -2.2453 -1.4947
 4579SOL     OW25369   1.131   3.626   7.024 -0.5878 -0.1046 -0.7410
 4579SOL    HW125370   1.063   3.579   6.976 -1.1115  2.0018 -2.0848
 4579SOL    HW225371   1.177   3.669   6.951  1.1785  0.1291  0.5160
 4580SOL     OW25372   2.697   0.006   2.959 -0.8753  0.2756 -0.1474
 4580SOL    HW125373   2.742   4.704   2.885 -1.5517 -3.3464  1.4158
 4580SOL    HW225374   2.747   4.703   3.029  1.5512 -0.0828 -2.1029
 4581SOL     OW25375   2.901   0.724   5.056  0.3143  0.4931 -0.3880
 4581SOL    HW125376   2.980   0.710   5.003 -0.1122  2.0426 -1.4385
 4581SOL    HW225377   2.935   0.691   5.139  1.1940  1.5299 -0.3343
 4582SOL     OW25378   3.097   1.145  12.275 -0.2078 -0.3739  0.7678
 4582SOL    HW125379   3.091   1.230  12.231  0.8934  0.0538  1.4437
 4582SOL    HW225380   3.175   1.158  12.329  0.5767  3.8333 -1.3693
 4583SOL     OW25381   1.225   2.717   8.479 -0.2787 -0.2154  0.0041
 4583SOL    HW125382   1.252   2.696   8.390 -0.0961 -0.5616  0.1433
 4583SOL    HW225383   1.246   2.811   8.483  0.7712 -0.4559  0.2941
 4584SOL     OW25384   0.482   4.464   2.799  0.7490  0.8985 -0.2794
 4584SOL    HW125385   0.555   4.405   2.784  1.3589  0.9656  2.4252
 4584SOL    HW225386   0.399   4.426   2.771  0.4379  1.4389 -0.1021
 4585SOL     OW25387   4.487   4.277   0.697  0.1138  0.3939 -0.3795
 4585SOL    HW125388   4.538   4.272   0.616  1.0982 -1.9064  0.3525
 4585SOL    HW225389   4.558   4.298   0.759  0.0618  0.1216 -0.2267
 4586SOL     OW25390   0.167   1.943   1.137 -0.2203 -0.1296 -0.6176
 4586SOL    HW125391   0.146   2.016   1.196  0.4450 -0.2000 -0.2919
 4586SOL    HW225392   0.084   1.895   1.132 -0.0969 -0.8159  3.7215
 4587SOL     OW25393   2.823   0.478   5.251 -0.1539  0.5915 -0.2038
 4587SOL    HW125394   2.728   0.481   5.239 -0.2154 -0.3359  0.1111
 4587SOL    HW225395   2.843   0.387   5.231 -0.4506  0.2299  1.1935
 4588SOL     OW25396   3.817   1.414   0.371 -0.2509  0.5912 -0.1529
 4588SOL    HW125397   3.855   1.430   0.285  0.3815 -1.1397 -0.1893
 4588SOL    HW225398   3.816   1.503   0.406 -4.6368 -0.0869  1.5459
 4589SOL     OW25399   4.101   2.523   3.374  0.5574  0.2114 -0.1834
 4589SOL    HW125400   4.150   2.573   3.439 -2.2662 -2.4737  3.9465
 4589SOL    HW225401   4.047   2.586   3.327 -0.3794  0.4917  1.2768
 4590SOL     OW25402   0.262   3.807   6.259  0.1048  0.0463 -0.0606
 4590SOL    HW125403   0.223   3.722   6.277  0.2740 -0.0708 -0.2354
 4590SOL    HW225404   0.199   3.863   6.303  0.1845  0.7533 -0.8421
 4591SOL     OW25405   1.536   3.096   7.665  0.3103  0.0767 -0.1918
 4591SOL    HW125406   1.616   3.046   7.684  0.2692 -0.9672 -2.7649
 4591SOL    HW225407   1.513   3.118   7.755  1.7374  1.1320 -0.0813
 4592SOL     OW25408   3.142   2.599   1.924 -0.1137  0.3918 -0.0530
 4592SOL    HW125409   3.135   2.694   1.933  0.7904  0.5360 -0.8592
 4592SOL    HW225410   3.055   2.579   1.959 -0.4079  1.0271 -0.4136
 4593SOL     OW25411   0.517   3.486   4.963 -0.3346  0.3740 -0.4068
 4593SOL    HW125412   0.445   3.546   4.978 -0.1563  1.4024 -3.6966
 4593SOL    HW225413   0.530   3.450   5.051 -0.9525  0.1540 -0.4099
 4594SOL     OW25414   2.248   1.667   5.428  0.2989  0.1327 -0.6614
 4594SOL    HW125415   2.154   1.678   5.416  0.1794 -0.9519 -0.7422
 4594SOL    HW225416   2.256   1.579   5.466  0.1757  0.1574 -0.5792
 4595SOL     OW25417   2.316   4.670   3.761  0.2274  0.5773 -0.0650
 4595SOL    HW125418   2.408   4.677   3.784  0.1632  3.1504 -0.5738
 4595SOL    HW225419   2.302   0.017   3.719  1.3451  0.5443 -0.4914
 4596SOL     OW25420   2.594   0.988   4.740  0.0797  1.0632  0.3340
 4596SOL    HW125421   2.614   0.960   4.829 -0.0200  2.8469  0.9277
 4596SOL    HW225422   2.503   1.016   4.744 -0.3592 -0.2732 -0.4875
 4597SOL     OW25423   1.995   0.979  17.070  0.0479 -0.2750 -0.3585
 4597SOL    HW125424   1.936   0.904  17.071 -1.1613  0.6634 -1.7743
 4597SOL    HW225425   1.939   1.056  17.065  2.9962  1.7788 -1.6363
 4598SOL     OW25426   2.407   3.792   2.050 -0.1839 -0.7663  1.3766
 4598SOL    HW125427   2.323   3.805   2.006  0.8260  0.4852 -0.2379
 4598SOL    HW225428   2.407   3.871   2.104 -0.2763  0.1730  0.0266
 4599SOL     OW25429   0.673   1.970  15.660 -0.2058 -0.2270  0.5437
 4599SOL    HW125430   0.674   2.053  15.706  5.2558  0.0146 -0.0205
 4599SOL    HW225431   0.585   1.933  15.672 -0.6043  1.0824  1.5503
 4600SOL     OW25432   2.595   3.963   5.595  0.8494  0.6353  0.1427
 4600SOL    HW125433   2.628   4.043   5.554  1.9109  0.0598 -0.1176
 4600SOL    HW225434   2.513   3.976   5.548  0.6593  1.7225  0.7595
 4601SOL     OW25435   4.523   2.740   6.440  0.1045 -0.5276 -0.1035
 4601SOL    HW125436   4.434   2.738   6.403 -0.1660 -0.2383  0.5215
 4601SOL    HW225437   4.550   2.651   6.416 -2.4935 -1.2551 -0.3509
 4602SOL     OW25438   1.844   3.286   8.447  0.1533  0.2461  0.1254
 4602SOL    HW125439   1.843   3.370   8.401  3.5141 -0.7490 -1.7718
 4602SOL    HW225440   1.845   3.310   8.540  0.4190  1.0591 -0.0789
 4603SOL     OW25441   0.828   3.178   9.221  0.2433  0.6284 -0.1610
 4603SOL    HW125442   0.896   3.240   9.246 -1.7160  1.6507  2.5666
 4603SOL    HW225443   0.877   3.099   9.196 -0.3690  0.4835 -0.9040
 4604SOL     OW25444   2.027   3.999   4.205  0.3223  0.1327  0.8613
 4604SOL    HW125445   1.966   3.929   4.182 -1.6131  1.6528  1.3632
 4604SOL    HW225446   2.110   3.978   4.162  0.3889 -0.0015  1.0576
 4605SOL     OW25447   4.150   0.090   2.238 -0.2043 -0.4492  0.4378
 4605SOL    HW125448   4.073   0.064   2.186 -0.2843  0.0850  0.2895
 4605SOL    HW225449   4.155   0.013   2.294  2.1282 -0.6840 -0.1050
 4606SOL     OW25450   0.252   3.026   8.212 -0.2603  0.1198 -0.3032
 4606SOL    HW125451   0.340   2.987   8.217 -0.0232  0.4143 -2.2022
 4606SOL    HW225452   0.242   3.086   8.285  1.4603  0.7818 -0.6142
 4607SOL     OW25453   1.289   2.584   7.633 -0.0630  0.7466  0.4820
 4607SOL    HW125454   1.349   2.514   7.657  0.5183  1.2440  0.4687
 4607SOL    HW225455   1.345   2.657   7.608 -0.9771  1.3692  0.2520
 4608SOL     OW25456   3.344   3.170   2.255  0.2312 -0.2784  0.1676
 4608SOL    HW125457   3.289   3.212   2.322 -0.8983  1.1041 -1.6458
 4608SOL    HW225458   3.267   3.156   2.200  1.3555 -0.3153 -1.3976
 4609SOL     OW25459   4.218   0.323   5.743  0.8674 -0.3203  0.4708
 4609SOL    HW125460   4.272   0.401   5.734 -0.8992  0.5688 -2.2178
 4609SOL    HW225461   4.235   0.260   5.673 -0.3178 -0.6990  0.5325
 4610SOL     OW25462   3.113   0.917   4.159  0.2124 -0.4697  0.1218
 4610SOL    HW125463   3.164   0.947   4.083  2.7218 -0.9923  1.5976
 4610SOL    HW225464   3.032   0.963   4.140  1.1173 -0.0017 -2.6153
 4611SOL     OW25465   2.399   2.848   4.922  0.6048  0.0244  0.1579
 4611SOL    HW125466   2.468   2.857   4.988  0.6689  2.1469 -0.2126
 4611SOL    HW225467   2.322   2.843   4.979  0.9324 -0.9440  0.5086
 4612SOL     OW25468   2.606   3.953   9.099  0.2340 -0.5443 -0.7142
 4612SOL    HW125469   2.595   4.007   9.178 -3.0485 -0.2283 -1.4113
 4612SOL    HW225470   2.513   3.931   9.094  0.3495 -1.0936 -0.3779
 4613SOL     OW25471   3.455   4.358   7.721  0.2549  0.2872 -0.0119
 4613SOL    HW125472   3.363   4.368   7.746  0.1064  0.9316 -0.8070
 4613SOL    HW225473   3.493   4.295   7.782  0.7873  0.1303 -0.4995
 4614SOL     OW25474   1.745   3.153   3.452  0.1227 -0.4397 -0.6497
 4614SOL    HW125475   1.840   3.160   3.440 -0.2687  1.7375 -2.6328
 4614SOL    HW225476   1.724   3.086   3.516  0.7445 -1.3488 -1.4045
 4615SOL     OW25477   2.198   2.938   8.713 -0.1201  0.0226  0.0817
 4615SOL    HW125478   2.260   3.011   8.708  0.1997 -0.1779  1.0358
 4615SOL    HW225479   2.224   2.879   8.642 -0.9463 -0.9000  0.5483
 4616SOL     OW25480   1.794   3.927   6.753  0.1953  0.3176 -0.0652
 4616SOL    HW125481   1.699   3.917   6.757  0.3328  0.0340  2.5416
 4616SOL    HW225482   1.811   4.021   6.755  1.4187  0.1093 -0.4180
 4617SOL     OW25483   0.608   3.481   3.408 -0.2484  0.1191  0.0248
 4617SOL    HW125484   0.554   3.407   3.380  0.4514 -0.5207  0.3605
 4617SOL    HW225485   0.662   3.448   3.480 -0.2200 -1.5706 -0.7775
 4618SOL     OW25486   2.892   2.332   7.336 -0.3641  0.9070 -0.6012
 4618SOL    HW125487   2.971   2.279   7.342 -2.3098 -1.8226  1.0055
 4618SOL    HW225488   2.926   2.399   7.395 -2.0097  0.2868  1.0706
 4619SOL     OW25489   2.475   3.328   3.838  0.3606 -0.5336 -0.2031
 4619SOL    HW125490   2.427   3.252   3.804  1.2966 -0.5725 -1.4672
 4619SOL    HW225491   2.408   3.381   3.881  1.6890  0.0595  1.1179
 4620SOL     OW25492   0.695   1.939   6.164 -0.5305  0.0045  0.9141
 4620SOL    HW125493   0.754   1.896   6.101 -2.3259 -0.7750 -0.2294
 4620SOL    HW225494   0.650   1.869   6.210 -0.0449  1.0905  3.0281
 4621SOL     OW25495   2.834   0.289  12.349  0.0953  0.8002 -0.1957
 4621SOL    HW125496   2.885   0.317  12.425  1.1725 -0.4283 -0.4748
 4621SOL    HW225497   2.869   0.341  12.277  0.8853  1.7953  0.9030
 4622SOL     OW25498   1.331   3.398  10.610 -0.1419 -0.4983  0.1836
 4622SOL    HW125499   1.291   3.420  10.526 -0.1437 -0.1512  0.2764
 4622SOL    HW225500   1.353   3.307  10.592  2.2201 -0.2497  1.7103
 4623SOL     OW25501   4.472   2.376   7.790  0.6585 -0.7118  0.0478
 4623SOL    HW125502   4.481   2.306   7.726 -0.2684 -1.3287  0.5981
 4623SOL    HW225503   4.382   2.406   7.777  0.4269 -2.3306 -1.9483
 4624SOL     OW25504   2.934   0.226   4.334 -0.2460  0.1630  0.8441
 4624SOL    HW125505   2.880   0.274   4.270  0.7921 -0.7450 -0.7262
 4624SOL    HW225506   2.930   0.293   4.402  1.0749  0.4218  0.6865
 4625SOL     OW25507   4.362   2.502   3.243  0.7627 -0.0018 -0.0427
 4625SOL    HW125508   4.275   2.468   3.222  0.0439  1.7990  0.0079
 4625SOL    HW225509   4.407   2.425   3.276 -0.6955 -2.0126 -2.7211
 4626SOL     OW25510   0.581   1.258   4.184  0.1158  0.2951  0.2458
 4626SOL    HW125511   0.626   1.190   4.234  0.6599  0.6210  0.1935
 4626SOL    HW225512   0.648   1.309   4.139 -2.8469  2.3951 -1.7884
 4627SOL     OW25513   3.050   2.750   9.001 -0.2790  0.2752  0.5896
 4627SOL    HW125514   2.972   2.697   9.012  0.4705 -0.4876  2.2174
 4627SOL    HW225515   3.060   2.740   8.906 -1.6108 -1.9348  0.6977
 4628SOL     OW25516   0.771   4.247   2.599 -0.1830  0.3406  0.1793
 4628SOL    HW125517   0.677   4.230   2.605 -0.2947  0.5373 -0.9079
 4628SOL    HW225518   0.769   4.268   2.506 -1.2396  2.4157  0.6825
 4629SOL     OW25519   2.138   0.256  13.284  0.5304  0.1654 -0.1898
 4629SOL    HW125520   2.210   0.318  13.280  1.5422 -0.9214  0.7918
 4629SOL    HW225521   2.098   0.265  13.371 -0.5450 -1.0137 -0.5729
 4630SOL     OW25522   2.724   4.377   3.930 -0.3687 -0.8505 -0.1770
 4630SOL    HW125523   2.673   4.419   3.999  0.4981  1.3724 -0.9014
 4630SOL    HW225524   2.748   4.448   3.870  0.5872 -0.7146  0.3699
 4631SOL     OW25525   0.068   1.085  15.483 -0.1504  0.3942  0.1260
 4631SOL    HW125526   0.068   1.152  15.414 -1.9672 -0.2562 -0.5000
 4631SOL    HW225527   0.030   1.005  15.448 -0.4195  0.3698  0.4712
 4632SOL     OW25528   1.821   4.457   3.774  0.7362 -0.0666 -0.5196
 4632SOL    HW125529   1.907   4.431   3.740  1.2594 -0.9666  1.5505
 4632SOL    HW225530   1.762   4.407   3.718  0.3674  1.2174 -1.2770
 4633SOL     OW25531   2.472   2.879   5.781 -0.2476  0.3040 -0.2068
 4633SOL    HW125532   2.433   2.869   5.695 -1.7639  1.6281  0.3302
 4633SOL    HW225533   2.502   2.970   5.778 -1.4390  0.6803 -0.6375
 4634SOL     OW25534   1.357   1.799   2.846  0.8320 -0.3277 -0.0141
 4634SOL    HW125535   1.269   1.780   2.880  0.9483  0.7273  0.9161
 4634SOL    HW225536   1.401   1.850   2.915 -0.0082  0.5666 -0.1330
 4635SOL     OW25537   1.397   2.651   3.783  0.2429 -0.3934  0.2240
 4635SOL    HW125538   1.492   2.646   3.793  0.6969  2.2867 -2.5879
 4635SOL    HW225539   1.391   2.735   3.829 -0.2828  0.0782 -0.6854
 4636SOL     OW25540   4.726   1.448   3.253  0.1237  0.3413 -0.6900
 4636SOL    HW125541   4.646   1.477   3.209  1.0061  1.0540 -1.8357
 4636SOL    HW225542   4.698   1.371   3.302 -0.8610 -0.0968 -1.9489
 4637SOL     OW25543   4.555   2.667   3.363  0.0052 -0.5010 -0.4226
 4637SOL    HW125544   4.611   2.675   3.285  0.4449  0.5025 -0.0054
 4637SOL    HW225545   4.486   2.607   3.334 -1.4693  0.3617  1.3162
 4638SOL     OW25546   4.349   0.794  15.244  0.5771 -0.0630 -0.6775
 4638SOL    HW125547   4.408   0.762  15.176  0.8495  1.5677 -1.2074
 4638SOL    HW225548   4.393   0.781  15.328  1.9050  1.8314 -1.0972
 4639SOL     OW25549   4.486   0.372   8.538 -0.1161 -0.6410 -0.5418
 4639SOL    HW125550   4.501   0.312   8.612  1.9528 -0.2521 -0.6457
 4639SOL    HW225551   4.562   0.429   8.541 -0.8313  0.1981  1.7812
 4640SOL     OW25552   0.421   4.446  12.243 -0.5643 -0.0395  0.2567
 4640SOL    HW125553   0.483   4.431  12.315 -1.3149 -0.9977  0.7165
 4640SOL    HW225554   0.392   4.535  12.264 -1.5574 -0.1531 -0.6362
 4641SOL     OW25555   0.884   4.192  13.699  0.7172  0.0010 -0.0752
 4641SOL    HW125556   0.834   4.143  13.764  0.0596 -0.6570 -1.0756
 4641SOL    HW225557   0.966   4.144  13.687  0.3720 -0.3230 -1.0902
 4642SOL     OW25558   4.227   2.767   8.110 -1.1861 -0.2177 -0.1707
 4642SOL    HW125559   4.246   2.848   8.157  1.4450 -2.7826  3.1911
 4642SOL    HW225560   4.304   2.767   8.052 -1.7838 -1.6835 -0.9489
 4643SOL     OW25561   1.406   2.905   3.390  0.0674  0.0624 -0.5083
 4643SOL    HW125562   1.475   2.852   3.349  0.3617 -0.1739  0.2961
 4643SOL    HW225563   1.452   2.919   3.473 -0.4902  0.7014 -0.3051
 4644SOL     OW25564   4.506   4.333   6.060  0.2883 -0.7149 -0.3119
 4644SOL    HW125565   4.591   4.377   6.060  0.1248 -0.4010 -0.2721
 4644SOL    HW225566   4.446   4.407   6.056 -0.8273 -1.7322 -2.7919
 4645SOL     OW25567   1.163   2.347   4.872  0.2826 -0.3100 -0.4204
 4645SOL    HW125568   1.149   2.420   4.812 -0.9709 -1.5662 -1.6319
 4645SOL    HW225569   1.233   2.299   4.827 -0.2160 -1.6329  0.2225
 4646SOL     OW25570   3.574   1.222   3.587 -0.4146  0.3371  0.5315
 4646SOL    HW125571   3.596   1.133   3.559 -1.6709 -0.2920  1.5409
 4646SOL    HW225572   3.660   1.242   3.623 -0.6912  3.6221 -0.5534
 4647SOL     OW25573   2.310   0.501   3.280  0.2893  0.1928 -0.6381
 4647SOL    HW125574   2.256   0.579   3.267  0.1998  0.4269  1.1719
 4647SOL    HW225575   2.369   0.529   3.350  0.1303 -2.5704  0.6100
 4648SOL     OW25576   1.868   2.023   2.513 -0.5343  0.0297 -0.2754
 4648SOL    HW125577   1.819   1.963   2.568 -0.7508 -0.1253 -0.6388
 4648SOL    HW225578   1.807   2.097   2.518 -0.4322  0.1301 -0.4969
 4649SOL     OW25579   0.181   4.293   4.959  0.0186 -0.1914  0.2516
 4649SOL    HW125580   0.124   4.250   5.022 -0.0351  0.7612  0.8479
 4649SOL    HW225581   0.154   4.385   4.959  0.1478 -0.1481 -1.6536
 4650SOL     OW25582   1.064   2.154   2.360  0.2180 -0.4613  0.0495
 4650SOL    HW125583   1.101   2.099   2.429 -2.3310 -2.9666 -0.5807
 4650SOL    HW225584   0.981   2.107   2.348 -1.7523  3.1317 -0.2977
 4651SOL     OW25585   2.376   0.547   8.874 -0.2087 -0.1135 -0.3069
 4651SOL    HW125586   2.374   0.501   8.958  1.5127  1.5074  0.6170
 4651SOL    HW225587   2.459   0.514   8.840 -0.2975  1.0981 -1.6843
 4652SOL     OW25588   3.406   3.698   4.325  0.0633  0.0969 -0.1166
 4652SOL    HW125589   3.369   3.786   4.329  0.2040  0.1652 -0.3355
 4652SOL    HW225590   3.474   3.693   4.258  0.1874  2.5854 -0.1544
 4653SOL     OW25591   3.301   2.393   5.248 -0.2047 -0.2327 -0.1869
 4653SOL    HW125592   3.332   2.344   5.324 -1.7490 -0.8440  0.0586
 4653SOL    HW225593   3.251   2.325   5.204 -0.8089 -0.4930  0.8827
 4654SOL     OW25594   2.041   1.586   0.546  0.0791 -0.9404  0.0953
 4654SOL    HW125595   1.980   1.582   0.472  0.1340 -0.9016  0.0483
 4654SOL    HW225596   2.115   1.632   0.508 -0.4473  0.8727  1.2294
 4655SOL     OW25597   0.419   2.032   1.725  0.3684 -0.0828  0.4824
 4655SOL    HW125598   0.355   1.969   1.692 -0.7858  2.1098 -1.4515
 4655SOL    HW225599   0.354   2.080   1.776 -0.5151 -0.7156 -0.0486
 4656SOL     OW25600   4.487   3.916   5.008  0.6587 -0.4488 -0.4714
 4656SOL    HW125601   4.461   3.857   5.079 -0.5515  2.2353  1.3095
 4656SOL    HW225602   4.451   3.878   4.928 -2.3392  0.8780  0.2765
 4657SOL     OW25603   3.184   2.123  10.434  0.6574  0.1225 -0.2748
 4657SOL    HW125604   3.174   2.208  10.475  1.9633 -0.5781  1.4854
 4657SOL    HW225605   3.245   2.137  10.361  0.3563  1.9922 -0.1531
 4658SOL     OW25606   1.298   1.318  11.214 -0.2639 -0.8140  0.2935
 4658SOL    HW125607   1.228   1.280  11.267 -0.8698  0.9212  0.7486
 4658SOL    HW225608   1.370   1.267  11.249 -0.3770 -1.7850 -0.8864
 4659SOL     OW25609   3.766   1.200   8.954  0.1680  0.4071 -0.5896
 4659SOL    HW125610   3.745   1.286   8.919  1.7178  0.7448 -0.6958
 4659SOL    HW225611   3.749   1.218   9.047  1.9639  1.2406 -0.4316
 4660SOL     OW25612   4.228   2.535   4.787  0.2569 -0.0229 -0.7504
 4660SOL    HW125613   4.312   2.579   4.774  1.3625 -2.1449 -0.7938
 4660SOL    HW225614   4.247   2.446   4.819 -0.8932 -1.3621 -3.7758
 4661SOL     OW25615   0.816   0.710   6.405  0.1427 -0.0090  0.1123
 4661SOL    HW125616   0.723   0.724   6.388  0.4049  2.8390  1.0988
 4661SOL    HW225617   0.855   0.692   6.319 -1.9157  0.5106 -0.9241
 4662SOL     OW25618   0.999   3.574  12.777  0.6696 -0.4345  0.1428
 4662SOL    HW125619   1.040   3.561  12.863 -3.0897 -1.0864  1.7980
 4662SOL    HW225620   0.914   3.606  12.805  0.8166  0.7360 -0.7269
 4663SOL     OW25621   3.563   0.701   5.055 -0.5052  0.2261  0.2065
 4663SOL    HW125622   3.575   0.607   5.044  1.2251  0.3990  0.5848
 4663SOL    HW225623   3.638   0.741   5.011 -0.0195  0.8480  1.5995
 4664SOL     OW25624   3.760   1.690   3.573  0.5816  0.2350 -0.1248
 4664SOL    HW125625   3.718   1.652   3.651  1.9109  1.0287  0.9885
 4664SOL    HW225626   3.745   1.617   3.513  0.0510  0.4251 -0.2280
 4665SOL     OW25627   3.427   3.666   4.751 -0.3812  0.0352  0.3338
 4665SOL    HW125628   3.480   3.693   4.677 -2.4266  1.8096 -0.4562
 4665SOL    HW225629   3.361   3.735   4.760 -1.7202 -1.1659 -0.3034
 4666SOL     OW25630   0.384   3.091   1.368  0.3134  0.1536  0.2531
 4666SOL    HW125631   0.299   3.076   1.411  0.0755 -1.0164 -0.6462
 4666SOL    HW225632   0.425   3.006   1.377 -1.6978 -1.0452 -1.8979
 4667SOL     OW25633   1.457   3.068  10.063 -0.6507 -0.2366 -0.7112
 4667SOL    HW125634   1.529   3.050  10.125 -1.6687 -1.0866  0.2216
 4667SOL    HW225635   1.505   3.086   9.982 -1.7200 -2.1168 -1.7514
 4668SOL     OW25636   1.175   4.505  13.050 -0.1571  0.3989  0.2187
 4668SOL    HW125637   1.126   4.493  13.131 -3.0970  1.3540 -1.4290
 4668SOL    HW225638   1.226   4.425  13.034  2.4573  2.3667 -1.2850
 4669SOL     OW25639   2.666   1.651   5.403 -0.2847  0.4142  0.0004
 4669SOL    HW125640   2.620   1.719   5.451 -0.1806  1.0649 -0.8099
 4669SOL    HW225641   2.651   1.676   5.312 -0.7118  0.2489  0.0259
 4670SOL     OW25642   0.931   1.058   3.985  0.3960  0.0411 -0.0881
 4670SOL    HW125643   0.902   1.124   3.922 -0.2858  1.1900  1.4042
 4670SOL    HW225644   0.852   1.019   4.024  0.3329  3.4752  3.2704
 4671SOL     OW25645   2.257   4.676  14.042 -0.2549  0.0353 -0.0692
 4671SOL    HW125646   2.177   4.660  13.992  0.2359 -0.3039 -0.7450
 4671SOL    HW225647   2.286   0.014  13.993  1.0591 -0.5117 -0.1434
 4672SOL     OW25648   2.962   0.455   4.847 -0.0729 -0.3849 -0.4652
 4672SOL    HW125649   3.002   0.541   4.846 -0.0838 -0.3490  1.5111
 4672SOL    HW225650   3.040   0.410   4.880  1.6884  0.7509 -3.1388
 4673SOL     OW25651   2.789   3.162  13.209 -0.2309 -0.7503  0.3597
 4673SOL    HW125652   2.726   3.138  13.142 -1.0039  0.2960  0.7140
 4673SOL    HW225653   2.751   3.123  13.288 -1.9948 -3.7848 -2.0187
 4674SOL     OW25654   2.251   4.738   1.938 -0.5959  0.0266 -0.0088
 4674SOL    HW125655   2.196   0.078   1.925 -0.7659 -0.0698  0.1313
 4674SOL    HW225656   2.231   4.688   1.858 -0.9068 -1.9259  1.2705
 4675SOL     OW25657   1.131   0.884   3.438  0.1135 -0.4430 -0.0687
 4675SOL    HW125658   1.191   0.814   3.465  0.1562 -0.4656 -0.2215
 4675SOL    HW225659   1.093   0.914   3.520  0.6417 -0.9327  0.3551
 4676SOL     OW25660   1.062   3.829  13.058  0.8709 -0.2029  0.0976
 4676SOL    HW125661   1.068   3.893  13.129  1.2389  0.3173 -0.3987
 4676SOL    HW225662   1.132   3.771  13.085  0.2326 -2.0308 -2.1818
 4677SOL     OW25663   1.043   2.296   4.155 -0.4305  0.4194 -0.1505
 4677SOL    HW125664   0.966   2.241   4.142 -1.0084  0.9432  1.1102
 4677SOL    HW225665   1.045   2.307   4.249  1.3719 -0.3099 -0.0951
 4678SOL     OW25666   2.885   0.460   7.978  0.2504 -0.1412 -0.0502
 4678SOL    HW125667   2.866   0.536   8.034  0.8500 -1.0705  1.3980
 4678SOL    HW225668   2.965   0.423   8.015 -0.5845  1.2994  3.2678
 4679SOL     OW25669   4.327   2.386  14.416  0.0473 -0.2149  0.0675
 4679SOL    HW125670   4.406   2.332  14.415  0.4885  0.4093  0.9590
 4679SOL    HW225671   4.259   2.329  14.381 -0.7175  0.5935  0.2324
 4680SOL     OW25672   4.518   3.784   4.384 -0.2449  0.3283 -0.3653
 4680SOL    HW125673   4.491   3.713   4.443  0.4593 -1.2173 -1.8954
 4680SOL    HW225674   4.564   3.836   4.450  0.2162 -1.4407  0.7043
 4681SOL     OW25675   1.666   3.297   1.665 -0.1215  0.2709  0.0856
 4681SOL    HW125676   1.595   3.308   1.729 -0.6345 -0.4297 -0.3579
 4681SOL    HW225677   1.748   3.277   1.711 -0.2187 -1.3815 -0.4694
 4682SOL     OW25678   2.842   0.670   8.738  0.0412 -0.5984  0.2713
 4682SOL    HW125679   2.821   0.663   8.645 -1.7726  0.7486  0.5767
 4682SOL    HW225680   2.846   0.579   8.766 -0.5967 -1.8063 -3.4935
 4683SOL     OW25681   0.566   3.484   2.338  0.8376 -0.3052  0.6680
 4683SOL    HW125682   0.563   3.506   2.431 -0.3243  0.2727  0.4858
 4683SOL    HW225683   0.556   3.570   2.297  1.9119 -1.5645 -2.2434
 4684SOL     OW25684   0.156   1.173   7.370 -0.1425  0.0957  0.2102
 4684SOL    HW125685   0.197   1.236   7.310 -0.9032  0.4130  0.0300
 4684SOL    HW225686   0.130   1.105   7.307  1.0921  1.2984 -1.6216
 4685SOL     OW25687   2.481   0.350   7.766 -0.1038 -0.6931  0.2027
 4685SOL    HW125688   2.529   0.432   7.748 -2.3568  1.5478  4.3271
 4685SOL    HW225689   2.538   0.323   7.838  1.0830 -0.4716 -0.6446
 4686SOL     OW25690   2.930   2.732   6.672 -0.2621 -0.2962  0.3326
 4686SOL    HW125691   2.840   2.752   6.643  0.3256  1.6945 -0.0903
 4686SOL    HW225692   2.941   2.638   6.659  1.3528  0.1072 -1.2116
 4687SOL     OW25693   3.296   1.292  10.090  0.1836  0.5504  0.2813
 4687SOL    HW125694   3.224   1.283  10.028  0.2800 -0.2660  0.2887
 4687SOL    HW225695   3.338   1.206  10.087 -0.1880  0.4119 -0.8921
 4688SOL     OW25696   3.102   4.281   6.583 -0.2766  0.0536  0.5863
 4688SOL    HW125697   3.088   4.196   6.541 -3.2787  1.8955 -2.0834
 4688SOL    HW225698   3.172   4.261   6.645 -0.9735  0.2255  1.4424
 4689SOL     OW25699   2.320   1.922   6.951  0.3214 -0.0229 -0.7813
 4689SOL    HW125700   2.343   1.829   6.940 -1.3047 -0.5485  0.2467
 4689SOL    HW225701   2.347   1.946   6.863 -1.5880  3.1097 -0.5197
 4690SOL     OW25702   0.245   1.918  17.022 -0.2041  0.5172  0.8396
 4690SOL    HW125703   0.215   1.894  17.109  0.9746  2.1539  1.7075
 4690SOL    HW225704   0.319   1.858  17.011 -0.0893  0.6484  0.8996
 4691SOL     OW25705   4.414   3.065   6.020 -0.3956 -0.0802 -0.3973
 4691SOL    HW125706   4.393   2.976   6.046 -2.1883  0.2147 -0.8200
 4691SOL    HW225707   4.325   3.099   6.024 -0.0099  1.0302 -1.3204
 4692SOL     OW25708   2.605   2.499   9.572  0.3057 -0.7375  0.5067
 4692SOL    HW125709   2.670   2.516   9.640  1.6097 -3.2472 -0.1183
 4692SOL    HW225710   2.530   2.546   9.608  0.4376 -1.5052  1.8231
 4693SOL     OW25711   2.591   0.527   2.441 -0.0594  0.7196  0.0236
 4693SOL    HW125712   2.552   0.579   2.370 -0.2754 -0.5780 -0.7963
 4693SOL    HW225713   2.506   0.486   2.456  0.3674 -0.4295 -0.7587
 4694SOL     OW25714   1.899   1.119   2.838  0.5209  0.0172 -0.4361
 4694SOL    HW125715   1.938   1.203   2.864 -0.4951  0.5016 -0.4572
 4694SOL    HW225716   1.936   1.060   2.903 -2.0008 -0.5967  0.4498
 4695SOL     OW25717   3.353   3.820  15.494 -0.2330  0.4800 -0.1001
 4695SOL    HW125718   3.280   3.861  15.541 -1.2287  0.0740 -1.2823
 4695SOL    HW225719   3.323   3.837  15.405  0.1984 -2.0787 -0.7325
 4696SOL     OW25720   2.704   2.529   1.361 -0.1572  0.6378  0.0563
 4696SOL    HW125721   2.692   2.601   1.299  1.2798 -1.2415 -2.3691
 4696SOL    HW225722   2.718   2.588   1.435  2.1079 -1.0296  0.9392
 4697SOL     OW25723   0.794   0.621   4.485 -0.3440  0.1267 -0.1362
 4697SOL    HW125724   0.856   0.549   4.471  1.4711  1.5840  0.2774
 4697SOL    HW225725   0.835   0.676   4.419  1.6310  0.8021  1.6367
 4698SOL     OW25726   4.527   0.270  10.680 -0.3041 -0.1137  0.1456
 4698SOL    HW125727   4.450   0.293  10.628  0.5658 -0.7326 -1.3963
 4698SOL    HW225728   4.503   0.184  10.715  2.0881 -0.5913  0.6148
 4699SOL     OW25729   2.385   0.431   9.399  0.4234  0.3460 -0.3687
 4699SOL    HW125730   2.460   0.374   9.414  0.2285  0.0571 -0.4843
 4699SOL    HW225731   2.344   0.437   9.485  1.3170 -0.9035  0.1246
 4700SOL     OW25732   2.624   4.175   3.746 -0.8071  0.5109  0.0080
 4700SOL    HW125733   2.649   4.263   3.773  1.3145 -0.0829 -0.0548
 4700SOL    HW225734   2.636   4.132   3.830 -0.0165 -0.9995 -0.8764
 4701SOL     OW25735   3.842   2.880  17.196 -0.4684  0.3940 -0.0256
 4701SOL    HW125736   3.883   2.799  17.164 -0.3572  0.7298 -0.7380
 4701SOL    HW225737   3.818   2.914  17.110 -0.9506 -0.0104 -0.0534
 4702SOL     OW25738   0.221   1.928   3.766 -0.0325 -0.3278 -0.4123
 4702SOL    HW125739   0.147   1.918   3.706 -1.2116 -1.9296  1.2882
 4702SOL    HW225740   0.286   1.931   3.696  2.3590  2.8942  1.9046
 4703SOL     OW25741   2.156   2.075   9.384 -0.2287  0.5038 -0.0949
 4703SOL    HW125742   2.107   2.078   9.302 -0.6956 -1.2005  0.1150
 4703SOL    HW225743   2.244   2.060   9.351  0.2930 -2.3227  2.6320
 4704SOL     OW25744   0.559   1.646   7.315  0.5435  0.3466 -0.1399
 4704SOL    HW125745   0.644   1.603   7.312  1.5041  2.2577 -0.5236
 4704SOL    HW225746   0.545   1.656   7.221 -1.4243  0.5347  0.1759
 4705SOL     OW25747   3.171   1.080   9.326 -0.5499 -0.3769  0.1268
 4705SOL    HW125748   3.198   1.134   9.400  0.4667 -2.0415  0.9444
 4705SOL    HW225749   3.164   1.147   9.257 -1.8870  2.6296  3.1556
 4706SOL     OW25750   1.694   1.727   8.933  0.0450 -0.6752  0.6029
 4706SOL    HW125751   1.739   1.657   8.980  0.2667 -0.7382  0.2936
 4706SOL    HW225752   1.736   1.805   8.970 -0.6169 -0.0113 -0.0402
 4707SOL     OW25753   3.955   0.727   7.364 -0.5906  0.5842 -0.1850
 4707SOL    HW125754   3.880   0.667   7.357  0.2544 -0.2092 -2.4447
 4707SOL    HW225755   3.976   0.711   7.456  1.4889  3.4901 -0.1941
 4708SOL     OW25756   0.489   2.095   0.016  0.2537 -0.7700 -0.7411
 4708SOL    HW125757   0.416   2.158   0.011  0.0856 -0.7952  1.1810
 4708SOL    HW225758   0.541   2.140   0.082 -1.0433 -1.8607  1.0194
 4709SOL     OW25759   3.933   0.436   7.682  0.3481  0.2831 -0.3843
 4709SOL    HW125760   3.973   0.349   7.679 -1.4585 -0.5406 -0.6206
 4709SOL    HW225761   3.861   0.417   7.743 -1.6986  2.3059 -2.2042
 4710SOL     OW25762   1.845   3.284   5.458  0.2789 -1.1449  0.1184
 4710SOL    HW125763   1.927   3.236   5.449  0.3785 -0.8068 -0.7998
 4710SOL    HW225764   1.782   3.215   5.481 -0.1529  0.2022  2.8882
 4711SOL     OW25765   3.082   3.891  17.071 -0.3059  0.0265  0.2314
 4711SOL    HW125766   3.123   3.975  17.053  0.1717 -0.2221  0.1524
 4711SOL    HW225767   2.997   3.935  17.069  0.0077  0.8740  4.0425
 4712SOL     OW25768   1.075   1.745  15.765  0.4241  0.3016  0.0369
 4712SOL    HW125769   0.988   1.733  15.804  0.3889  1.3447  0.2835
 4712SOL    HW225770   1.122   1.714  15.843  2.2374 -0.2563 -1.2877
 4713SOL     OW25771   1.173   2.798   5.225 -0.6039  0.2660  0.2939
 4713SOL    HW125772   1.097   2.819   5.170 -1.1740 -1.0809  0.5698
 4713SOL    HW225773   1.229   2.756   5.159  0.3581  0.5528  0.9252
 4714SOL     OW25774   2.061   4.462   5.776 -0.4015  0.2089  0.5409
 4714SOL    HW125775   2.080   4.528   5.709  2.1212 -0.3201  0.7610
 4714SOL    HW225776   2.141   4.463   5.828  0.5323 -0.9812 -0.9028
 4715SOL     OW25777   0.600   1.049   1.109  0.6182  0.1920 -0.1609
 4715SOL    HW125778   0.580   1.105   1.034 -0.5529 -0.3547 -0.2489
 4715SOL    HW225779   0.660   0.981   1.079  0.5683 -0.3961  1.0873
 4716SOL     OW25780   2.352   0.296   2.097 -0.0016  0.5483  0.3693
 4716SOL    HW125781   2.278   0.322   2.043  0.8157 -0.1773 -1.1010
 4716SOL    HW225782   2.381   0.385   2.119 -0.0201  0.6693 -0.0797
 4717SOL     OW25783   0.072   3.165   5.476 -0.5922  0.4624 -0.3241
 4717SOL    HW125784   0.082   3.159   5.571 -0.8991 -0.3550 -0.3393
 4717SOL    HW225785   0.165   3.164   5.451  0.0694  0.7058  2.1394
 4718SOL     OW25786   3.099   1.048   6.973  0.0585 -0.1060  0.7049
 4718SOL    HW125787   3.130   1.006   6.893  0.5419 -1.8867  1.8332
 4718SOL    HW225788   3.049   0.979   7.016 -1.6200  0.9694  0.5030
 4719SOL     OW25789   1.837   2.293   5.811  0.0361  0.1469 -0.0864
 4719SOL    HW125790   1.782   2.369   5.830  1.6021  0.9430  1.2280
 4719SOL    HW225791   1.913   2.324   5.762  0.2985  1.8086  1.3785
 4720SOL     OW25792   1.941   1.232   1.808  0.2431 -0.7287 -0.5503
 4720SOL    HW125793   2.013   1.188   1.762 -0.0035 -0.4496 -1.2166
 4720SOL    HW225794   1.994   1.302   1.846  0.6220 -0.5403 -1.4070
 4721SOL     OW25795   0.368   0.206   3.367  0.4599  0.1292  0.1178
 4721SOL    HW125796   0.314   0.282   3.391 -0.6669 -0.5975 -0.0963
 4721SOL    HW225797   0.303   0.141   3.339  1.4443 -1.8949  2.5265
 4722SOL     OW25798   4.104   0.578   5.201  0.2788  0.1721 -0.0009
 4722SOL    HW125799   4.096   0.637   5.127  1.9111 -0.0493 -0.3526
 4722SOL    HW225800   4.013   0.548   5.199  0.0521  0.7137  2.4413
 4723SOL     OW25801   2.101   3.548   7.403 -0.2328  0.2418 -0.5959
 4723SOL    HW125802   2.036   3.568   7.335  1.1642  3.2772 -0.9998
 4723SOL    HW225803   2.112   3.626   7.456  1.9116  0.9534 -2.0896
 4724SOL     OW25804   0.884   3.499   9.004  0.0603 -0.0587 -0.0759
 4724SOL    HW125805   0.830   3.422   9.021  2.0153 -1.6816 -1.1450
 4724SOL    HW225806   0.822   3.571   9.007 -1.3723 -1.3901  2.4742
 4725SOL     OW25807   0.014   2.765   8.611 -0.1741  0.7089  0.1296
 4725SOL    HW125808   4.727   2.771   8.519 -1.5819 -0.3372  0.4440
 4725SOL    HW225809   0.008   2.856   8.641  2.4946  1.4019 -1.4324
 4726SOL     OW25810   3.389   2.825   6.588 -0.0485  0.0553  0.0575
 4726SOL    HW125811   3.362   2.755   6.647 -1.4408  0.8469  0.3707
 4726SOL    HW225812   3.434   2.883   6.649  1.1650 -0.3863 -0.4221
 4727SOL     OW25813   0.076   0.050   2.738  0.1336 -0.3797  0.4536
 4727SOL    HW125814   0.019   0.110   2.786 -0.5996 -1.4432  0.9235
 4727SOL    HW225815   0.017   4.713   2.733 -2.3438  1.6262 -0.1585
 4728SOL     OW25816   1.552   4.433   2.239 -0.5509  0.8621 -0.2142
 4728SOL    HW125817   1.570   4.392   2.155 -1.0637 -0.4015  0.2920
 4728SOL    HW225818   1.548   4.528   2.227 -0.0433  0.8692 -0.3436
 4729SOL     OW25819   2.611   3.610   6.690  0.0282  0.0785  0.3013
 4729SOL    HW125820   2.670   3.535   6.684  1.6482  1.4405 -0.6289
 4729SOL    HW225821   2.613   3.632   6.783 -0.8060 -1.8260  0.7659
 4730SOL     OW25822   4.146   0.397   1.864  0.3016  0.2181  0.2467
 4730SOL    HW125823   4.181   0.375   1.951 -0.2110 -0.7277  0.2151
 4730SOL    HW225824   4.074   0.335   1.874  0.5080  0.1701  1.4609
 4731SOL     OW25825   3.732   2.383   5.053 -0.0686 -0.0999 -0.1605
 4731SOL    HW125826   3.825   2.400   5.040  0.6274 -1.4772  2.9541
 4731SOL    HW225827   3.738   2.301   5.102 -1.7176 -0.2491 -0.2024
 4732SOL     OW25828   3.754   2.300   2.872 -1.0289 -0.1438 -0.1386
 4732SOL    HW125829   3.695   2.374   2.861 -0.0528  0.3453 -2.1923
 4732SOL    HW225830   3.810   2.299   2.794 -0.0989  1.5387  0.5106
 4733SOL     OW25831   3.035   0.766  13.158  0.2532 -0.4608 -0.1640
 4733SOL    HW125832   3.070   0.757  13.069 -1.2937 -1.0097 -0.7159
 4733SOL    HW225833   2.943   0.762  13.134 -0.0243 -0.0695  0.8348
 4734SOL     OW25834   4.202   0.183   9.401 -0.1433  0.0552 -0.4869
 4734SOL    HW125835   4.243   0.268   9.389 -0.3366  0.2653  0.3295
 4734SOL    HW225836   4.279   0.145   9.444  2.1156  0.3308 -4.3014
 4735SOL     OW25837   3.747   4.232  12.438 -0.9622  0.1217  0.1117
 4735SOL    HW125838   3.747   4.298  12.507  0.1493 -0.9829  1.1715
 4735SOL    HW225839   3.755   4.281  12.356  2.7502 -0.6935 -0.0076
 4736SOL     OW25840   0.477   3.358   5.234  0.1285 -0.4007 -0.4291
 4736SOL    HW125841   0.527   3.279   5.256 -0.4963  0.0418  2.6079
 4736SOL    HW225842   0.392   3.316   5.221 -0.5215  0.5984  0.5867
 4737SOL     OW25843   0.836   1.674  16.150  0.1222  0.0859  0.2041
 4737SOL    HW125844   0.857   1.611  16.220  0.3621 -1.8633 -1.6270
 4737SOL    HW225845   0.842   1.750  16.208 -0.3869 -0.3527  0.8424
 4738SOL     OW25846   2.511   2.202   7.444  0.2819  0.0165 -0.2712
 4738SOL    HW125847   2.437   2.152   7.479  0.9930 -2.0906 -1.7902
 4738SOL    HW225848   2.480   2.226   7.357  1.1029 -1.9181 -1.1025
 4739SOL     OW25849   2.023   3.464   5.749  0.0279  0.1515 -0.3714
 4739SOL    HW125850   1.960   3.474   5.678 -0.7934 -1.3545  0.1526
 4739SOL    HW225851   1.967   3.484   5.824 -0.5228  1.6492 -1.1896
 4740SOL     OW25852   3.695   3.832   8.736 -0.3591 -0.3390 -0.0129
 4740SOL    HW125853   3.757   3.822   8.808  1.5143 -2.1908 -1.8660
 4740SOL    HW225854   3.617   3.805   8.785  0.8270  0.1864  2.1578
 4741SOL     OW25855   3.326   3.688  13.347 -0.0034  0.3942 -0.3362
 4741SOL    HW125856   3.343   3.779  13.371 -1.3624 -0.2209  2.9339
 4741SOL    HW225857   3.413   3.651  13.358  0.6360  0.8932 -3.8761
 4742SOL     OW25858   1.377   3.499   1.633  0.0072 -0.0395  0.1312
 4742SOL    HW125859   1.392   3.447   1.554 -0.6010  0.2843 -0.2026
 4742SOL    HW225860   1.351   3.437   1.702 -0.4445  2.2765  2.0556
 4743SOL     OW25861   3.290   2.022  11.568  0.2159 -0.5806 -0.2261
 4743SOL    HW125862   3.325   1.954  11.624 -0.1334 -0.9046 -0.3984
 4743SOL    HW225863   3.199   1.998  11.585  0.1774 -0.9624 -0.9895
 4744SOL     OW25864   3.689   1.131   9.790  0.2198  0.1720 -0.0073
 4744SOL    HW125865   3.726   1.144   9.878 -2.0026 -0.0004  0.9601
 4744SOL    HW225866   3.664   1.039   9.788 -2.4092  0.8560  1.1443
 4745SOL     OW25867   0.897   3.467   2.600  0.5477 -0.6200 -0.1662
 4745SOL    HW125868   0.814   3.466   2.647 -0.0115  1.9402 -1.1228
 4745SOL    HW225869   0.891   3.534   2.532 -2.2200 -1.7955 -1.0805
 4746SOL     OW25870   4.070   0.930   5.059 -0.3358  0.0853 -0.0438
 4746SOL    HW125871   4.076   1.008   5.005  2.3150  0.6840  1.1237
 4746SOL    HW225872   4.001   0.960   5.118  0.3179  1.7086 -0.1161
 4747SOL     OW25873   2.951   1.276   9.386 -0.1597 -0.6507 -0.2837
 4747SOL    HW125874   3.023   1.316   9.436  0.0467  1.4618 -2.2905
 4747SOL    HW225875   2.964   1.323   9.304 -0.2511  0.2458  0.2076
 4748SOL     OW25876   3.996   2.188   0.633 -0.1584 -0.6850 -0.2039
 4748SOL    HW125877   4.031   2.235   0.709 -0.1575 -2.2167  0.7296
 4748SOL    HW225878   3.914   2.155   0.669 -0.3254 -0.7426 -0.6418
 4749SOL     OW25879   0.028   1.636   1.000 -0.0949  0.4607  0.1418
 4749SOL    HW125880   0.021   1.704   0.933 -1.5601 -0.0694 -0.2439
 4749SOL    HW225881   4.734   1.692   1.071  0.1560 -2.7210  2.7445
 4750SOL     OW25882   4.362   4.624  16.242  0.0938 -0.1765 -0.6861
 4750SOL    HW125883   4.352   4.596  16.333 -1.5722  2.7056  0.0169
 4750SOL    HW225884   4.409   4.706  16.259  0.2110 -0.8174  2.0228
 4751SOL     OW25885   0.397   2.137   2.845  0.0327  0.0464 -0.0357
 4751SOL    HW125886   0.479   2.105   2.805 -0.8905 -1.9784 -0.3310
 4751SOL    HW225887   0.374   2.205   2.782  1.0864 -0.0539 -0.5434
 4752SOL     OW25888   0.322   4.133   9.682  0.0872  0.3387 -0.1538
 4752SOL    HW125889   0.250   4.145   9.744  0.8170  0.9528  0.5757
 4752SOL    HW225890   0.284   4.150   9.596  0.2650  0.4513 -0.2086
 4753SOL     OW25891   0.201   1.448   6.475  0.0010  0.2901 -0.5046
 4753SOL    HW125892   0.154   1.469   6.556 -1.7192 -1.8818 -0.9469
 4753SOL    HW225893   0.192   1.353   6.475  1.5512  0.1511 -0.4274
 4754SOL     OW25894   0.194   3.259   7.644 -0.5201  0.0337 -0.6985
 4754SOL    HW125895   0.245   3.285   7.568  3.1291 -0.3999  1.6230
 4754SOL    HW225896   0.161   3.172   7.620  0.0120 -0.0705 -1.0404
 4755SOL     OW25897   2.800   4.081   6.710 -0.1734 -0.3739 -0.1068
 4755SOL    HW125898   2.803   4.014   6.642  0.4463  1.6688 -2.1063
 4755SOL    HW225899   2.809   4.027   6.789  0.6620  1.5036  1.0768
 4756SOL     OW25900   0.899   0.608   5.408 -0.0728  0.3475 -0.8113
 4756SOL    HW125901   0.873   0.586   5.497  1.6355  1.2157 -0.1019
 4756SOL    HW225902   0.814   0.625   5.368 -0.4183 -0.1950 -0.3047
 4757SOL     OW25903   1.733   2.828   5.051  0.3400 -0.3847  0.5213
 4757SOL    HW125904   1.730   2.735   5.030 -1.4090  0.2309 -2.0583
 4757SOL    HW225905   1.777   2.819   5.136 -0.6750  0.1519  1.1060
 4758SOL     OW25906   0.076   4.125   5.189  0.6249 -0.1241  0.6030
 4758SOL    HW125907   0.068   4.081   5.273 -0.2908 -0.7552  0.1792
 4758SOL    HW225908   4.721   4.113   5.166  0.7080  0.2907  0.0373
 4759SOL     OW25909   0.267   0.665   7.695  0.0276 -0.0022 -0.3232
 4759SOL    HW125910   0.272   0.662   7.600  1.2210  2.5187 -0.3355
 4759SOL    HW225911   0.360   0.678   7.714  0.5639 -4.5077  0.2009
 4760SOL     OW25912   0.745   1.772   0.817 -0.6218  0.1245  0.1563
 4760SOL    HW125913   0.825   1.760   0.867 -2.9593 -0.9761  3.6693
 4760SOL    HW225914   0.712   1.853   0.855  0.6400  0.1905  1.1058
 4761SOL     OW25915   4.066   2.622   1.479  0.5500 -0.0821 -0.4422
 4761SOL    HW125916   4.023   2.625   1.394 -1.0081 -0.4959  0.3282
 4761SOL    HW225917   4.018   2.694   1.521  2.0387  0.6458  0.0217
 4762SOL     OW25918   0.078   2.169   6.095 -0.1562 -0.2055  0.0702
 4762SOL    HW125919   0.122   2.096   6.051  0.8130  0.5361 -0.1948
 4762SOL    HW225920   0.122   2.191   6.178 -1.5610  0.0320  0.7532
 4763SOL     OW25921   2.187   2.418   7.073 -0.1881 -0.0513  0.1520
 4763SOL    HW125922   2.277   2.451   7.073  0.1519 -0.9956  1.6390
 4763SOL    HW225923   2.197   2.339   7.020 -0.4000 -0.2330  0.3779
 4764SOL     OW25924   0.537   2.636   8.264  0.1378 -0.0452 -0.1593
 4764SOL    HW125925   0.583   2.570   8.316  1.3375  2.9671  2.6169
 4764SOL    HW225926   0.596   2.635   8.189  0.6633  0.2881  0.2533
 4765SOL     OW25927   0.164   0.210  10.297  0.0746  0.7469  0.2217
 4765SOL    HW125928   0.111   0.161  10.234 -1.0509  1.6427  0.4701
 4765SOL    HW225929   0.163   0.138  10.359 -0.1069  0.9444  0.4500
 4766SOL     OW25930   4.360   2.578   6.896  0.0791  0.1786 -0.0139
 4766SOL    HW125931   4.409   2.622   6.966  2.5953 -0.8110 -1.1528
 4766SOL    HW225932   4.294   2.533   6.949  0.2352 -1.0551 -0.8697
 4767SOL     OW25933   1.811   0.745   3.665  0.0845 -0.0587  0.6656
 4767SOL    HW125934   1.838   0.819   3.611  0.9266  1.5687  3.3369
 4767SOL    HW225935   1.860   0.669   3.632 -2.0193 -1.5830  1.0611
 4768SOL     OW25936   1.571   1.163   9.026  0.0786 -0.0959  0.4379
 4768SOL    HW125937   1.572   1.106   9.103  1.1548 -1.1506 -0.3495
 4768SOL    HW225938   1.494   1.122   8.985 -1.3773  4.6315 -1.4842
 4769SOL     OW25939   1.130   2.902   5.556  0.3523  0.2231  0.0453
 4769SOL    HW125940   1.117   2.849   5.635 -2.3097 -0.4621 -0.8420
 4769SOL    HW225941   1.213   2.864   5.526  0.8511  0.4963  1.0883
 4770SOL     OW25942   0.406   3.192  14.129 -0.6940 -0.4930  0.3981
 4770SOL    HW125943   0.378   3.141  14.205  0.4332 -0.0483  1.1164
 4770SOL    HW225944   0.466   3.128  14.091 -0.3276  0.7822 -1.1645
 4771SOL     OW25945   0.484   0.216   4.873 -0.1330  0.6355  0.2848
 4771SOL    HW125946   0.443   0.266   4.943  0.0624  1.5574 -0.2545
 4771SOL    HW225947   0.575   0.209   4.903 -0.3938  0.2763  0.9920
 4772SOL     OW25948   4.080   4.162   6.255  0.1846 -0.1061 -0.3846
 4772SOL    HW125949   4.119   4.249   6.265 -0.5394  0.2909 -0.9422
 4772SOL    HW225950   4.122   4.120   6.330  0.2834 -1.7113 -1.3358
 4773SOL     OW25951   2.662   0.032   4.299 -0.1374  0.0885  0.1265
 4773SOL    HW125952   2.727   0.090   4.259 -0.5004  0.3240 -0.1247
 4773SOL    HW225953   2.599   0.096   4.335  0.9924  1.6191 -0.6066
 4774SOL     OW25954   3.090   3.260   2.375  0.1372 -0.5923 -0.9305
 4774SOL    HW125955   3.061   3.348   2.401 -2.1934 -1.7533  0.3904
 4774SOL    HW225956   3.030   3.204   2.423  0.0180 -0.8817 -1.4135
 4775SOL     OW25957   3.359   0.252  16.917  0.3732 -0.2310  0.5785
 4775SOL    HW125958   3.409   0.310  16.860  0.3169 -0.5254  0.2328
 4775SOL    HW225959   3.281   0.302  16.941  0.1956 -0.3690  0.2865
 4776SOL     OW25960   2.707   1.387   4.673 -0.1792  0.2472  0.1385
 4776SOL    HW125961   2.719   1.476   4.706 -1.7673  0.9488 -1.1809
 4776SOL    HW225962   2.671   1.350   4.754  1.6530  0.1734  0.9095
 4777SOL     OW25963   3.382   0.943   7.070 -0.1775 -0.2386  0.2170
 4777SOL    HW125964   3.317   0.873   7.074 -0.1255 -0.3142 -0.3297
 4777SOL    HW225965   3.445   0.910   7.007 -0.9134 -0.2491 -0.5091
 4778SOL     OW25966   3.444   0.974   5.482 -0.0608  0.2184  0.0152
 4778SOL    HW125967   3.400   0.897   5.445  1.6717 -1.1754  0.8712
 4778SOL    HW225968   3.385   0.992   5.556 -0.8948  0.7215 -0.7710
 4779SOL     OW25969   3.465   3.334   1.791  0.4055 -0.2295 -0.3902
 4779SOL    HW125970   3.384   3.357   1.836  0.7000 -0.3970  0.2160
 4779SOL    HW225971   3.534   3.321   1.856  0.5459 -1.8905 -0.8690
 4780SOL     OW25972   3.323   0.608   9.218  0.6126 -0.1121  0.9138
 4780SOL    HW125973   3.282   0.694   9.227 -1.7939 -1.3227  1.5516
 4780SOL    HW225974   3.371   0.586   9.297 -0.6798 -2.6913  0.9793
 4781SOL     OW25975   1.470   0.704  12.839 -0.0032 -0.5910  0.3061
 4781SOL    HW125976   1.475   0.696  12.934  0.7204 -3.3482  0.0259
 4781SOL    HW225977   1.563   0.700  12.818 -0.2021  0.9064 -0.8390
 4782SOL     OW25978   2.713   2.548   8.474 -0.3770  0.1908 -0.1583
 4782SOL    HW125979   2.673   2.504   8.549  0.5964  1.6150  1.1958
 4782SOL    HW225980   2.734   2.479   8.412 -0.2089  1.3361 -1.3950
 4783SOL     OW25981   1.194   1.977   6.799  0.3908  0.4061  0.0130
 4783SOL    HW125982   1.151   1.967   6.714 -0.3531  0.0212  0.4254
 4783SOL    HW225983   1.132   1.942   6.864 -0.4697  2.0682  0.0954
 4784SOL     OW25984   0.405   2.236   6.577  0.5093 -0.1230 -0.9724
 4784SOL    HW125985   0.478   2.215   6.519  2.5043  1.0649  1.1182
 4784SOL    HW225986   0.349   2.161   6.557  2.6422 -2.6238  2.5024
 4785SOL     OW25987   4.737   4.152   8.129 -0.0248  0.2006 -0.5870
 4785SOL    HW125988   4.651   4.167   8.168 -0.3049 -2.8569  0.0011
 4785SOL    HW225989   0.019   4.066   8.167 -0.1498 -0.5750 -2.2775
 4786SOL     OW25990   2.021   3.772  10.450  0.0742  0.4069 -0.4427
 4786SOL    HW125991   2.028   3.740  10.540 -2.5362  0.0958 -0.3564
 4786SOL    HW225992   1.948   3.722  10.414  0.2295 -1.0965  1.3434
 4787SOL     OW25993   2.182   0.731   1.980  0.3050  0.1892 -0.7700
 4787SOL    HW125994   2.218   0.820   1.979  0.7188  0.0071 -2.6753
 4787SOL    HW225995   2.171   0.729   2.075 -0.8949 -1.2034 -0.9382
 4788SOL     OW25996   2.383   3.041  14.550  0.1081 -0.3013 -0.5775
 4788SOL    HW125997   2.449   3.055  14.618 -2.1867 -1.1366  1.8205
 4788SOL    HW225998   2.405   3.096  14.475 -1.3630  2.2139  0.8418
 4789SOL     OW25999   4.652   2.326  17.638  0.0893 -0.2825  0.1314
 4789SOL    HW126000   4.570   2.339  17.684  0.3747  0.5483  0.3979
 4789SOL    HW226001   4.702   2.406  17.655 -1.8206  0.2741  3.1619
 4790SOL     OW26002   4.254   1.290   2.933 -0.0503 -0.0548 -0.1437
 4790SOL    HW126003   4.180   1.267   2.989 -1.4114  2.3040 -0.9577
 4790SOL    HW226004   4.247   1.223   2.865 -1.0406 -0.5084  0.4095
 4791SOL     OW26005   0.527   2.942   9.176 -0.4865 -0.5726 -0.3012
 4791SOL    HW126006   0.570   2.871   9.223  1.5200  1.0546  0.3102
 4791SOL    HW226007   0.546   3.020   9.228 -1.1013  0.1613 -1.1602
 4792SOL     OW26008   0.463   3.771  14.256 -0.1157  0.1246  0.2674
 4792SOL    HW126009   0.549   3.728  14.255  0.0549  0.4792 -0.7302
 4792SOL    HW226010   0.484   3.863  14.268  1.1759 -0.1081 -0.1822
 4793SOL     OW26011   1.466   0.710   7.982  0.3686  0.4645 -0.2176
 4793SOL    HW126012   1.523   0.663   7.921 -1.7483 -0.9673 -1.1323
 4793SOL    HW226013   1.507   0.796   7.976  0.2131  0.4249 -1.8824
 4794SOL     OW26014   2.110   4.298   8.602 -0.0368 -0.5367 -0.1400
 4794SOL    HW126015   2.126   4.317   8.510  4.2943  0.7489  0.8638
 4794SOL    HW226016   2.090   4.387   8.630  1.1932 -0.9502  2.0189
 4795SOL     OW26017   0.455   3.745   6.631  0.1869 -0.1164  0.1019
 4795SOL    HW126018   0.535   3.752   6.684  1.1695  1.4202 -1.6038
 4795SOL    HW226019   0.482   3.768   6.542  2.4187  0.3064  0.8907
 4796SOL     OW26020   2.137   0.406   8.787 -0.0786  0.9644 -0.1115
 4796SOL    HW126021   2.213   0.465   8.791  1.1224 -0.5115 -1.3574
 4796SOL    HW226022   2.168   0.329   8.833 -1.0427 -0.2614 -1.5311
 4797SOL     OW26023   1.102   4.162   6.243 -0.4653 -0.0719  0.0023
 4797SOL    HW126024   1.050   4.133   6.168  1.0667 -0.7976 -0.7798
 4797SOL    HW226025   1.169   4.221   6.209 -1.9221  1.5046 -0.0878
 4798SOL     OW26026   3.263   1.117  13.185 -0.2750  0.4903 -0.1324
 4798SOL    HW126027   3.314   1.083  13.112 -1.9279  0.1969 -1.1572
 4798SOL    HW226028   3.330   1.141  13.250 -0.2005 -0.7130  0.2425
 4799SOL     OW26029   3.152   2.226   4.341 -0.0799  0.0806 -0.1396
 4799SOL    HW126030   3.110   2.287   4.281 -0.7703 -0.2533 -0.0023
 4799SOL    HW226031   3.122   2.271   4.420 -0.9801  2.0010 -1.5832
 4800SOL     OW26032   2.330   3.170   9.016  0.0675 -0.0940  0.2597
 4800SOL    HW126033   2.381   3.098   8.978  0.3957  1.4958 -2.2557
 4800SOL    HW226034   2.242   3.132   9.014  0.9708 -2.2854  1.1659
 4801SOL     OW26035   2.176   1.918   8.432  0.1557  0.0502 -0.2458
 4801SOL    HW126036   2.160   1.835   8.476 -1.4300  0.7281  0.4398
 4801SOL    HW226037   2.256   1.957   8.469  0.1309 -0.9161  0.8179
 4802SOL     OW26038   0.653   2.812   5.232  0.4326  0.3153 -0.6212
 4802SOL    HW126039   0.644   2.740   5.294  0.3564 -0.3566 -1.4167
 4802SOL    HW226040   0.572   2.863   5.233  0.9930  1.2095 -0.4021
 4803SOL     OW26041   2.924   4.011   5.279  0.2271 -0.0822  0.4566
 4803SOL    HW126042   2.829   4.001   5.288 -0.0005  1.3439 -0.3000
 4803SOL    HW226043   2.952   4.052   5.361  1.7775 -0.8503  0.3069
 4804SOL     OW26044   3.741   0.445   0.350 -0.0053  0.1726 -0.3484
 4804SOL    HW126045   3.698   0.366   0.384 -0.6030  1.1781  1.2399
 4804SOL    HW226046   3.829   0.445   0.387  0.3870 -1.7629 -1.2975
 4805SOL     OW26047   0.714   1.031   2.509  0.2793 -0.2242 -0.0335
 4805SOL    HW126048   0.754   0.953   2.470  0.8147 -0.0464  0.1585
 4805SOL    HW226049   0.656   0.994   2.575  1.4860 -0.6459  0.7859
 4806SOL     OW26050   0.836   3.678  12.973  0.9479  0.0257 -1.0271
 4806SOL    HW126051   0.893   3.741  13.016 -0.7810 -0.1331  1.4946
 4806SOL    HW226052   0.894   3.602  12.980 -0.3673 -0.5278  4.1814
 4807SOL     OW26053   3.068   2.418   6.051 -0.3792 -0.1911 -0.1534
 4807SOL    HW126054   3.089   2.361   6.125 -2.1150  1.6828  1.7692
 4807SOL    HW226055   3.138   2.389   5.992 -0.0240 -0.7358  0.5300
 4808SOL     OW26056   0.953   3.810  14.538  0.1709 -0.0047  0.4105
 4808SOL    HW126057   0.974   3.796  14.631  1.8797  2.2305  0.3588
 4808SOL    HW226058   0.967   3.723  14.500 -1.9767  0.8458 -2.2458
 4809SOL     OW26059   4.547   3.513   3.770 -0.2041 -0.3772  0.2227
 4809SOL    HW126060   4.572   3.421   3.758 -1.4129 -1.0004  2.6142
 4809SOL    HW226061   4.473   3.518   3.709  0.4207  0.8538 -0.4307
 4810SOL     OW26062   1.517   4.660   4.075 -0.1370  0.1834 -0.0431
 4810SOL    HW126063   1.490   4.573   4.103 -0.2409  0.6071  1.1441
 4810SOL    HW226064   1.438   4.699   4.110 -1.0028 -0.6097 -1.1187
 4811SOL     OW26065   2.960   1.169   4.295  0.1649  0.1258 -0.3842
 4811SOL    HW126066   2.943   1.235   4.363  1.6176  1.8135 -1.6702
 4811SOL    HW226067   3.049   1.183   4.264  0.3294  0.4865  0.2459
 4812SOL     OW26068   1.183   1.756  15.529  0.2537  0.2753  0.0243
 4812SOL    HW126069   1.147   1.747  15.617  0.7045  0.4447  0.2287
 4812SOL    HW226070   1.108   1.789  15.480 -1.8789 -0.9166  2.5128
 4813SOL     OW26071   0.016   4.627   3.003 -0.1158  0.2517  0.1646
 4813SOL    HW126072   4.701   4.586   2.935  1.5245  0.1857 -1.0918
 4813SOL    HW226073   0.078   4.554   3.010 -0.0608  0.4305  1.5747
 4814SOL     OW26074   3.831   3.289   8.703 -0.1311 -0.5302 -0.0371
 4814SOL    HW126075   3.777   3.213   8.724 -0.4042 -0.6116 -1.0001
 4814SOL    HW226076   3.913   3.242   8.689 -0.8461 -1.7662 -0.0882
 4815SOL     OW26077   3.610   1.676   8.598  0.1264  0.0582  0.5832
 4815SOL    HW126078   3.656   1.693   8.516  0.0583 -0.2738  0.4758
 4815SOL    HW226079   3.603   1.582   8.584  2.6309  0.0307 -0.4342
 4816SOL     OW26080   0.108   1.564   7.194  0.2488  0.0372 -0.1643
 4816SOL    HW126081   0.048   1.570   7.119 -0.3908  2.7232  0.5529
 4816SOL    HW226082   0.050   1.585   7.267 -0.1067  0.4632 -0.5681
 4817SOL     OW26083   3.284   0.572  17.154 -0.2634  0.1034 -0.0537
 4817SOL    HW126084   3.277   0.667  17.167 -3.0261 -0.0847 -0.3538
 4817SOL    HW226085   3.370   0.563  17.196  0.8971  1.0023 -2.2677
 4818SOL     OW26086   1.761   4.531   1.820  0.0895 -1.1157 -0.1056
 4818SOL    HW126087   1.722   4.463   1.764  1.0811 -1.1539 -0.7457
 4818SOL    HW226088   1.852   4.524   1.790  0.2977 -3.2948  0.9800
 4819SOL     OW26089   4.585   3.742   3.066  0.3213  0.8703 -0.0599
 4819SOL    HW126090   4.591   3.679   3.138  0.8626  0.2135 -0.6810
 4819SOL    HW226091   4.651   3.716   3.002  1.4153  0.3463  1.3011
 4820SOL     OW26092   0.282   0.417   2.292  0.5587  0.5198 -0.3806
 4820SOL    HW126093   0.245   0.501   2.263  1.9069  1.4417  0.5807
 4820SOL    HW226094   0.348   0.405   2.223 -0.5314 -3.1430 -0.8127
 4821SOL     OW26095   0.868   0.067  16.797  0.5331 -0.0857 -0.2009
 4821SOL    HW126096   0.928   0.014  16.849  0.3148 -0.6866 -0.5559
 4821SOL    HW226097   0.790   0.064  16.853  0.3271  0.6642 -0.4513
 4822SOL     OW26098   1.039   4.487  13.278 -0.0627 -0.2420  0.0592
 4822SOL    HW126099   1.048   4.421  13.346 -0.5569 -0.4730 -0.0955
 4822SOL    HW226100   0.946   4.478  13.257  0.1328  1.2566 -1.4119
 4823SOL     OW26101   0.859   4.338   2.308 -0.5661  0.1300  0.1143
 4823SOL    HW126102   0.951   4.359   2.321 -0.3246 -1.7675  1.5544
 4823SOL    HW226103   0.828   4.424   2.282  2.9701  1.0793 -0.8788
 4824SOL     OW26104   3.428   1.176   1.456  0.0641  0.2124  0.0359
 4824SOL    HW126105   3.404   1.096   1.503  0.7453  0.1094  0.2092
 4824SOL    HW226106   3.523   1.168   1.459  0.0234 -0.0415  0.6061
 4825SOL     OW26107   0.326   4.305   1.237  0.3580 -0.3281 -0.0079
 4825SOL    HW126108   0.329   4.380   1.296 -2.6191 -0.2587  0.0717
 4825SOL    HW226109   0.269   4.248   1.288 -1.2940  2.3995  1.1717
 4826SOL     OW26110   3.320   0.404   2.514  0.2689 -0.0726  0.0412
 4826SOL    HW126111   3.238   0.453   2.511  0.0684 -0.4712 -1.1150
 4826SOL    HW226112   3.359   0.433   2.596 -0.6445 -1.3176  0.9204
 4827SOL     OW26113   2.619   0.602   6.057 -0.0217  0.0384  0.0068
 4827SOL    HW126114   2.691   0.614   6.119  1.2672 -2.2471 -1.0657
 4827SOL    HW226115   2.598   0.510   6.066  2.2768 -0.5989 -0.9592
 4828SOL     OW26116   0.582   4.105   6.748  0.0068 -0.2110 -0.1785
 4828SOL    HW126117   0.664   4.150   6.731  0.0824 -0.4813 -0.5509
 4828SOL    HW226118   0.608   4.016   6.722 -0.0494  0.3387 -2.1419
 4829SOL     OW26119   4.460   2.729   2.866  0.7513 -0.3196  0.2153
 4829SOL    HW126120   4.423   2.751   2.951  0.0601  1.7072 -0.6192
 4829SOL    HW226121   4.442   2.635   2.858 -0.8965 -0.1453  1.7070
 4830SOL     OW26122   2.063   3.086   9.112  0.8120 -0.1337 -0.5350
 4830SOL    HW126123   2.066   2.995   9.143 -1.3309  0.1482  0.4503
 4830SOL    HW226124   1.970   3.094   9.091 -0.0170 -1.3056  2.6574
 4831SOL     OW26125   1.006   3.102   3.034 -0.6057 -0.7443 -0.4772
 4831SOL    HW126126   1.048   3.091   2.949  1.1454  1.6815  0.0686
 4831SOL    HW226127   1.084   3.097   3.089 -0.3907  0.3870 -0.6934
 4832SOL     OW26128   0.247   2.679   4.143  0.3987 -0.0956  0.3018
 4832SOL    HW126129   0.217   2.727   4.065  0.8845  3.6158  2.4121
 4832SOL    HW226130   0.330   2.644   4.111  0.1959  0.8108 -1.2168
 4833SOL     OW26131   3.054   2.607   7.385 -0.1441 -1.0580 -0.8969
 4833SOL    HW126132   2.973   2.648   7.417 -1.0161 -0.6481 -3.6184
 4833SOL    HW226133   3.081   2.551   7.457 -1.8560 -1.7626 -0.8121
 4834SOL     OW26134   3.107   3.864   8.694  0.4261 -0.5828  0.6532
 4834SOL    HW126135   3.173   3.801   8.665  0.5600 -0.4399  0.6419
 4834SOL    HW226136   3.162   3.928   8.741  0.8708 -1.5668  1.4767
 4835SOL     OW26137   3.754   1.700   0.495  0.2228  0.2854  0.1520
 4835SOL    HW126138   3.707   1.752   0.429 -0.3167 -0.1697  0.1812
 4835SOL    HW226139   3.820   1.764   0.523 -0.1748  0.7569  0.0254
 4836SOL     OW26140   1.224   3.840   1.595 -0.2116  0.0559 -0.2598
 4836SOL    HW126141   1.187   3.902   1.658 -1.0340 -1.4488  0.7388
 4836SOL    HW226142   1.147   3.818   1.541 -1.1614 -1.8859  1.9027
 4837SOL     OW26143   0.711   3.279   6.528  0.0312 -0.3221 -0.0039
 4837SOL    HW126144   0.777   3.269   6.459  0.5532 -1.5611  0.6677
 4837SOL    HW226145   0.641   3.326   6.484 -0.8221 -1.1568  0.4565
 4838SOL     OW26146   2.149   1.546  12.483  0.8031  0.6648  0.1666
 4838SOL    HW126147   2.193   1.481  12.538 -2.0857  0.3194  2.0907
 4838SOL    HW226148   2.061   1.522  12.510  0.1833  1.6430 -0.9718
 4839SOL     OW26149   0.929   2.051  15.392  0.0161  0.3201  0.1729
 4839SOL    HW126150   0.927   2.145  15.412  0.4854  0.2205  0.6788
 4839SOL    HW226151   0.949   2.052  15.299  1.4024  0.3921  0.4762
 4840SOL     OW26152   0.386   3.286   8.673  0.7571 -0.3909  0.2750
 4840SOL    HW126153   0.476   3.256   8.663  0.4951 -0.5461 -1.6118
 4840SOL    HW226154   0.392   3.310   8.766  1.7074  2.1587 -0.4382
 4841SOL     OW26155   3.117   0.882   1.423  0.0819  0.1375 -0.4298
 4841SOL    HW126156   3.143   0.796   1.457  1.8746  0.5237 -0.8522
 4841SOL    HW226157   3.139   0.929   1.503  0.5748 -0.0885 -0.4307
 4842SOL     OW26158   1.423   1.609  13.052  0.0989 -0.2665  0.4178
 4842SOL    HW126159   1.418   1.683  13.113 -0.9251  0.1637 -0.1928
 4842SOL    HW226160   1.437   1.529  13.102 -1.3496 -1.0373 -0.4110
 4843SOL     OW26161   1.659   0.985  15.428  0.5608  0.0572  0.5576
 4843SOL    HW126162   1.715   0.974  15.505  0.8325 -2.9101 -0.0401
 4843SOL    HW226163   1.695   0.923  15.364  2.2593  1.0295  0.5736
 4844SOL     OW26164   4.073   1.320   5.891 -0.7802 -0.3696 -0.1411
 4844SOL    HW126165   4.098   1.238   5.934 -0.1976 -1.0211 -1.7097
 4844SOL    HW226166   4.084   1.297   5.798 -0.5302  3.6825 -1.1045
 4845SOL     OW26167   4.452   0.880   5.656  0.1979  0.0437  0.8177
 4845SOL    HW126168   4.440   0.904   5.748  1.0601  3.4227  0.0366
 4845SOL    HW226169   4.532   0.828   5.663  0.5671  0.3953 -0.7735
 4846SOL     OW26170   0.612   3.732   6.395  0.1309  0.4037  0.0929
 4846SOL    HW126171   0.679   3.672   6.429 -2.1829 -0.5801  2.9022
 4846SOL    HW226172   0.596   3.702   6.305  0.9361  0.0853  0.0544
 4847SOL     OW26173   2.087   1.941  12.217  0.2662  0.0044  0.7967
 4847SOL    HW126174   2.061   1.927  12.126  1.9056 -0.9736  0.4860
 4847SOL    HW226175   2.152   2.012  12.214  0.2580 -0.0713 -1.2559
 4848SOL     OW26176   3.554   0.239   5.682 -0.3701 -0.0021  0.3187
 4848SOL    HW126177   3.611   0.162   5.681 -0.9181 -0.3775 -3.1184
 4848SOL    HW226178   3.602   0.294   5.619 -0.3384 -2.4946 -1.8316
 4849SOL     OW26179   3.301   4.383  16.832 -0.2708  0.2583 -0.2349
 4849SOL    HW126180   3.273   4.457  16.779 -0.5703 -0.1886 -0.6997
 4849SOL    HW226181   3.319   4.322  16.761 -4.7887  0.7965 -1.8206
 4850SOL     OW26182   1.843   0.669  15.634 -0.5552 -0.2935 -0.5048
 4850SOL    HW126183   1.891   0.586  15.635 -1.1300 -0.6094  1.9860
 4850SOL    HW226184   1.792   0.654  15.714 -0.7812 -0.4239 -0.6744
 4851SOL     OW26185   2.982   1.683  10.465  0.2626 -0.3929 -1.0997
 4851SOL    HW126186   2.932   1.727  10.535 -2.1313 -1.7112 -2.0019
 4851SOL    HW226187   2.973   1.742  10.390 -0.6832 -1.3081 -1.7046
 4852SOL     OW26188   3.277   2.313   5.764 -0.1081 -0.5112 -0.5022
 4852SOL    HW126189   3.312   2.280   5.681  1.1508  0.3825 -0.3262
 4852SOL    HW226190   3.331   2.391   5.778 -0.2567 -0.1115 -2.1486
 4853SOL     OW26191   4.052   3.541   7.949  0.0747  0.2198 -0.3854
 4853SOL    HW126192   4.084   3.628   7.925  0.1877 -0.0675 -1.2511
 4853SOL    HW226193   4.112   3.477   7.910 -2.3536 -1.0985 -1.9122
 4854SOL     OW26194   4.454   1.881   3.329 -0.4540  0.7973  1.0462
 4854SOL    HW126195   4.417   1.841   3.250 -0.2038 -2.4408  2.5479
 4854SOL    HW226196   4.469   1.973   3.309  1.9355 -0.5994 -3.6262
 4855SOL     OW26197   2.496   3.270   3.519  0.2241  0.2012  0.1880
 4855SOL    HW126198   2.413   3.233   3.490  0.1938 -0.5766  1.3002
 4855SOL    HW226199   2.458   3.357   3.534 -3.2158 -1.3803  0.4276
 4856SOL     OW26200   2.791   4.138   2.633  0.1641  0.2564 -0.1645
 4856SOL    HW126201   2.863   4.080   2.608 -1.0254 -0.9278 -0.8568
 4856SOL    HW226202   2.763   4.107   2.720  0.8318  0.2382  0.0442
 4857SOL     OW26203   2.491   1.747   7.266  0.1793  0.3354 -0.2997
 4857SOL    HW126204   2.465   1.738   7.174  2.5347  0.8664 -1.0165
 4857SOL    HW226205   2.586   1.735   7.260 -0.0146 -1.7881  1.2173
 4858SOL     OW26206   3.776   2.818   5.684  0.0035 -0.0601  0.0149
 4858SOL    HW126207   3.727   2.803   5.603  2.0103  1.1576 -1.4247
 4858SOL    HW226208   3.785   2.913   5.683 -2.7099  0.2259  0.6409
 4859SOL     OW26209   1.330   1.703   6.825 -0.1666 -0.2050 -0.2288
 4859SOL    HW126210   1.395   1.685   6.893  1.4694  1.3981 -1.3610
 4859SOL    HW226211   1.254   1.727   6.878 -0.4988  0.8885 -1.1931
 4860SOL     OW26212   4.005   2.623   8.071 -0.3486  0.0380  0.3381
 4860SOL    HW126213   4.018   2.554   8.136  0.0121  0.6880  0.9602
 4860SOL    HW226214   4.084   2.675   8.087 -1.3700  1.9987 -1.0392
 4861SOL     OW26215   0.151   3.572  11.043  0.1808 -0.4751 -0.1829
 4861SOL    HW126216   0.106   3.557  10.960 -0.3849  3.6117 -0.6318
 4861SOL    HW226217   0.171   3.483  11.070  2.0775 -0.6486 -2.1879
 4862SOL     OW26218   3.650   2.787  14.002 -0.9783  0.1144  0.5679
 4862SOL    HW126219   3.582   2.854  13.993 -0.3618  0.5590 -0.7067
 4862SOL    HW226220   3.627   2.763  14.092 -2.5439 -0.3153  0.0605
 4863SOL     OW26221   0.228   3.794   1.844 -0.0937  0.2821  0.4598
 4863SOL    HW126222   0.194   3.806   1.933  0.3121 -0.5614  0.7406
 4863SOL    HW226223   0.274   3.709   1.851 -1.2450 -0.1323  3.1038
 4864SOL     OW26224   2.310   3.025   2.778 -0.4672 -0.4397  0.1938
 4864SOL    HW126225   2.404   3.008   2.774 -0.6196 -1.3258  0.5869
 4864SOL    HW226226   2.289   2.971   2.702 -1.2334 -1.2435  0.9794
 4865SOL     OW26227   2.211   2.572   9.131 -0.5135  0.5018  0.1505
 4865SOL    HW126228   2.196   2.555   9.038  2.2652  0.9374 -0.3859
 4865SOL    HW226229   2.256   2.491   9.154  0.1142  1.1179  1.0856
 4866SOL     OW26230   2.069   2.286   4.365 -0.2197 -0.0552 -0.1171
 4866SOL    HW126231   2.095   2.194   4.360  0.2202  0.0408  0.3730
 4866SOL    HW226232   2.103   2.329   4.286 -0.3110  0.3135  0.0436
 4867SOL     OW26233   3.281   4.381  10.618  0.3704 -0.2753  0.2501
 4867SOL    HW126234   3.287   4.476  10.627 -0.2768 -0.0973 -1.1572
 4867SOL    HW226235   3.187   4.365  10.618  0.3823 -0.3253  0.8464
 4868SOL     OW26236   2.870   0.745   7.373 -0.4690 -0.2724 -0.3746
 4868SOL    HW126237   2.939   0.729   7.437 -0.6933  0.6607  0.1012
 4868SOL    HW226238   2.795   0.767   7.428  0.1479 -0.3637  0.5080
 4869SOL     OW26239   1.426   3.209   5.136 -0.5993 -0.5095  0.0047
 4869SOL    HW126240   1.418   3.147   5.209  1.5374 -0.9201 -0.1085
 4869SOL    HW226241   1.331   3.216   5.123 -0.4692  1.8023  0.3033
 4870SOL     OW26242   4.147   3.492   4.231  0.4763  0.0269  0.4781
 4870SOL    HW126243   4.143   3.580   4.269 -2.1714  0.0646  0.0910
 4870SOL    HW226244   4.147   3.445   4.314 -0.5293  0.5463  0.7751
 4871SOL     OW26245   3.678   2.701   3.328  0.6115 -0.0985 -0.2792
 4871SOL    HW126246   3.759   2.722   3.375  1.2375  0.0436 -1.4193
 4871SOL    HW226247   3.681   2.764   3.256 -4.1711  0.1076 -0.3027
 4872SOL     OW26248   1.632   0.881   2.717  0.2617  0.2789 -0.6250
 4872SOL    HW126249   1.695   0.826   2.763  1.4976  0.3736 -2.2574
 4872SOL    HW226250   1.657   0.870   2.626  0.7115 -1.8653 -0.2364
 4873SOL     OW26251   0.491   2.650  11.682  0.3883  0.2187  0.3636
 4873SOL    HW126252   0.549   2.574  11.676  0.2344  0.2580 -1.3858
 4873SOL    HW226253   0.473   2.663  11.589  0.7908  2.4050  0.5878
 4874SOL     OW26254   0.943   0.820  11.126  0.0644  0.1972  0.8393
 4874SOL    HW126255   0.923   0.907  11.089 -1.0801 -0.3910  0.0581
 4874SOL    HW226256   0.875   0.767  11.085  1.5808 -0.0456 -1.4072
 4875SOL     OW26257   3.301   1.728   7.540  0.4122  0.3974 -0.0182
 4875SOL    HW126258   3.333   1.788   7.473  1.0913  0.9763  0.8210
 4875SOL    HW226259   3.359   1.743   7.615  0.4608 -0.6905  0.1734
 4876SOL     OW26260   3.667   4.348  16.794 -0.2258 -0.4091  0.2228
 4876SOL    HW126261   3.624   4.276  16.748  0.7622  0.3265 -1.8492
 4876SOL    HW226262   3.759   4.326  16.778 -0.6264 -1.4148 -0.7628
 4877SOL     OW26263   2.482   3.222  11.043  0.1076  0.4594 -0.0276
 4877SOL    HW126264   2.553   3.182  11.093  0.0072 -0.3666 -0.5424
 4877SOL    HW226265   2.438   3.140  11.022  0.5866  0.0196  0.7098
 4878SOL     OW26266   2.143   2.925  16.629 -0.0232 -0.3041  0.3019
 4878SOL    HW126267   2.154   2.968  16.544 -1.6517  0.2754  0.3811
 4878SOL    HW226268   2.068   2.969  16.668 -0.6255 -0.1447 -1.0318
 4879SOL     OW26269   2.160   0.450   5.003  0.5019 -0.3015  0.1514
 4879SOL    HW126270   2.112   0.411   4.930  0.0985 -1.1761  0.8704
 4879SOL    HW226271   2.234   0.485   4.954 -1.9433  2.0192 -1.8528
 4880SOL     OW26272   2.463   2.918   1.675 -0.0712  0.1664 -0.1010
 4880SOL    HW126273   2.513   2.993   1.707 -1.2119  2.1270 -2.8954
 4880SOL    HW226274   2.383   2.925   1.727 -0.9352  0.5352 -1.4770
 4881SOL     OW26275   1.176   2.958   8.180 -0.1862  0.2135  0.9203
 4881SOL    HW126276   1.216   3.039   8.150  0.1921 -0.7653 -1.1931
 4881SOL    HW226277   1.184   2.969   8.275  1.3906 -1.1635  0.9494
 4882SOL     OW26278   0.092   3.124   5.747 -0.1607  0.3951 -0.0379
 4882SOL    HW126279   0.148   3.058   5.787 -2.2029 -0.5488  1.2515
 4882SOL    HW226280   0.041   3.157   5.821 -0.0114 -0.8306  0.6028
 4883SOL     OW26281   0.138   1.268   3.059 -0.9754 -0.0451 -0.2986
 4883SOL    HW126282   0.087   1.347   3.073  3.5862  2.1836  3.8722
 4883SOL    HW226283   0.074   1.200   3.079  0.7296 -1.7799 -0.6762
 4884SOL     OW26284   3.293   1.805   4.877  0.2589 -0.1331 -0.6212
 4884SOL    HW126285   3.373   1.780   4.924  0.6000 -0.8114 -1.5681
 4884SOL    HW226286   3.335   1.826   4.794 -1.6465  0.4974 -1.4249
 4885SOL     OW26287   4.562   4.524   2.159 -0.1642  1.3339  0.1609
 4885SOL    HW126288   4.582   4.614   2.185 -0.4555  1.5170 -0.2495
 4885SOL    HW226289   4.601   4.520   2.072 -0.5419  0.2093  0.0433
 4886SOL     OW26290   2.647   2.245  16.536 -0.4013 -0.6140  0.3995
 4886SOL    HW126291   2.627   2.319  16.593  0.0514 -0.3601  0.2258
 4886SOL    HW226292   2.622   2.169  16.588 -1.0182  0.1537  1.2264
 4887SOL     OW26293   0.125   0.702   9.601  0.5148 -0.0463  0.4656
 4887SOL    HW126294   0.168   0.677   9.519  0.0212 -2.5844  0.9939
 4887SOL    HW226295   0.058   0.766   9.577 -0.2323 -0.8006  0.5443
 4888SOL     OW26296   2.486   0.737  13.230  0.0750 -0.2713  0.6542
 4888SOL    HW126297   2.483   0.833  13.238 -0.9762 -0.2276 -0.3273
 4888SOL    HW226298   2.464   0.713  13.141  2.3925 -1.7611  0.4833
 4889SOL     OW26299   0.305   3.617   3.461 -0.1871  0.6025 -0.8910
 4889SOL    HW126300   0.344   3.536   3.426  2.6612  1.2488  0.7299
 4889SOL    HW226301   0.338   3.600   3.549 -0.3391  0.9184 -0.7739
 4890SOL     OW26302   4.313   0.789  17.602 -0.3456  0.3426  0.1732
 4890SOL    HW126303   4.279   0.733  17.532  2.2053 -1.2942  0.2311
 4890SOL    HW226304   4.247   0.858  17.599  0.5984  1.2419  0.0053
 4891SOL     OW26305   0.892   1.561   4.665 -0.0099  0.1866  0.1735
 4891SOL    HW126306   0.847   1.510   4.597 -0.6421  0.8270  0.1024
 4891SOL    HW226307   0.865   1.646   4.629 -1.2642 -0.1573  0.2962
 4892SOL     OW26308   4.135   4.119   7.878  0.3043  0.2475 -0.3775
 4892SOL    HW126309   4.219   4.090   7.914 -0.0530  1.2922  1.3254
 4892SOL    HW226310   4.165   4.205   7.850  1.6958  0.3488  1.4372
 4893SOL     OW26311   1.070   1.886   5.554 -0.1554  0.3593  0.5023
 4893SOL    HW126312   1.123   1.965   5.546 -0.0616  0.0834 -1.6309
 4893SOL    HW226313   1.121   1.823   5.502 -0.2059  0.2128  0.6320
 4894SOL     OW26314   3.146   1.714   2.048 -0.5206  0.2804  0.5601
 4894SOL    HW126315   3.163   1.707   2.142  0.3226 -0.2541  0.3611
 4894SOL    HW226316   3.087   1.790   2.053 -1.0953 -0.2206  1.3908
 4895SOL     OW26317   0.813   0.943   0.712  0.5597 -0.6723 -0.1291
 4895SOL    HW126318   0.813   0.929   0.806 -1.9681 -0.0228 -0.0461
 4895SOL    HW226319   0.754   1.018   0.705  0.4817 -0.7047  0.2297
 4896SOL     OW26320   3.296   2.652   4.985 -0.3882  0.5092 -0.3000
 4896SOL    HW126321   3.260   2.656   5.074 -0.2611 -1.5451 -0.1485
 4896SOL    HW226322   3.307   2.560   4.959 -2.6527  0.2227 -0.2608
 4897SOL     OW26323   1.041   0.795   1.004 -0.3387  0.3128  0.2029
 4897SOL    HW126324   1.040   0.724   0.940  0.0276 -0.8610  1.5017
 4897SOL    HW226325   1.122   0.797   1.055 -2.0822 -0.2429  2.9910
 4898SOL     OW26326   1.317   3.007   4.317 -0.0954 -0.3163  0.2076
 4898SOL    HW126327   1.324   2.917   4.285 -1.3892 -0.2170 -0.3695
 4898SOL    HW226328   1.404   3.042   4.297 -0.6415 -0.2132 -2.0739
 4899SOL     OW26329   1.854   3.553   5.942 -0.5680 -0.1591  0.0571
 4899SOL    HW126330   1.856   3.645   5.915  2.0017 -0.3144 -0.2862
 4899SOL    HW226331   1.770   3.548   5.989  0.4926  0.1981  1.9777
 4900SOL     OW26332   4.580   0.089   7.382  0.1086 -0.6298 -0.0071
 4900SOL    HW126333   4.498   0.071   7.427  0.0090  2.4507  1.0109
 4900SOL    HW226334   4.623   0.006   7.402  0.4559 -0.3270  0.5017
 4901SOL     OW26335   1.224   0.531   9.566 -0.8153  0.0788 -0.2070
 4901SOL    HW126336   1.319   0.534   9.555 -1.2149  1.6548 -3.2934
 4901SOL    HW226337   1.187   0.526   9.478 -0.7399  1.0827 -0.2986
 4902SOL     OW26338   1.459   2.165   3.336 -0.8530 -0.2701 -0.0034
 4902SOL    HW126339   1.400   2.189   3.407  0.8463  1.2060  0.9150
 4902SOL    HW226340   1.447   2.070   3.341  1.5858 -0.5061  1.4584
 4903SOL     OW26341   2.409   0.599  15.026  0.3655 -0.1701  0.3091
 4903SOL    HW126342   2.323   0.598  14.984 -0.6222 -0.0137  2.3270
 4903SOL    HW226343   2.417   0.514  15.068  0.6563  0.6351  1.8760
 4904SOL     OW26344   0.260   0.089   4.866 -0.4653 -0.3468  1.0869
 4904SOL    HW126345   0.348   0.122   4.845 -0.7074  0.7289  1.7406
 4904SOL    HW226346   0.262   0.003   4.824 -0.0823  0.6958 -1.0425
 4905SOL     OW26347   0.407   0.905   3.041  0.0354  0.3377 -0.4740
 4905SOL    HW126348   0.454   0.987   3.025 -0.8974  1.0986  0.6784
 4905SOL    HW226349   0.346   0.897   2.967 -0.0104 -0.1088 -0.3879
 4906SOL     OW26350   1.060   1.809  17.361 -0.1075 -0.4229  0.5172
 4906SOL    HW126351   1.066   1.714  17.374  0.2689 -0.2864  1.3395
 4906SOL    HW226352   0.982   1.829  17.413 -0.8883 -0.8905 -0.4508
 4907SOL     OW26353   3.345   3.533   2.024 -0.1200 -0.6892  0.1941
 4907SOL    HW126354   3.264   3.511   2.070 -1.2084  0.7970 -0.9782
 4907SOL    HW226355   3.326   3.624   1.999 -0.1307 -1.7405 -3.7131
 4908SOL     OW26356   1.060   1.361   2.159  0.3963  0.0211  0.0534
 4908SOL    HW126357   1.079   1.354   2.065  2.5639 -0.1782  0.4969
 4908SOL    HW226358   1.078   1.274   2.194  1.1905  0.5738  1.0161
 4909SOL     OW26359   2.933   4.201   7.902  0.1324 -0.2113  0.6401
 4909SOL    HW126360   2.925   4.194   7.997 -0.9390  0.4633  0.6086
 4909SOL    HW226361   2.856   4.155   7.868  0.7977 -0.3014 -0.7477
 4910SOL     OW26362   2.187   0.751  14.312  0.4318  0.3530  0.0862
 4910SOL    HW126363   2.249   0.824  14.316 -0.0097  0.7263  0.1404
 4910SOL    HW226364   2.107   0.804  14.310  0.7003  0.7237 -0.8527
 4911SOL     OW26365   2.058   1.282   8.316 -0.6437 -0.4803 -0.9925
 4911SOL    HW126366   2.061   1.377   8.309 -0.0745 -0.4018  0.4462
 4911SOL    HW226367   1.990   1.289   8.382 -0.5110  0.9873 -1.0093
 4912SOL     OW26368   4.359   1.120   1.293  0.2496 -0.0417  0.1434
 4912SOL    HW126369   4.329   1.209   1.310 -0.7939 -0.4847  0.6143
 4912SOL    HW226370   4.271   1.085   1.304 -0.3867  2.0453  1.5427
 4913SOL     OW26371   1.454   1.583   2.219  0.2327 -0.3277  0.0483
 4913SOL    HW126372   1.539   1.539   2.222  0.7304  0.6441  0.2581
 4913SOL    HW226373   1.428   1.565   2.309 -1.1710 -2.4894 -0.8141
 4914SOL     OW26374   3.247   0.320  11.826 -0.0326  0.2352 -0.0805
 4914SOL    HW126375   3.190   0.373  11.881  1.3115  2.3766 -0.7447
 4914SOL    HW226376   3.297   0.272  11.893 -0.8826 -0.1881  0.2451
 4915SOL     OW26377   3.161   1.804   5.573 -0.7767  0.6323  0.0736
 4915SOL    HW126378   3.107   1.876   5.606 -2.2800 -1.5003  2.2370
 4915SOL    HW226379   3.097   1.739   5.544 -0.2706 -0.2200  0.8555
 4916SOL     OW26380   2.430   2.035   8.560 -0.0132 -0.1721  0.2668
 4916SOL    HW126381   2.410   2.034   8.654  0.8145  0.7172  0.4552
 4916SOL    HW226382   2.460   1.945   8.548  2.6539  0.6087  1.0049
 4917SOL     OW26383   0.504   1.754   2.580  0.3641 -0.2810  0.1954
 4917SOL    HW126384   0.493   1.700   2.502  1.4932 -1.0421  0.5582
 4917SOL    HW226385   0.469   1.694   2.644  1.8203  0.0890  1.3407
 4918SOL     OW26386   1.790   3.612   3.883  0.6029  0.0404  0.6660
 4918SOL    HW126387   1.808   3.613   3.789  0.4467  1.1182  0.6472
 4918SOL    HW226388   1.702   3.574   3.885  0.3200  0.6835  0.5089
 4919SOL     OW26389   3.553   3.887   3.919 -0.4964 -0.0206  0.3830
 4919SOL    HW126390   3.541   3.799   3.883  1.8512 -0.5978  0.9640
 4919SOL    HW226391   3.469   3.929   3.900 -0.1614 -0.0955 -1.2589
 4920SOL     OW26392   4.657   2.474   8.192  0.0815 -0.7628 -0.0849
 4920SOL    HW126393   4.721   2.500   8.126  0.5865  1.7962  1.4105
 4920SOL    HW226394   4.581   2.480   8.133  0.4363 -3.3092 -0.7968
 4921SOL     OW26395   1.772   0.956  12.963 -0.0027  0.1206  0.5560
 4921SOL    HW126396   1.679   0.952  12.986  0.1154  0.3911  1.0659
 4921SOL    HW226397   1.821   0.917  13.034  3.1310 -1.5187 -2.5105
 4922SOL     OW26398   4.350   0.345   4.264 -0.8867 -0.3901  0.1003
 4922SOL    HW126399   4.420   0.404   4.235 -0.6752 -1.4276 -1.5491
 4922SOL    HW226400   4.312   0.403   4.330 -2.2941 -1.2059  0.0098
 4923SOL     OW26401   3.255   4.455   3.226  0.3191  0.9338 -0.2322
 4923SOL    HW126402   3.339   4.427   3.265 -0.1774  1.0741  0.9520
 4923SOL    HW226403   3.271   4.405   3.146 -0.1395  1.8276 -0.8816
 4924SOL     OW26404   2.483   2.377   0.886  0.2353  0.0463 -0.5799
 4924SOL    HW126405   2.410   2.317   0.874 -0.9068  1.3493 -0.1961
 4924SOL    HW226406   2.527   2.345   0.964  1.2038  1.9640 -0.3299
 4925SOL     OW26407   4.518   4.282   7.744  0.1719  0.2471  0.0349
 4925SOL    HW126408   4.577   4.210   7.763  0.6129 -0.3337 -3.5134
 4925SOL    HW226409   4.582   4.350   7.722  1.5819 -1.4102 -0.9406
 4926SOL     OW26410   0.833   0.462  16.025 -0.6759  0.3498  0.4103
 4926SOL    HW126411   0.746   0.483  16.057 -0.4924  2.5590 -0.5833
 4926SOL    HW226412   0.845   0.367  16.020  0.1917  0.5831 -1.9734
 4927SOL     OW26413   4.348   0.568   5.760 -0.8979  0.2367  0.2515
 4927SOL    HW126414   4.341   0.630   5.687  2.4737  0.7321  0.3506
 4927SOL    HW226415   4.414   0.614   5.811 -0.9402 -0.5168  0.9761
 4928SOL     OW26416   0.138   2.598  11.929  0.4142 -0.3272 -0.0117
 4928SOL    HW126417   0.075   2.666  11.954 -1.8199 -2.4213  0.0183
 4928SOL    HW226418   0.079   2.523  11.927 -1.1602  0.8295  2.7470
 4929SOL     OW26419   2.507   1.625   4.193 -0.6281  0.2462  0.0555
 4929SOL    HW126420   2.546   1.705   4.157  1.0775  0.1076  1.6012
 4929SOL    HW226421   2.581   1.593   4.244 -0.5275  2.6448  1.3886
 4930SOL     OW26422   2.748   4.296   5.213 -0.9248 -0.2164 -0.3072
 4930SOL    HW126423   2.724   4.389   5.214 -0.4969 -0.1164  0.3548
 4930SOL    HW226424   2.840   4.301   5.188 -0.5202 -1.3807  0.9557
 4931SOL     OW26425   0.153   1.141   6.725 -0.0009  0.0311  0.1480
 4931SOL    HW126426   0.204   1.222   6.724  0.6219 -0.3905 -1.7480
 4931SOL    HW226427   0.125   1.130   6.816  0.6350  1.2709  0.4999
 4932SOL     OW26428   2.879   2.559   5.755 -0.7063 -0.7877  0.3208
 4932SOL    HW126429   2.954   2.601   5.797 -0.6729  1.5520 -2.0859
 4932SOL    HW226430   2.818   2.633   5.749  0.2874 -0.1037 -1.2276
 4933SOL     OW26431   1.367   4.469  16.212  0.7932 -0.3041 -0.2239
 4933SOL    HW126432   1.396   4.439  16.298  2.7945 -0.8652 -1.1054
 4933SOL    HW226433   1.425   4.545  16.206 -1.8431  1.7294  0.2177
 4934SOL     OW26434   1.213   3.015  13.617 -0.2050  0.3202  0.3729
 4934SOL    HW126435   1.232   2.952  13.547  1.4280  0.6021  0.5532
 4934SOL    HW226436   1.276   3.081  13.587  0.0633 -0.0430  0.1436
 4935SOL     OW26437   2.048   3.203   3.356  0.1941 -0.2276 -0.1327
 4935SOL    HW126438   2.143   3.207   3.348  0.1763 -0.4450 -0.4825
 4935SOL    HW226439   2.033   3.108   3.346  1.6462 -0.6298  1.5094
 4936SOL     OW26440   2.493   3.869   4.922  0.0302  0.0579 -0.0323
 4936SOL    HW126441   2.498   3.789   4.974  0.1228 -0.2256 -0.4811
 4936SOL    HW226442   2.503   3.837   4.832 -0.2547 -0.1751  0.0179
 4937SOL     OW26443   4.614   0.823   2.273 -0.5711  0.6787  0.4594
 4937SOL    HW126444   4.658   0.903   2.243 -1.5950  0.8095 -0.7205
 4937SOL    HW226445   4.561   0.805   2.195  1.3145  1.6347 -1.0501
 4938SOL     OW26446   3.960   0.215  10.998  0.3218 -0.1708  0.2916
 4938SOL    HW126447   3.906   0.178  10.928  0.9187  2.1673 -1.4152
 4938SOL    HW226448   3.952   0.150  11.068  2.7417 -0.1619  0.5704
 4939SOL     OW26449   0.245   2.450  13.118  0.1911 -0.6382  0.1994
 4939SOL    HW126450   0.227   2.356  13.125  0.0217 -0.6094  0.1574
 4939SOL    HW226451   0.158   2.477  13.090  0.1048 -0.3843  0.7220
 4940SOL     OW26452   4.213   0.561   9.782  0.3588 -0.1876 -0.4904
 4940SOL    HW126453   4.277   0.496   9.752 -0.2056 -1.1800  0.4960
 4940SOL    HW226454   4.214   0.613   9.701  0.9511 -0.5973 -0.7540
 4941SOL     OW26455   2.480   0.007   5.797  0.7797 -0.3532 -0.0757
 4941SOL    HW126456   2.432   4.688   5.858  0.3645 -0.9497 -0.9496
 4941SOL    HW226457   2.522   4.672   5.751  0.7487  0.8685 -2.0108
 4942SOL     OW26458   2.231   1.628   7.541 -0.0528 -0.9014  0.0592
 4942SOL    HW126459   2.244   1.567   7.614  0.1616  1.2444  1.8353
 4942SOL    HW226460   2.323   1.652   7.532  0.0391 -1.1804  0.2583
 4943SOL     OW26461   3.953   3.937   7.731 -0.0939  0.4716 -0.3525
 4943SOL    HW126462   3.977   3.850   7.764  0.3411  1.7437  2.7570
 4943SOL    HW226463   4.017   3.995   7.773 -3.3347  1.7530  2.8340
 4944SOL     OW26464   3.197   0.765   8.490 -0.6916 -0.5708 -0.2308
 4944SOL    HW126465   3.148   0.694   8.531  1.3149 -2.7935 -1.6374
 4944SOL    HW226466   3.226   0.724   8.408  2.7182  0.0610  0.6675
 4945SOL     OW26467   4.359   2.537   7.240 -0.0770  0.1721  0.3836
 4945SOL    HW126468   4.415   2.575   7.172 -2.2753  0.8592 -1.0287
 4945SOL    HW226469   4.290   2.505   7.182  0.0068 -0.2333  0.5104
 4946SOL     OW26470   0.957   1.965   9.172  0.6041  0.1674  0.4997
 4946SOL    HW126471   0.917   2.004   9.250 -0.3426 -0.5243  0.3665
 4946SOL    HW226472   0.999   1.883   9.197  0.4721 -0.7105 -2.1131
 4947SOL     OW26473   3.090   1.250   4.692 -0.2653 -0.5804 -0.1561
 4947SOL    HW126474   3.045   1.248   4.777  1.6050  0.0894  0.8460
 4947SOL    HW226475   3.152   1.321   4.709 -1.4733  0.3133  0.5666
 4948SOL     OW26476   1.600   0.536   9.084  0.2107 -0.4189  0.1196
 4948SOL    HW126477   1.663   0.602   9.114 -0.2030 -0.7253  1.6843
 4948SOL    HW226478   1.667   0.470   9.069  1.0410  0.4011  0.1966
 4949SOL     OW26479   4.014   2.530   7.409 -0.2342 -0.3792  0.2648
 4949SOL    HW126480   4.036   2.447   7.369  0.2332  0.1830 -0.6416
 4949SOL    HW226481   4.103   2.559   7.431 -0.0551  1.0265 -2.4029
 4950SOL     OW26482   3.761   1.653   2.389  0.3988  0.5550  0.5845
 4950SOL    HW126483   3.738   1.593   2.318 -1.6768  0.1282  1.6146
 4950SOL    HW226484   3.857   1.647   2.384  0.3128  0.7728 -1.3072
 4951SOL     OW26485   2.340   4.564   7.316 -0.2599  0.1395 -0.1511
 4951SOL    HW126486   2.282   4.488   7.316  1.6779 -1.3495  1.8222
 4951SOL    HW226487   2.425   4.522   7.300 -0.7247 -0.5990 -0.6742
 4952SOL     OW26488   4.451   1.408   4.352  0.9545  0.2842 -0.0019
 4952SOL    HW126489   4.494   1.448   4.277 -1.0651 -0.7909 -1.7476
 4952SOL    HW226490   4.417   1.485   4.397  0.4633  0.6868 -1.0612
 4953SOL     OW26491   4.054   3.353   7.421 -0.4074 -0.1767  0.1018
 4953SOL    HW126492   3.970   3.394   7.439 -1.1348 -1.0453 -1.2859
 4953SOL    HW226493   4.103   3.432   7.400  1.4776 -1.2955  0.3046
 4954SOL     OW26494   1.869   4.334   1.189 -0.0078 -0.5675  0.7047
 4954SOL    HW126495   1.790   4.282   1.177  0.0583 -0.8804  1.5862
 4954SOL    HW226496   1.936   4.265   1.180 -0.8786 -1.3089 -0.0967
 4955SOL     OW26497   4.620   4.188   4.709  0.1834  0.2098 -0.1226
 4955SOL    HW126498   4.575   4.133   4.645 -0.1912 -1.8593  1.9409
 4955SOL    HW226499   4.710   4.187   4.676 -0.2619  2.3221 -1.3962
 4956SOL     OW26500   1.335   2.165   6.484 -0.5804 -0.1034  0.1815
 4956SOL    HW126501   1.271   2.222   6.443 -1.0316 -0.6895  0.0782
 4956SOL    HW226502   1.282   2.089   6.507  0.6279 -0.8376  0.6059
 4957SOL     OW26503   2.634   1.264   3.021  0.0340  0.7409 -0.2341
 4957SOL    HW126504   2.727   1.243   3.012  0.2621  1.7331 -0.2009
 4957SOL    HW226505   2.616   1.244   3.113  1.3812  0.5617 -0.0130
 4958SOL     OW26506   4.215   2.862   2.796  0.4825  0.8559  0.0517
 4958SOL    HW126507   4.289   2.825   2.844  1.6900  1.9803 -0.9506
 4958SOL    HW226508   4.179   2.925   2.858  1.7692  1.6237  0.0117
 4959SOL     OW26509   2.503   0.569  13.702 -0.1630  0.5468  0.0312
 4959SOL    HW126510   2.447   0.645  13.684 -0.6147 -0.6783 -3.6120
 4959SOL    HW226511   2.540   0.554  13.615 -1.1052  0.7780 -0.4195
 4960SOL     OW26512   0.653   2.183   6.015  0.0714 -0.1006 -0.0218
 4960SOL    HW126513   0.675   2.125   5.943  1.2401  0.9711 -0.5219
 4960SOL    HW226514   0.681   2.123   6.084  2.3777 -0.2825 -1.1432
 4961SOL     OW26515   4.164   4.575   5.478 -0.3640 -0.7404 -0.2900
 4961SOL    HW126516   4.165   4.491   5.433 -1.6099 -0.0435 -1.6274
 4961SOL    HW226517   4.256   4.603   5.481 -0.4971 -0.1655 -1.6352
 4962SOL     OW26518   0.783   0.956   6.587 -0.2583  0.0525 -0.0632
 4962SOL    HW126519   0.712   0.892   6.593  1.9981 -2.3425  1.2000
 4962SOL    HW226520   0.844   0.892   6.549 -0.1266 -0.4071  0.9297
 4963SOL     OW26521   0.989   1.025  13.187 -0.2570  0.3222  0.2814
 4963SOL    HW126522   0.992   1.110  13.230 -0.4365  0.6760 -0.4098
 4963SOL    HW226523   1.074   1.024  13.143 -1.0211 -1.4599 -1.1612
 4964SOL     OW26524   4.453   1.864   5.441 -0.1727  0.2255  0.6253
 4964SOL    HW126525   4.486   1.833   5.526 -0.8562  0.5194  0.9949
 4964SOL    HW226526   4.377   1.907   5.479 -0.3427  0.8661 -0.4407
 4965SOL     OW26527   2.162   3.609   3.149 -0.3360  1.0655  0.2396
 4965SOL    HW126528   2.122   3.575   3.229 -3.4323  1.2723 -1.2247
 4965SOL    HW226529   2.108   3.566   3.083  1.4262  0.2697 -0.6903
 4966SOL     OW26530   0.133   2.621   8.809 -0.3441 -0.1578  0.5162
 4966SOL    HW126531   0.062   2.644   8.868  0.7291  0.3970  1.6072
 4966SOL    HW226532   0.110   2.662   8.726  0.5127 -0.4966  0.1054
 4967SOL     OW26533   2.135   3.687   7.963 -0.0472 -0.0818  0.6191
 4967SOL    HW126534   2.143   3.717   7.872 -1.4040 -2.2992 -0.2378
 4967SOL    HW226535   2.057   3.735   7.992 -1.5942 -0.9817 -1.9517
 4968SOL     OW26536   4.627   1.802   1.178 -0.2411  0.3607 -0.5136
 4968SOL    HW126537   4.570   1.879   1.184 -0.0696  0.1565  4.0603
 4968SOL    HW226538   4.637   1.787   1.272 -0.2034  1.0445 -0.4060
 4969SOL     OW26539   1.016   3.296   3.428  0.2438  0.5498 -0.0791
 4969SOL    HW126540   0.986   3.386   3.421 -0.4701  0.3478  0.3416
 4969SOL    HW226541   1.109   3.296   3.408 -0.0837  2.8948 -1.5087
 4970SOL     OW26542   2.922   3.119   3.485  0.2412 -0.6271  0.1370
 4970SOL    HW126543   3.017   3.125   3.475  0.1931  1.9831  1.3202
 4970SOL    HW226544   2.899   3.028   3.504 -1.7310  0.2962  2.2668
 4971SOL     OW26545   1.187   0.791   8.479 -0.1893 -0.2507 -0.1738
 4971SOL    HW126546   1.224   0.705   8.457  2.2974  0.8489 -0.2878
 4971SOL    HW226547   1.165   0.780   8.572  2.4806 -2.1708  0.2531
 4972SOL     OW26548   4.318   2.050  10.370  0.7697 -0.1111  0.1559
 4972SOL    HW126549   4.393   1.994  10.389  0.3716 -0.5631  0.4107
 4972SOL    HW226550   4.321   2.116  10.441  0.8885 -1.6035  1.5389
 4973SOL     OW26551   0.346   2.625   2.042 -0.0515 -0.2723  0.2188
 4973SOL    HW126552   0.432   2.653   2.072 -0.2847 -0.9293  1.4800
 4973SOL    HW226553   0.359   2.610   1.948 -0.0884  1.1476 -0.0133
 4974SOL     OW26554   2.644   0.763   7.529  0.1969  0.4182  0.4358
 4974SOL    HW126555   2.618   0.818   7.603  1.2626  1.3272  0.1404
 4974SOL    HW226556   2.567   0.741   7.477  0.6550 -2.4330  0.9575
 4975SOL     OW26557   2.060   2.595   1.196 -0.5820 -0.2428 -0.0743
 4975SOL    HW126558   2.110   2.546   1.130 -0.4305 -2.0332  1.3937
 4975SOL    HW226559   1.977   2.579   1.151  0.2151 -2.4211 -0.7810
 4976SOL     OW26560   1.860   2.458   5.083  0.3672  1.1795  0.7297
 4976SOL    HW126561   1.799   2.416   5.021  1.9417  0.4856 -0.3448
 4976SOL    HW226562   1.800   2.489   5.150 -0.7186  0.3562  0.1409
 4977SOL     OW26563   2.258   3.025   0.031  0.2458  0.0899  0.2767
 4977SOL    HW126564   2.207   2.996   0.106 -2.2706 -1.7418 -2.1390
 4977SOL    HW226565   2.241   3.118   0.039 -1.7807 -0.2119 -0.5039
 4978SOL     OW26566   0.707   0.599   4.749 -0.0961  0.0822  0.1971
 4978SOL    HW126567   0.726   0.591   4.655 -0.2157 -0.3137  0.2075
 4978SOL    HW226568   0.638   0.533   4.753 -0.1488 -0.0100 -1.9955
 4979SOL     OW26569   3.234   4.019  15.288  0.3553  0.2686  0.0054
 4979SOL    HW126570   3.297   4.091  15.290 -0.0018  0.5873 -0.1062
 4979SOL    HW226571   3.242   3.983  15.200 -0.8154 -0.2711  0.1100
 4980SOL     OW26572   2.505   3.877  12.610 -0.5218  0.5187  0.3750
 4980SOL    HW126573   2.525   3.789  12.642  1.6556  0.3812 -1.3734
 4980SOL    HW226574   2.535   3.938  12.678  1.7482  1.6009 -1.5630
 4981SOL     OW26575   3.972   2.989   4.130 -0.2360 -0.4078 -0.0590
 4981SOL    HW126576   4.032   2.935   4.181  2.3872  2.1647 -0.4249
 4981SOL    HW226577   4.003   3.078   4.142  0.6920 -0.8093  0.5141
 4982SOL     OW26578   2.121   3.412   8.046  0.3438 -0.4052 -0.2897
 4982SOL    HW126579   2.071   3.381   7.970 -0.7248 -0.8367  0.5859
 4982SOL    HW226580   2.114   3.507   8.033 -1.3001 -0.3985  0.6699
 4983SOL     OW26581   4.309   4.643   4.456 -0.1879  0.0788  0.0528
 4983SOL    HW126582   4.379   4.631   4.392 -1.1939 -1.4931 -0.7359
 4983SOL    HW226583   4.261   4.566   4.427 -0.6739  0.0092  1.0456
 4984SOL     OW26584   3.840   0.450   5.144 -0.4653 -0.6951  0.5174
 4984SOL    HW126585   3.869   0.369   5.186 -1.1141 -1.3795 -0.3580
 4984SOL    HW226586   3.744   0.453   5.139 -0.5527  3.2243  4.1568
 4985SOL     OW26587   1.306   4.059   6.605 -0.4338 -0.3267 -0.0028
 4985SOL    HW126588   1.321   3.998   6.677 -2.7950  0.6753  1.3359
 4985SOL    HW226589   1.266   4.122   6.665 -1.2672 -1.7110  0.9023
 4986SOL     OW26590   4.624   4.119   7.271  0.3294 -0.4067  0.1729
 4986SOL    HW126591   4.590   4.160   7.351  0.6020  1.0702 -0.4748
 4986SOL    HW226592   4.717   4.139   7.273 -0.0011  1.1706 -0.3182
 4987SOL     OW26593   1.677   2.031  14.255 -0.3080 -0.1599 -0.2614
 4987SOL    HW126594   1.597   1.981  14.274 -1.1569  0.8054 -1.2420
 4987SOL    HW226595   1.697   2.001  14.166  2.6541 -0.0295  0.3685
 4988SOL     OW26596   1.022   1.209   4.556 -0.7228  0.5124 -0.2942
 4988SOL    HW126597   1.081   1.189   4.629  0.1268  2.4432 -0.4666
 4988SOL    HW226598   0.935   1.199   4.595 -0.2234  0.7767  0.8868
 4989SOL     OW26599   3.543   2.534   8.823  0.0429 -0.8892  0.6409
 4989SOL    HW126600   3.499   2.467   8.876 -1.0135  1.8171  3.1397
 4989SOL    HW226601   3.627   2.538   8.869  0.7813  2.7650 -1.0686
 4990SOL     OW26602   3.967   0.824  10.001  0.1442  0.7200  0.0976
 4990SOL    HW126603   3.973   0.896  10.065  0.6266 -0.1858  1.0590
 4990SOL    HW226604   3.962   0.755  10.067 -0.1079  2.0501  1.4666
 4991SOL     OW26605   2.630   2.480   2.070 -0.9529  0.1395 -0.4383
 4991SOL    HW126606   2.557   2.518   2.119  1.3794  2.8098  1.0262
 4991SOL    HW226607   2.699   2.476   2.136 -2.1509  0.1265  0.8144
 4992SOL     OW26608   0.574   3.137  17.051  0.4008  0.2218 -0.5930
 4992SOL    HW126609   0.554   3.223  17.014 -1.5055  0.2625  0.5774
 4992SOL    HW226610   0.483   3.109  17.063  0.8110 -0.0320  1.8261
 4993SOL     OW26611   2.246   1.320   5.297 -0.1150 -0.7448 -0.1251
 4993SOL    HW126612   2.279   1.410   5.304 -1.4216 -0.4488  2.1661
 4993SOL    HW226613   2.320   1.272   5.335  0.1605 -0.6621 -0.5513
 4994SOL     OW26614   0.229   0.387  12.004  0.2237 -0.5713 -0.0352
 4994SOL    HW126615   0.264   0.310  12.050  1.6061  0.5976  0.8588
 4994SOL    HW226616   0.200   0.349  11.921  0.7189  0.0236 -0.4780
 4995SOL     OW26617   1.004   1.342   7.494 -0.0993  0.2421 -0.2652
 4995SOL    HW126618   1.086   1.382   7.523  1.6562 -3.2935 -0.3382
 4995SOL    HW226619   1.006   1.376   7.405  2.0013  2.3894  0.6078
 4996SOL     OW26620   3.625   4.684   3.994 -0.2096 -0.2876  0.1979
 4996SOL    HW126621   3.666   0.025   4.029 -2.0691 -0.3390  2.4858
 4996SOL    HW226622   3.673   4.612   4.035 -1.2757 -0.1423  1.6810
 4997SOL     OW26623   1.155   4.355   8.757 -0.3967 -0.2492 -0.3614
 4997SOL    HW126624   1.131   4.264   8.776 -1.8360 -0.3023 -2.4234
 4997SOL    HW226625   1.212   4.371   8.832  0.6889 -0.5498 -1.1287
 4998SOL     OW26626   3.648   2.789   8.805 -0.7682 -0.3752 -0.0150
 4998SOL    HW126627   3.727   2.807   8.754  0.8286  0.9336  2.9128
 4998SOL    HW226628   3.628   2.698   8.783 -0.6353 -0.2789 -0.5393
 4999SOL     OW26629   3.052   4.126   3.838  0.2319 -0.1251  0.1411
 4999SOL    HW126630   3.112   4.192   3.804  1.1396 -0.7959  0.4310
 4999SOL    HW226631   3.010   4.182   3.903 -0.0389  2.6558 -2.4122
 5000SOL     OW26632   2.272   4.293   3.294 -0.3810 -0.0337 -0.7199
 5000SOL    HW126633   2.343   4.279   3.356 -0.7483  1.4028  0.0294
 5000SOL    HW226634   2.203   4.334   3.346 -0.4123 -2.5038  1.2115
 5001SOL     OW26635   1.812   3.074   5.742  0.0948 -0.4167  0.2017
 5001SOL    HW126636   1.767   3.143   5.791 -0.1419  0.7439 -1.6545
 5001SOL    HW226637   1.742   3.038   5.688 -1.3984  0.4092  1.5722
 5002SOL     OW26638   2.826   2.263   9.413  1.0928  0.3948 -0.4587
 5002SOL    HW126639   2.775   2.212   9.476 -0.3497  1.1827 -0.9792
 5002SOL    HW226640   2.908   2.217   9.395 -0.1022 -0.3253 -4.1613
 5003SOL     OW26641   4.203   4.056   6.475 -0.2607  0.1276  0.2127
 5003SOL    HW126642   4.237   3.971   6.501  0.4457  0.1512 -0.6314
 5003SOL    HW226643   4.217   4.110   6.553  0.3779 -0.9351  0.8258
 5004SOL     OW26644   0.138   3.132  15.058 -0.4181  0.0843 -0.2494
 5004SOL    HW126645   0.093   3.208  15.097 -0.3765 -1.1079  2.1707
 5004SOL    HW226646   0.075   3.126  14.986  0.8533  0.3653 -1.3795
 5005SOL     OW26647   1.047   3.399   1.852 -0.0926  0.3707 -0.2948
 5005SOL    HW126648   1.025   3.487   1.821  0.9106  0.3918 -0.9337
 5005SOL    HW226649   1.097   3.423   1.931 -0.5891  0.0460  0.1177
 5006SOL     OW26650   0.209   3.017   8.721  0.3232 -0.9769  1.0910
 5006SOL    HW126651   0.251   3.101   8.700 -0.6797 -0.3156  1.7213
 5006SOL    HW226652   0.258   2.960   8.662 -1.2538 -0.4619 -0.7494
 5007SOL     OW26653   0.515   4.365   1.634 -0.8831  0.5453 -0.1764
 5007SOL    HW126654   0.524   4.276   1.599  0.2433  1.0591 -1.1967
 5007SOL    HW226655   0.536   4.334   1.722 -0.2396  2.2136  0.2460
 5008SOL     OW26656   3.092   2.696   2.911  1.0295  0.0863  0.0160
 5008SOL    HW126657   3.037   2.722   2.986  1.5277 -0.4107  0.5581
 5008SOL    HW226658   3.071   2.603   2.908 -1.2321  0.5406  1.6417
 5009SOL     OW26659   1.847   3.290  14.206 -0.2721  0.3296 -0.1565
 5009SOL    HW126660   1.777   3.227  14.193  1.4912 -1.1827 -2.4141
 5009SOL    HW226661   1.912   3.262  14.140 -0.8430  1.1970 -1.0885
 5010SOL     OW26662   2.679   0.578   4.967 -0.2784 -0.1362 -0.3809
 5010SOL    HW126663   2.754   0.524   4.941 -2.0100 -2.3949 -0.6144
 5010SOL    HW226664   2.725   0.646   5.017  2.3926 -0.7520 -1.9939
 5011SOL     OW26665   3.981   0.144   0.017 -0.1701  0.5907  0.5745
 5011SOL    HW126666   3.893   0.182   0.021 -0.2662  0.6579 -2.2161
 5011SOL    HW226667   3.954   0.089  17.692  0.3384  0.8420  0.2073
 5012SOL     OW26668   2.885   2.198   3.680 -0.7648 -0.3429  0.0580
 5012SOL    HW126669   2.909   2.106   3.674 -0.3634 -0.1854 -0.8494
 5012SOL    HW226670   2.952   2.218   3.745 -1.5908  0.7220  0.5771
 5013SOL     OW26671   3.327   4.476   8.103 -0.5105 -0.2995 -0.6739
 5013SOL    HW126672   3.273   4.513   8.172  1.4350 -1.5375  1.5004
 5013SOL    HW226673   3.267   4.491   8.030  0.9122  2.3060 -1.3221
 5014SOL     OW26674   0.535   4.066   9.872  0.1643 -0.0375  0.0693
 5014SOL    HW126675   0.456   4.102   9.833  0.1258 -1.1568 -0.8944
 5014SOL    HW226676   0.506   4.036   9.958  3.1983 -1.3206  0.6524
 5015SOL     OW26677   3.559   1.269  16.681 -0.0813 -0.7670  1.1210
 5015SOL    HW126678   3.617   1.306  16.747 -0.4708 -1.0459  1.6191
 5015SOL    HW226679   3.610   1.192  16.654  2.7366  1.0777  1.1457
 5016SOL     OW26680   3.234   1.711  10.190 -0.0760 -0.2386 -0.0880
 5016SOL    HW126681   3.198   1.795  10.163 -0.0063 -1.0991 -2.8341
 5016SOL    HW226682   3.231   1.679  10.100  1.5978 -0.1352 -0.1933
 5017SOL     OW26683   0.195   4.541   7.243 -0.6100  0.4509  0.7484
 5017SOL    HW126684   0.107   4.568   7.215  0.3160  3.3670  0.5884
 5017SOL    HW226685   0.209   4.465   7.187  0.1271  0.7302  0.5580
 5018SOL     OW26686   3.298   1.657   3.792 -0.2955 -0.2747 -0.0845
 5018SOL    HW126687   3.294   1.705   3.709  1.0894 -0.7961 -0.4556
 5018SOL    HW226688   3.252   1.706   3.861 -0.1894  0.5335 -0.5917
 5019SOL     OW26689   3.563   2.733   0.116  0.3576  0.2795  0.0821
 5019SOL    HW126690   3.559   2.801   0.184 -0.2827 -1.4237  1.7552
 5019SOL    HW226691   3.469   2.726   0.097  0.2521 -0.5018  0.8947
 5020SOL     OW26692   3.814   2.320   4.045  0.0753  0.1707 -0.1624
 5020SOL    HW126693   3.760   2.275   3.980 -1.1045  2.5419 -0.8618
 5020SOL    HW226694   3.835   2.404   4.003 -1.2348  0.9093  0.6561
 5021SOL     OW26695   3.529   2.097   2.947 -0.0577 -0.0792 -0.5629
 5021SOL    HW126696   3.561   2.008   2.963 -2.4013 -1.0559 -1.3135
 5021SOL    HW226697   3.612   2.142   2.963 -0.9745  1.2207  0.5050
 5022SOL     OW26698   2.420   2.379   5.877  0.1967  0.0632 -0.0397
 5022SOL    HW126699   2.367   2.458   5.880  0.3094  0.1692 -0.8566
 5022SOL    HW226700   2.476   2.398   5.952 -1.1435  1.8718  0.4886
 5023SOL     OW26701   3.321   3.946   6.180 -0.4645 -0.3144 -0.1071
 5023SOL    HW126702   3.294   3.864   6.139  1.8797 -0.9256 -0.4229
 5023SOL    HW226703   3.326   4.009   6.108 -0.8941  2.2068  2.0671
 5024SOL     OW26704   4.599   4.434  16.425  0.2081  0.2006 -0.2250
 5024SOL    HW126705   4.672   4.377  16.450 -0.6280 -1.1812 -0.9409
 5024SOL    HW226706   4.643   4.518  16.417 -2.0681  1.4048 -0.0821
 5025SOL     OW26707   4.153   3.233  13.249  0.5287 -0.1592 -0.0991
 5025SOL    HW126708   4.176   3.317  13.288  1.5471 -0.0470 -0.9266
 5025SOL    HW226709   4.058   3.231  13.234  0.1520  1.0871  2.2413
 5026SOL     OW26710   0.365   0.306   5.578  0.0832 -0.4575 -0.3948
 5026SOL    HW126711   0.392   0.216   5.561 -1.0177 -0.8633 -0.0289
 5026SOL    HW226712   0.394   0.329   5.666  1.1071 -0.5282 -0.7153
 5027SOL     OW26713   3.971   1.502   9.709 -0.0907 -0.2278 -0.3224
 5027SOL    HW126714   3.962   1.545   9.793  2.6595  0.7265 -0.5048
 5027SOL    HW226715   4.008   1.416   9.729 -2.3455 -0.5894  2.1882
 5028SOL     OW26716   1.598   1.402   2.388  0.2228 -0.1929 -0.2558
 5028SOL    HW126717   1.608   1.327   2.330  0.9873 -0.3578  0.0886
 5028SOL    HW226718   1.589   1.357   2.472  2.3898  1.4403  0.8740
 5029SOL     OW26719   1.959   4.100  16.876  0.0449  0.0046 -0.3330
 5029SOL    HW126720   1.888   4.157  16.905  1.1313  0.9365  0.4776
 5029SOL    HW226721   1.957   4.024  16.934  0.5335  0.1020 -0.1873
 5030SOL     OW26722   3.842   2.688  15.476 -0.2733 -0.3013 -0.4197
 5030SOL    HW126723   3.749   2.710  15.479 -0.2677 -0.1146 -1.9257
 5030SOL    HW226724   3.870   2.726  15.560 -0.0686 -1.5739  0.0795
 5031SOL     OW26725   0.630   2.286   4.077  0.5638  1.0050 -0.3949
 5031SOL    HW126726   0.662   2.347   4.144 -0.7383  0.1710  0.9862
 5031SOL    HW226727   0.700   2.298   4.013 -0.4776  1.5970 -1.4165
 5032SOL     OW26728   2.423   2.218   8.336 -0.4150  0.2553  0.5904
 5032SOL    HW126729   2.391   2.300   8.375  0.0130 -0.4931  2.5587
 5032SOL    HW226730   2.434   2.166   8.417  1.3299 -0.5527 -0.1678
 5033SOL     OW26731   4.580   2.468   4.483 -0.3184  0.3747  0.1005
 5033SOL    HW126732   4.670   2.440   4.495 -1.0333 -1.2029  1.7615
 5033SOL    HW226733   4.605   2.558   4.463 -0.9494  0.3949 -0.5921
 5034SOL     OW26734   2.523   4.101   9.320 -0.7034  0.4204 -0.6308
 5034SOL    HW126735   2.465   4.132   9.251  0.0254  2.6247 -0.2591
 5034SOL    HW226736   2.480   4.017   9.335 -0.1131  0.1621 -0.3735
 5035SOL     OW26737   0.965   1.039   9.703  0.0128 -0.2479 -0.0386
 5035SOL    HW126738   0.888   1.024   9.649 -1.2426  0.2965  1.6116
 5035SOL    HW226739   0.985   0.951   9.735  0.3388 -0.4493 -0.7866
 5036SOL     OW26740   3.284   1.620  11.350 -0.4844 -0.1070  0.4288
 5036SOL    HW126741   3.262   1.637  11.259  1.5604 -1.7671 -0.3523
 5036SOL    HW226742   3.200   1.652  11.385  0.4235  2.6219  0.1361
 5037SOL     OW26743   2.029   1.342   2.573 -0.3131 -0.5719 -0.2362
 5037SOL    HW126744   1.935   1.331   2.564 -0.1729 -1.2111 -0.8859
 5037SOL    HW226745   2.055   1.314   2.485  1.1807 -1.6916  0.5611
 5038SOL     OW26746   0.082   0.512   4.830 -0.2603  0.3955  0.1637
 5038SOL    HW126747   0.153   0.519   4.894  0.5242  1.3558 -0.8272
 5038SOL    HW226748   0.009   0.547   4.880  0.3460  1.0144  0.6193
 5039SOL     OW26749   4.166   4.055   8.721  0.2951 -0.2360 -0.2638
 5039SOL    HW126750   4.159   4.125   8.657 -0.6319 -1.2277 -1.2435
 5039SOL    HW226751   4.261   4.049   8.727  0.1889 -1.6752  0.0276
 5040SOL     OW26752   0.372   1.224   8.981 -0.8271  0.1206 -0.2715
 5040SOL    HW126753   0.287   1.229   8.936 -2.3713 -3.1360  2.2892
 5040SOL    HW226754   0.346   1.282   9.054 -1.0805 -0.0565 -0.2209
 5041SOL     OW26755   0.330   2.718   6.108  0.0069  0.1607  0.5051
 5041SOL    HW126756   0.412   2.669   6.114  0.3094  0.7676  1.3417
 5041SOL    HW226757   0.336   2.740   6.015  0.2324  0.1078  0.5067
 5042SOL     OW26758   4.128   4.328   7.631  0.0383  0.1753 -0.3113
 5042SOL    HW126759   4.085   4.385   7.568  1.2515  0.7908 -0.5767
 5042SOL    HW226760   4.166   4.392   7.691 -2.0320 -0.0864  1.3145
 5043SOL     OW26761   1.936   0.137   9.595 -0.1109 -0.8851  0.2915
 5043SOL    HW126762   2.002   0.068   9.608  0.5533 -0.2223  0.3906
 5043SOL    HW226763   1.983   0.200   9.541 -0.4004 -1.9671 -1.2377
 5044SOL     OW26764   3.928   2.070   3.507 -0.2942  0.0752 -0.0860
 5044SOL    HW126765   4.008   2.075   3.559 -0.7527  1.1852  0.4975
 5044SOL    HW226766   3.950   2.131   3.436  0.0194 -1.1163 -1.0177
 5045SOL     OW26767   3.119   1.008   5.009 -0.1707 -0.0113 -0.4868
 5045SOL    HW126768   3.080   0.991   5.095 -2.0694 -0.6506 -1.4679
 5045SOL    HW226769   3.154   0.921   4.993  1.1019  0.1450  1.4262
 5046SOL     OW26770   2.524   1.052   2.782  0.1039 -0.6173  0.6818
 5046SOL    HW126771   2.544   1.144   2.800  2.1461 -1.0894  0.8327
 5046SOL    HW226772   2.431   1.037   2.799  0.2628 -2.5691 -0.1938
 5047SOL     OW26773   2.238   0.415   1.625  0.0658 -0.3608  0.0485
 5047SOL    HW126774   2.321   0.412   1.577 -0.2267  2.9973 -0.6006
 5047SOL    HW226775   2.183   0.448   1.554  0.7855 -2.9255 -1.7142
 5048SOL     OW26776   0.537   4.497   2.454 -0.1458 -0.0140  0.3369
 5048SOL    HW126777   0.612   4.548   2.483 -0.1945  1.8147 -2.7908
 5048SOL    HW226778   0.480   4.566   2.487 -0.6488 -1.5266  2.6947
 5049SOL     OW26779   2.952   1.623   4.115 -0.4842 -0.0503  0.1952
 5049SOL    HW126780   2.962   1.541   4.066  0.1747  0.5857 -0.7352
 5049SOL    HW226781   3.042   1.650   4.132 -0.4368  0.8945 -1.5578
 5050SOL     OW26782   2.690   0.282   7.911  0.3310 -0.5132  0.6597
 5050SOL    HW126783   2.752   0.354   7.921 -1.5683  1.2302 -0.0997
 5050SOL    HW226784   2.747   0.214   7.948  0.1182 -0.4341  1.1426
 5051SOL     OW26785   4.223   0.786   8.230 -0.3806  0.0562  0.0645
 5051SOL    HW126786   4.168   0.850   8.184  0.0481 -0.5421 -1.2847
 5051SOL    HW226787   4.284   0.847   8.272  0.0874 -0.2695 -0.1438
 5052SOL     OW26788   3.187   2.571   3.648  0.2489 -0.4021 -0.2631
 5052SOL    HW126789   3.217   2.483   3.667 -1.6409 -0.9952 -0.0223
 5052SOL    HW226790   3.250   2.619   3.702 -2.3171  0.3671  2.0324
 5053SOL     OW26791   4.420   4.093   6.855 -0.7918  0.0032 -0.2307
 5053SOL    HW126792   4.368   4.157   6.903 -1.0632 -0.6340  0.3295
 5053SOL    HW226793   4.506   4.122   6.884 -1.0268  0.0091  0.4472
 5054SOL     OW26794   3.237   1.043   7.265  0.0427  0.1591 -0.0860
 5054SOL    HW126795   3.279   1.031   7.180  0.6738 -0.8738  0.3706
 5054SOL    HW226796   3.179   1.114   7.237  2.3526  1.8750 -0.5046
 5055SOL     OW26797   2.116   0.579   5.234 -0.8921 -0.6793  0.5425
 5055SOL    HW126798   2.105   0.535   5.150 -1.2119 -1.2033  0.8629
 5055SOL    HW226799   2.191   0.637   5.218 -0.4680 -1.2585  0.4666
 5056SOL     OW26800   2.643   3.072   4.716  0.7078  1.1028 -0.0008
 5056SOL    HW126801   2.681   3.093   4.801  0.4390 -2.6740  1.0803
 5056SOL    HW226802   2.721   3.062   4.661 -0.4958  1.3031 -1.7357
 5057SOL     OW26803   0.617   0.822   7.497  0.4017 -0.0450  0.4645
 5057SOL    HW126804   0.709   0.816   7.472  0.8021  2.0792  1.4584
 5057SOL    HW226805   0.570   0.780   7.425  2.3425 -0.1842 -0.7140
 5058SOL     OW26806   0.016   1.065   7.951  0.2203  0.5078 -0.1773
 5058SOL    HW126807   4.736   0.978   7.916  0.0710  0.2125  0.6321
 5058SOL    HW226808   0.105   1.058   7.983  0.1204 -0.0746 -0.0290
 5059SOL     OW26809   3.901   2.847   1.559  0.9810 -0.0974 -0.1108
 5059SOL    HW126810   3.928   2.880   1.474 -0.4088 -0.6073 -0.7477
 5059SOL    HW226811   3.806   2.841   1.552  1.0344  0.8820 -1.6132
 5060SOL     OW26812   4.131   2.185   6.037 -0.0730  0.3693  0.3023
 5060SOL    HW126813   4.123   2.154   6.127  1.5275  2.7475  1.2471
 5060SOL    HW226814   4.054   2.146   5.996  0.6409  0.4386 -1.1007
 5061SOL     OW26815   1.372   0.145   7.936  0.0372  0.1100  0.1147
 5061SOL    HW126816   1.414   0.096   8.007 -0.9070 -0.3320  0.3650
 5061SOL    HW226817   1.281   0.116   7.945  0.2590 -0.6451 -0.0525
 5062SOL     OW26818   0.431   3.784   4.028 -0.5577  0.4100 -0.5441
 5062SOL    HW126819   0.349   3.750   3.993 -0.5488 -0.3670  0.1867
 5062SOL    HW226820   0.408   3.765   4.119  1.4496 -0.6958 -0.2426
 5063SOL     OW26821   3.311   2.726   9.921  0.2918 -0.4319 -0.3519
 5063SOL    HW126822   3.329   2.691  10.008  0.3232  2.5180  0.8272
 5063SOL    HW226823   3.345   2.653   9.871  1.1417 -0.2942  0.0210
 5064SOL     OW26824   2.454   3.557   3.589 -0.1838  0.4993 -0.0253
 5064SOL    HW126825   2.479   3.521   3.674  3.1641  0.8264 -0.8843
 5064SOL    HW226826   2.472   3.651   3.593 -0.5422  0.5627  0.0754
 5065SOL     OW26827   1.083   3.756   4.007  0.1184  0.1691 -0.1224
 5065SOL    HW126828   1.115   3.705   3.933 -0.4137  0.0609 -0.2767
 5065SOL    HW226829   1.021   3.815   3.964  0.1837  1.6730  1.8638
 5066SOL     OW26830   0.647   1.761  13.622 -0.0618  0.3657  0.2291
 5066SOL    HW126831   0.709   1.833  13.630  1.2922 -0.6874 -0.9377
 5066SOL    HW226832   0.573   1.798  13.670 -0.8427 -1.3400  0.3626
 5067SOL     OW26833   0.967   4.470  11.678  0.6689  0.1573 -0.0490
 5067SOL    HW126834   1.018   4.487  11.758 -0.6415 -0.3647  0.9048
 5067SOL    HW226835   0.888   4.524  11.676  0.4952 -0.0624  0.7077
 5068SOL     OW26836   1.180   2.887  16.008  0.4854 -0.2562 -0.3407
 5068SOL    HW126837   1.189   2.792  16.019  3.1578 -0.1951 -1.9619
 5068SOL    HW226838   1.095   2.887  15.965  0.3011  1.0401  0.0389
 5069SOL     OW26839   0.914   2.892   7.478  0.0972 -0.0523  0.2551
 5069SOL    HW126840   0.843   2.828   7.469  0.5962 -0.7048  0.9032
 5069SOL    HW226841   0.993   2.841   7.460 -1.1388 -1.9739  0.1893
 5070SOL     OW26842   2.152   4.338   9.127 -0.3065  0.5269 -0.0801
 5070SOL    HW126843   2.145   4.398   9.053 -3.5841  2.7612  2.0775
 5070SOL    HW226844   2.221   4.376   9.181  0.5564 -1.8908  0.5354
 5071SOL     OW26845   1.175   0.042   4.892  0.3168  0.0291  0.2472
 5071SOL    HW126846   1.259   0.032   4.938  0.3638  0.4878  0.2595
 5071SOL    HW226847   1.147   4.690   4.911 -1.3631  0.2288 -1.3353
 5072SOL     OW26848   2.304   2.023   1.390 -0.1762  0.0186 -0.4803
 5072SOL    HW126849   2.293   2.065   1.476  1.5369 -2.0219  0.7636
 5072SOL    HW226850   2.215   2.035   1.356 -1.0337  0.0308  1.7597
 5073SOL     OW26851   2.578   1.018   2.349  0.3723 -0.2576  0.1546
 5073SOL    HW126852   2.578   0.958   2.274 -0.4552  0.0115 -0.0579
 5073SOL    HW226853   2.502   1.005   2.405 -1.1394 -1.0578 -2.1279
 5074SOL     OW26854   2.976   1.536   5.242 -0.0288 -0.2496 -0.2395
 5074SOL    HW126855   2.999   1.626   5.218  0.4080  0.2001  1.8997
 5074SOL    HW226856   2.938   1.497   5.163  0.4093  2.4137 -1.7724
 5075SOL     OW26857   1.570   2.016  15.713  0.2287  0.2594  0.3812
 5075SOL    HW126858   1.644   1.956  15.726 -0.2921 -0.9186 -2.1033
 5075SOL    HW226859   1.522   1.981  15.638  2.7695 -0.3311 -0.9619
 5076SOL     OW26860   0.256   1.221   4.432  0.1945 -0.2037 -0.1229
 5076SOL    HW126861   0.181   1.274   4.406  0.1297  0.1279  0.7523
 5076SOL    HW226862   0.210   1.144   4.464  3.4402 -1.9500  0.2930
 5077SOL     OW26863   2.659   1.949   3.059 -0.2394 -0.1133 -0.0643
 5077SOL    HW126864   2.579   1.975   3.014  1.6606  0.1934 -3.2166
 5077SOL    HW226865   2.646   1.856   3.077 -1.8335  0.4189  1.5523
 5078SOL     OW26866   1.140   0.944   8.062  0.1969 -0.1816 -0.2254
 5078SOL    HW126867   1.180   0.858   8.054  1.4236  0.3027  0.6481
 5078SOL    HW226868   1.055   0.922   8.024  0.1745  0.0723 -0.3229
 5079SOL     OW26869   3.939   4.473   4.039 -0.0332 -0.2942 -0.4544
 5079SOL    HW126870   3.990   4.535   4.091  0.9910 -0.8195 -0.8323
 5079SOL    HW226871   3.866   4.460   4.101 -0.0296 -0.7627 -0.5436
 5080SOL     OW26872   2.444   1.462  16.059 -0.1086 -0.2374 -0.5014
 5080SOL    HW126873   2.462   1.496  16.146 -0.2425  1.0042 -0.9534
 5080SOL    HW226874   2.511   1.397  16.035 -0.8771 -0.4552 -2.0689
 5081SOL     OW26875   0.872   0.262   1.180  0.2249  0.1733 -0.6470
 5081SOL    HW126876   0.845   0.286   1.269 -0.4264 -1.2954 -0.4477
 5081SOL    HW226877   0.795   0.293   1.131 -0.8970  1.0990  1.6538
 5082SOL     OW26878   0.852   3.150  14.675 -0.0537  0.4033  0.0612
 5082SOL    HW126879   0.768   3.192  14.691 -0.5910 -0.2132 -1.0977
 5082SOL    HW226880   0.817   3.064  14.652 -2.4313  1.5994 -0.7240
 5083SOL     OW26881   2.643   4.233   2.948 -0.1866  0.3005 -0.5514
 5083SOL    HW126882   2.667   4.141   2.934 -0.5842  0.4222 -2.0958
 5083SOL    HW226883   2.589   4.235   3.026  2.0528 -2.1598  1.0519
 5084SOL     OW26884   2.288   0.682   6.040  0.9752  0.1016 -0.5548
 5084SOL    HW126885   2.333   0.670   5.957 -0.7708  1.4182 -1.6824
 5084SOL    HW226886   2.263   0.593   6.064 -0.3415  1.2478  2.3355
 5085SOL     OW26887   4.195   0.964   3.944 -0.3132  0.2754 -0.5437
 5085SOL    HW126888   4.237   1.018   4.010  1.3894 -0.5829 -0.9248
 5085SOL    HW226889   4.153   1.036   3.897  1.6798  1.3490 -0.6704
 5086SOL     OW26890   0.126   3.401  12.220  0.2106  0.1214 -0.8269
 5086SOL    HW126891   0.209   3.399  12.172 -0.4310  1.4503 -1.9974
 5086SOL    HW226892   0.106   3.307  12.220 -0.4902  0.2681 -0.2328
 5087SOL     OW26893   4.439   4.106   9.900 -0.2014 -0.1344  0.2120
 5087SOL    HW126894   4.510   4.156   9.859 -0.0378 -0.1432  0.4836
 5087SOL    HW226895   4.416   4.175   9.963  1.1966  0.7987 -0.2934
 5088SOL     OW26896   2.663   1.981  15.544 -0.4166 -0.3675  0.1094
 5088SOL    HW126897   2.588   2.013  15.593  0.7611 -1.2092  2.4439
 5088SOL    HW226898   2.666   1.892  15.577  2.0400 -0.1764  0.4141
 5089SOL     OW26899   3.690   3.915   0.770  0.1835 -0.5999  0.1360
 5089SOL    HW126900   3.684   3.961   0.853 -0.5346  0.2909 -0.4129
 5089SOL    HW226901   3.600   3.890   0.751 -0.4652  0.8847  1.2756
 5090SOL     OW26902   4.576   1.180  15.629 -0.1370 -0.5806  0.2063
 5090SOL    HW126903   4.655   1.130  15.610  0.0542  0.4713 -1.7219
 5090SOL    HW226904   4.605   1.244  15.694  0.6168 -1.3353  0.6128
 5091SOL     OW26905   1.813   2.327   6.801 -0.0788  0.5919 -0.4112
 5091SOL    HW126906   1.834   2.307   6.710 -2.1081  0.9379 -0.9689
 5091SOL    HW226907   1.876   2.396   6.820  0.3356  0.2438 -0.5258
 5092SOL     OW26908   1.969   1.287  12.422  0.0712 -0.3297  0.1097
 5092SOL    HW126909   1.905   1.348  12.459  2.1788  1.9183  0.0377
 5092SOL    HW226910   2.040   1.311  12.482  0.2054  1.4051 -0.7456
 5093SOL     OW26911   1.540   1.917   8.269 -0.1345 -0.1543 -0.3455
 5093SOL    HW126912   1.515   1.898   8.360  0.9636 -1.8951 -0.4146
 5093SOL    HW226913   1.490   1.852   8.220  0.9946 -0.4182 -1.1391
 5094SOL     OW26914   3.361   4.173   6.020 -0.2571  0.8258  0.3713
 5094SOL    HW126915   3.453   4.184   5.993  0.0985 -2.6028  0.1061
 5094SOL    HW226916   3.363   4.207   6.109  0.0384  0.4116  0.5263
 5095SOL     OW26917   0.049   0.377   2.842  0.0576 -0.3276 -0.0598
 5095SOL    HW126918   0.082   0.464   2.864 -1.0022 -0.3584  1.5897
 5095SOL    HW226919   0.077   0.361   2.752  0.6802  2.1167 -0.3091
 5096SOL     OW26920   4.676   2.743   3.093 -0.4129 -0.5515  0.3254
 5096SOL    HW126921   4.638   2.703   3.015 -0.6261 -1.1105  0.7159
 5096SOL    HW226922   0.017   2.690   3.103 -1.0908 -1.5928  0.0837
 5097SOL     OW26923   1.191   3.904  17.038  0.1229  0.3387 -0.1681
 5097SOL    HW126924   1.244   3.845  17.092 -2.6639 -2.0763 -0.0918
 5097SOL    HW226925   1.233   3.987  17.062  0.8117  0.2342 -1.0191
 5098SOL     OW26926   0.830   1.644   7.508 -0.4886  0.0270  0.7162
 5098SOL    HW126927   0.802   1.576   7.570 -0.8532  2.4765  3.2650
 5098SOL    HW226928   0.849   1.593   7.430 -2.2416 -1.9337  1.5698
 5099SOL     OW26929   3.384   1.192  12.261  0.4346  0.0808 -1.0690
 5099SOL    HW126930   3.400   1.188  12.166  2.3476 -1.0495 -0.7071
 5099SOL    HW226931   3.434   1.117  12.293 -1.8645 -0.7609  0.5705
 5100SOL     OW26932   1.617   0.066   8.449  0.2003 -0.0592  0.6752
 5100SOL    HW126933   1.534   0.104   8.420  0.5802  1.0353  1.0436
 5100SOL    HW226934   1.633   0.107   8.534 -0.3644  3.2630 -0.8468
 5101SOL     OW26935   1.212   4.211   5.531 -0.3549  0.4973  0.4320
 5101SOL    HW126936   1.182   4.239   5.445  0.2705 -1.1674 -0.3201
 5101SOL    HW226937   1.189   4.119   5.542 -0.5659  0.5997  0.8392
 5102SOL     OW26938   1.339   1.096   9.862 -0.3364  0.4596 -0.1141
 5102SOL    HW126939   1.373   1.144   9.786 -2.8634  1.5300 -0.5607
 5102SOL    HW226940   1.421   1.064   9.899  0.6560  2.1137 -0.8837
 5103SOL     OW26941   0.818   3.554   5.098  0.1629  0.2594 -0.3381
 5103SOL    HW126942   0.883   3.499   5.142 -0.5385 -0.8916 -0.7408
 5103SOL    HW226943   0.869   3.574   5.019  0.9400  1.6651  0.5188
 5104SOL     OW26944   4.578   3.273   5.906 -0.4429  0.7482  0.5355
 5104SOL    HW126945   4.544   3.195   5.948 -0.8498  0.3602 -0.4966
 5104SOL    HW226946   4.599   3.325   5.984  0.1368  2.5461 -0.8077
 5105SOL     OW26947   0.922   1.250  13.919 -0.2331  0.2090 -0.2074
 5105SOL    HW126948   0.852   1.192  13.949 -1.5153  2.7679  1.6790
 5105SOL    HW226949   0.895   1.276  13.830 -0.1269 -0.3338 -0.3977
 5106SOL     OW26950   4.026   2.685  17.352  0.1795  0.1201 -0.1936
 5106SOL    HW126951   3.991   2.725  17.432  1.9936  2.3350 -0.5105
 5106SOL    HW226952   3.963   2.618  17.324 -1.9445  1.8508  0.4536
 5107SOL     OW26953   1.765   4.693   9.191  0.1122 -0.0115  0.3167
 5107SOL    HW126954   1.736   0.021   9.254  0.0856 -0.1153  0.4131
 5107SOL    HW226955   1.819   4.641   9.250  0.5920 -0.7502 -0.7761
 5108SOL     OW26956   1.257   1.482  13.741  0.2688 -0.5812  0.5847
 5108SOL    HW126957   1.242   1.411  13.804 -0.3516  0.5158  1.6755
 5108SOL    HW226958   1.195   1.543  13.781  1.0256  0.1746  0.5994
 5109SOL     OW26959   2.363   0.203   4.219 -0.0119  0.2102 -0.4165
 5109SOL    HW126960   2.418   0.206   4.141 -0.1815  1.8133 -0.4755
 5109SOL    HW226961   2.285   0.164   4.182  0.5484 -0.2130 -1.1491
 5110SOL     OW26962   4.349   2.367  12.552  0.2888 -0.2715  0.3495
 5110SOL    HW126963   4.332   2.455  12.585  1.9047 -0.1470  0.8105
 5110SOL    HW226964   4.418   2.374  12.487 -0.7679  0.7057 -0.6644
 5111SOL     OW26965   4.666   0.492  10.845 -0.0023 -0.1547 -0.2531
 5111SOL    HW126966   0.014   0.483  10.885  1.2623  1.4940 -2.5520
 5111SOL    HW226967   4.627   0.407  10.865 -0.0301  0.6317  2.9166
 5112SOL     OW26968   3.969   0.623   3.137  0.2300 -0.0752  0.3593
 5112SOL    HW126969   3.946   0.537   3.103  0.1250 -0.6868  1.9493
 5112SOL    HW226970   3.884   0.660   3.158 -0.3011 -1.7491  1.1708
 5113SOL     OW26971   1.566   0.823  13.211  0.4305 -0.6450  1.1836
 5113SOL    HW126972   1.509   0.853  13.282 -0.4067 -0.3158  0.3831
 5113SOL    HW226973   1.523   0.856  13.132  1.1519  1.6986  1.7827
 5114SOL     OW26974   4.644   1.190   6.332 -0.6476  0.0308 -0.2788
 5114SOL    HW126975   4.576   1.194   6.399 -1.0697  2.7169 -0.9042
 5114SOL    HW226976   4.703   1.121   6.363  0.5053  1.6980  1.2093
 5115SOL     OW26977   4.523   2.128  17.503  0.1710  0.0138 -0.6839
 5115SOL    HW126978   4.436   2.166  17.519 -0.8845 -2.0400 -1.5547
 5115SOL    HW226979   4.574   2.196  17.547  0.6215 -1.3239  0.8451
 5116SOL     OW26980   1.497   2.994   3.624 -0.3994  0.2407 -0.4714
 5116SOL    HW126981   1.407   2.985   3.657  0.2172 -0.8200  0.9048
 5116SOL    HW226982   1.511   3.088   3.616 -1.9766  0.4900 -0.2884
 5117SOL     OW26983   1.222   1.865  11.834 -0.7437  0.0239 -0.4453
 5117SOL    HW126984   1.247   1.827  11.750 -1.6974 -0.4588 -0.5021
 5117SOL    HW226985   1.139   1.820  11.848 -0.4079  0.0526  1.6022
 5118SOL     OW26986   1.484   0.982  13.032 -0.1714 -0.1184 -0.4621
 5118SOL    HW126987   1.437   1.035  12.967  1.7790  3.4344  1.0146
 5118SOL    HW226988   1.490   1.042  13.106 -0.9592 -2.0512  1.1470
 5119SOL     OW26989   4.047   4.682   4.171  0.0427  0.4751 -0.1349
 5119SOL    HW126990   4.124   4.736   4.151  0.6784  0.1680  1.5168
 5119SOL    HW226991   4.007   4.732   4.242 -0.2051 -2.3623  1.7136
 5120SOL     OW26992   3.157   3.157   4.255  0.5496  0.0895 -0.0727
 5120SOL    HW126993   3.064   3.171   4.239  0.6189 -2.4128 -2.8127
 5120SOL    HW226994   3.197   3.240   4.229  0.9249 -0.3454 -0.9027
 5121SOL     OW26995   0.803   3.753  11.744  0.0255 -0.0443  0.1889
 5121SOL    HW126996   0.841   3.790  11.823 -1.0981  1.2544  0.1278
 5121SOL    HW226997   0.788   3.834  11.696  0.4066 -0.3425 -0.4326
 5122SOL     OW26998   3.863   1.185  15.946 -0.1568 -0.2741  0.4376
 5122SOL    HW126999   3.781   1.135  15.935 -0.5780  0.2347  1.2478
 5122SOL    HW227000   3.921   1.111  15.931 -1.1462 -0.6031 -1.7570
 5123SOL     OW27001   2.438   0.047   7.132  0.6684  0.5490  0.4601
 5123SOL    HW127002   2.456   0.088   7.048  2.2989  1.3151  1.1750
 5123SOL    HW227003   2.403   4.700   7.106  2.0506 -0.1403  0.8634
 5124SOL     OW27004   2.392   3.444   5.921  0.0285  0.1176  0.2695
 5124SOL    HW127005   2.321   3.419   5.981  0.6763 -1.0060  0.5687
 5124SOL    HW227006   2.415   3.528   5.961  1.5832  0.4102 -1.2637
 5125SOL     OW27007   1.184   3.557   4.478 -0.1538 -0.2546  0.3008
 5125SOL    HW127008   1.141   3.494   4.536 -0.7846  0.3841  0.5265
 5125SOL    HW227009   1.134   3.552   4.397 -0.2821 -0.3207  0.3841
 5126SOL     OW27010   2.363   4.124   8.554  0.5206  0.1558  0.3339
 5126SOL    HW127011   2.280   4.157   8.588 -0.0894 -0.1881 -0.8267
 5126SOL    HW227012   2.415   4.204   8.543  1.4816 -0.5655 -0.3879
 5127SOL     OW27013   4.703   3.674   8.283  0.0710  0.2751  0.3595
 5127SOL    HW127014   4.648   3.612   8.234 -2.2013  0.8551  2.2038
 5127SOL    HW227015   4.680   3.650   8.373 -0.0608 -2.9791 -0.5220
 5128SOL     OW27016   0.225   3.839   5.478 -0.1616 -0.3615  0.2776
 5128SOL    HW127017   0.176   3.759   5.459  1.3490 -1.2249  0.0671
 5128SOL    HW227018   0.279   3.843   5.399  0.0315 -0.1379  0.4198
 5129SOL     OW27019   1.038   3.001   9.232 -0.3681 -0.0881  0.2113
 5129SOL    HW127020   0.981   2.926   9.248 -0.4630  0.1278  0.8865
 5129SOL    HW227021   1.126   2.977   9.261 -0.0623  1.8324  0.8712
 5130SOL     OW27022   0.125   0.986   4.439  0.0027  0.5215 -0.1957
 5130SOL    HW127023   0.088   0.914   4.491  0.6438 -0.5856 -1.2725
 5130SOL    HW227024   0.153   0.938   4.361 -0.9096  1.0011 -0.8068
 5131SOL     OW27025   2.477   0.202   4.975 -0.3281  0.2437  0.4193
 5131SOL    HW127026   2.475   0.141   4.901  1.4748  2.0121 -1.1138
 5131SOL    HW227027   2.488   0.153   5.056 -0.6894  0.1897  0.4346
 5132SOL     OW27028   2.446   0.939   5.822  0.3660  0.2772 -0.1445
 5132SOL    HW127029   2.409   1.023   5.794 -1.6110 -0.6770 -0.4479
 5132SOL    HW227030   2.464   0.957   5.914 -3.9900  0.4868  0.6884
 5133SOL     OW27031   4.597   0.581   4.973 -0.1572  0.5852  0.4499
 5133SOL    HW127032   4.560   0.659   5.015 -1.2882  0.6820 -0.7526
 5133SOL    HW227033   4.603   0.521   5.048 -0.8293  0.5515  0.4802
 5134SOL     OW27034   4.137   0.750   9.259  0.4309 -0.4572 -0.1415
 5134SOL    HW127035   4.121   0.656   9.246  1.2833 -0.7339  0.8359
 5134SOL    HW227036   4.230   0.758   9.239  0.2671  0.7780 -0.3881
 5135SOL     OW27037   0.412   0.801   6.858  0.2779 -0.5646  0.6554
 5135SOL    HW127038   0.442   0.821   6.770  0.8020 -2.7185  0.3302
 5135SOL    HW227039   0.319   0.822   6.858  0.6080  0.9297  1.2893
 5136SOL     OW27040   2.936   3.330   4.559 -0.3641  0.0167  0.7521
 5136SOL    HW127041   2.997   3.381   4.611 -0.1586  1.4272 -0.8435
 5136SOL    HW227042   2.936   3.245   4.603 -0.4132 -1.6541 -2.4798
 5137SOL     OW27043   1.926   3.068   2.694  0.3238  0.0970 -0.1493
 5137SOL    HW127044   1.880   3.141   2.654 -0.3403 -0.5375 -0.5487
 5137SOL    HW227045   2.015   3.071   2.658 -0.7329 -1.3684 -2.9133
 5138SOL     OW27046   3.763   1.851  15.272 -0.2539  0.1980 -0.3233
 5138SOL    HW127047   3.717   1.904  15.338 -0.4489 -1.0205  0.5350
 5138SOL    HW227048   3.787   1.923  15.213 -2.4731 -0.1105 -1.5742
 5139SOL     OW27049   3.081   0.348   2.850 -0.2815 -0.1007  0.1657
 5139SOL    HW127050   3.070   0.309   2.937  0.5438 -0.8254 -0.0541
 5139SOL    HW227051   3.059   0.274   2.794 -0.4721  0.2558 -0.2254
 5140SOL     OW27052   1.722   0.580   2.665 -0.4028  0.5313 -0.4753
 5140SOL    HW127053   1.815   0.601   2.662  0.1476 -1.7581  0.3530
 5140SOL    HW227054   1.728   0.503   2.722  1.1137  0.5279 -0.6512
 5141SOL     OW27055   1.759   2.904   6.177  0.5539  0.2911  0.0619
 5141SOL    HW127056   1.837   2.951   6.148  1.5646 -1.2806  0.2311
 5141SOL    HW227057   1.784   2.848   6.250 -0.6112 -0.3571 -0.0485
 5142SOL     OW27058   4.269   1.255   7.794  0.5365  0.2311 -0.2314
 5142SOL    HW127059   4.237   1.319   7.857  0.4345 -0.2748  0.2372
 5142SOL    HW227060   4.351   1.222   7.830 -1.0635 -1.6772  1.6849
 5143SOL     OW27061   1.755   2.657   7.902 -0.3639  0.0589  0.4097
 5143SOL    HW127062   1.797   2.654   7.816  1.0622  0.2081  1.1010
 5143SOL    HW227063   1.804   2.593   7.954  0.5456  0.6774  0.3155
 5144SOL     OW27064   1.238   1.467   9.492  0.0104 -0.3614  0.4140
 5144SOL    HW127065   1.161   1.470   9.549 -2.1428  0.2119 -2.5795
 5144SOL    HW227066   1.249   1.562   9.486  1.6512 -0.6843 -1.6137
 5145SOL     OW27067   3.963   3.641  10.539 -0.2267 -0.0098 -0.0234
 5145SOL    HW127068   4.010   3.561  10.515  1.8346  1.5243 -1.0966
 5145SOL    HW227069   3.996   3.701  10.473 -0.0167  0.7270  0.7544
 5146SOL     OW27070   4.445   2.617  13.647 -0.8681  0.0593 -0.1717
 5146SOL    HW127071   4.529   2.635  13.606  0.4035 -1.8749  1.5831
 5146SOL    HW227072   4.432   2.528  13.615 -1.2864 -0.4833  1.5475
 5147SOL     OW27073   1.153   0.224   1.944  0.2089 -0.6037 -0.1718
 5147SOL    HW127074   1.221   0.157   1.946  3.3360  2.5894 -0.7185
 5147SOL    HW227075   1.138   0.232   1.849  0.1310 -0.0945 -0.1178
 5148SOL     OW27076   3.053   2.006   1.776  0.6391  0.0209  0.9217
 5148SOL    HW127077   3.018   1.991   1.864 -0.4829 -0.4640  0.3885
 5148SOL    HW227078   2.963   2.006   1.743  0.4447  0.8143  1.4545
 5149SOL     OW27079   3.220   2.691   4.003  0.3462 -0.2037 -0.4119
 5149SOL    HW127080   3.310   2.681   3.971  0.2129 -1.3624 -0.4146
 5149SOL    HW227081   3.176   2.621   3.955 -0.5571  0.2712 -0.2817
 5150SOL     OW27082   4.459   1.957  17.740 -0.1082  0.7385  0.5074
 5150SOL    HW127083   4.366   1.952  17.717  0.1109  0.0965 -0.2298
 5150SOL    HW227084   4.488   2.023  17.677  0.0107 -0.9593 -1.2248
 5151SOL     OW27085   3.090   2.647  10.935  0.0021 -0.2026 -0.0035
 5151SOL    HW127086   3.141   2.572  10.966 -1.7761 -1.8182 -1.0282
 5151SOL    HW227087   3.006   2.602  10.929  0.0850 -0.1312 -1.7792
 5152SOL     OW27088   4.014   3.072   3.822  0.1092  0.0439 -0.2055
 5152SOL    HW127089   4.002   3.104   3.911  0.6625  1.1556 -0.5247
 5152SOL    HW227090   3.968   3.140   3.773  0.2055  0.3544  0.1265
 5153SOL     OW27091   3.225   1.084   7.682 -0.2460 -0.0047  0.4118
 5153SOL    HW127092   3.159   1.028   7.640 -0.2511 -0.2057  0.6864
 5153SOL    HW227093   3.266   1.008   7.724  0.8387 -0.4390 -1.4519
 5154SOL     OW27094   2.158   0.683  10.099  0.4935  0.1783  0.3129
 5154SOL    HW127095   2.116   0.742  10.035 -0.5369 -0.2686  0.5785
 5154SOL    HW227096   2.123   0.601  10.066  0.9284  0.2773 -0.4097
 5155SOL     OW27097   0.743   2.338   2.109 -0.0111 -0.0070  0.1958
 5155SOL    HW127098   0.742   2.312   2.017 -0.4758 -0.2767  0.2754
 5155SOL    HW227099   0.805   2.410   2.102 -1.2792  1.2315  1.6783
 5156SOL     OW27100   3.951   4.545   4.460 -0.6458 -0.2970  0.4542
 5156SOL    HW127101   4.038   4.521   4.428 -1.8403 -0.4123 -2.7072
 5156SOL    HW227102   3.955   4.517   4.551 -2.9123  0.5003  0.8057
 5157SOL     OW27103   4.344   1.014   4.817  0.0004 -0.1540  0.0061
 5157SOL    HW127104   4.386   1.090   4.859  1.0883 -1.0276  0.5025
 5157SOL    HW227105   4.418   0.976   4.769  0.4633  1.2801 -0.4422
 5158SOL     OW27106   3.876   2.056   5.342  0.0472 -0.1581  0.2642
 5158SOL    HW127107   3.934   1.980   5.349  1.2950  1.0194  2.2313
 5158SOL    HW227108   3.937   2.127   5.326 -0.3086 -0.5066 -2.7129
 5159SOL     OW27109   3.011   2.532  14.179 -0.4968  0.2498  0.1121
 5159SOL    HW127110   2.953   2.473  14.132  1.5025  0.4464 -2.6204
 5159SOL    HW227111   3.080   2.535  14.113  0.3286  1.1384  0.9985
 5160SOL     OW27112   2.413   0.353   2.993  0.5448  0.7508  0.3066
 5160SOL    HW127113   2.361   0.394   2.924 -2.2472 -2.9233  0.2875
 5160SOL    HW227114   2.459   0.287   2.940  1.1775  1.0692  0.4567
 5161SOL     OW27115   2.677   3.915   2.475  0.1011  0.4533 -0.1361
 5161SOL    HW127116   2.685   3.904   2.380 -1.4592 -1.9077  0.0008
 5161SOL    HW227117   2.651   4.007   2.470 -1.6007  0.0086  0.5058
 5162SOL     OW27118   0.707   2.353  16.320 -0.7216  0.1063  0.2305
 5162SOL    HW127119   0.655   2.396  16.388 -0.0579 -0.4343  1.0832
 5162SOL    HW227120   0.684   2.403  16.242 -2.6760 -2.2082 -0.6810
 5163SOL     OW27121   0.373   4.645   5.321 -0.1602 -0.3126  0.2294
 5163SOL    HW127122   0.381   4.551   5.340  0.5867 -0.0399  1.2559
 5163SOL    HW227123   0.345   4.637   5.230  1.8835 -0.9173 -0.3529
 5164SOL     OW27124   1.204   1.272   7.275  0.0225 -0.8772 -0.1300
 5164SOL    HW127125   1.217   1.230   7.360 -0.6412 -1.8588 -0.5074
 5164SOL    HW227126   1.146   1.206   7.235 -0.8467 -0.4267  0.3957
 5165SOL     OW27127   0.361   0.797   4.148  0.4750  0.0894 -0.2377
 5165SOL    HW127128   0.416   0.804   4.225 -0.6747 -1.3566  0.7145
 5165SOL    HW227129   0.362   0.888   4.117 -3.8013  0.9108  2.0582
 5166SOL     OW27130   0.959   1.019   5.305  0.6558  0.0330 -0.6750
 5166SOL    HW127131   0.948   0.933   5.264 -2.4604 -0.1991  0.6678
 5166SOL    HW227132   0.930   1.076   5.234 -1.4509  0.0851  0.2386
 5167SOL     OW27133   3.450   2.006   5.191  0.1020  0.0847 -0.0942
 5167SOL    HW127134   3.501   2.072   5.239 -1.7924  1.1319  0.5026
 5167SOL    HW227135   3.411   1.954   5.262  0.6187 -1.5419 -1.0085
 5168SOL     OW27136   2.705   1.672  14.321 -0.2206  0.3442  0.0651
 5168SOL    HW127137   2.718   1.578  14.331 -1.1470  0.0493 -1.5282
 5168SOL    HW227138   2.785   1.709  14.359  0.5210 -1.4690  0.2878
 5169SOL     OW27139   0.331   1.999  11.969  0.0483 -0.1872 -0.3319
 5169SOL    HW127140   0.346   1.959  11.883 -1.3615 -0.1948 -0.5694
 5169SOL    HW227141   0.333   1.927  12.032 -0.3901  1.1574  1.2217
 5170SOL     OW27142   2.813   1.091   5.962  0.0251 -0.4871  0.0903
 5170SOL    HW127143   2.722   1.079   5.990  0.4698 -1.2988  1.2071
 5170SOL    HW227144   2.807   1.174   5.915  0.0282 -0.0499  0.8621
 5171SOL     OW27145   0.375   0.584  11.887  0.4607 -0.8460 -0.4799
 5171SOL    HW127146   0.331   0.521  11.944  0.1206  1.7127  2.0666
 5171SOL    HW227147   0.361   0.669  11.929 -0.0479 -0.8375 -0.6756
 5172SOL     OW27148   2.340   0.857   7.060 -0.2473  0.4130 -0.2978
 5172SOL    HW127149   2.303   0.916   6.994  2.0243  2.5542  0.3198
 5172SOL    HW227150   2.347   0.914   7.137 -0.3403  0.1914 -0.1247
 5173SOL     OW27151   3.836   2.682  16.130 -0.7714 -0.0056  0.2918
 5173SOL    HW127152   3.931   2.671  16.128 -1.1230 -3.3761  1.9807
 5173SOL    HW227153   3.808   2.597  16.094 -1.0789 -0.0701  0.6723
 5174SOL     OW27154   3.302   2.370  16.106 -0.1483 -0.1626 -0.8728
 5174SOL    HW127155   3.393   2.368  16.076 -0.3512 -2.7187 -1.3694
 5174SOL    HW227156   3.275   2.278  16.104  1.7620 -0.7368  1.2164
 5175SOL     OW27157   4.570   1.499  12.899 -0.0217 -0.3082 -0.0473
 5175SOL    HW127158   4.475   1.492  12.907  0.0539 -1.0759  0.1297
 5175SOL    HW227159   4.582   1.590  12.925  0.1201 -0.1433 -0.6730
 5176SOL     OW27160   2.055   4.345   7.775  0.4598 -0.1443 -0.3406
 5176SOL    HW127161   2.052   4.278   7.707  1.5721  0.6835 -1.2074
 5176SOL    HW227162   2.062   4.413   7.709 -0.6729  1.0346  0.7629
 5177SOL     OW27163   1.326   3.843   6.213  0.3425  0.3717  0.2402
 5177SOL    HW127164   1.421   3.850   6.200  0.0341  1.9129 -1.2484
 5177SOL    HW227165   1.291   3.840   6.124 -0.8630 -0.1630  0.7387
 5178SOL     OW27166   0.485   1.734   5.605  0.1042 -0.1173 -0.1087
 5178SOL    HW127167   0.546   1.775   5.544  0.7611 -0.8550  0.0509
 5178SOL    HW227168   0.523   1.646   5.606 -1.2192 -0.6990 -0.3452
 5179SOL     OW27169   4.658   1.609   6.996  0.2804  0.3438 -0.2879
 5179SOL    HW127170   4.666   1.704   7.002  1.2881  0.1801  0.9282
 5179SOL    HW227171   4.586   1.586   7.054  1.1621 -0.4215  0.5103
 5180SOL     OW27172   4.329   0.356  16.067 -0.3261  0.5356  0.3833
 5180SOL    HW127173   4.367   0.437  16.100  2.3255  0.5254 -2.6761
 5180SOL    HW227174   4.402   0.295  16.070  0.5232  1.6280  2.1372
 5181SOL     OW27175   0.727   0.087   4.586  0.0271  0.2505  0.1921
 5181SOL    HW127176   0.734   0.131   4.501 -2.8901  0.8455  0.2455
 5181SOL    HW227177   0.763   0.143   4.654  0.6318 -0.5617  0.5398
 5182SOL     OW27178   4.217   1.672   1.731 -0.0245 -0.2414 -0.0401
 5182SOL    HW127179   4.267   1.744   1.769  1.4081 -0.6493 -1.1274
 5182SOL    HW227180   4.196   1.714   1.648 -0.5563  0.6468  0.5508
 5183SOL     OW27181   2.582   0.270   6.217  0.3608 -0.1459  0.1895
 5183SOL    HW127182   2.667   0.301   6.247  1.3318 -2.3836 -0.2832
 5183SOL    HW227183   2.615   0.217   6.144  1.4257 -1.0950  1.3764
 5184SOL     OW27184   3.727   2.030   0.483 -0.4798 -0.3263  0.2272
 5184SOL    HW127185   3.797   2.089   0.454 -1.7690  0.8814 -0.4270
 5184SOL    HW227186   3.705   1.987   0.400 -0.2199  1.2373 -0.6541
 5185SOL     OW27187   4.113   3.600   8.214 -0.5046  0.0105  0.1944
 5185SOL    HW127188   4.117   3.689   8.180 -1.4143 -0.6965 -1.7637
 5185SOL    HW227189   4.096   3.540   8.141  1.3716  1.0404 -1.0630
 5186SOL     OW27190   1.210   4.432  11.032  0.3203 -0.1488  0.1539
 5186SOL    HW127191   1.289   4.453  11.082  1.5219  2.2239 -2.7579
 5186SOL    HW227192   1.179   4.522  11.023  0.6862  0.1652  2.0961
 5187SOL     OW27193   0.466   1.333   4.764 -0.2648  0.1278 -0.4109
 5187SOL    HW127194   0.491   1.291   4.682  0.9986  0.0799  0.0094
 5187SOL    HW227195   0.502   1.419   4.742 -2.6883  1.8286  2.2179
 5188SOL     OW27196   1.643   1.088   6.021 -0.4027 -0.0526  0.5462
 5188SOL    HW127197   1.626   0.995   6.034 -1.6487 -0.0466 -0.9843
 5188SOL    HW227198   1.734   1.086   6.050 -0.3100  0.3910  0.2922
 5189SOL     OW27199   4.643   0.353   8.899 -0.7116  0.1639  0.1640
 5189SOL    HW127200   4.702   0.426   8.884 -2.6887  1.6658 -0.2708
 5189SOL    HW227201   4.585   0.398   8.961 -1.0307  1.9884 -1.4677
 5190SOL     OW27202   4.535   4.077   6.238  0.1325  0.3697  0.2081
 5190SOL    HW127203   4.544   4.159   6.190 -0.1411 -0.6756 -1.6289
 5190SOL    HW227204   4.468   4.116   6.294 -0.1845 -0.3578  0.3291
 5191SOL     OW27205   2.769   0.573   4.424  0.1345  0.0424 -0.1133
 5191SOL    HW127206   2.823   0.503   4.461 -1.3274 -2.0732 -1.9953
 5191SOL    HW227207   2.775   0.636   4.496  1.7489  0.5637 -0.7051
 5192SOL     OW27208   0.019   0.947   5.764  0.5362 -0.4104  0.2091
 5192SOL    HW127209   0.029   0.858   5.730  1.5721 -0.5933  1.0183
 5192SOL    HW227210   0.016   0.926   5.857  0.3772 -0.4785  0.1883
 5193SOL     OW27211   3.159   2.630   5.315 -0.6499 -0.1182 -0.2441
 5193SOL    HW127212   3.217   2.555   5.319  2.9050  2.6151 -0.4412
 5193SOL    HW227213   3.085   2.597   5.264 -1.0390 -1.1140  0.9748
 5194SOL     OW27214   4.313   0.372  13.128 -0.2139 -0.7153  0.1653
 5194SOL    HW127215   4.307   0.455  13.175 -0.6877 -1.3836  1.2853
 5194SOL    HW227216   4.233   0.378  13.077 -0.2426 -0.5955  0.2258
 5195SOL     OW27217   2.352   3.710   8.792 -0.5939  0.0586 -0.0450
 5195SOL    HW127218   2.425   3.654   8.818 -1.4230 -0.1126  1.9150
 5195SOL    HW227219   2.283   3.665   8.841 -0.9012  0.1318 -0.4046
 5196SOL     OW27220   0.951   0.356   6.212 -0.4505 -0.3023 -0.4166
 5196SOL    HW127221   1.016   0.334   6.278 -0.7201 -2.0996 -0.7646
 5196SOL    HW227222   0.953   0.452   6.217 -0.1621 -0.2406 -1.6259
 5197SOL     OW27223   4.009   1.567   8.246 -0.1881 -1.0137 -0.0956
 5197SOL    HW127224   4.004   1.655   8.208  0.6309 -1.0666 -0.3363
 5197SOL    HW227225   3.980   1.517   8.170 -1.8552  0.3785 -0.3647
 5198SOL     OW27226   0.336   0.185   6.501  0.0634  0.2160  0.4226
 5198SOL    HW127227   0.314   0.276   6.485 -0.9420 -0.2942 -1.1387
 5198SOL    HW227228   0.425   0.202   6.532  0.5946 -0.6332 -0.6082
 5199SOL     OW27229   4.703   2.376   3.212 -0.3126 -0.7906  0.2855
 5199SOL    HW127230   0.013   2.457   3.230  0.0863 -1.0925  0.5746
 5199SOL    HW227231   0.017   2.339   3.141 -1.2740  0.5311 -1.1094
 5200SOL     OW27232   3.997   3.503   8.437  0.1663 -0.4002 -0.0979
 5200SOL    HW127233   4.062   3.527   8.371 -1.1797 -0.1347 -1.3138
 5200SOL    HW227234   3.956   3.427   8.395  2.8001 -0.6905 -2.1682
 5201SOL     OW27235   2.972   3.047   8.262 -0.9581 -1.0823  1.2618
 5201SOL    HW127236   2.953   3.025   8.354  0.1205  0.2729  1.8137
 5201SOL    HW227237   3.012   2.963   8.240 -0.4809 -0.5109 -0.0581
 5202SOL     OW27238   3.345   0.392   6.569 -0.1318  0.0094 -0.2167
 5202SOL    HW127239   3.353   0.301   6.596  1.2947 -0.0636 -0.9037
 5202SOL    HW227240   3.290   0.395   6.491 -0.4709  2.5055  0.1131
 5203SOL     OW27241   0.493   3.931   6.188  0.0262  0.1631  0.3075
 5203SOL    HW127242   0.406   3.930   6.229  0.5397  0.6073  1.4054
 5203SOL    HW227243   0.513   3.838   6.185 -1.5456 -0.1531 -0.6629
 5204SOL     OW27244   2.980   4.481   7.538  0.1088  0.1600 -0.2536
 5204SOL    HW127245   2.892   4.445   7.529  0.6517 -1.5774  1.2210
 5204SOL    HW227246   3.023   4.421   7.599 -2.8762 -1.0580  0.6370
 5205SOL     OW27247   4.418   2.933   0.628 -0.1733  0.7263  0.1389
 5205SOL    HW127248   4.453   2.849   0.656 -0.7302  0.2819 -0.4993
 5205SOL    HW227249   4.474   3.001   0.666 -2.2958  1.7433  1.4418
 5206SOL     OW27250   0.608   0.774  14.110 -0.2409  0.0678  0.4582
 5206SOL    HW127251   0.596   0.714  14.037 -0.8589  0.8423 -0.0761
 5206SOL    HW227252   0.523   0.771  14.154 -0.8575  0.0392 -0.7454
 5207SOL     OW27253   3.503   3.386  11.704  0.3235 -0.2407 -0.9799
 5207SOL    HW127254   3.463   3.305  11.734  0.9743  0.7888  2.6490
 5207SOL    HW227255   3.457   3.400  11.621 -0.3158  0.3887 -0.5172
 5208SOL     OW27256   4.639   2.759   5.518  0.2634  0.8241 -0.1627
 5208SOL    HW127257   4.562   2.709   5.546  1.2668 -0.8649 -0.3826
 5208SOL    HW227258   4.607   2.821   5.453  0.1865  2.0617  1.0685
 5209SOL     OW27259   4.124   2.048   5.145  0.2164 -0.4005 -0.1245
 5209SOL    HW127260   4.133   1.955   5.162  1.2333 -0.2741  0.0448
 5209SOL    HW227261   4.065   2.054   5.070 -0.7600 -1.5461  0.5563
 5210SOL     OW27262   1.817   1.505  15.554  0.2720 -0.2952  0.1063
 5210SOL    HW127263   1.873   1.491  15.630 -0.0667 -1.8226  0.0893
 5210SOL    HW227264   1.762   1.426  15.559 -0.9270  0.5313 -0.0432
 5211SOL     OW27265   3.229   2.351   6.567  0.2124  0.0997  0.2163
 5211SOL    HW127266   3.205   2.272   6.519 -0.0514 -0.0239  0.5486
 5211SOL    HW227267   3.272   2.398   6.496  0.6441  2.6518  2.1629
 5212SOL     OW27268   3.544   1.441   0.323 -0.4307  0.1967  0.3231
 5212SOL    HW127269   3.584   1.491   0.252 -0.5893  0.3218  0.3209
 5212SOL    HW227270   3.627   1.420   0.365 -1.2740 -1.6744  1.0401
 5213SOL     OW27271   2.946   0.035   4.130  0.3751  0.2517 -0.0019
 5213SOL    HW127272   2.945   0.102   4.061  0.9857 -1.1892 -1.4048
 5213SOL    HW227273   2.963   0.087   4.209  1.6953  0.1884 -0.2559
 5214SOL     OW27274   3.201   0.020   5.469 -0.5499 -0.4220  0.0422
 5214SOL    HW127275   3.129   4.695   5.461 -3.3133  2.7693  0.4127
 5214SOL    HW227276   3.222   0.032   5.376 -1.0528 -1.5966 -0.2240
 5215SOL     OW27277   1.126   0.630   9.289  0.0707  0.4427 -0.1683
 5215SOL    HW127278   1.168   0.716   9.290  3.3513 -1.1606  1.0397
 5215SOL    HW227279   1.193   0.596   9.230  0.0545  0.9833 -0.5011
 5216SOL     OW27280   3.188   0.443   5.908  0.4990 -0.1154  0.1211
 5216SOL    HW127281   3.240   0.515   5.872 -1.2076 -0.2553 -2.6473
 5216SOL    HW227282   3.227   0.375   5.853  1.3535  1.1379 -0.8247
 5217SOL     OW27283   1.267   1.591   5.620 -0.0773  0.1078  0.1193
 5217SOL    HW127284   1.246   1.523   5.685  0.1146 -0.5861 -0.5499
 5217SOL    HW227285   1.280   1.671   5.671  1.0558  1.7148 -2.6979
 5218SOL     OW27286   3.645   4.308   3.965  0.5178  0.2237 -0.5964
 5218SOL    HW127287   3.680   4.222   3.987  1.3431  0.8837  0.7144
 5218SOL    HW227288   3.711   4.343   3.906  1.3388 -3.8389 -2.0826
 5219SOL     OW27289   1.454   3.468   8.108  0.0259  0.2480 -0.2121
 5219SOL    HW127290   1.441   3.401   8.174 -1.5488 -1.7356 -2.5319
 5219SOL    HW227291   1.388   3.530   8.140 -0.0119 -0.0240  0.2338
 5220SOL     OW27292   0.415   4.104   1.954 -0.1369  0.2837 -0.3379
 5220SOL    HW127293   0.473   4.179   1.940 -0.9304  1.0817  0.5750
 5220SOL    HW227294   0.346   4.153   1.999 -0.2148 -0.3504  0.2285
 5221SOL     OW27295   3.075   0.201   7.755 -0.4367  0.3718  0.0753
 5221SOL    HW127296   3.077   0.122   7.701  0.4138  1.5420 -1.5950
 5221SOL    HW227297   2.988   0.184   7.792 -0.3121 -1.1892 -0.3665
 5222SOL     OW27298   4.214   2.746   5.895 -0.0262 -0.3118  0.4702
 5222SOL    HW127299   4.277   2.741   5.967  1.0316 -1.2911 -0.5422
 5222SOL    HW227300   4.204   2.841   5.902 -1.0490 -0.2662 -1.5508
 5223SOL     OW27301   2.281   3.045   0.964 -0.3705 -0.3693 -0.5144
 5223SOL    HW127302   2.256   3.017   0.876 -2.0649  0.0328 -0.1526
 5223SOL    HW227303   2.267   2.969   1.019 -0.9098 -0.3211 -0.5821
 5224SOL     OW27304   1.680   0.608   8.541  0.0342 -0.2704  0.5553
 5224SOL    HW127305   1.632   0.629   8.461 -1.6499 -0.0186  1.6566
 5224SOL    HW227306   1.724   0.685   8.578  1.1465 -1.2520  1.2828
 5225SOL     OW27307   1.668   2.459  12.684 -0.5223 -0.2125  0.7510
 5225SOL    HW127308   1.666   2.523  12.755  0.4519 -1.9804  2.3595
 5225SOL    HW227309   1.685   2.375  12.727 -0.1484  0.1198  1.2560
 5226SOL     OW27310   4.486   0.317   1.929  0.0220 -0.1331  0.1007
 5226SOL    HW127311   4.399   0.294   1.962  0.4211 -1.1536  0.4572
 5226SOL    HW227312   4.493   0.246   1.864  2.2439 -0.0807  0.2644
 5227SOL     OW27313   4.085   3.268   9.724 -0.2576  0.2611  0.1621
 5227SOL    HW127314   4.013   3.322   9.692 -0.3068 -0.4569 -0.9543
 5227SOL    HW227315   4.154   3.334   9.729  0.4011 -0.5181  1.4094
 5228SOL     OW27316   1.340   2.872   3.982 -0.3492 -0.0988  0.5841
 5228SOL    HW127317   1.366   2.836   4.067  1.2572  1.0610  0.5949
 5228SOL    HW227318   1.418   2.927   3.993  0.7063 -1.3633 -0.5613
 5229SOL     OW27319   0.655   4.116  16.128 -0.7243  0.0096 -0.4508
 5229SOL    HW127320   0.656   4.211  16.139 -1.2336  0.0060 -0.4152
 5229SOL    HW227321   0.708   4.088  16.203  0.4657  2.1811 -0.4908
 5230SOL     OW27322   1.694   2.263   1.826 -0.6085  0.5973 -0.2240
 5230SOL    HW127323   1.626   2.201   1.853 -0.9748 -0.2460 -3.1260
 5230SOL    HW227324   1.723   2.240   1.738 -0.1594 -0.2107  0.1447
 5231SOL     OW27325   3.864   0.705   9.204 -0.1114  0.4740  0.1517
 5231SOL    HW127326   3.881   0.669   9.117  0.9994 -1.8752  1.3629
 5231SOL    HW227327   3.946   0.752   9.216 -0.7995  1.3534  1.4048
 5232SOL     OW27328   3.671   3.091   7.422  0.4239 -0.0574 -0.0180
 5232SOL    HW127329   3.753   3.096   7.372 -1.4688 -2.2247 -3.3038
 5232SOL    HW227330   3.610   3.153   7.382 -0.8645 -1.4111 -0.1598
 5233SOL     OW27331   2.610   2.819   5.138 -0.1808 -0.2412  0.1616
 5233SOL    HW127332   2.635   2.743   5.191  1.0107  0.0896  0.0555
 5233SOL    HW227333   2.626   2.887   5.203 -0.2870  1.1126 -1.2158
 5234SOL     OW27334   2.345   1.522   8.476  0.2473  0.3273 -0.0684
 5234SOL    HW127335   2.307   1.436   8.496  0.6413 -0.1614 -1.4186
 5234SOL    HW227336   2.380   1.555   8.559 -0.1044 -0.2501  0.3081
 5235SOL     OW27337   0.922   3.216   4.209 -0.2095  0.4049 -0.1650
 5235SOL    HW127338   0.903   3.248   4.297  0.1690  0.9540 -0.2826
 5235SOL    HW227339   1.015   3.238   4.204 -0.2851  0.9786  1.0707
 5236SOL     OW27340   3.052   0.044   2.719 -0.1833 -0.2474  0.1821
 5236SOL    HW127341   3.019   0.108   2.656  0.3535 -1.7257 -1.6203
 5236SOL    HW227342   3.142   0.073   2.731  0.0396  0.3149 -2.8253
 5237SOL     OW27343   1.454   2.773   1.722  0.0603  0.3126  0.3418
 5237SOL    HW127344   1.438   2.693   1.773  1.0185 -0.6992 -0.9457
 5237SOL    HW227345   1.418   2.838   1.783  0.2392 -0.5266  1.3412
 5238SOL     OW27346   2.952   1.293   7.010 -0.6782  0.1517 -0.3864
 5238SOL    HW127347   3.005   1.214   7.004  1.3711  1.2829  2.5383
 5238SOL    HW227348   2.870   1.258   6.974 -1.1213  2.4362 -1.5995
 5239SOL     OW27349   1.244   0.683   4.894  0.4375  0.0780 -0.0524
 5239SOL    HW127350   1.246   0.640   4.980 -2.8733 -0.8812 -0.4965
 5239SOL    HW227351   1.277   0.772   4.906 -0.8436  0.7880 -1.8907
 5240SOL     OW27352   2.117   3.316   1.931  0.6663 -0.1817  0.3838
 5240SOL    HW127353   2.080   3.404   1.942  1.9027  0.3786  0.0735
 5240SOL    HW227354   2.189   3.338   1.872 -0.0001  1.6355  0.2518
 5241SOL     OW27355   0.336   4.564   3.932  0.2932  0.2696  0.3822
 5241SOL    HW127356   0.326   4.470   3.916  0.5920  0.4730 -0.9541
 5241SOL    HW227357   0.430   4.569   3.944  0.2521  1.6998  0.0637
 5242SOL     OW27358   2.355   4.009   1.609  0.1274 -0.6723 -0.5666
 5242SOL    HW127359   2.377   4.083   1.665  0.1359 -0.3041 -1.0603
 5242SOL    HW227360   2.380   3.942   1.674  0.1467 -1.3829 -1.3056
 5243SOL     OW27361   3.426   2.759   4.419  0.2124  0.5091  0.2231
 5243SOL    HW127362   3.367   2.835   4.410  1.0079  1.1938  0.7640
 5243SOL    HW227363   3.364   2.687   4.420 -1.1716  1.6774 -1.2157
 5244SOL     OW27364   4.632   1.583  16.873 -0.0497  0.2486  0.3569
 5244SOL    HW127365   4.725   1.602  16.858  0.0912  0.8065  1.9555
 5244SOL    HW227366   4.627   1.490  16.850 -1.2298  0.4005  0.0123
 5245SOL     OW27367   1.680   4.068   4.433 -0.1073 -0.2345  0.4449
 5245SOL    HW127368   1.680   4.047   4.340  0.7065 -1.5689  0.7531
 5245SOL    HW227369   1.771   4.093   4.451 -0.5061  1.9059 -0.5097
 5246SOL     OW27370   4.401   0.009  12.389 -0.0804 -0.3273  0.7115
 5246SOL    HW127371   4.391   0.011  12.294  2.6092  2.2497  0.4794
 5246SOL    HW227372   4.462   0.083  12.394 -1.3980  0.8072  0.1669
 5247SOL     OW27373   1.146   0.860   2.939 -0.1585 -0.2260 -0.4889
 5247SOL    HW127374   1.215   0.905   2.890 -0.2512  0.0998 -0.3285
 5247SOL    HW227375   1.148   0.902   3.025 -1.5581 -0.1182 -0.5009
 5248SOL     OW27376   1.215   3.772  12.349  0.2677 -0.5535 -0.2638
 5248SOL    HW127377   1.216   3.725  12.433 -0.5947  0.0461  0.0824
 5248SOL    HW227378   1.308   3.787  12.328 -0.0540  1.0970 -0.4761
 5249SOL     OW27379   0.622   0.827   6.120 -0.0167 -0.6620  0.0943
 5249SOL    HW127380   0.588   0.737   6.125 -1.8830 -0.0871 -2.1823
 5249SOL    HW227381   0.547   0.874   6.157 -1.4265 -0.6409 -2.8528
 5250SOL     OW27382   1.375   4.330   7.962  0.6638 -0.6878 -0.1211
 5250SOL    HW127383   1.449   4.294   8.010 -0.2780 -1.0159  1.0899
 5250SOL    HW227384   1.412   4.353   7.877  2.1571 -0.0603  0.7010
 5251SOL     OW27385   3.846   3.030   2.875 -0.0221  0.0960  0.0309
 5251SOL    HW127386   3.860   3.037   2.781 -2.1461 -1.0216 -0.3776
 5251SOL    HW227387   3.763   3.075   2.889 -0.9554 -1.3678 -0.8614
 5252SOL     OW27388   0.869   2.495   6.348  0.0215  0.3447 -0.2794
 5252SOL    HW127389   0.915   2.411   6.341  0.7081  0.5830  1.4266
 5252SOL    HW227390   0.778   2.463   6.343  0.4668 -0.6026 -2.6440
 5253SOL     OW27391   0.589   4.289   1.884  0.2836  0.3822  0.0441
 5253SOL    HW127392   0.651   4.353   1.919  0.9491  0.0900 -0.5880
 5253SOL    HW227393   0.639   4.207   1.879  2.5816  1.5901  3.1694
 5254SOL     OW27394   3.524   4.004   4.381 -0.7941  0.2079 -0.5204
 5254SOL    HW127395   3.446   3.953   4.359 -0.7974 -0.7254  1.6794
 5254SOL    HW227396   3.482   4.090   4.387  1.3450  1.2932 -0.8722
 5255SOL     OW27397   2.913   2.458  15.433 -0.1345  0.0433 -0.1032
 5255SOL    HW127398   2.911   2.364  15.414  0.4595  0.3787 -1.8483
 5255SOL    HW227399   2.862   2.460  15.514  1.9385 -1.8785  1.2229
 5256SOL     OW27400   4.541   0.355   3.790  0.5355 -0.1507  0.2173
 5256SOL    HW127401   4.617   0.299   3.805  0.4432  0.0513  1.4200
 5256SOL    HW227402   4.562   0.428   3.731  1.4262  0.5768  1.4437
 5257SOL     OW27403   4.170   1.440  14.826  0.6359  0.6150 -0.1426
 5257SOL    HW127404   4.201   1.392  14.749  2.0491 -2.6850  2.4679
 5257SOL    HW227405   4.164   1.375  14.896 -1.3325 -0.9830 -1.7603
 5258SOL     OW27406   1.343   4.077  17.192 -0.1709  0.3109 -0.1161
 5258SOL    HW127407   1.418   4.120  17.235  0.0162  2.5246 -2.6409
 5258SOL    HW227408   1.283   4.151  17.188 -1.3855 -0.5244  2.8565
 5259SOL     OW27409   0.280   2.630   7.335  0.2802  0.5292 -0.3358
 5259SOL    HW127410   0.304   2.538   7.349 -0.8192  0.1658 -0.8447
 5259SOL    HW227411   0.213   2.643   7.402  1.6662 -1.7957  1.5043
 5260SOL     OW27412   4.274   2.654  14.413 -0.0017 -0.5837  0.7617
 5260SOL    HW127413   4.299   2.562  14.408 -4.5427 -1.7631  0.0151
 5260SOL    HW227414   4.255   2.686  14.325 -0.0035  0.3207  1.0855
 5261SOL     OW27415   3.580   3.774  17.143  0.0374 -0.0743  0.6055
 5261SOL    HW127416   3.590   3.725  17.062  1.3038 -0.7392  1.1694
 5261SOL    HW227417   3.484   3.775  17.137  0.1950  0.6026 -1.7495
 5262SOL     OW27418   3.651   4.055  12.983 -0.7324  0.0159  0.2087
 5262SOL    HW127419   3.678   3.965  13.001  1.2853  0.3801 -1.0269
 5262SOL    HW227420   3.568   4.045  12.937 -0.4345 -1.3353 -0.0435
 5263SOL     OW27421   3.427   1.471   2.139 -0.0080  0.6431 -0.5556
 5263SOL    HW127422   3.395   1.512   2.059 -1.8063  0.9402  0.3171
 5263SOL    HW227423   3.462   1.392   2.098 -2.1284 -0.6749  0.1845
 5264SOL     OW27424   4.635   1.942  14.706 -0.4874  0.5053  0.0945
 5264SOL    HW127425   4.656   1.985  14.622 -0.4799 -1.0316 -0.6856
 5264SOL    HW227426   4.545   1.974  14.714 -0.4531  0.6704 -0.1615
 5265SOL     OW27427   1.990   4.665   2.782  0.3986 -0.1237  0.4137
 5265SOL    HW127428   1.943   4.608   2.722 -2.3578 -0.8941  3.2915
 5265SOL    HW227429   2.073   4.667   2.734  1.2424 -1.4127  1.7893
 5266SOL     OW27430   2.114   3.140   4.053  0.4982  0.3518  0.5522
 5266SOL    HW127431   2.107   3.231   4.025  0.0627  0.5081  1.1614
 5266SOL    HW227432   2.026   3.112   4.081  0.2929  1.2330  0.7845
 5267SOL     OW27433   0.972   4.008   6.874  0.2639 -0.6063  0.4765
 5267SOL    HW127434   1.068   4.018   6.878  0.1392  0.6693  0.2563
 5267SOL    HW227435   0.951   4.072   6.806 -0.8312 -0.8847  0.5620
 5268SOL     OW27436   1.758   2.847  15.086 -0.3119  0.3473  0.4351
 5268SOL    HW127437   1.809   2.927  15.079  0.5340 -0.2813 -0.6421
 5268SOL    HW227438   1.830   2.785  15.099 -1.4512 -0.6919  1.8325
 5269SOL     OW27439   4.264   4.637  14.332  0.2202  0.2633  0.4227
 5269SOL    HW127440   4.185   4.590  14.356  0.6195  0.1784  1.5939
 5269SOL    HW227441   4.231   4.682  14.254  2.2522  0.2871 -0.4266
 5270SOL     OW27442   4.555   3.901   8.499 -0.1571  0.4928 -0.4656
 5270SOL    HW127443   4.504   3.859   8.568  2.0572  0.4980  1.1632
 5270SOL    HW227444   4.515   3.850   8.429 -0.0406  1.1933 -1.0440
 5271SOL     OW27445   4.227   4.058   7.498 -0.1986 -0.7710 -0.4683
 5271SOL    HW127446   4.180   4.102   7.569 -1.1505 -2.8298  0.1636
 5271SOL    HW227447   4.214   3.964   7.514 -0.9242 -0.5121  0.4848
 5272SOL     OW27448   3.808   0.019   2.341 -0.1394 -0.0996 -0.3422
 5272SOL    HW127449   3.766   0.089   2.291 -0.3824  0.6452  0.9156
 5272SOL    HW227450   3.744   4.687   2.347  1.7784 -1.6914  1.7086
 5273SOL     OW27451   2.100   0.285   8.172  0.3115  0.3220 -0.4376
 5273SOL    HW127452   2.068   0.243   8.093 -0.6907  1.8237 -0.8347
 5273SOL    HW227453   2.020   0.328   8.204 -0.0980 -0.1345 -0.8677
 5274SOL     OW27454   4.716   4.457   8.114 -0.1600 -0.2562 -0.5942
 5274SOL    HW127455   4.737   4.375   8.160  1.2791  1.0302  1.0683
 5274SOL    HW227456   4.736   4.516   8.187 -2.0724 -2.2709  1.5556
 5275SOL     OW27457   1.271   2.745   8.871 -0.1335  0.1830 -0.2756
 5275SOL    HW127458   1.302   2.834   8.891 -1.1216  0.6700 -0.8781
 5275SOL    HW227459   1.278   2.696   8.953 -3.0037  2.6146  1.4211
 5276SOL     OW27460   0.887   0.312   1.654  0.1674  0.0756 -0.0330
 5276SOL    HW127461   0.967   0.346   1.614 -0.1294  0.6397 -0.1555
 5276SOL    HW227462   0.838   0.293   1.574  0.9383  0.5701 -0.6315
 5277SOL     OW27463   1.273   0.529   5.932 -0.1729  0.6740  0.0670
 5277SOL    HW127464   1.348   0.502   5.984  0.2511 -1.9916 -1.9698
 5277SOL    HW227465   1.255   0.611   5.978 -0.0236 -0.0776  1.4705
 5278SOL     OW27466   1.853   0.302   7.762 -0.2536  0.2120 -0.0200
 5278SOL    HW127467   1.767   0.337   7.786 -1.0766 -2.1905  0.5622
 5278SOL    HW227468   1.915   0.375   7.771  0.5074 -0.2710 -1.2860
 5279SOL     OW27469   1.754   0.918   4.757 -0.0013  0.5005  0.1632
 5279SOL    HW127470   1.673   0.891   4.713 -0.4643  2.0790  0.0524
 5279SOL    HW227471   1.732   0.914   4.850  0.9791  0.4450  0.3902
 5280SOL     OW27472   4.603   0.033   6.213  0.6879 -0.1880  0.2939
 5280SOL    HW127473   4.524   0.067   6.170  0.5927  0.9815  1.3917
 5280SOL    HW227474   4.574   0.027   6.304  0.1741 -1.0758  0.0705
 5281SOL     OW27475   4.605   4.541   4.466  0.4054 -0.7378 -0.2716
 5281SOL    HW127476   4.581   4.612   4.525 -0.4425 -0.3065 -1.1436
 5281SOL    HW227477   4.697   4.531   4.489  0.1062 -2.4654  0.2237
 5282SOL     OW27478   1.612   2.616   2.022  0.3599 -0.7369 -0.5614
 5282SOL    HW127479   1.582   2.547   2.082  1.8084  0.3490  1.4126
 5282SOL    HW227480   1.597   2.697   2.070  2.3794 -0.3311 -0.5991
 5283SOL     OW27481   4.727   4.598   8.939 -0.4115 -0.5785  0.1894
 5283SOL    HW127482   0.060   4.621   8.879  0.2169  1.9876  1.9046
 5283SOL    HW227483   0.022   4.528   8.996 -0.3464  0.2148  1.1233
 5284SOL     OW27484   2.101   1.386   1.988 -0.5072 -0.6004 -0.2551
 5284SOL    HW127485   2.160   1.330   2.038  1.8372  0.8063 -1.4840
 5284SOL    HW227486   2.075   1.446   2.059  0.1395 -0.2147 -0.3432
 5285SOL     OW27487   3.046   2.109   8.312  0.5283  0.0025  0.2101
 5285SOL    HW127488   2.984   2.145   8.375 -0.0827 -0.6852 -0.0066
 5285SOL    HW227489   2.991   2.101   8.235  1.4107 -1.7701 -0.2537
 5286SOL     OW27490   1.624   3.176   6.325  0.3879 -0.2528  0.0418
 5286SOL    HW127491   1.603   3.096   6.373 -2.6446  1.1186  1.0033
 5286SOL    HW227492   1.538   3.194   6.286  0.6898 -1.1087 -1.0175
 5287SOL     OW27493   1.633   1.276   6.477 -0.3309 -0.3753 -0.3488
 5287SOL    HW127494   1.656   1.203   6.534  2.6601  0.4006 -0.5640
 5287SOL    HW227495   1.587   1.336   6.535 -2.8008  0.8757 -3.5912
 5288SOL     OW27496   0.541   4.136   8.764  0.4117 -0.3649  0.2772
 5288SOL    HW127497   0.537   4.042   8.750  1.4204 -0.1289 -1.6880
 5288SOL    HW227498   0.535   4.167   8.673 -0.2311  0.8592  0.7406
 5289SOL     OW27499   1.277   1.330   6.898 -0.1249 -0.1894  0.1401
 5289SOL    HW127500   1.188   1.303   6.874  0.3685  0.6633 -2.7041
 5289SOL    HW227501   1.305   1.260   6.957  1.8424  0.4990  0.0305
 5290SOL     OW27502   0.400   2.498  16.831  0.5503 -0.0100 -1.0226
 5290SOL    HW127503   0.421   2.568  16.769  1.8534  1.1320  0.7216
 5290SOL    HW227504   0.306   2.510  16.842 -0.1814 -2.7519 -4.3756
 5291SOL     OW27505   0.711   3.532   9.782  0.1214  0.4680 -0.3976
 5291SOL    HW127506   0.684   3.483   9.705  2.3306  0.9527 -1.4932
 5291SOL    HW227507   0.666   3.616   9.774 -0.9509  0.0213  0.8755
 5292SOL     OW27508   3.041   2.751  12.710  0.6358  0.3403 -0.0599
 5292SOL    HW127509   3.131   2.783  12.703  1.2144 -1.7778 -2.3937
 5292SOL    HW227510   3.022   2.750  12.616  0.3526 -0.3088  0.0048
 5293SOL     OW27511   4.129   0.129   7.287  0.5778  0.4366 -0.4900
 5293SOL    HW127512   4.059   0.187   7.258  0.4855  1.3198  1.4972
 5293SOL    HW227513   4.203   0.188   7.273 -0.2320  1.4614 -0.4650
 5294SOL     OW27514   1.905   3.040   1.448 -0.5598  0.2480  0.0954
 5294SOL    HW127515   1.875   2.960   1.405 -0.6300  0.1429  0.3416
 5294SOL    HW227516   1.878   3.106   1.384 -2.4275 -0.5308  0.0640
 5295SOL     OW27517   0.343   2.081   5.466  0.6994  0.1356 -0.6133
 5295SOL    HW127518   0.429   2.110   5.436  0.8467  1.5904  1.1704
 5295SOL    HW227519   0.318   2.014   5.403  2.2854  0.8161 -1.9766
 5296SOL     OW27520   0.117   1.564   2.613 -0.2546  0.2198  0.4089
 5296SOL    HW127521   0.141   1.657   2.614 -0.2364  0.2360 -1.4844
 5296SOL    HW227522   0.200   1.519   2.625  0.8181  2.0632 -0.1771
 5297SOL     OW27523   3.983   2.743  15.745  0.1419  0.1664 -0.3482
 5297SOL    HW127524   3.907   2.800  15.739 -0.4718 -0.5325  0.8388
 5297SOL    HW227525   4.019   2.769  15.830 -0.8550 -0.0120  0.1234
 5298SOL     OW27526   2.864   1.686   4.605  0.7822  0.6778  0.5078
 5298SOL    HW127527   2.941   1.665   4.658  0.9477 -0.7375 -0.2978
 5298SOL    HW227528   2.866   1.779   4.627 -3.4509  1.1130 -0.8553
 5299SOL     OW27529   2.919   1.854   7.571 -0.0294 -0.0531 -0.5194
 5299SOL    HW127530   2.938   1.809   7.488 -1.2524 -3.1425  0.8861
 5299SOL    HW227531   2.875   1.931   7.535 -1.6805 -1.6604 -1.9458
 5300SOL     OW27532   0.496   4.294   5.965  0.1800  0.1104  0.3640
 5300SOL    HW127533   0.481   4.261   6.054  1.0960  2.5841  1.4444
 5300SOL    HW227534   0.525   4.220   5.912  1.3722  0.7268  0.1622
 5301SOL     OW27535   1.091   2.149   8.651  0.2387 -0.9648 -0.5090
 5301SOL    HW127536   1.020   2.126   8.711 -0.8075 -1.9042 -2.1076
 5301SOL    HW227537   1.140   2.203   8.714  1.0788 -1.9248 -0.3477
 5302SOL     OW27538   4.546   0.266   9.237 -0.0780 -0.0823  0.7259
 5302SOL    HW127539   4.590   0.268   9.322 -0.8099  1.3789  1.0721
 5302SOL    HW227540   4.560   0.177   9.205  0.4757  0.6688 -1.0990
 5303SOL     OW27541   3.376   1.623  12.839  0.5529  0.2654  0.6637
 5303SOL    HW127542   3.436   1.558  12.874 -2.1529 -1.9227  1.2234
 5303SOL    HW227543   3.415   1.639  12.753  1.1491  1.6801  1.1932
 5304SOL     OW27544   2.514   3.270   4.299  0.8869  0.3105  0.0015
 5304SOL    HW127545   2.419   3.269   4.285  1.1406 -3.0100 -1.6959
 5304SOL    HW227546   2.508   3.245   4.391  0.2770  0.7943  0.0935
 5305SOL     OW27547   3.437   4.140   3.813 -1.0142 -0.2608  0.8256
 5305SOL    HW127548   3.503   4.102   3.756 -1.7583 -3.2549  1.9881
 5305SOL    HW227549   3.456   4.232   3.792 -1.9535 -0.7365 -2.0396
 5306SOL     OW27550   3.224   4.178   3.075 -0.1491  0.4482 -0.7826
 5306SOL    HW127551   3.274   4.125   3.012  1.1340  0.1704  0.4883
 5306SOL    HW227552   3.222   4.123   3.153 -1.1640  3.3717  1.2671
 5307SOL     OW27553   2.757   3.734   2.000 -0.4267  0.4454 -0.0141
 5307SOL    HW127554   2.745   3.652   1.953  3.1271 -0.2244  0.2215
 5307SOL    HW227555   2.812   3.698   2.070  1.3791  1.6842 -0.8143
 5308SOL     OW27556   3.094   0.955   0.214 -0.1569 -0.0903  0.4582
 5308SOL    HW127557   3.146   0.962   0.293  0.9546 -0.2568 -0.2591
 5308SOL    HW227558   3.090   1.048   0.193  0.5186 -0.5524 -1.7679
 5309SOL     OW27559   0.478   4.201   6.216 -0.3148  0.1769  0.7298
 5309SOL    HW127560   0.507   4.111   6.214 -1.3144 -0.1489  0.7025
 5309SOL    HW227561   0.484   4.217   6.311 -1.0147  2.0610  0.4650
 5310SOL     OW27562   0.543   1.428   8.480  0.6710  0.2359  0.5175
 5310SOL    HW127563   0.609   1.480   8.433 -0.8915  2.7665  1.1297
 5310SOL    HW227564   0.601   1.365   8.523  1.0622  0.1964 -0.0597
 5311SOL     OW27565   3.507   3.390   4.443 -0.0200 -0.1661  1.0303
 5311SOL    HW127566   3.489   3.296   4.440  0.0072 -0.1692  0.9663
 5311SOL    HW227567   3.415   3.415   4.453  0.0034  0.3234  0.0540
 5312SOL     OW27568   2.135   2.215   7.696 -0.1516 -0.2688 -0.4434
 5312SOL    HW127569   2.189   2.292   7.686  0.3574 -0.6611 -0.6909
 5312SOL    HW227570   2.167   2.200   7.785 -0.6539 -1.0951 -0.3948
 5313SOL     OW27571   0.576   3.614  11.715 -0.1543 -0.3655  0.0133
 5313SOL    HW127572   0.538   3.687  11.764 -0.8808 -0.5299 -0.3107
 5313SOL    HW227573   0.668   3.641  11.723  0.3715 -1.9204 -0.6126
 5314SOL     OW27574   0.188   1.361   1.760  0.3585 -0.7335 -0.9425
 5314SOL    HW127575   0.165   1.270   1.742  0.5899 -0.5117 -2.4140
 5314SOL    HW227576   0.197   1.399   1.672 -3.7634 -0.8500 -1.4101
 5315SOL     OW27577   3.059   1.244  14.572 -0.3277  0.1536 -0.4776
 5315SOL    HW127578   3.064   1.303  14.496  3.0387 -0.3483 -0.6541
 5315SOL    HW227579   3.067   1.302  14.647  2.4464 -0.8605  0.0022
 5316SOL     OW27580   0.001   3.102   5.110  0.1239 -0.3452 -1.1973
 5316SOL    HW127581   4.680   3.175   5.090  1.0090  0.6834 -0.1027
 5316SOL    HW227582   4.699   3.061   5.187 -0.2511  1.0932 -0.6117
 5317SOL     OW27583   3.881   4.117   3.507 -0.1553  0.2624 -0.2272
 5317SOL    HW127584   3.800   4.162   3.531 -1.2145 -1.5429 -0.3819
 5317SOL    HW227585   3.893   4.054   3.578 -2.4765  0.6422  0.5020
 5318SOL     OW27586   1.806   1.874   4.744 -0.1721  0.2102 -0.1571
 5318SOL    HW127587   1.865   1.800   4.760 -0.4976  0.0991  0.5207
 5318SOL    HW227588   1.725   1.826   4.726 -1.3190  2.3331 -0.6226
 5319SOL     OW27589   0.120   1.092   5.556  0.2905 -0.8845 -0.1271
 5319SOL    HW127590   0.136   1.020   5.495  1.0654 -2.0148  1.4183
 5319SOL    HW227591   0.068   1.054   5.626  1.2213 -2.4124 -0.2519
 5320SOL     OW27592   2.547   1.494   9.469 -0.0024  0.1894 -0.1981
 5320SOL    HW127593   2.563   1.401   9.451 -2.0232 -0.5417  1.7223
 5320SOL    HW227594   2.543   1.537   9.384 -1.4627  0.4725  0.0187
 5321SOL     OW27595   4.534   2.293  13.211 -0.2749  0.1436  0.1133
 5321SOL    HW127596   4.606   2.256  13.261  1.4724  0.1261 -2.3865
 5321SOL    HW227597   4.557   2.385  13.221 -1.6677  0.3628  1.2581
 5322SOL     OW27598   2.642   3.636   0.066  0.0947  0.3791  0.4983
 5322SOL    HW127599   2.652   3.717   0.016  1.3229  0.4452  0.8517
 5322SOL    HW227600   2.674   3.567   0.008 -1.8865  0.5475 -0.7791
 5323SOL     OW27601   3.038   2.167   5.836 -0.4619 -0.6548  0.0529
 5323SOL    HW127602   3.117   2.217   5.816 -0.1277 -1.8239 -1.5708
 5323SOL    HW227603   2.966   2.209   5.788  0.4387  1.6260  0.6773
 5324SOL     OW27604   2.306   3.907   7.779  0.0631 -0.4299  0.1568
 5324SOL    HW127605   2.336   3.824   7.743 -0.2139 -0.0523 -0.9508
 5324SOL    HW227606   2.212   3.892   7.765 -0.0780 -0.0198  0.6481
 5325SOL     OW27607   2.753   0.567   6.315  0.1393  0.0602 -0.5145
 5325SOL    HW127608   2.840   0.541   6.344  0.4939  3.6391  1.6248
 5325SOL    HW227609   2.733   0.611   6.398 -1.7325 -0.4371 -0.7000
 5326SOL     OW27610   3.297   2.951  10.315  0.1121  0.1758 -0.3585
 5326SOL    HW127611   3.363   2.958  10.384 -1.1439  1.5226  0.7035
 5326SOL    HW227612   3.272   3.044  10.309 -1.9334 -0.3267  0.2719
 5327SOL     OW27613   4.389   0.438   4.860  0.1946  0.0480  0.3090
 5327SOL    HW127614   4.390   0.501   4.788  0.8173 -1.0906 -0.6646
 5327SOL    HW227615   4.458   0.483   4.909 -0.1228  1.4368 -0.5206
 5328SOL     OW27616   0.541   4.181   1.066  0.6005 -0.4139 -0.3507
 5328SOL    HW127617   0.491   4.212   1.142 -2.9352 -0.7364 -2.5294
 5328SOL    HW227618   0.516   4.240   0.995 -0.7116 -0.0912  0.3686
 5329SOL     OW27619   0.229   3.073   3.049 -0.1543 -0.2261  0.0613
 5329SOL    HW127620   0.291   3.118   3.107  0.4335 -0.6285 -0.2553
 5329SOL    HW227621   0.161   3.052   3.113  0.1776  3.1288  1.5008
 5330SOL     OW27622   3.113   3.746   6.494 -0.1565 -0.8431 -0.5519
 5330SOL    HW127623   3.071   3.664   6.469  1.2523 -1.5487 -0.5918
 5330SOL    HW227624   3.071   3.763   6.579 -0.4912 -0.1356 -0.8542
 5331SOL     OW27625   2.875   1.526   5.710  0.0441  0.2536  0.0850
 5331SOL    HW127626   2.903   1.556   5.623  1.4486  0.1380  0.5003
 5331SOL    HW227627   2.846   1.608   5.750 -1.3949  0.5664 -1.5790
 5332SOL     OW27628   3.274   1.287   5.583 -0.4748 -0.3489 -0.2717
 5332SOL    HW127629   3.199   1.297   5.642 -0.2490  1.8871 -0.3838
 5332SOL    HW227630   3.226   1.250   5.509 -1.2511  1.2574 -0.5804
 5333SOL     OW27631   3.695   3.975   4.784 -0.0739 -0.0348  0.0913
 5333SOL    HW127632   3.640   3.930   4.720 -1.0124  1.3827 -0.1034
 5333SOL    HW227633   3.669   4.065   4.764  0.7798  0.4773  1.2981
 5334SOL     OW27634   3.872   1.581   6.331  0.0907 -0.3933 -0.0649
 5334SOL    HW127635   3.927   1.547   6.402  0.2627  0.6468  0.3003
 5334SOL    HW227636   3.851   1.665   6.373 -0.3572  0.2046 -1.4655
 5335SOL     OW27637   2.602   3.317   2.788 -0.5424  0.0923  0.3452
 5335SOL    HW127638   2.643   3.404   2.787  0.1886 -0.2677 -0.6099
 5335SOL    HW227639   2.523   3.343   2.836 -1.0029  3.6042 -2.2549
 5336SOL     OW27640   3.779   4.273  15.589 -0.2373  0.2869  0.0054
 5336SOL    HW127641   3.715   4.339  15.561 -0.4397 -0.4993 -1.3499
 5336SOL    HW227642   3.851   4.329  15.621 -0.7754  1.6636 -1.1717
 5337SOL     OW27643   0.385   4.073  16.905  0.0337  0.1457  0.1518
 5337SOL    HW127644   0.466   4.105  16.866  0.3664 -2.7471 -1.5690
 5337SOL    HW227645   0.398   3.978  16.898  3.8932  0.7529 -0.7235
 5338SOL     OW27646   1.748   3.316   4.149  0.0932  0.0101 -0.8239
 5338SOL    HW127647   1.796   3.398   4.153  1.1357 -0.7927  3.1875
 5338SOL    HW227648   1.687   3.336   4.220 -0.2729 -1.1776 -0.7997
 5339SOL     OW27649   0.335   2.832   3.005  0.3109  0.3155  0.6059
 5339SOL    HW127650   0.301   2.922   3.007  0.8546  0.5047  1.2307
 5339SOL    HW227651   0.415   2.847   3.055  1.7381 -1.6147 -1.1069
 5340SOL     OW27652   1.920   0.704  15.193  1.1174 -0.7339  0.3602
 5340SOL    HW127653   2.013   0.698  15.215  1.3370  1.1706  0.0177
 5340SOL    HW227654   1.872   0.692  15.274 -0.5301  0.2652 -0.4694
 5341SOL     OW27655   2.056   4.370   3.663 -0.2881 -0.2326  0.1641
 5341SOL    HW127656   2.140   4.416   3.663  0.0752 -0.9284  1.6865
 5341SOL    HW227657   2.076   4.316   3.587 -1.3660 -1.0721  0.4816
 5342SOL     OW27658   3.550   2.072   0.701 -0.4383  0.4028 -0.0542
 5342SOL    HW127659   3.596   2.035   0.626  0.3165  0.3232  0.4489
 5342SOL    HW227660   3.516   2.148   0.653  0.7463  0.4778 -0.7843
 5343SOL     OW27661   3.940   0.446  17.541  0.1716  0.4564  0.4503
 5343SOL    HW127662   3.965   0.509  17.473  0.4964 -1.6385 -1.3665
 5343SOL    HW227663   3.885   0.379  17.502  0.5418  0.8112 -0.6938
 5344SOL     OW27664   1.060   2.664   4.514 -0.5207 -0.4461  0.0263
 5344SOL    HW127665   1.036   2.736   4.572  1.9602 -0.9486  1.6501
 5344SOL    HW227666   1.130   2.625   4.566 -0.1961 -1.8411 -1.4250
 5345SOL     OW27667   1.065   1.483   3.361  0.2795  0.0155  0.4147
 5345SOL    HW127668   0.979   1.517   3.338 -0.2098  0.2969  2.6488
 5345SOL    HW227669   1.083   1.440   3.277 -0.5174  2.1434 -0.8330
 5346SOL     OW27670   0.830   0.316   5.882 -0.2712 -0.3769 -0.2005
 5346SOL    HW127671   0.840   0.376   5.957  0.2335 -2.1308  1.1325
 5346SOL    HW227672   0.914   0.331   5.840 -0.8194 -1.1450 -1.5453
 5347SOL     OW27673   4.342   2.775   3.982  0.5540 -0.4214  0.4055
 5347SOL    HW127674   4.287   2.697   3.975  0.6766 -0.3756 -0.9264
 5347SOL    HW227675   4.373   2.761   4.072 -1.0914  0.8353  1.1743
 5348SOL     OW27676   0.228   4.212   1.706  0.4423  0.0465 -0.8021
 5348SOL    HW127677   0.149   4.159   1.697  0.7286 -0.0833 -2.5811
 5348SOL    HW227678   0.292   4.141   1.703  1.6689  1.0238  1.8391
 5349SOL     OW27679   3.103   3.769   2.862 -0.1264 -0.0926 -0.1212
 5349SOL    HW127680   3.110   3.705   2.933 -1.9021  1.6776  1.6553
 5349SOL    HW227681   3.037   3.739   2.799 -0.0234 -1.0961  0.2528
 5350SOL     OW27682   2.618   4.702   8.728 -0.3584  0.2798 -0.5116
 5350SOL    HW127683   2.565   4.632   8.768 -0.7732  0.2399 -1.1232
 5350SOL    HW227684   2.552   0.013   8.679 -0.6974 -0.4361 -0.7727
 5351SOL     OW27685   3.120   3.676  16.347  0.1743 -0.5868  0.5465
 5351SOL    HW127686   3.128   3.636  16.261  0.0554  1.4012 -0.3942
 5351SOL    HW227687   3.037   3.638  16.376 -1.8259  2.3274 -1.3165
 5352SOL     OW27688   2.840   1.988  17.642  0.1446  0.0715  0.4023
 5352SOL    HW127689   2.817   2.037  17.721  0.0790  0.2958  0.2418
 5352SOL    HW227690   2.894   2.052  17.595 -0.5774 -0.8202 -1.6358
 5353SOL     OW27691   2.549   0.205   5.640 -1.0903  0.2065 -0.3752
 5353SOL    HW127692   2.544   0.282   5.697 -0.3781  0.8862 -1.2406
 5353SOL    HW227693   2.569   0.131   5.698  1.7269  0.3339 -1.2120
 5354SOL     OW27694   0.913   2.344   0.290  0.1569  0.7798  0.0566
 5354SOL    HW127695   0.843   2.376   0.346 -0.9578 -0.3726 -0.6744
 5354SOL    HW227696   0.908   2.416   0.227 -0.0945  1.2142  0.5790
 5355SOL     OW27697   1.825   2.585   2.258  0.2419  0.0711 -0.0489
 5355SOL    HW127698   1.814   2.544   2.172 -2.7128  0.1080  0.3153
 5355SOL    HW227699   1.877   2.656   2.219 -0.1026  0.7192  0.6872
 5356SOL     OW27700   2.930   2.860  16.772 -1.1496 -0.2846 -0.0126
 5356SOL    HW127701   2.889   2.897  16.694  0.0417 -0.2577 -0.6234
 5356SOL    HW227702   2.959   2.942  16.813 -2.0084  0.1220 -0.2191
 5357SOL     OW27703   3.294   3.347   3.739 -0.1609  0.1217 -0.0145
 5357SOL    HW127704   3.300   3.303   3.654  1.1928  2.1365 -0.9474
 5357SOL    HW227705   3.221   3.297   3.777 -1.0994  0.3497 -1.5348
 5358SOL     OW27706   1.889   0.452   8.120 -0.3757 -0.2652  0.0415
 5358SOL    HW127707   1.887   0.445   8.216  1.7274  2.1110  0.2231
 5358SOL    HW227708   1.827   0.388   8.084  0.0312 -0.2793 -0.6258
 5359SOL     OW27709   0.509   2.920   0.109  0.7150 -0.3396 -0.7553
 5359SOL    HW127710   0.462   2.862   0.048 -1.7243  0.6826  0.1427
 5359SOL    HW227711   0.570   2.855   0.144 -1.5453 -0.8369  2.2312
 5360SOL     OW27712   3.514   3.700  11.419 -0.1742  1.0174 -0.6522
 5360SOL    HW127713   3.554   3.753  11.350  0.7932  3.4521  1.7822
 5360SOL    HW227714   3.475   3.633  11.363 -0.8331  0.0651  0.9243
 5361SOL     OW27715   3.421   1.619   5.499  0.1513  0.1159  0.2971
 5361SOL    HW127716   3.394   1.580   5.582 -1.7450 -0.1886 -0.4754
 5361SOL    HW227717   3.499   1.670   5.522  1.6457 -1.8168 -0.3941
 5362SOL     OW27718   2.068   1.752  17.026  0.0928  0.4722  0.3149
 5362SOL    HW127719   2.059   1.696  16.949  2.0492 -1.0242  1.1637
 5362SOL    HW227720   2.141   1.806  16.995  0.4238 -0.0873  0.1262
 5363SOL     OW27721   0.910   3.911   3.863  0.4919  0.1555 -0.5695
 5363SOL    HW127722   0.816   3.912   3.880  0.3770  0.8090 -1.2426
 5363SOL    HW227723   0.926   4.002   3.837  0.9671 -0.0807 -1.0848
 5364SOL     OW27724   2.446   0.437   5.272 -0.2366  0.1835  0.1660
 5364SOL    HW127725   2.478   0.525   5.290 -1.9053  1.4391 -2.8871
 5364SOL    HW227726   2.405   0.461   5.188  0.3855  1.5509  0.2568
 5365SOL     OW27727   4.054   1.131  11.206  0.0373  0.8177 -0.2076
 5365SOL    HW127728   4.009   1.188  11.143  1.4730 -0.6554 -2.5678
 5365SOL    HW227729   4.143   1.157  11.180  0.0268  1.1747  0.1098
 5366SOL     OW27730   2.590   1.218  16.080  0.3620 -0.1419 -0.0236
 5366SOL    HW127731   2.532   1.146  16.055  1.8309 -1.5049  0.5489
 5366SOL    HW227732   2.601   1.201  16.173 -1.5840 -0.2076  0.1992
 5367SOL     OW27733   3.913   4.264   3.000  0.1487  0.3096 -0.5239
 5367SOL    HW127734   3.865   4.237   3.079  0.4344 -1.1547 -0.8448
 5367SOL    HW227735   3.861   4.342   2.982 -1.6253 -0.9269 -0.7212
 5368SOL     OW27736   1.291   3.434   3.028  0.4214  0.1535 -0.3862
 5368SOL    HW127737   1.307   3.386   2.947 -2.3923  0.3509 -1.0601
 5368SOL    HW227738   1.195   3.443   3.026  0.6352  2.2512 -2.2417
 5369SOL     OW27739   3.622   3.681  13.399 -0.1149 -0.1364 -0.1187
 5369SOL    HW127740   3.708   3.720  13.408 -0.7611  1.9732 -2.9887
 5369SOL    HW227741   3.639   3.592  13.368  2.8053  0.8989 -1.3747
 5370SOL     OW27742   1.799   4.025   5.474 -0.2494 -0.2511  0.0423
 5370SOL    HW127743   1.873   3.974   5.509  1.0035  0.4718 -1.5720
 5370SOL    HW227744   1.812   4.095   5.538  0.2169 -0.0900 -0.2239
 5371SOL     OW27745   2.542   3.793   1.808  0.0112  0.0797  0.1535
 5371SOL    HW127746   2.516   3.790   1.900 -0.1733  1.6355  0.1519
 5371SOL    HW227747   2.636   3.774   1.817 -0.4312 -2.1879 -0.0031
 5372SOL     OW27748   1.985   1.137   9.516 -0.6013  0.0972 -0.2728
 5372SOL    HW127749   1.904   1.099   9.550  0.1079 -0.9924  0.2018
 5372SOL    HW227750   2.025   1.182   9.590 -0.2714 -1.9587  0.8212
 5373SOL     OW27751   3.789   2.565   6.512  0.4846 -0.5610 -0.0298
 5373SOL    HW127752   3.746   2.534   6.592 -1.2426 -0.6287 -0.9740
 5373SOL    HW227753   3.867   2.510   6.518  0.0451 -1.2791 -0.9163
 5374SOL     OW27754   1.342   1.514   7.270  0.1183  0.4558 -0.5404
 5374SOL    HW127755   1.301   1.430   7.288 -0.2895  0.9280  0.7260
 5374SOL    HW227756   1.288   1.583   7.309  1.5691  1.0931  0.3547
 5375SOL     OW27757   0.056   2.583   3.861 -0.3310  0.2865  0.2472
 5375SOL    HW127758   4.702   2.554   3.857 -0.4305  0.5743  0.3799
 5375SOL    HW227759   0.054   2.635   3.942  0.7789  0.4275  0.1800
 5376SOL     OW27760   2.195   0.751   3.270  0.3017 -0.1424  0.2246
 5376SOL    HW127761   2.240   0.777   3.351  2.1363 -0.4436 -0.7086
 5376SOL    HW227762   2.111   0.795   3.287  0.3655  0.5528 -1.3048
 5377SOL     OW27763   0.481   3.206  11.403 -0.4248  0.2285  0.8031
 5377SOL    HW127764   0.441   3.285  11.440  2.7083  1.1036  2.3540
 5377SOL    HW227765   0.435   3.135  11.449 -0.4069  0.0003  0.4683
 5378SOL     OW27766   3.777   3.458   3.081 -0.2380 -0.1505  0.3666
 5378SOL    HW127767   3.800   3.551   3.075  1.1114 -0.4471  0.8541
 5378SOL    HW227768   3.749   3.433   2.993  0.5811  1.1180 -0.2526
 5379SOL     OW27769   4.033   4.091   2.614  0.0932  0.1038  0.1827
 5379SOL    HW127770   3.947   4.060   2.639  0.0691 -0.7555 -0.9964
 5379SOL    HW227771   4.061   4.158   2.677  0.9520  1.4487 -1.6099
 5380SOL     OW27772   3.880   0.087   3.040 -0.3108  0.1077  0.2957
 5380SOL    HW127773   3.909   0.006   3.081  0.7288  0.5023  0.3289
 5380SOL    HW227774   3.803   0.102   3.095 -0.4562 -0.1936  0.1784
 5381SOL     OW27775   2.042   3.197   5.943  0.3127  0.3437  0.8320
 5381SOL    HW127776   2.011   3.287   5.936 -2.9784 -0.7580  1.6335
 5381SOL    HW227777   1.977   3.172   6.009  0.2585 -2.8238 -0.4474
 5382SOL     OW27778   3.285   2.031   7.777  0.6392  0.3181  0.2670
 5382SOL    HW127779   3.362   2.007   7.725 -0.7459 -1.8264 -0.7959
 5382SOL    HW227780   3.310   2.006   7.866  1.6892  0.2855 -0.0353
 5383SOL     OW27781   2.888   2.282   1.662 -0.0078 -0.1892  0.7862
 5383SOL    HW127782   2.824   2.310   1.727 -0.8061  1.0775 -0.5495
 5383SOL    HW227783   2.861   2.192   1.643 -1.5680  0.1760  1.2630
 5384SOL     OW27784   2.400   4.423   9.249 -0.8390 -0.5931  0.1437
 5384SOL    HW127785   2.473   4.478   9.276 -1.2436 -1.2788  2.6340
 5384SOL    HW227786   2.355   4.394   9.329 -1.3530  1.2409  0.5091
 5385SOL     OW27787   4.133   2.754  13.900 -0.2408 -0.0934 -0.1589
 5385SOL    HW127788   4.121   2.679  13.841 -2.1130 -1.6815  2.2407
 5385SOL    HW227789   4.195   2.805  13.847  0.5465  1.7468  2.5427
 5386SOL     OW27790   1.395   1.616  14.945 -0.1390  0.1794  0.3764
 5386SOL    HW127791   1.412   1.683  14.879  2.8778 -2.4344 -1.5267
 5386SOL    HW227792   1.303   1.632  14.963 -0.4496 -1.5049  0.2454
 5387SOL     OW27793   3.963   3.438  12.311  0.1614 -0.1418  0.4183
 5387SOL    HW127794   3.894   3.372  12.309  0.2797 -0.2742  0.6694
 5387SOL    HW227795   3.920   3.497  12.250  2.6025 -0.5515 -1.7004
 5388SOL     OW27796   1.561   4.670   5.335  0.0295  0.3731  0.1838
 5388SOL    HW127797   1.655   4.662   5.320  0.3677  0.4705  2.2504
 5388SOL    HW227798   1.540   4.576   5.332 -0.2559  0.4909 -1.4415
 5389SOL     OW27799   4.331   1.244   3.754 -0.2572  0.0150  0.1537
 5389SOL    HW127800   4.323   1.169   3.694 -0.0280 -0.2705  0.4817
 5389SOL    HW227801   4.243   1.235   3.792  0.5158  0.4406  2.0165
 5390SOL     OW27802   1.212   3.987  14.515 -0.3106 -0.3834 -0.1704
 5390SOL    HW127803   1.156   3.915  14.543 -0.1100 -0.5359 -0.1589
 5390SOL    HW227804   1.231   4.032  14.598 -0.6816 -1.9297  0.7381
 5391SOL     OW27805   2.892   2.483  11.194 -0.0963 -0.0300  0.0518
 5391SOL    HW127806   2.925   2.411  11.141  0.7381  0.2780  0.1627
 5391SOL    HW227807   2.888   2.551  11.128  3.5549  0.4380  0.3255
 5392SOL     OW27808   2.886   1.467   2.397 -0.3509 -0.1915 -0.2865
 5392SOL    HW127809   2.964   1.515   2.423 -2.7479  3.6431 -0.2887
 5392SOL    HW227810   2.917   1.436   2.312  0.3776 -0.2576 -0.0011
 5393SOL     OW27811   1.519   1.835   4.325 -0.4255  0.7666  0.1714
 5393SOL    HW127812   1.430   1.867   4.312 -1.0689 -1.7932 -1.7519
 5393SOL    HW227813   1.498   1.768   4.389 -2.6569  0.0478 -1.3034
 5394SOL     OW27814   3.093   4.594   5.032  0.1893  0.7233 -0.9681
 5394SOL    HW127815   3.050   4.621   4.951 -2.1175  1.7725  0.6281
 5394SOL    HW227816   3.158   4.664   5.042  1.3595 -0.6267  0.9735
 5395SOL     OW27817   2.823   1.310  15.137 -0.3134 -0.5907 -0.4304
 5395SOL    HW127818   2.808   1.402  15.115 -1.6662 -1.0509 -1.4270
 5395SOL    HW227819   2.787   1.272  15.057  0.2136  0.5459 -1.1962
 5396SOL     OW27820   1.537   2.073   6.058  0.4063  0.3328 -0.0759
 5396SOL    HW127821   1.547   2.094   6.150 -0.2846  0.9942 -0.1488
 5396SOL    HW227822   1.474   2.141   6.032 -0.8850  0.0576  2.3641
 5397SOL     OW27823   4.184   3.479   5.423  0.6126 -0.3955  0.3241
 5397SOL    HW127824   4.185   3.574   5.433 -0.1833 -0.4540  0.9974
 5397SOL    HW227825   4.108   3.467   5.366  0.5479 -0.2902  0.3891
 5398SOL     OW27826   3.969   3.881   8.615  0.0508 -0.2512  0.3717
 5398SOL    HW127827   3.878   3.863   8.637 -0.5079  1.4427 -0.5802
 5398SOL    HW227828   3.994   3.952   8.674 -0.1667  1.7008 -1.8797
 5399SOL     OW27829   2.644   4.504   6.736 -0.5296  0.0207  0.2935
 5399SOL    HW127830   2.602   4.493   6.650 -1.2135  0.5174  0.5578
 5399SOL    HW227831   2.667   4.415   6.761 -1.8181 -0.2030  0.7120
 5400SOL     OW27832   2.409   4.237  16.939 -0.3140 -0.1822  0.0457
 5400SOL    HW127833   2.401   4.309  16.876  1.9885 -0.2843 -0.3476
 5400SOL    HW227834   2.364   4.172  16.884 -0.2883 -0.0711 -0.1072
 5401SOL     OW27835   2.947   1.104  11.163 -0.1191  0.1291  0.0276
 5401SOL    HW127836   2.897   1.181  11.138  0.7124  1.2008  1.6673
 5401SOL    HW227837   2.949   1.047  11.086 -0.9668  0.9523 -0.5930
 5402SOL     OW27838   1.202   1.058   9.531  0.0507 -0.0080  0.4399
 5402SOL    HW127839   1.125   1.097   9.491 -0.4145  0.0726  1.4183
 5402SOL    HW227840   1.158   1.026   9.609 -1.5304  2.4054  0.5070
 5403SOL     OW27841   1.004   0.718  13.161  0.4148 -0.7944 -0.0315
 5403SOL    HW127842   1.054   0.768  13.226  0.1108 -0.5962  0.0498
 5403SOL    HW227843   0.913   0.739  13.184  0.4561 -1.7842  1.0014
 5404SOL     OW27844   4.584   2.765   5.837  0.0018  0.1433 -0.0057
 5404SOL    HW127845   4.600   2.686   5.787  0.3128  0.3541 -0.2366
 5404SOL    HW227846   4.538   2.823   5.777  1.1048  2.0561  0.9934
 5405SOL     OW27847   4.027   2.398   8.262 -0.4410  0.1166 -0.7632
 5405SOL    HW127848   4.114   2.372   8.234  0.8001  0.3903  2.8591
 5405SOL    HW227849   4.023   2.341   8.339 -1.9850  1.6239  0.2872
 5406SOL     OW27850   0.791   3.788   2.708 -0.1288 -0.1618  0.5461
 5406SOL    HW127851   0.747   3.873   2.700 -1.7489 -0.8073  3.0296
 5406SOL    HW227852   0.862   3.815   2.767 -0.8719 -1.0702  1.8543
 5407SOL     OW27853   2.168   4.496   1.060 -0.2334 -0.5436  0.1871
 5407SOL    HW127854   2.136   4.568   1.115  0.7599 -1.3864  1.8606
 5407SOL    HW227855   2.219   4.445   1.123 -1.2806 -0.1542  1.3269
 5408SOL     OW27856   0.118   4.465   4.456  0.2026 -0.3778 -0.2466
 5408SOL    HW127857   0.199   4.493   4.414  1.9264 -1.2949  2.5105
 5408SOL    HW227858   0.103   4.390   4.400 -0.4686  0.5259 -1.2824
 5409SOL     OW27859   0.594   3.162  14.733 -0.4115  0.4221  0.1956
 5409SOL    HW127860   0.516   3.121  14.697 -1.0569  0.8241  1.1441
 5409SOL    HW227861   0.578   3.190  14.823 -0.3998  1.9640 -0.2786
 5410SOL     OW27862   2.328   2.303   4.835 -0.2667  0.1740 -0.6042
 5410SOL    HW127863   2.356   2.394   4.826 -0.1907  0.4717  2.5033
 5410SOL    HW227864   2.259   2.290   4.770 -0.1429 -1.4339 -0.4199
 5411SOL     OW27865   4.333   3.322   3.891 -0.6455 -0.4151 -0.1233
 5411SOL    HW127866   4.255   3.307   3.945  0.0003 -1.1664  0.6117
 5411SOL    HW227867   4.389   3.352   3.963 -0.2183  1.9329 -1.4274
 5412SOL     OW27868   4.176   0.311  11.584  0.4302  1.1771  0.2035
 5412SOL    HW127869   4.183   0.244  11.652 -0.3581  1.6465  0.7470
 5412SOL    HW227870   4.108   0.266  11.534 -0.8973  1.7639  1.4853
 5413SOL     OW27871   0.484   2.960   2.202  0.1782  0.5500 -0.3648
 5413SOL    HW127872   0.490   2.872   2.238 -2.6871  0.5622  0.1242
 5413SOL    HW227873   0.472   3.009   2.284 -0.8352 -0.8244  0.3033
 5414SOL     OW27874   1.270   1.878   1.733 -0.1401 -0.1336 -0.4654
 5414SOL    HW127875   1.293   1.827   1.656 -1.2650  0.1298 -0.9739
 5414SOL    HW227876   1.209   1.822   1.781  2.3819 -1.2202  1.4899
 5415SOL     OW27877   4.291   1.408   1.858 -0.2479 -0.4719 -0.3871
 5415SOL    HW127878   4.293   1.466   1.934  0.1675  0.1363 -0.8613
 5415SOL    HW227879   4.250   1.471   1.799 -1.3024 -1.0854 -0.3197
 5416SOL     OW27880   4.549   4.592  12.555  0.0317 -0.2503 -0.3704
 5416SOL    HW127881   4.482   4.637  12.504  0.8303  1.3593  0.0058
 5416SOL    HW227882   4.577   4.527  12.491  0.7187 -2.0783  1.7609
 5417SOL     OW27883   0.938   2.831   6.660 -0.3733 -0.3633  0.5684
 5417SOL    HW127884   0.853   2.801   6.629 -0.2018 -1.6960  1.3663
 5417SOL    HW227885   0.974   2.881   6.586  0.6639 -1.3572  0.3889
 5418SOL     OW27886   0.813   1.458   7.282  0.0883 -0.0673  0.1444
 5418SOL    HW127887   0.889   1.465   7.224  0.2088 -4.2864 -0.2174
 5418SOL    HW227888   0.798   1.366   7.260  2.8545 -0.1141 -1.5885
 5419SOL     OW27889   0.818   2.581   0.621  0.1608 -0.2706 -0.1303
 5419SOL    HW127890   0.782   2.601   0.708 -0.4278  0.5982 -0.5720
 5419SOL    HW227891   0.884   2.649   0.605 -1.8388  1.2140 -2.1651
 5420SOL     OW27892   0.122   3.786   7.097 -0.2892 -0.1426 -0.1425
 5420SOL    HW127893   0.211   3.756   7.119 -0.1233 -0.1894 -0.9012
 5420SOL    HW227894   0.119   3.783   7.002 -1.9072 -1.6916 -0.0304
 5421SOL     OW27895   2.142   1.948  11.122 -0.4257  0.1788 -0.5771
 5421SOL    HW127896   2.163   1.932  11.030 -1.8911  1.5309 -1.1501
 5421SOL    HW227897   2.216   1.907  11.167  0.6514  0.2828 -2.2589
 5422SOL     OW27898   2.725   4.227  14.463 -0.0844  0.4224 -0.3424
 5422SOL    HW127899   2.813   4.243  14.497  0.8813  0.5466 -2.8793
 5422SOL    HW227900   2.704   4.312  14.424  0.2725  0.0373 -1.3540
 5423SOL     OW27901   2.098   0.001   5.321  0.0529  0.1373 -0.7457
 5423SOL    HW127902   2.130   4.664   5.270  2.1534  0.2787  0.3812
 5423SOL    HW227903   2.112   0.075   5.263  0.0156  0.9349  0.2704
 5424SOL     OW27904   1.062   0.230   5.586 -0.3525 -0.1757  0.1491
 5424SOL    HW127905   1.142   0.262   5.544  0.5383 -0.6633  1.4824
 5424SOL    HW227906   1.058   0.281   5.667 -1.2587 -2.7396  1.7186
 5425SOL     OW27907   0.175   1.509   1.482 -0.6011 -0.3667 -0.8285
 5425SOL    HW127908   0.193   1.584   1.425  0.8700  0.5939  0.9076
 5425SOL    HW227909   0.105   1.461   1.438 -1.7410 -0.1009  0.6786
 5426SOL     OW27910   4.305   1.782   4.866 -0.0728 -0.1555 -0.0847
 5426SOL    HW127911   4.227   1.791   4.812 -1.5262 -0.2867  2.0108
 5426SOL    HW227912   4.353   1.710   4.826 -2.6623 -1.0423 -1.5694
 5427SOL     OW27913   2.501   3.171  14.306 -0.4857  0.7824  0.1622
 5427SOL    HW127914   2.543   3.250  14.271  0.5795  0.4197  0.6019
 5427SOL    HW227915   2.586   3.139  14.338 -1.3828 -1.4626  0.2658
 5428SOL     OW27916   0.672   2.787   7.289  0.1448  0.6046  1.0464
 5428SOL    HW127917   0.703   2.744   7.210 -0.1360 -1.4094  2.0346
 5428SOL    HW227918   0.707   2.734   7.361 -1.0480 -0.4266  0.8553
 5429SOL     OW27919   1.508   2.796   7.116 -0.2847 -0.1071 -0.3348
 5429SOL    HW127920   1.586   2.774   7.167  0.4720  0.7536 -1.1074
 5429SOL    HW227921   1.447   2.816   7.188  1.9445 -1.5297  1.9446
 5430SOL     OW27922   1.757   3.303   1.263 -0.1623  0.2859  0.1718
 5430SOL    HW127923   1.758   3.235   1.196 -2.1032 -0.3948  0.8104
 5430SOL    HW227924   1.714   3.257   1.336  1.0048 -0.4924  0.3641
 5431SOL     OW27925   0.420   1.763   3.294  0.3662 -0.4874  0.2392
 5431SOL    HW127926   0.375   1.824   3.235 -0.7551 -0.2359  1.3614
 5431SOL    HW227927   0.354   1.695   3.304  0.2227  0.0177  2.7843
 5432SOL     OW27928   4.309   0.500  11.424 -0.1559  0.4249 -0.0765
 5432SOL    HW127929   4.261   0.574  11.462 -0.2846 -0.9316  2.4396
 5432SOL    HW227930   4.274   0.428  11.478 -1.5566  0.6052 -0.7341
 5433SOL     OW27931   4.385   3.819   5.606 -0.2278  0.1551  0.0273
 5433SOL    HW127932   4.314   3.790   5.663 -1.5442 -1.0448 -2.2067
 5433SOL    HW227933   4.437   3.738   5.612 -0.8332 -0.1997  0.4661
 5434SOL     OW27934   3.569   0.910   7.975  0.2923  0.3065  0.2126
 5434SOL    HW127935   3.504   0.937   7.909  0.4256 -0.4330 -0.2145
 5434SOL    HW227936   3.583   0.998   8.010 -0.7034  0.0381  1.2906
 5435SOL     OW27937   1.695   4.456   9.802  0.1105  0.2225 -0.3350
 5435SOL    HW127938   1.736   4.512   9.868 -1.2367  0.3809  0.3634
 5435SOL    HW227939   1.668   4.385   9.861  0.6743  0.8000  0.6122
 5436SOL     OW27940   3.289   1.451  11.063  0.4563 -0.4883 -0.3649
 5436SOL    HW127941   3.377   1.415  11.062  1.2866  1.5562 -1.7107
 5436SOL    HW227942   3.246   1.370  11.035 -0.2445 -0.4137  0.4891
 5437SOL     OW27943   0.363   2.907   5.100  0.0804 -0.4305  0.5383
 5437SOL    HW127944   0.346   2.818   5.132 -0.2691 -0.3799  0.4962
 5437SOL    HW227945   0.301   2.923   5.029  0.8657 -0.4575 -0.1567
 5438SOL     OW27946   0.663   4.520   5.956 -0.3598 -0.4065  0.3416
 5438SOL    HW127947   0.612   4.455   6.004  0.1760  0.1245  1.6139
 5438SOL    HW227948   0.680   4.478   5.871  0.5850 -0.2851  0.4724
 5439SOL     OW27949   1.180   4.063   8.508  0.0074 -0.1627  0.0740
 5439SOL    HW127950   1.221   4.026   8.586 -0.5470  0.8069  0.8207
 5439SOL    HW227951   1.166   3.987   8.451 -0.5511  0.9595 -1.2922
 5440SOL     OW27952   3.718   3.316   7.177  0.1955  0.4212  0.2516
 5440SOL    HW127953   3.778   3.349   7.244  1.2716 -1.8074  0.3786
 5440SOL    HW227954   3.633   3.308   7.220  0.2725  0.7024  0.4537
 5441SOL     OW27955   0.150   2.550   5.455  0.3064  0.2437 -0.1258
 5441SOL    HW127956   0.118   2.460   5.455 -0.2123  0.4180  2.4548
 5441SOL    HW227957   0.073   2.600   5.483 -0.5470 -0.1450 -1.7794
 5442SOL     OW27958   2.914   3.885   6.295 -0.0844 -0.4379 -0.2581
 5442SOL    HW127959   2.953   3.965   6.260  1.9126 -0.6515  1.4348
 5442SOL    HW227960   2.866   3.857   6.218 -0.3303  0.8889 -0.5932
 5443SOL     OW27961   0.663   4.587   6.351 -0.5563  0.3547  0.0530
 5443SOL    HW127962   0.682   4.524   6.421  0.0194  0.1318 -0.3071
 5443SOL    HW227963   0.743   4.594   6.301 -1.3140 -1.3608 -1.4082
 5444SOL     OW27964   1.809   1.490   6.457  0.0415  0.7167  0.4206
 5444SOL    HW127965   1.723   1.452   6.437  0.8915 -0.5405 -0.7887
 5444SOL    HW227966   1.825   1.442   6.538  1.1222  1.7201  0.7940
 5445SOL     OW27967   0.860   3.385   0.905 -0.0888 -0.9781  0.0704
 5445SOL    HW127968   0.880   3.437   0.983 -0.1439  0.0009 -0.5648
 5445SOL    HW227969   0.901   3.445   0.842 -1.2452  0.5731  0.7915
 5446SOL     OW27970   1.038   0.985   2.495  0.0487  0.1555 -0.1607
 5446SOL    HW127971   1.114   0.975   2.553  0.3932 -0.0819 -0.6570
 5446SOL    HW227972   0.970   0.929   2.532 -0.0974  1.3495  1.3715
 5447SOL     OW27973   3.333   4.456   7.008 -0.7561 -0.2109 -0.1852
 5447SOL    HW127974   3.258   4.441   6.951 -0.6467 -2.7596  0.3656
 5447SOL    HW227975   3.385   4.376   7.001  1.6607  1.4073 -0.6506
 5448SOL     OW27976   0.737   3.618   2.924 -0.1684 -0.0818 -0.0698
 5448SOL    HW127977   0.754   3.677   2.851 -1.6762 -0.8537 -1.0400
 5448SOL    HW227978   0.712   3.682   2.990  1.0286  0.1967  0.1177
 5449SOL     OW27979   3.594   1.378  10.518  0.1910  0.2477 -0.5284
 5449SOL    HW127980   3.532   1.315  10.481  1.0356 -0.0142 -1.4841
 5449SOL    HW227981   3.653   1.395  10.444 -0.8998  1.3286 -1.1475
 5450SOL     OW27982   1.115   3.932   6.426 -0.5459  0.2717 -0.1696
 5450SOL    HW127983   1.166   3.991   6.481  0.3200  0.2851 -0.9759
 5450SOL    HW227984   1.137   3.968   6.340 -0.6349 -0.1369 -0.3665
 5451SOL     OW27985   0.299   2.494   2.504  0.0666  0.7677  0.5384
 5451SOL    HW127986   0.323   2.457   2.419 -0.6920  2.1200 -0.2681
 5451SOL    HW227987   0.209   2.525   2.494 -0.4073  0.0517  2.4699
 5452SOL     OW27988   3.859   4.590   5.357 -0.2085 -0.1558  0.3883
 5452SOL    HW127989   3.843   4.554   5.444 -0.1700  0.1154  0.5075
 5452SOL    HW227990   3.936   4.636   5.390 -0.4389  1.8654 -1.9186
 5453SOL     OW27991   1.714   0.121   9.414 -0.2444 -0.3082 -0.5617
 5453SOL    HW127992   1.643   0.085   9.468 -0.0912 -0.5858 -0.5412
 5453SOL    HW227993   1.786   0.108   9.477 -1.6313 -0.5399  0.9800
 5454SOL     OW27994   3.053   3.989  16.695 -0.2833 -0.1619  0.3877
 5454SOL    HW127995   3.046   4.084  16.706 -1.4915 -0.2005 -0.0356
 5454SOL    HW227996   3.146   3.982  16.716  0.2873  0.9370 -1.7546
 5455SOL     OW27997   2.237   2.392   6.445  0.3381  0.9630 -0.1794
 5455SOL    HW127998   2.312   2.422   6.393  1.0826  0.1470  0.4144
 5455SOL    HW227999   2.165   2.438   6.402 -0.8596 -0.6006  0.1388
 5456SOL     OW28000   4.180   0.784   8.655 -0.0896  0.0478 -0.4223
 5456SOL    HW128001   4.271   0.800   8.631  0.5784 -1.1822  1.2994
 5456SOL    HW228002   4.162   0.854   8.719  0.4945  0.0539 -0.2684
 5457SOL     OW28003   0.766   4.500  11.371  0.3347 -0.3622  0.1877
 5457SOL    HW128004   0.746   4.552  11.448  0.8504 -1.6839  1.2132
 5457SOL    HW228005   0.715   4.544  11.303  0.7281 -1.9012 -1.0976
 5458SOL     OW28006   0.398   4.251   7.266  0.1495  0.6220 -0.2753
 5458SOL    HW128007   0.440   4.295   7.340 -0.1573 -0.5848  0.6161
 5458SOL    HW228008   0.428   4.160   7.268 -1.1398  0.2387  2.6853
 5459SOL     OW28009   1.008   0.648   7.068 -0.6636  0.1678  0.1498
 5459SOL    HW128010   1.063   0.569   7.073  0.2299  0.8104  0.4631
 5459SOL    HW228011   1.038   0.684   6.985 -0.6308 -1.0384 -0.3592
 5460SOL     OW28012   4.486   1.089   2.391  0.1997 -0.2181  0.3194
 5460SOL    HW128013   4.549   1.018   2.402  0.5202  0.2275  1.3140
 5460SOL    HW228014   4.533   1.156   2.341 -2.1252  0.9290 -0.3163
 5461SOL     OW28015   1.659   0.447   5.688 -0.1106 -0.0145 -0.3133
 5461SOL    HW128016   1.746   0.480   5.708  0.4801 -1.3114 -0.7100
 5461SOL    HW228017   1.599   0.505   5.735  0.8429  1.6642 -1.1699
 5462SOL     OW28018   0.815   2.276   8.182 -0.1060 -0.4592 -0.4024
 5462SOL    HW128019   0.812   2.200   8.124  1.0782 -0.2829 -0.7023
 5462SOL    HW228020   0.891   2.241   8.229 -0.6034 -0.1137  0.6432
 5463SOL     OW28021   3.205   3.782   2.464  0.3450  0.1862 -0.2725
 5463SOL    HW128022   3.249   3.721   2.524  0.6804  1.8235  1.1509
 5463SOL    HW228023   3.115   3.757   2.485  0.4859 -0.7370 -0.7948
 5464SOL     OW28024   4.043   0.777  16.930 -0.1571 -0.9542 -0.6298
 5464SOL    HW128025   4.106   0.847  16.911 -0.5340 -0.7678 -1.2029
 5464SOL    HW228026   4.106   0.715  16.967 -1.0139 -0.6182  1.4201
 5465SOL     OW28027   0.112   2.266   5.484 -0.0688  0.1586  0.0782
 5465SOL    HW128028   0.065   2.198   5.436 -0.3870  0.7384 -0.4469
 5465SOL    HW228029   0.188   2.209   5.489 -1.5084 -1.7000  0.6393
 5466SOL     OW28030   4.658   2.738   0.935 -0.5208 -0.6173  0.0555
 5466SOL    HW128031   4.645   2.783   1.018  0.3861  0.3313 -0.3016
 5466SOL    HW228032   4.687   2.653   0.968 -1.0619  0.2453  2.7765
 5467SOL     OW28033   2.535   0.643   3.832  0.1243  0.2436  1.0284
 5467SOL    HW128034   2.485   0.652   3.914  0.4686  2.0936  1.0312
 5467SOL    HW228035   2.461   0.605   3.784  1.0760  0.3601 -0.5133
 5468SOL     OW28036   3.799   1.369  14.903 -0.0350 -0.5960 -0.2852
 5468SOL    HW128037   3.836   1.304  14.963  0.7071 -0.6371 -0.7819
 5468SOL    HW228038   3.721   1.324  14.869 -1.0693 -0.1216  1.4720
 5469SOL     OW28039   1.851   2.187   7.137 -0.5703  0.0174  0.6386
 5469SOL    HW128040   1.872   2.233   7.055  0.0874 -2.5507 -0.6181
 5469SOL    HW228041   1.872   2.094   7.136 -2.4562 -0.4238  1.8875
 5470SOL     OW28042   0.698   4.694   8.551 -0.0875  0.1976 -0.1961
 5470SOL    HW128043   0.723   4.618   8.498  0.8999 -1.7815  3.1117
 5470SOL    HW228044   0.719   4.646   8.631  3.2330  0.9648 -0.6030
 5471SOL     OW28045   1.221   1.748   5.331 -1.0618 -0.3379 -0.7833
 5471SOL    HW128046   1.234   1.654   5.341  1.8846  0.4333  2.8342
 5471SOL    HW228047   1.308   1.778   5.358 -1.4155  0.7477 -0.8228
 5472SOL     OW28048   4.197   2.473  17.679  0.8889  0.0290  0.6905
 5472SOL    HW128049   4.152   2.389  17.688  1.0594 -0.2068 -0.7706
 5472SOL    HW228050   4.182   2.478  17.585  1.3420  1.5096  0.6851
 5473SOL     OW28051   1.176   4.694  11.041 -0.9931  0.5070  0.4887
 5473SOL    HW128052   1.110   4.706  11.108 -0.1327 -0.1050  1.4493
 5473SOL    HW228053   1.184   0.046  11.009  1.9495  0.1815  0.2350
 5474SOL     OW28054   0.629   1.657   7.955  0.2515  0.1303 -0.4244
 5474SOL    HW128055   0.596   1.711   7.884 -0.4226 -0.8714 -0.8679
 5474SOL    HW228056   0.662   1.717   8.022  2.1340 -0.2009 -1.0307
 5475SOL     OW28057   0.563   4.716  13.041 -0.0481  0.7256  0.5251
 5475SOL    HW128058   0.599   4.730  13.128 -1.0105  0.7819  0.9162
 5475SOL    HW228059   0.479   0.023  13.048  0.1755  0.7629  2.8489
 5476SOL     OW28060   4.355   3.115   3.604  0.3233 -0.2880 -0.1597
 5476SOL    HW128061   4.336   3.105   3.697  0.9346  1.9344  0.1985
 5476SOL    HW228062   4.399   3.030   3.598  1.2489  0.1905 -0.1378
 5477SOL     OW28063   3.580   0.876  17.084  0.4031 -0.3026 -0.2412
 5477SOL    HW128064   3.487   0.858  17.076  0.3327  1.0628 -2.5129
 5477SOL    HW228065   3.601   0.858  16.993  0.9585 -0.9055  0.0023
 5478SOL     OW28066   2.106   2.220   1.543 -0.2079  0.2642 -0.0850
 5478SOL    HW128067   2.130   2.308   1.515  1.5262 -0.0533  0.3761
 5478SOL    HW228068   2.049   2.188   1.473 -2.2901 -0.5633  1.9986
 5479SOL     OW28069   2.213   0.621   2.992  0.0164  0.6960 -0.3005
 5479SOL    HW128070   2.298   0.661   2.975  0.4280 -0.6164 -1.3911
 5479SOL    HW228071   2.198   0.676   3.069  0.7166 -1.4352  1.3559
 5480SOL     OW28072   1.117   1.503  12.875  0.3071  0.6913  0.1923
 5480SOL    HW128073   1.066   1.480  12.953  2.5856 -0.4418  1.3438
 5480SOL    HW228074   1.074   1.582  12.842 -2.2712 -0.0539  1.8034
 5481SOL     OW28075   3.884   0.317  14.841 -0.3914  0.5851 -0.2910
 5481SOL    HW128076   3.869   0.351  14.752  0.6472 -0.7087 -0.9664
 5481SOL    HW228077   3.816   0.250  14.851  0.5871 -0.9748 -3.6970
 5482SOL     OW28078   4.458   1.226   3.195  0.7696 -0.2281 -0.2002
 5482SOL    HW128079   4.476   1.193   3.107 -0.8558 -2.1494  0.1792
 5482SOL    HW228080   4.417   1.310   3.174 -0.3859 -1.5126 -3.1411
 5483SOL     OW28081   4.298   2.475  11.752  0.1002  0.0945 -0.4585
 5483SOL    HW128082   4.269   2.481  11.843 -1.0138 -1.4507 -0.7223
 5483SOL    HW228083   4.347   2.557  11.745 -1.0531  0.5770 -2.5908
 5484SOL     OW28084   0.913   4.612   4.386  0.2137  0.2868  0.1501
 5484SOL    HW128085   0.897   4.665   4.308 -0.2653 -0.6165 -0.3654
 5484SOL    HW228086   0.915   4.674   4.459  1.3362  1.3784 -0.8223
 5485SOL     OW28087   0.226   2.235   1.785  0.3198 -0.4000 -0.4455
 5485SOL    HW128088   0.247   2.254   1.694  0.5445 -1.0704 -0.5287
 5485SOL    HW228089   0.132   2.216   1.779  0.2770  0.1275 -1.3569
 5486SOL     OW28090   2.999   4.032  15.440 -0.2035 -0.1572  0.0238
 5486SOL    HW128091   3.082   4.031  15.392 -0.9527 -1.5569 -1.2261
 5486SOL    HW228092   3.030   3.969  15.504 -0.2162  1.3552  1.5241
 5487SOL     OW28093   4.110   2.344  11.978 -0.0784  0.0797  0.0332
 5487SOL    HW128094   4.137   2.299  11.898 -1.2907  0.9205 -0.8380
 5487SOL    HW228095   4.158   2.306  12.052 -0.0015 -1.3590 -0.7565
 5488SOL     OW28096   1.163   0.003   9.708 -0.9729  0.1045  0.3025
 5488SOL    HW128097   1.171   0.016   9.613 -1.6406 -1.3117  0.0501
 5488SOL    HW228098   1.142   0.092   9.736 -1.0173 -0.4928  2.1588
 5489SOL     OW28099   1.343   2.378   5.347 -0.2476  0.3130 -0.7280
 5489SOL    HW128100   1.413   2.330   5.302 -0.6613 -1.1313  0.1671
 5489SOL    HW228101   1.308   2.437   5.280 -0.7068  0.8847  0.0219
 5490SOL     OW28102   1.371   4.324   1.832 -0.2220 -0.0349 -0.8047
 5490SOL    HW128103   1.282   4.357   1.846  0.8270  2.5407 -0.1991
 5490SOL    HW228104   1.363   4.257   1.764 -0.9343  0.3647 -1.1110
 5491SOL     OW28105   1.933   3.989   9.153 -0.0861 -0.2795  0.1178
 5491SOL    HW128106   1.898   3.917   9.207 -1.7267  0.3000 -0.1726
 5491SOL    HW228107   2.011   3.946   9.117  0.4592  1.6859 -1.0483
 5492SOL     OW28108   4.399   0.938   9.424 -1.3294 -0.2314  0.0366
 5492SOL    HW128109   4.339   1.012   9.432 -2.5971 -1.2131 -0.3360
 5492SOL    HW228110   4.485   0.978   9.408 -1.9969  0.9981 -0.4568
 5493SOL     OW28111   1.548   0.461   6.621 -0.6371  0.3717 -0.0406
 5493SOL    HW128112   1.608   0.522   6.665 -1.4572  2.4780 -1.8662
 5493SOL    HW228113   1.558   0.389   6.683 -1.2085  0.6767  0.4062
 5494SOL     OW28114   2.709   0.236  16.098 -0.2899  0.1839 -0.0158
 5494SOL    HW128115   2.747   0.248  16.185 -1.0828  2.9426 -0.0653
 5494SOL    HW228116   2.615   0.238  16.115 -0.5580 -2.4483 -1.1322
 5495SOL     OW28117   0.518   0.400   8.524 -0.4201  0.5582  0.0375
 5495SOL    HW128118   0.598   0.452   8.535  1.1273 -1.8732  0.0907
 5495SOL    HW228119   0.532   0.339   8.452 -1.7206 -1.0408  1.1359
 5496SOL     OW28120   3.584   2.589  17.199  0.4450  0.0250  0.4378
 5496SOL    HW128121   3.606   2.589  17.106 -1.1927 -1.0778  0.0545
 5496SOL    HW228122   3.521   2.659  17.216  1.1658  0.5363  1.0082
 5497SOL     OW28123   1.806   3.630   6.680  0.9357 -0.5344 -0.1550
 5497SOL    HW128124   1.726   3.616   6.731  0.8423 -1.4292 -0.5496
 5497SOL    HW228125   1.766   3.637   6.593  2.6782 -1.4481 -1.0319
 5498SOL     OW28126   4.064   1.074   7.855  0.0417  0.6376 -0.1615
 5498SOL    HW128127   4.104   1.160   7.865 -0.9660  1.0561  0.2937
 5498SOL    HW228128   4.130   1.027   7.805 -1.9328 -1.1133 -1.1174
 5499SOL     OW28129   1.128   4.360  15.595 -0.1146  0.0711  0.2745
 5499SOL    HW128130   1.099   4.397  15.512 -0.1348 -0.4112  0.0678
 5499SOL    HW228131   1.175   4.279  15.574 -3.4702 -1.7405 -0.1627
 5500SOL     OW28132   3.542   1.971  14.788  0.2198  0.1866 -0.4385
 5500SOL    HW128133   3.558   1.922  14.707 -0.9590 -1.0322  0.0610
 5500SOL    HW228134   3.447   1.957  14.797  0.5606 -0.8068  1.6506
 5501SOL     OW28135   0.497   4.222   2.592 -0.3677  0.2871  0.2105
 5501SOL    HW128136   0.450   4.303   2.573 -1.7769 -0.7696 -0.8056
 5501SOL    HW228137   0.445   4.149   2.558 -0.4796  0.7965 -0.6996
 5502SOL     OW28138   0.557   3.726   4.441  0.2894  0.1862 -0.4306
 5502SOL    HW128139   0.642   3.770   4.444 -0.0754  1.0326 -2.3584
 5502SOL    HW228140   0.522   3.779   4.369  0.1088 -1.1714 -1.3458
 5503SOL     OW28141   1.285   4.498   7.154  0.1577 -0.1361  0.0751
 5503SOL    HW128142   1.238   4.516   7.072 -1.4790 -0.9856  0.8272
 5503SOL    HW228143   1.250   4.409   7.161 -1.0722  0.2315 -1.2146
 5504SOL     OW28144   1.956   1.892   7.267  0.1653 -0.1552  0.2408
 5504SOL    HW128145   1.969   1.821   7.330  0.5963 -1.9142 -1.8199
 5504SOL    HW228146   2.041   1.913   7.228  0.2850 -1.0521  0.0217
 5505SOL     OW28147   0.533   3.137   2.780  0.3155 -0.0735 -0.0498
 5505SOL    HW128148   0.494   3.053   2.757 -1.4905  0.4601  1.0301
 5505SOL    HW228149   0.584   3.125   2.860  0.2371 -1.2850 -0.1792
 5506SOL     OW28150   2.787   3.433   6.962 -0.1805  0.0751 -0.4055
 5506SOL    HW128151   2.767   3.499   6.896  1.0053  1.4160  0.5613
 5506SOL    HW228152   2.854   3.380   6.920  1.2838  1.6435 -0.0635
 5507SOL     OW28153   3.350   2.678  14.974 -0.1693 -0.3706  0.3527
 5507SOL    HW128154   3.384   2.697  15.062  0.0569  0.9240 -0.0061
 5507SOL    HW228155   3.281   2.618  14.999 -0.1088 -0.1196  1.1274
 5508SOL     OW28156   1.161   2.030  12.679 -0.5092 -0.1793  0.3663
 5508SOL    HW128157   1.144   2.110  12.630 -2.0010 -0.6245  0.1604
 5508SOL    HW228158   1.254   2.031  12.704 -1.3448 -0.3474  3.5124
 5509SOL     OW28159   3.327   2.923  11.373  0.2520  0.2415  0.7980
 5509SOL    HW128160   3.309   2.989  11.307  2.2252 -0.4050 -0.4048
 5509SOL    HW228161   3.310   2.839  11.330 -2.1836  0.8756  0.5284
 5510SOL     OW28162   4.048   1.758   7.898  0.5615  0.4485 -0.5755
 5510SOL    HW128163   4.104   1.823   7.941  0.7527 -0.4486  0.5311
 5510SOL    HW228164   3.965   1.773   7.943  0.0232 -1.5206 -0.9112
 5511SOL     OW28165   2.776   0.279   5.006  0.2697 -0.0814  0.9078
 5511SOL    HW128166   2.688   0.293   4.971  0.4272 -0.8268  0.2136
 5511SOL    HW228167   2.836   0.303   4.935 -2.0843  1.5607 -0.5402
 5512SOL     OW28168   3.297   4.714   9.965  0.0144 -0.1869  0.7891
 5512SOL    HW128169   3.323   0.050   9.909 -3.4602 -0.8477 -1.6683
 5512SOL    HW228170   3.345   4.638   9.931 -2.2966 -1.0036 -0.6234
 5513SOL     OW28171   2.490   2.654  16.010 -0.2388 -0.6357 -0.2014
 5513SOL    HW128172   2.430   2.689  16.076 -1.4929  0.9301 -2.1905
 5513SOL    HW228173   2.534   2.735  15.983  0.8695 -0.5784  1.7281
 5514SOL     OW28174   1.270   2.468   1.742 -0.4603 -0.5259 -0.0578
 5514SOL    HW128175   1.252   2.462   1.836  0.3941  2.7502  0.3011
 5514SOL    HW228176   1.365   2.460   1.742 -0.2694  1.7580 -0.0994
 5515SOL     OW28177   1.753   1.037   4.468  0.2535  0.5342 -0.1587
 5515SOL    HW128178   1.807   0.975   4.419  1.4261 -0.1798  1.9838
 5515SOL    HW228179   1.751   0.980   4.545  1.7066  2.2784  1.1859
 5516SOL     OW28180   1.575   3.115  17.360 -0.4903  0.6877 -0.5731
 5516SOL    HW128181   1.645   3.158  17.312 -1.7289  2.1462 -1.0668
 5516SOL    HW228182   1.566   3.180  17.429 -0.5677  2.7175 -2.4931
 5517SOL     OW28183   2.798   3.456   4.779  0.5440 -0.4307  0.2305
 5517SOL    HW128184   2.834   3.544   4.767 -0.9435  0.1863  0.2461
 5517SOL    HW228185   2.795   3.441   4.684  4.5559  0.8648 -0.1130
 5518SOL     OW28186   1.642   1.586   1.078  0.6816  0.4259 -0.1422
 5518SOL    HW128187   1.734   1.612   1.086  0.1562  2.2608 -0.0515
 5518SOL    HW228188   1.650   1.497   1.111 -0.1307  0.6486  0.6535
 5519SOL     OW28189   0.250   0.503   6.582  0.5400 -0.9937  0.0601
 5519SOL    HW128190   0.323   0.511   6.644  0.5926 -1.0923  0.0110
 5519SOL    HW228191   0.175   0.490   6.641  0.6918  0.5523  0.5929
 5520SOL     OW28192   1.894   4.622   0.757  0.3482  0.1849 -0.2109
 5520SOL    HW128193   1.898   4.590   0.847 -0.3363  1.5182  0.2795
 5520SOL    HW228194   1.864   4.706   0.790 -1.2933  1.2083 -4.3122
 5521SOL     OW28195   0.531   2.834   4.571  0.6919  0.0987  0.3774
 5521SOL    HW128196   0.497   2.900   4.511  1.5126  0.9023  0.7940
 5521SOL    HW228197   0.535   2.887   4.651 -0.0327 -2.4835  2.1391
 5522SOL     OW28198   2.908   3.768   2.456 -0.1524 -0.0710 -0.2134
 5522SOL    HW128199   2.856   3.840   2.490  0.4847  1.2320 -2.0132
 5522SOL    HW228200   2.859   3.740   2.378 -1.1985  2.3574 -0.4229
 5523SOL     OW28201   3.545   2.579   8.093  0.5537 -0.1532  0.2170
 5523SOL    HW128202   3.591   2.517   8.151  1.0855 -0.1820 -0.2393
 5523SOL    HW228203   3.480   2.630   8.141 -1.0663 -1.4371 -0.6155
 5524SOL     OW28204   0.663   1.935  15.996  0.2074 -0.2200  0.1478
 5524SOL    HW128205   0.723   1.959  16.066  0.3284 -3.0503  1.0244
 5524SOL    HW228206   0.659   2.026  15.966 -2.4373 -0.9348 -1.6598
 5525SOL     OW28207   1.943   1.386   6.695  0.1624  0.5451  0.3549
 5525SOL    HW128208   1.915   1.296   6.682  0.5835  0.3091  1.0814
 5525SOL    HW228209   2.030   1.380   6.658 -1.1424  0.4196 -2.6633
 5526SOL     OW28210   3.661   1.677   5.222 -0.2072 -0.7933 -0.3037
 5526SOL    HW128211   3.696   1.716   5.302  0.2708 -0.3153 -0.7469
 5526SOL    HW228212   3.665   1.582   5.237 -1.1236 -1.0052 -1.3731
 5527SOL     OW28213   2.503   1.520   0.488 -0.7091 -0.0687 -0.1133
 5527SOL    HW128214   2.487   1.464   0.565 -0.1139  0.9916  0.7769
 5527SOL    HW228215   2.415   1.554   0.474 -0.2453  0.5323 -1.4895
 5528SOL     OW28216   1.797   0.848  14.980  1.0521 -0.1835 -0.5103
 5528SOL    HW128217   1.791   0.935  15.019 -0.4123  0.0646 -1.3078
 5528SOL    HW228218   1.856   0.801  15.039 -0.1776  1.8478  2.3085
 5529SOL     OW28219   4.197   3.759   4.318 -0.0914  0.1757  0.6240
 5529SOL    HW128220   4.292   3.768   4.304 -0.4824  1.7767 -1.0016
 5529SOL    HW228221   4.168   3.830   4.261  0.6767 -0.2770 -0.3367
 5530SOL     OW28222   3.887   1.303   7.525  0.2305  0.0776  0.8711
 5530SOL    HW128223   3.978   1.292   7.553  0.3489  0.2486  0.5559
 5530SOL    HW228224   3.869   1.211   7.507 -0.8050 -0.2097  3.3929
 5531SOL     OW28225   1.784   0.371   1.330  0.5042  0.4632 -0.0257
 5531SOL    HW128226   1.741   0.456   1.335  0.3957  0.4823 -1.2394
 5531SOL    HW228227   1.834   0.386   1.411  1.2673 -0.8433 -0.2570
 5532SOL     OW28228   3.585   3.628  16.920  0.4949  0.0014 -0.5944
 5532SOL    HW128229   3.519   3.563  16.899 -0.2853 -0.1327  2.3949
 5532SOL    HW228230   3.663   3.595  16.875  2.8979  1.9384  2.1259
 5533SOL     OW28231   0.250   1.607   6.018  0.3950 -0.1524 -0.4980
 5533SOL    HW128232   0.298   1.688   6.038 -0.7436  0.9111 -2.0532
 5533SOL    HW228233   0.222   1.581   6.106 -0.2628  0.8564 -0.4093
 5534SOL     OW28234   1.306   3.608   4.994  0.0501  0.5656 -0.1222
 5534SOL    HW128235   1.376   3.590   5.057 -0.7302  1.7305  1.0584
 5534SOL    HW228236   1.290   3.517   4.971  0.9277  0.2399  0.5525
 5535SOL     OW28237   1.191   2.709  13.907  0.5507  0.2860 -0.4800
 5535SOL    HW128238   1.128   2.653  13.954 -0.3125  0.1355 -1.8156
 5535SOL    HW228239   1.277   2.681  13.938 -0.7309 -1.8757  1.2120
 5536SOL     OW28240   0.479   3.464   1.028 -0.0702  0.0455  0.0652
 5536SOL    HW128241   0.508   3.423   1.109  0.7573 -0.3410 -0.4310
 5536SOL    HW228242   0.533   3.403   0.978 -1.2282 -0.5929 -0.4199
 5537SOL     OW28243   1.996   3.232  15.734 -0.0900 -0.6375  0.0960
 5537SOL    HW128244   1.906   3.232  15.700  0.0213 -0.1128 -0.2220
 5537SOL    HW228245   1.991   3.161  15.797  1.9741 -0.9582 -0.1035
 5538SOL     OW28246   1.055   2.488   2.400 -0.0447 -0.5798 -0.5550
 5538SOL    HW128247   1.071   2.394   2.399  1.4988 -0.3153 -0.9223
 5538SOL    HW228248   1.046   2.497   2.495  0.3498 -0.6721 -0.5107
 5539SOL     OW28249   4.103   1.698   2.095  0.2316 -0.3305 -0.2558
 5539SOL    HW128250   4.187   1.659   2.074  0.4028  0.4611 -1.0621
 5539SOL    HW228251   4.097   1.767   2.028  0.9873  0.7376  0.7650
 5540SOL     OW28252   2.883   3.217   4.210  0.1913  0.3696  0.1879
 5540SOL    HW128253   2.795   3.197   4.177 -0.0079  1.0566  0.3068
 5540SOL    HW228254   2.878   3.310   4.230  0.4161  0.3995  0.0962
 5541SOL     OW28255   1.910   2.904   4.658 -0.0987  0.0276  0.0620
 5541SOL    HW128256   1.836   2.949   4.618 -0.9647 -2.0850 -0.6985
 5541SOL    HW228257   1.883   2.931   4.746 -0.8962 -2.2545  0.5306
 5542SOL     OW28258   1.426   2.780   4.219  0.1021  0.4462  0.5870
 5542SOL    HW128259   1.408   2.686   4.223 -1.9052  0.7379 -1.0052
 5542SOL    HW228260   1.480   2.805   4.293  0.8139  1.0061 -0.1208
 5543SOL     OW28261   1.796   4.010   3.835 -0.0469 -0.2925 -0.2358
 5543SOL    HW128262   1.886   3.979   3.827  0.1454 -0.1489  1.4327
 5543SOL    HW228263   1.759   3.975   3.754 -0.4851 -1.5005  0.4863
 5544SOL     OW28264   3.136   2.425   8.014 -0.4244  0.0086 -0.4277
 5544SOL    HW128265   3.161   2.369   8.088 -0.9307  0.7648  0.3170
 5544SOL    HW228266   3.222   2.448   7.978 -1.2188  1.1303 -1.5807
 5545SOL     OW28267   0.710   2.254   4.353  0.4621 -0.0218  0.2747
 5545SOL    HW128268   0.773   2.316   4.390 -0.7185  0.4931  1.4130
 5545SOL    HW228269   0.626   2.300   4.354 -0.0442 -0.8874 -2.6882
 5546SOL     OW28270   0.771   0.856  13.230 -0.1893  0.3894 -0.2691
 5546SOL    HW128271   0.716   0.906  13.291 -2.3259 -1.3253 -0.7896
 5546SOL    HW228272   0.848   0.913  13.240 -0.8825  1.1113  0.9950
 5547SOL     OW28273   1.263   1.827   8.557  0.1690 -0.0131  0.1702
 5547SOL    HW128274   1.328   1.757   8.551  1.3901  1.0604  1.0693
 5547SOL    HW228275   1.185   1.771   8.560  0.7156 -0.7281  1.0306
 5548SOL     OW28276   0.792   0.579   0.297  0.2995  0.2110  0.4182
 5548SOL    HW128277   0.740   0.589   0.217  0.4620 -0.7529  0.1881
 5548SOL    HW228278   0.764   0.657   0.344  0.6369  1.2105 -1.0590
 5549SOL     OW28279   1.212   1.296   1.900  0.0737  0.0835 -0.3918
 5549SOL    HW128280   1.164   1.326   1.823 -0.2089 -0.7972 -0.5632
 5549SOL    HW228281   1.294   1.344   1.892 -0.3636  1.1666  1.5273
 5550SOL     OW28282   1.910   0.320   6.461  0.5190  0.2630 -0.0948
 5550SOL    HW128283   1.827   0.354   6.426 -0.1559 -0.3933  0.8720
 5550SOL    HW228284   1.873   0.275   6.536 -1.0179  2.3909  0.4453
 5551SOL     OW28285   4.459   2.449   0.063  0.1645 -0.1716 -0.8948
 5551SOL    HW128286   4.424   2.411   0.143  1.7652 -1.4558 -0.7968
 5551SOL    HW228287   4.384   2.474   0.010  0.3460  1.8248 -0.2196
 5552SOL     OW28288   1.765   0.179   8.085  1.0992 -0.0522 -0.5475
 5552SOL    HW128289   1.688   0.220   8.126  0.0865 -0.7697 -1.7479
 5552SOL    HW228290   1.730   0.150   8.001 -0.8015  1.8638 -0.4295
 5553SOL     OW28291   3.534   4.172   6.869 -0.7201  0.3402 -0.2366
 5553SOL    HW128292   3.546   4.247   6.811  2.4557 -0.7306 -0.9790
 5553SOL    HW228293   3.567   4.105   6.809  1.1830 -0.2125  1.4101
 5554SOL     OW28294   2.353   2.550   4.321  0.1488  0.0274  0.2390
 5554SOL    HW128295   2.390   2.462   4.329  1.7290  0.6787  0.2849
 5554SOL    HW228296   2.404   2.583   4.395 -1.3238  1.7618  0.4625
 5555SOL     OW28297   0.732   4.651   4.883 -0.0238  0.1079  0.2440
 5555SOL    HW128298   0.788   4.673   4.958 -1.3016  1.4638  0.7926
 5555SOL    HW228299   0.795   4.674   4.814  0.3795 -1.8055 -0.0429
 5556SOL     OW28300   2.415   0.697  10.142 -0.1037 -0.1726  0.4718
 5556SOL    HW128301   2.335   0.714  10.091  0.8290 -2.2731 -1.6930
 5556SOL    HW228302   2.423   0.783  10.184  0.8132 -0.5053  0.9759
 5557SOL     OW28303   0.140   0.409   3.890  0.2469  0.2249 -0.0673
 5557SOL    HW128304   0.091   0.327   3.898 -1.0567  1.1376  1.3312
 5557SOL    HW228305   0.077   0.468   3.932  1.9769  0.8050  1.7353
 5558SOL     OW28306   4.475   3.663   3.975  0.3048  0.0038  0.1441
 5558SOL    HW128307   4.390   3.701   3.955  0.4421  0.3398  0.1878
 5558SOL    HW228308   4.474   3.605   3.899 -0.6161 -2.4838  2.0617
 5559SOL     OW28309   0.609   0.655   8.068  0.1410 -0.0112 -0.5951
 5559SOL    HW128310   0.608   0.654   8.164  0.5652  0.3851 -0.5859
 5559SOL    HW228311   0.523   0.691   8.049  0.0077 -0.9972 -1.7873
 5560SOL     OW28312   2.259   1.974   4.111 -0.3799  0.0673  0.0483
 5560SOL    HW128313   2.164   1.988   4.113 -0.4927 -0.8847  1.1303
 5560SOL    HW228314   2.256   1.901   4.049  0.3573 -2.0849  2.5140
 5561SOL     OW28315   2.546   1.971   8.238 -0.3274  0.2143  0.0162
 5561SOL    HW128316   2.556   2.059   8.274 -1.4847  0.7762 -1.0127
 5561SOL    HW228317   2.450   1.972   8.234 -0.2985 -1.1788 -1.2306
 5562SOL     OW28318   4.079   0.185   6.791  0.6148 -0.0672  0.6047
 5562SOL    HW128319   4.108   0.099   6.822 -0.0447  0.0648  1.5971
 5562SOL    HW228320   3.987   0.186   6.819  0.1822  2.0331 -0.9104
 5563SOL     OW28321   3.701   3.427   7.711 -0.1427  0.3620  0.0117
 5563SOL    HW128322   3.659   3.341   7.705  2.9617 -1.1502  0.1728
 5563SOL    HW228323   3.695   3.435   7.807  1.1369 -1.7938  0.2721
 5564SOL     OW28324   4.444   0.869   8.566  0.2599 -0.2152  0.5453
 5564SOL    HW128325   4.406   0.924   8.498  0.1425 -1.2316 -0.2186
 5564SOL    HW228326   4.513   0.811   8.532 -0.5804 -1.7742  1.4697
 5565SOL     OW28327   1.786   1.927   8.441  0.1091 -0.7219  0.4494
 5565SOL    HW128328   1.806   1.858   8.503  2.6524  0.5293  1.0107
 5565SOL    HW228329   1.727   1.889   8.375 -1.6284  1.4469  0.7404
 5566SOL     OW28330   3.666   0.115   5.354  0.0401  0.0231 -0.3605
 5566SOL    HW128331   3.726   0.043   5.372 -1.7395 -1.5616 -0.7112
 5566SOL    HW228332   3.598   0.071   5.303 -1.1838  1.1454  0.2909
 5567SOL     OW28333   0.902   3.628   2.384 -0.1439  0.0727  0.2517
 5567SOL    HW128334   0.899   3.642   2.290  1.3833  1.6501  0.4303
 5567SOL    HW228335   0.810   3.654   2.391  0.2270  1.3791  0.2434
 5568SOL     OW28336   2.837   2.747   7.491 -0.0004  0.4158  0.1974
 5568SOL    HW128337   2.780   2.704   7.555 -0.4211 -1.2361 -1.3015
 5568SOL    HW228338   2.812   2.839   7.487 -1.8484 -0.0482  0.9891
 5569SOL     OW28339   0.369   4.193   5.164  0.0739  0.4567  0.3070
 5569SOL    HW128340   0.411   4.123   5.115  2.7516  1.1751  1.5505
 5569SOL    HW228341   0.294   4.201   5.106  0.2906 -0.8454 -0.1593
 5570SOL     OW28342   2.633   3.627  12.798  0.5610  0.2040  1.0885
 5570SOL    HW128343   2.693   3.603  12.869  1.0977 -1.5114  0.0542
 5570SOL    HW228344   2.548   3.644  12.839  1.1155 -1.3084  2.8266
 5571SOL     OW28345   3.472   1.159   2.828 -0.4702  0.1520  0.5844
 5571SOL    HW128346   3.540   1.099   2.861  0.8781  1.0050 -0.6821
 5571SOL    HW228347   3.510   1.163   2.741 -0.7136  1.6036  0.5503
 5572SOL     OW28348   1.179   3.990   1.880  0.2369  0.2773  0.0291
 5572SOL    HW128349   1.148   3.908   1.917 -1.9435  0.9347 -0.3631
 5572SOL    HW228350   1.108   4.051   1.898  0.6642  0.9170 -0.4456
 5573SOL     OW28351   1.528   2.260   7.090  0.0008 -0.0412 -0.3200
 5573SOL    HW128352   1.614   2.300   7.105  0.4094 -0.7289 -0.8448
 5573SOL    HW228353   1.543   2.218   7.005 -1.8711  1.2402 -1.2824
 5574SOL     OW28354   3.664   1.569   0.708  0.1405  0.4950 -0.4318
 5574SOL    HW128355   3.574   1.596   0.726  0.2780  0.1558  0.7769
 5574SOL    HW228356   3.673   1.612   0.624 -0.7882  1.5084 -0.0028
 5575SOL     OW28357   4.690   1.495   2.862 -0.1554  0.4624 -0.4554
 5575SOL    HW128358   4.724   1.515   2.775  1.2189 -1.2573 -0.2827
 5575SOL    HW228359   4.597   1.515   2.847 -1.2562 -3.9843  0.6807
 5576SOL     OW28360   2.178   1.115   1.654  0.1883 -0.3640 -0.3636
 5576SOL    HW128361   2.163   1.134   1.561 -1.4771 -0.3165 -0.0787
 5576SOL    HW228362   2.273   1.103   1.652  0.6324  3.0446 -1.1559
 5577SOL     OW28363   3.540   3.043   1.755 -0.6164 -0.4047  0.2134
 5577SOL    HW128364   3.543   3.051   1.851 -1.5394 -3.5790  0.4973
 5577SOL    HW228365   3.621   3.084   1.725 -0.6864  0.9450  1.8670
 5578SOL     OW28366   0.650   4.727   2.052  0.2199 -0.3216  0.2416
 5578SOL    HW128367   0.675   0.069   2.005  2.2783 -0.1787  1.5931
 5578SOL    HW228368   0.556   4.723   2.033  0.2984 -0.0890 -0.1838
 5579SOL     OW28369   1.325   0.120   2.744  0.0326 -0.4988 -0.0746
 5579SOL    HW128370   1.391   0.175   2.702  0.9766 -0.9978  0.7515
 5579SOL    HW228371   1.240   0.161   2.728 -1.5347 -3.6686  0.0486
 5580SOL     OW28372   3.376   0.104   6.524  0.0405  0.5714  1.0201
 5580SOL    HW128373   3.468   0.078   6.530 -0.3314 -1.2598 -1.0112
 5580SOL    HW228374   3.342   0.035   6.582 -0.0128 -1.1159 -1.0011
 5581SOL     OW28375   1.277   0.452   2.800  0.0987  0.8176  0.2213
 5581SOL    HW128376   1.220   0.375   2.795 -0.9748  1.5558  1.4017
 5581SOL    HW228377   1.243   0.495   2.878  0.9194  0.3960  0.8140
 5582SOL     OW28378   0.322   0.703   7.108 -0.6437  0.1074  0.4708
 5582SOL    HW128379   0.391   0.711   7.042 -0.6982  0.7066  0.4773
 5582SOL    HW228380   0.270   0.782   7.091 -0.6478  0.2326  1.0635
 5583SOL     OW28381   3.195   1.676   4.299  0.0244 -0.2584  0.1950
 5583SOL    HW128382   3.184   1.614   4.371 -1.1001 -0.8732 -0.4849
 5583SOL    HW228383   3.167   1.757   4.341  1.3019  1.6463 -2.6023
 5584SOL     OW28384   1.641   2.184   8.235  0.0516  0.0884 -0.1912
 5584SOL    HW128385   1.633   2.142   8.149 -1.2939  0.2893 -0.1644
 5584SOL    HW228386   1.596   2.115   8.282  1.9901 -1.2525 -0.2946
 5585SOL     OW28387   0.224   0.948  10.216  0.1857 -0.7589 -0.4123
 5585SOL    HW128388   0.139   0.915  10.185  0.2656 -1.4726  0.1366
 5585SOL    HW228389   0.240   0.904  10.300  1.7308 -0.7052 -0.6842
 5586SOL     OW28390   4.515   2.535   3.930  0.2271  0.6070 -0.3188
 5586SOL    HW128391   4.530   2.574   4.016  1.2515  1.6522 -0.9741
 5586SOL    HW228392   4.419   2.527   3.925  0.0091  2.2665  1.5721
 5587SOL     OW28393   1.525   0.805   4.635  0.4935 -0.0507 -0.1302
 5587SOL    HW128394   1.501   0.713   4.646  0.1809 -0.1299 -1.4501
 5587SOL    HW228395   1.439   0.828   4.599  0.8912  0.9584 -0.4170
 5588SOL     OW28396   4.728   0.496   8.285 -0.7321  0.2544 -0.2737
 5588SOL    HW128397   0.018   0.404   8.291 -0.7643  0.3953  1.8481
 5588SOL    HW228398   4.661   0.481   8.219 -1.4225 -2.0465  0.9264
 5589SOL     OW28399   1.140   4.723  12.142  0.3757 -0.3646  0.3713
 5589SOL    HW128400   1.167   4.664  12.212 -1.2588  0.7287  1.9116
 5589SOL    HW228401   1.203   0.055  12.158  0.8052  0.1248 -3.4988
 5590SOL     OW28402   0.921   3.659   1.022  0.1137  0.2381  0.1600
 5590SOL    HW128403   0.888   3.734   0.973  2.4486 -0.1903 -2.0734
 5590SOL    HW228404   1.011   3.682   1.045 -0.0806 -0.3413  1.4922
 5591SOL     OW28405   2.270   4.345   9.479 -0.1143 -0.7293  0.1142
 5591SOL    HW128406   2.279   4.262   9.525 -1.5353 -1.1735 -0.4134
 5591SOL    HW228407   2.179   4.371   9.491  1.0060  3.5752 -0.6542
 5592SOL     OW28408   1.154   0.497  13.861  0.4559 -0.3497 -0.2625
 5592SOL    HW128409   1.160   0.403  13.841  0.0480 -0.3920 -0.1937
 5592SOL    HW228410   1.239   0.517  13.900  0.3000 -0.5339  0.1761
 5593SOL     OW28411   0.428   1.861   9.138 -0.3887 -0.7820 -0.9355
 5593SOL    HW128412   0.521   1.865   9.161 -0.8021 -1.2132  0.8371
 5593SOL    HW228413   0.399   1.867   9.229 -1.2857 -2.2276 -1.1258
 5594SOL     OW28414   1.429   1.030   8.052 -0.3459 -0.5912 -0.0945
 5594SOL    HW128415   1.334   1.035   8.060 -0.4030  1.7768 -2.2376
 5594SOL    HW228416   1.447   1.077   7.971 -0.6483 -0.4845 -0.0999
 5595SOL     OW28417   0.661   2.879   8.560 -0.0444  0.3965  0.1256
 5595SOL    HW128418   0.665   2.910   8.470 -1.8465  0.8926  0.2280
 5595SOL    HW228419   0.708   2.949   8.604  1.1143 -2.2990  3.2013
 5596SOL     OW28420   3.558   4.394   5.363  0.4395 -0.9882  0.2002
 5596SOL    HW128421   3.589   4.331   5.299 -0.0318 -0.3166 -0.6863
 5596SOL    HW228422   3.570   4.340   5.441  0.3034 -1.0911  0.1488
 5597SOL     OW28423   4.180   4.516   5.807 -0.4829 -0.6473 -0.4765
 5597SOL    HW128424   4.125   4.483   5.736  0.1456 -2.2486 -0.1960
 5597SOL    HW228425   4.262   4.533   5.761 -0.6561  0.2765 -0.4585
 5598SOL     OW28426   3.910   4.447   8.506 -0.6031 -0.3967  0.3257
 5598SOL    HW128427   3.893   4.537   8.480  2.0842 -0.1495 -0.5925
 5598SOL    HW228428   3.928   4.449   8.600 -1.4433 -0.5071  0.4967
 5599SOL     OW28429   2.925   4.386  16.531 -0.2388 -0.2753  0.0701
 5599SOL    HW128430   2.932   4.309  16.474  0.8329  1.2952 -1.9275
 5599SOL    HW228431   2.883   4.335  16.600 -0.8310  0.4746  0.2639
 5600SOL     OW28432   1.593   1.489  16.904 -0.5314 -0.3288 -0.1756
 5600SOL    HW128433   1.675   1.510  16.950 -1.4090  0.3637  1.0577
 5600SOL    HW228434   1.598   1.542  16.825  1.6960  1.3036  1.0566
 5601SOL     OW28435   4.035   2.425  16.822  0.5542 -0.2263  0.0602
 5601SOL    HW128436   4.123   2.409  16.789  0.6601  1.4913 -0.5063
 5601SOL    HW228437   3.996   2.427  16.735  1.1242 -1.5420 -0.2285
 5602SOL     OW28438   2.845   4.344  17.065  0.3427 -0.7492 -0.2768
 5602SOL    HW128439   2.930   4.387  17.068 -1.0979  1.9810  1.9747
 5602SOL    HW228440   2.788   4.415  17.094  0.2379 -1.9286  2.4396
 5603SOL     OW28441   3.982   2.315   2.730 -0.1271  0.4829  0.2595
 5603SOL    HW128442   4.070   2.300   2.695 -1.5276  1.0960 -3.5555
 5603SOL    HW228443   3.988   2.392   2.788  1.1035  0.5272  0.0836
 5604SOL     OW28444   3.423   0.640   4.613 -0.0008  0.3852  0.4601
 5604SOL    HW128445   3.486   0.648   4.542  1.1562 -1.0747  1.3278
 5604SOL    HW228446   3.407   0.733   4.627 -0.3925  0.4927 -0.6590
 5605SOL     OW28447   2.978   3.827   5.502  0.1633 -0.0395  0.3848
 5605SOL    HW128448   2.995   3.920   5.485 -0.7706 -0.3515 -2.2552
 5605SOL    HW228449   3.031   3.811   5.580  2.3514  0.4808 -0.9843
 5606SOL     OW28450   1.766   3.241   2.521 -0.1351 -0.2348  0.0264
 5606SOL    HW128451   1.812   3.324   2.508  0.2237 -0.8117 -2.3424
 5606SOL    HW228452   1.743   3.221   2.430  0.9989  1.2815 -0.6050
 5607SOL     OW28453   4.643   0.589   3.945 -0.5687 -0.2191 -0.3348
 5607SOL    HW128454   4.569   0.539   3.911 -0.8603 -1.8726  2.7285
 5607SOL    HW228455   4.606   0.672   3.976  1.5515  0.0661  1.5066
 5608SOL     OW28456   0.561   0.785  11.033  0.5531  0.0100 -0.3290
 5608SOL    HW128457   0.537   0.769  11.124  1.1404  0.2569 -0.1330
 5608SOL    HW228458   0.643   0.737  11.028  0.7777  0.0983  2.8768
 5609SOL     OW28459   3.822   2.750   3.004 -0.2564 -0.9024 -0.7364
 5609SOL    HW128460   3.756   2.820   3.004  1.2796  0.5479  0.1327
 5609SOL    HW228461   3.835   2.733   2.910  2.1270 -3.1734  0.0255
 5610SOL     OW28462   2.567   1.369   8.891  0.0811  0.3289  0.1217
 5610SOL    HW128463   2.504   1.321   8.945  0.4865 -1.7426 -1.2465
 5610SOL    HW228464   2.646   1.316   8.898 -0.7662 -1.3257 -2.9507
 5611SOL     OW28465   1.759   0.852   7.863  0.5505 -0.4553  0.0765
 5611SOL    HW128466   1.807   0.813   7.935  3.3543  2.0992 -0.3999
 5611SOL    HW228467   1.777   0.946   7.863  0.7779 -0.4951 -1.0317
 5612SOL     OW28468   3.598   1.527  13.725  0.0274  0.0911 -0.0564
 5612SOL    HW128469   3.637   1.546  13.810 -2.4938 -0.8480  1.3094
 5612SOL    HW228470   3.663   1.528  13.655 -1.4625 -0.6594 -1.4536
 5613SOL     OW28471   3.199   4.278  10.857  0.1396 -0.2508  0.0708
 5613SOL    HW128472   3.263   4.271  10.786 -1.2978  0.0938 -1.2545
 5613SOL    HW228473   3.264   4.256  10.924 -1.0500 -1.6177  0.7756
 5614SOL     OW28474   0.582   0.702   2.505 -0.6628  0.3904 -0.2935
 5614SOL    HW128475   0.530   0.775   2.536  1.3902  2.2679 -1.2347
 5614SOL    HW228476   0.535   0.695   2.421  0.6925  0.4701 -1.0594
 5615SOL     OW28477   2.332   4.582   0.038  0.3988  0.1280 -0.1109
 5615SOL    HW128478   2.320   4.673   0.065 -1.8779  0.4569 -2.2640
 5615SOL    HW228479   2.323   4.548   0.127 -0.3493 -2.5656 -1.2102
 5616SOL     OW28480   2.258   1.910   3.599  0.1825 -0.1841 -0.1066
 5616SOL    HW128481   2.233   1.831   3.647  0.2059  0.3636  0.8149
 5616SOL    HW228482   2.351   1.900   3.618 -0.0980 -1.6910  0.5361
 5617SOL     OW28483   0.390   1.918   0.980 -0.1150  0.1608 -0.2653
 5617SOL    HW128484   0.306   1.912   1.027  0.2884 -0.3045  0.3853
 5617SOL    HW228485   0.378   1.841   0.924  1.0338 -1.0167  1.0976
 5618SOL     OW28486   1.762   4.160   0.860 -0.3963 -0.6237  0.5755
 5618SOL    HW128487   1.825   4.108   0.910 -1.3884 -1.2453  1.1584
 5618SOL    HW228488   1.696   4.153   0.928  0.7201 -0.4939  1.6789
 5619SOL     OW28489   1.527   0.923   5.400 -0.0892 -0.6414  0.0274
 5619SOL    HW128490   1.544   0.831   5.421  1.0439 -0.1483  1.3192
 5619SOL    HW228491   1.437   0.914   5.372 -0.4868 -0.4799  1.2376
 5620SOL     OW28492   1.911   4.622   0.019  0.1545  0.6733  0.3692
 5620SOL    HW128493   1.996   4.578   0.019  1.1824  2.7021  0.8861
 5620SOL    HW228494   1.901   4.616   0.114 -1.8987 -1.5560  0.0159
 5621SOL     OW28495   2.887   3.323   1.610 -0.4959  0.8184  0.0224
 5621SOL    HW128496   2.927   3.368   1.535  1.7001 -0.7324  0.2485
 5621SOL    HW228497   2.843   3.394   1.655  2.4734  1.3977  1.9871
 5622SOL     OW28498   4.100   1.616  14.276 -0.1583  0.1518  0.3153
 5622SOL    HW128499   4.099   1.542  14.337 -1.1086 -0.5803 -0.5781
 5622SOL    HW228500   4.095   1.692  14.334 -0.3221  0.2677  0.1469
 5623SOL     OW28501   0.263   3.963   3.131 -0.6521 -0.6881 -0.0791
 5623SOL    HW128502   0.271   3.870   3.151  0.8319 -0.4407  0.4059
 5623SOL    HW228503   0.177   3.988   3.165 -0.8499 -1.8443  0.2839
 5624SOL     OW28504   3.350   2.468   6.356  0.3253  0.5040  0.4951
 5624SOL    HW128505   3.350   2.445   6.263  1.4519  1.1229  0.3386
 5624SOL    HW228506   3.283   2.536   6.361  1.3465  1.5231  0.0741
 5625SOL     OW28507   0.695   3.875  12.844 -0.0858  0.3576 -0.1985
 5625SOL    HW128508   0.673   3.919  12.927  1.9995  0.1482  0.4572
 5625SOL    HW228509   0.708   3.785  12.873 -0.9017 -0.2797 -1.8391
 5626SOL     OW28510   3.238   3.503   9.830  0.3075 -0.0073  0.0344
 5626SOL    HW128511   3.234   3.584   9.880  3.2742 -0.9732  1.7941
 5626SOL    HW228512   3.306   3.518   9.764 -1.1942  0.8902 -1.3277
 5627SOL     OW28513   0.676   4.617   3.689 -0.4787  0.0134 -0.7500
 5627SOL    HW128514   0.618   4.678   3.643  0.7823  0.8820 -1.2031
 5627SOL    HW228515   0.614   4.550   3.717 -0.7914 -0.4963 -2.6856
 5628SOL     OW28516   2.994   1.413   8.109  0.6464  0.2069  0.7353
 5628SOL    HW128517   2.904   1.434   8.083  0.7388  0.5233  0.6842
 5628SOL    HW228518   3.045   1.482   8.068 -1.4413  0.4692 -1.4524
 5629SOL     OW28519   2.638   2.913  17.072  0.1601  0.2529  0.1196
 5629SOL    HW128520   2.574   2.982  17.056  0.1949  0.0562 -0.8281
 5629SOL    HW228521   2.639   2.911  17.168  2.5978  1.9185  0.1469
 5630SOL     OW28522   1.445   2.378   2.084 -0.1053 -0.1883  0.3067
 5630SOL    HW128523   1.360   2.400   2.045 -0.2474  2.6931  2.2914
 5630SOL    HW228524   1.467   2.303   2.028 -1.3838 -1.8770  2.0718
 5631SOL     OW28525   1.357   0.906  13.368 -0.3894 -0.0909  0.0564
 5631SOL    HW128526   1.264   0.884  13.376 -0.1661 -0.9431  0.1958
 5631SOL    HW228527   1.397   0.873  13.448 -0.8206 -0.5819  0.0646
 5632SOL     OW28528   3.824   2.581   6.186  0.4571  0.1451 -0.5490
 5632SOL    HW128529   3.773   2.529   6.247 -0.1001  0.6539 -0.5815
 5632SOL    HW228530   3.790   2.568   6.097 -1.0314  0.5844 -0.0400
 5633SOL     OW28531   3.778   1.460   3.128  0.0891 -0.3104 -0.1926
 5633SOL    HW128532   3.834   1.516   3.074  0.2110  0.7865  1.0678
 5633SOL    HW228533   3.745   1.409   3.054 -3.7168  1.3420  0.4163
 5634SOL     OW28534   1.346   1.500   3.838  0.4305 -0.4949  0.3608
 5634SOL    HW128535   1.413   1.439   3.809 -0.1782 -0.4173 -1.1822
 5634SOL    HW228536   1.298   1.512   3.756  1.2400  2.4864  0.3352
 5635SOL     OW28537   3.328   2.650   9.069 -0.1751 -0.2607  0.3987
 5635SOL    HW128538   3.236   2.667   9.050  0.5987  1.6358 -1.5988
 5635SOL    HW228539   3.323   2.583   9.138  0.7712 -0.1253  0.5988
 5636SOL     OW28540   4.466   1.805   4.090  0.0522 -0.4368 -0.1969
 5636SOL    HW128541   4.541   1.791   4.148  0.1860 -1.7330 -0.6754
 5636SOL    HW228542   4.425   1.719   4.106 -0.3699 -0.3208 -0.6654
 5637SOL     OW28543   3.271   3.694   3.428  0.4801 -0.1021  0.2645
 5637SOL    HW128544   3.278   3.609   3.384  0.8362 -0.5764  1.2399
 5637SOL    HW228545   3.286   3.761   3.362 -2.8661 -2.0971 -2.5347
 5638SOL     OW28546   0.763   4.016  15.888 -0.3133  0.3863  1.0566
 5638SOL    HW128547   0.758   3.922  15.903 -2.9239 -0.1377 -2.9829
 5638SOL    HW228548   0.731   4.044  15.973 -1.0873 -0.9402  1.1933
 5639SOL     OW28549   0.826   2.703   1.978 -0.5055 -0.0148 -0.0062
 5639SOL    HW128550   0.870   2.689   1.894 -1.0947 -4.8210  0.4809
 5639SOL    HW228551   0.876   2.652   2.041 -1.6761  0.7088  1.5028
 5640SOL     OW28552   1.157   0.156   4.575  0.2158  0.0578  0.4013
 5640SOL    HW128553   1.246   0.121   4.562  0.7361  1.6128 -0.1723
 5640SOL    HW228554   1.142   0.190   4.487 -0.4384 -1.3869 -0.0440
 5641SOL     OW28555   1.912   3.740   8.874  0.0869 -0.2821 -0.0373
 5641SOL    HW128556   1.998   3.709   8.901 -0.2474 -1.8549 -0.7934
 5641SOL    HW228557   1.939   3.775   8.789  3.2687 -1.1330  0.6098
 5642SOL     OW28558   1.092   4.734  14.180  0.0118 -0.3180  0.1536
 5642SOL    HW128559   1.042   0.001  14.099  1.0418  0.9255 -0.4103
 5642SOL    HW228560   1.032   4.675  14.225 -0.2455 -0.7865 -0.8054
 5643SOL     OW28561   0.231   1.476  15.302  0.4931  0.6108  0.0534
 5643SOL    HW128562   0.312   1.508  15.342  1.6390  0.0743 -1.8328
 5643SOL    HW228563   0.241   1.517  15.216 -0.6978 -1.6668 -1.1711
 5644SOL     OW28564   2.387   0.656   5.797 -1.0362 -0.1116  0.4938
 5644SOL    HW128565   2.407   0.749   5.795 -0.7346 -0.1931 -0.3688
 5644SOL    HW228566   2.389   0.637   5.703  0.7677  0.0064  0.5103
 5645SOL     OW28567   3.668   2.733   1.209  0.5151  0.2303  0.1547
 5645SOL    HW128568   3.614   2.709   1.133  3.9601  0.2849 -2.3482
 5645SOL    HW228569   3.614   2.806   1.237  0.2291 -0.2587  0.8634
 5646SOL     OW28570   0.738   1.727   1.837  0.6393 -0.3767 -0.0709
 5646SOL    HW128571   0.696   1.731   1.750  1.3644  0.8393 -0.3597
 5646SOL    HW228572   0.797   1.653   1.822  0.1930 -0.8596  0.5717
 5647SOL     OW28573   3.590   0.232   0.468 -0.0781 -0.6994  0.1918
 5647SOL    HW128574   3.556   0.223   0.557 -0.9658  0.8139  0.0182
 5647SOL    HW228575   3.610   0.141   0.449  2.7605 -0.0571  0.0370
 5648SOL     OW28576   4.294   3.739   7.032  0.0149 -0.0414  0.3148
 5648SOL    HW128577   4.338   3.783   6.959 -0.0530  1.7979  1.3813
 5648SOL    HW228578   4.266   3.812   7.087  0.4621 -1.1236  1.9682
 5649SOL     OW28579   0.939   0.266   3.459 -0.0349 -0.5278  0.2411
 5649SOL    HW128580   0.975   0.293   3.375  1.1041 -1.2489  0.4955
 5649SOL    HW228581   0.902   0.180   3.435  0.0008 -0.6871  0.7660
 5650SOL     OW28582   2.782   4.231   8.136  0.1324 -0.2451 -0.3559
 5650SOL    HW128583   2.709   4.171   8.121  0.3485 -0.4387 -0.6271
 5650SOL    HW228584   2.738   4.316   8.139  0.6616  0.0675 -1.8917
 5651SOL     OW28585   4.289   0.372   2.363 -0.3238 -0.2236  0.0480
 5651SOL    HW128586   4.253   0.289   2.395 -0.7395  0.2664  0.8359
 5651SOL    HW228587   4.241   0.431   2.421  1.5205  3.2419 -1.9542
 5652SOL     OW28588   1.370   1.539   5.944 -0.4790 -0.3006  0.4152
 5652SOL    HW128589   1.312   1.488   5.887 -1.6956  1.4845  0.0575
 5652SOL    HW228590   1.444   1.479   5.951 -1.0595 -1.2268 -1.3086
 5653SOL     OW28591   2.809   0.803  16.888  0.0557  0.4265 -0.2692
 5653SOL    HW128592   2.832   0.740  16.957  0.7846  0.5820 -0.3756
 5653SOL    HW228593   2.725   0.837  16.921  0.2136 -2.1978  2.8098
 5654SOL     OW28594   3.535   1.223   2.099  0.3885 -0.0189 -0.2805
 5654SOL    HW128595   3.548   1.131   2.077  1.0705 -0.2106  0.9368
 5654SOL    HW228596   3.568   1.258   2.016 -2.3725  0.4624 -1.1963
 5655SOL     OW28597   3.657   2.336   5.689 -0.7201 -0.1761 -0.2666
 5655SOL    HW128598   3.670   2.404   5.623 -1.2709  0.0258 -0.1609
 5655SOL    HW228599   3.740   2.345   5.736 -1.5376 -1.9450  1.5030
 5656SOL     OW28600   0.722   4.563   2.246 -0.7800 -0.0512 -0.1594
 5656SOL    HW128601   0.642   4.513   2.258  0.9380 -2.7010  0.1645
 5656SOL    HW228602   0.688   4.627   2.184  0.1882  0.8192  0.2079
 5657SOL     OW28603   0.772   0.257   1.417 -0.0379  0.3388 -0.6478
 5657SOL    HW128604   0.762   0.162   1.411  1.9379  0.2800 -2.7510
 5657SOL    HW228605   0.680   0.283   1.418 -0.9578 -3.0310  0.7974
 5658SOL     OW28606   3.981   4.611   2.602  0.0381 -0.2511 -0.0273
 5658SOL    HW128607   3.955   4.690   2.556  0.9352 -0.2415 -0.5291
 5658SOL    HW228608   4.002   4.661   2.681 -0.2477  0.9669 -0.7340
 5659SOL     OW28609   0.467   0.422   5.354 -0.2172 -0.0961  0.5693
 5659SOL    HW128610   0.505   0.498   5.397 -0.5462  0.0766  0.5570
 5659SOL    HW228611   0.434   0.372   5.429 -0.0196  2.2165  2.1936
 5660SOL     OW28612   4.279   0.132  15.085 -0.1905  0.1481  0.0862
 5660SOL    HW128613   4.354   0.087  15.046 -0.0367  1.3940 -1.0819
 5660SOL    HW228614   4.304   0.218  15.051 -1.4870  0.2076 -0.6739
 5661SOL     OW28615   1.449   3.756   1.709 -0.0960  0.1751  1.0028
 5661SOL    HW128616   1.379   3.792   1.653 -0.4092 -1.7435  0.1734
 5661SOL    HW228617   1.427   3.663   1.701  0.4538  0.1716 -0.4017
 5662SOL     OW28618   2.786   1.775   5.797 -0.3379 -0.1577  0.1526
 5662SOL    HW128619   2.790   1.824   5.880 -2.6307 -1.8635  1.2646
 5662SOL    HW228620   2.850   1.826   5.748 -1.0213  1.9250  1.3919
 5663SOL     OW28621   2.173   3.360  12.266  0.0531 -0.7041  0.8929
 5663SOL    HW128622   2.245   3.330  12.321  0.1573  1.3442  1.8952
 5663SOL    HW228623   2.143   3.437  12.314 -0.0947 -0.1365 -0.1019
 5664SOL     OW28624   1.657   3.382  16.793 -0.0456  0.3310  0.1243
 5664SOL    HW128625   1.594   3.395  16.864 -0.8872 -0.0450 -0.5447
 5664SOL    HW228626   1.621   3.441  16.726  0.6607  3.0471  2.1305
 5665SOL     OW28627   3.955   2.313   6.864 -0.2714 -0.1016 -0.1860
 5665SOL    HW128628   4.018   2.340   6.797 -0.5792  1.2208  0.0573
 5665SOL    HW228629   3.977   2.221   6.874  0.3971 -0.0768 -1.3580
 5666SOL     OW28630   0.485   2.863   3.928  0.1017 -0.1143  0.7278
 5666SOL    HW128631   0.476   2.866   3.833  2.7447 -0.0197  0.4730
 5666SOL    HW228632   0.486   2.768   3.927  0.1085 -0.0946 -0.4901
 5667SOL     OW28633   3.416   3.694   0.227  0.5323 -0.4176 -0.7378
 5667SOL    HW128634   3.349   3.761   0.212 -0.7953 -1.9436 -1.5513
 5667SOL    HW228635   3.363   3.615   0.239 -2.3221  1.1570 -3.0332
 5668SOL     OW28636   1.088   4.475   2.360  0.4593 -0.4329 -0.1665
 5668SOL    HW128637   1.133   4.463   2.444 -2.2222 -1.0392  1.1925
 5668SOL    HW228638   1.114   4.561   2.329  2.0730 -0.3440  1.3975
 5669SOL     OW28639   3.001   0.241   2.513  0.0006 -0.1863 -0.1871
 5669SOL    HW128640   2.920   0.263   2.466  2.2607  1.3103 -3.3384
 5669SOL    HW228641   3.069   0.280   2.459 -0.2081  1.8878  1.0455
 5670SOL     OW28642   4.613   0.920   5.396  0.1717  0.0735 -0.4756
 5670SOL    HW128643   4.540   0.911   5.456  0.3928  0.3302 -0.1644
 5670SOL    HW228644   4.570   0.965   5.323 -0.6335  1.9572  1.1634
 5671SOL     OW28645   3.213   4.383   3.689  0.4997 -0.6646  0.2609
 5671SOL    HW128646   3.308   4.377   3.693  0.5378 -0.5937 -0.5451
 5671SOL    HW228647   3.195   4.458   3.747 -3.0653 -0.8148 -0.6515
 5672SOL     OW28648   3.881   1.054   6.653 -0.1690 -0.0155 -0.3365
 5672SOL    HW128649   3.927   1.137   6.641 -0.3675  0.3447  1.4398
 5672SOL    HW228650   3.961   1.003   6.662 -0.8752 -1.6120 -3.0091
 5673SOL     OW28651   4.498   4.505   8.735 -0.3264  0.2277 -0.0534
 5673SOL    HW128652   4.513   4.572   8.668 -0.4783  0.9085  0.5998
 5673SOL    HW228653   4.565   4.538   8.795  0.4578 -0.1764 -0.7056
 5674SOL     OW28654   0.216   0.327   1.369  0.2408  0.2455  0.2004
 5674SOL    HW128655   0.195   0.234   1.375  0.6213  0.2728  1.9640
 5674SOL    HW228656   0.151   0.374   1.422  0.5970  0.4035  0.5005
 5675SOL     OW28657   1.165   0.092   3.875 -0.3312 -0.2150  0.1056
 5675SOL    HW128658   1.128   0.176   3.900  0.7350  0.1600  0.4334
 5675SOL    HW228659   1.233   0.089   3.942 -0.0376  0.3054 -0.1687
 5676SOL     OW28660   1.089   2.034   0.963  0.1574 -0.3639  0.0915
 5676SOL    HW128661   1.172   2.006   1.003  0.3563  0.6796  0.4059
 5676SOL    HW228662   1.111   2.122   0.935 -0.3729 -0.8261 -1.7359
 5677SOL     OW28663   3.560   1.423  10.054 -0.3250 -0.3219  0.3157
 5677SOL    HW128664   3.473   1.383  10.061 -1.1498  1.7806  1.9562
 5677SOL    HW228665   3.573   1.422   9.959 -1.8600 -1.5626  0.1190
 5678SOL     OW28666   2.924   4.254   0.941 -0.1018 -0.0208 -1.2217
 5678SOL    HW128667   2.874   4.173   0.940  2.2224 -1.4940  1.1085
 5678SOL    HW228668   2.875   4.316   0.994  0.0780  0.9738 -2.2207
 5679SOL     OW28669   2.385   2.669   1.641  0.3980  0.3675  0.0502
 5679SOL    HW128670   2.297   2.707   1.642 -0.1327 -0.8945  1.5162
 5679SOL    HW228671   2.444   2.745   1.646  0.9545 -0.0609  0.0730
 5680SOL     OW28672   4.121   4.272   8.480  0.3598 -0.5010  0.3368
 5680SOL    HW128673   4.045   4.330   8.489  1.0199  0.5141 -0.6032
 5680SOL    HW228674   4.201   4.323   8.489  1.1976 -2.0697  1.7132
 5681SOL     OW28675   2.270   1.611   6.129 -0.2474  0.1540  0.4924
 5681SOL    HW128676   2.289   1.638   6.219  0.2759  0.0392  0.4188
 5681SOL    HW228677   2.217   1.679   6.088  0.2694 -0.3349 -0.9847
 5682SOL     OW28678   3.412   4.008   2.568 -0.4723 -0.0942 -0.1359
 5682SOL    HW128679   3.355   4.011   2.645 -1.8903  0.4327 -1.2041
 5682SOL    HW228680   3.348   4.007   2.497 -0.4568 -2.5519 -0.1378
 5683SOL     OW28681   1.911   0.532   5.709 -0.5081  0.1792 -0.4946
 5683SOL    HW128682   1.951   0.462   5.761 -0.0090 -0.4949 -1.7864
 5683SOL    HW228683   1.969   0.527   5.633 -0.8824  0.8158 -0.8122
 5684SOL     OW28684   1.158   2.232  16.882  0.5311 -0.1340 -0.1516
 5684SOL    HW128685   1.214   2.308  16.866 -0.9568  0.6644 -1.5223
 5684SOL    HW228686   1.200   2.196  16.960  0.6957 -2.3928 -1.2769
 5685SOL     OW28687   1.344   2.093   4.459  0.4772  0.3639  0.4473
 5685SOL    HW128688   1.421   2.045   4.489  0.0548 -1.0884 -0.8098
 5685SOL    HW228689   1.295   2.014   4.441 -0.3889  1.0937 -0.4069
 5686SOL     OW28690   0.597   3.766  10.561  0.2911  0.2192  0.1996
 5686SOL    HW128691   0.669   3.706  10.542 -0.1820 -0.8314  1.7387
 5686SOL    HW228692   0.648   3.836  10.602  0.3192 -0.0544  0.6270
 5687SOL     OW28693   0.139   4.386   2.993  0.1714 -0.1652 -0.8948
 5687SOL    HW128694   0.123   4.314   2.932 -0.4032 -1.1538  0.3998
 5687SOL    HW228695   0.058   4.376   3.044  0.1848  0.5607 -0.7266
 5688SOL     OW28696   3.838   0.240   9.552 -0.1309 -0.2891 -0.4532
 5688SOL    HW128697   3.885   0.190   9.486 -1.2685 -0.8157 -0.8693
 5688SOL    HW228698   3.896   0.316   9.554 -2.3510  1.4039  0.4089
 5689SOL     OW28699   3.780   3.742   8.123 -0.0181 -0.3285 -0.0487
 5689SOL    HW128700   3.849   3.807   8.136 -2.2788  1.8093  1.3510
 5689SOL    HW228701   3.769   3.713   8.213 -0.9153  0.9724  0.2739
 5690SOL     OW28702   0.798   4.526  13.164 -0.3684  0.2270  0.1223
 5690SOL    HW128703   0.851   4.557  13.091 -1.0585 -0.8714 -0.8592
 5690SOL    HW228704   0.734   4.465  13.126  0.0660  0.1394 -0.4683
 5691SOL     OW28705   1.396   2.013   3.037  0.0662 -0.5536 -0.0062
 5691SOL    HW128706   1.356   1.985   3.120 -1.2999  0.6382 -0.2512
 5691SOL    HW228707   1.472   2.057   3.074 -0.4633  0.2630  0.1244
 5692SOL     OW28708   4.060   2.788   2.097 -0.4723 -0.0095  0.3855
 5692SOL    HW128709   3.993   2.727   2.127  0.2330 -0.5158  0.9416
 5692SOL    HW228710   4.039   2.799   2.004  2.2740  0.9525 -0.1301
 5693SOL     OW28711   0.382   1.447   7.410 -0.3985 -0.4853  0.2288
 5693SOL    HW128712   0.307   1.481   7.458  1.0591  2.0429  0.7126
 5693SOL    HW228713   0.436   1.525   7.396 -0.1803 -0.3158  2.0138
 5694SOL     OW28714   3.414   2.971  11.058  0.2730  0.2153  0.2865
 5694SOL    HW128715   3.483   3.027  11.094  0.3778 -0.4557  1.1043
 5694SOL    HW228716   3.337   3.014  11.095  0.7074  0.1341  1.2827
 5695SOL     OW28717   3.288   4.610   6.678 -0.4597 -0.3215 -0.9638
 5695SOL    HW128718   3.342   4.536   6.707 -1.8738 -1.1214 -0.3904
 5695SOL    HW228719   3.207   4.569   6.647 -1.6516  0.6575  0.8534
 5696SOL     OW28720   0.590   0.536   2.716  0.0942 -0.0940  0.3901
 5696SOL    HW128721   0.577   0.569   2.627 -0.0028 -0.9592  0.0819
 5696SOL    HW228722   0.650   0.466   2.689 -0.0418  0.1551 -0.5566
 5697SOL     OW28723   2.979   4.010   7.490 -0.0033  0.3012 -0.3846
 5697SOL    HW128724   3.049   4.071   7.516  1.6022 -0.6038 -2.5151
 5697SOL    HW228725   3.008   3.934   7.540 -1.2003  0.0490 -0.0788
 5698SOL     OW28726   3.832   2.827   8.585  0.0863 -0.0911  0.1625
 5698SOL    HW128727   3.855   2.751   8.531 -0.0981  0.8210 -1.2138
 5698SOL    HW228728   3.781   2.865   8.513  1.0880 -0.5822 -0.8068
 5699SOL     OW28729   3.284   2.394   8.470  0.1074  0.0432 -0.0714
 5699SOL    HW128730   3.255   2.458   8.534  1.1650 -0.0733  0.5156
 5699SOL    HW228731   3.274   2.316   8.524  0.6175 -0.5206 -0.8010
 5700SOL     OW28732   0.605   1.877   6.570 -0.0089 -0.1140 -0.0531
 5700SOL    HW128733   0.513   1.860   6.552  0.3282  0.5701 -2.5234
 5700SOL    HW228734   0.608   1.882   6.666 -0.7720  0.8180 -0.0734
 5701SOL     OW28735   2.811   0.686   3.839  1.0113 -0.2798 -0.0712
 5701SOL    HW128736   2.724   0.677   3.879 -0.0794  0.0305 -2.3853
 5701SOL    HW228737   2.863   0.611   3.869 -0.4092 -1.8359 -1.4552
 5702SOL     OW28738   0.825   1.981   6.447  1.0308 -0.1587  0.1606
 5702SOL    HW128739   0.842   1.900   6.400  1.6403 -0.9500  1.7740
 5702SOL    HW228740   0.748   1.959   6.500  1.1735 -0.6708  0.1514
 5703SOL     OW28741   3.615   1.763  14.609  0.4368 -0.1118  0.1499
 5703SOL    HW128742   3.551   1.763  14.538  0.6413  1.9180 -0.0198
 5703SOL    HW228743   3.673   1.691  14.586  1.7529  0.9600  0.1612
 5704SOL     OW28744   2.464   4.426   5.158 -0.3613  0.0654  0.3435
 5704SOL    HW128745   2.495   4.459   5.242 -1.2909  3.4231 -0.6155
 5704SOL    HW228746   2.481   4.507   5.109  1.6492 -0.1060  0.7481
 5705SOL     OW28747   3.388   0.012  11.112  0.2521 -0.4018 -0.6939
 5705SOL    HW128748   3.390   0.079  11.044 -2.4651  0.2646 -0.1350
 5705SOL    HW228749   3.432   0.055  11.186  0.7354 -2.6480  0.3163
 5706SOL     OW28750   0.330   2.991  11.485 -0.2317 -0.4263 -0.4461
 5706SOL    HW128751   0.234   2.994  11.484 -0.1543  2.3218 -0.4995
 5706SOL    HW228752   0.352   2.993  11.578  0.1062  3.1698 -0.5866
 5707SOL     OW28753   0.485   2.560   5.665 -0.6897  0.8457  0.2426
 5707SOL    HW128754   0.511   2.500   5.595 -0.7289  1.4066 -0.2546
 5707SOL    HW228755   0.455   2.641   5.623 -1.6391  0.5203  0.2786
 5708SOL     OW28756   3.275   1.619   8.423  0.0710  0.5086 -0.0197
 5708SOL    HW128757   3.292   1.560   8.350 -1.3253  1.3644 -1.0348
 5708SOL    HW228758   3.184   1.649   8.415 -0.2167 -0.1579  0.7181
 5709SOL     OW28759   0.868   4.185   6.673 -0.0528 -0.1842  0.2939
 5709SOL    HW128760   0.909   4.271   6.665 -1.9441  0.6959  0.0384
 5709SOL    HW228761   0.877   4.151   6.584  3.0716 -1.1937  0.9964
 5710SOL     OW28762   0.361   0.503  15.226  0.1621  0.5308  0.1951
 5710SOL    HW128763   0.401   0.421  15.200  1.8907  0.8881  1.7537
 5710SOL    HW228764   0.381   0.500  15.319 -1.5654  3.1335  0.6654
 5711SOL     OW28765   2.705   2.550   3.526 -0.7320 -0.5319 -0.0480
 5711SOL    HW128766   2.675   2.459   3.524 -2.7363  0.1801 -2.1072
 5711SOL    HW228767   2.762   2.553   3.449  3.1914 -0.2911  2.8910
 5712SOL     OW28768   4.155   4.245  14.810  0.0150  0.3015  0.0038
 5712SOL    HW128769   4.132   4.338  14.806 -0.6976  0.1890  1.5353
 5712SOL    HW228770   4.174   4.232  14.717 -1.6842 -0.5457 -0.2244
 5713SOL     OW28771   1.116   4.557   6.944 -0.1100 -0.7150 -0.6668
 5713SOL    HW128772   1.155   4.591   6.863 -2.0626 -0.0459 -1.3230
 5713SOL    HW228773   1.043   4.510   6.905 -1.5761  1.3433 -0.4043
 5714SOL     OW28774   2.058   4.212   7.550  0.4646 -0.5408 -0.3386
 5714SOL    HW128775   2.062   4.140   7.487 -0.7617  0.9802 -2.1731
 5714SOL    HW228776   2.111   4.271   7.495 -0.2138  0.3775 -0.0099
 5715SOL     OW28777   1.804   3.652  12.178 -0.0093  0.6169 -0.4945
 5715SOL    HW128778   1.735   3.605  12.224 -0.7296  2.0894 -0.0566
 5715SOL    HW228779   1.786   3.739  12.213 -0.9390  0.9251 -1.7050
 5716SOL     OW28780   2.966   2.722   3.647 -0.0909 -0.1441  0.5162
 5716SOL    HW128781   2.916   2.641   3.658 -0.2947 -0.0454  0.3260
 5716SOL    HW228782   3.049   2.693   3.685  0.6624  0.5920 -0.5684
 5717SOL     OW28783   4.187   1.228   4.119 -0.0754 -0.6217  0.8415
 5717SOL    HW128784   4.143   1.300   4.074  1.7115 -1.9009 -2.8755
 5717SOL    HW228785   4.118   1.206   4.182 -1.0425 -0.1109 -0.0426
 5718SOL     OW28786   1.858   1.863   9.111 -0.4991 -0.1637 -0.1781
 5718SOL    HW128787   1.828   1.954   9.120 -1.1016 -0.3730 -0.0904
 5718SOL    HW228788   1.801   1.815   9.171 -1.6585 -1.4619 -2.2897
 5719SOL     OW28789   4.273   1.450   8.331 -0.7284  0.0097 -0.1822
 5719SOL    HW128790   4.255   1.362   8.364 -2.7457 -1.1238 -4.3813
 5719SOL    HW228791   4.186   1.489   8.332 -0.6115  0.2660  0.0186
 5720SOL     OW28792   3.247   0.547   2.204 -0.0232 -0.0796  0.1756
 5720SOL    HW128793   3.201   0.546   2.288  0.8613  1.4858  0.6755
 5720SOL    HW228794   3.295   0.629   2.218 -0.3279  0.2282 -0.5835
 5721SOL     OW28795   1.584   2.621   0.739  0.3465 -0.2590 -0.0545
 5721SOL    HW128796   1.522   2.552   0.715 -1.0384  1.6212 -1.8632
 5721SOL    HW228797   1.583   2.609   0.834  0.8791 -0.6428 -0.0935
 5722SOL     OW28798   1.322   0.332   5.453  0.0111  0.5450  0.2830
 5722SOL    HW128799   1.310   0.255   5.397  1.0989  0.4877  0.1289
 5722SOL    HW228800   1.417   0.341   5.454  0.0965 -0.4511  2.1077
 5723SOL     OW28801   3.035   0.094   9.049 -0.1705 -1.0018 -0.7218
 5723SOL    HW128802   3.127   0.087   9.072  0.1877  1.7062 -1.2794
 5723SOL    HW228803   3.038   0.179   9.004  1.1792  0.5575  2.3179
 5724SOL     OW28804   0.263   4.259   8.182 -0.1130 -0.1491 -0.0654
 5724SOL    HW128805   0.320   4.183   8.168 -0.1669 -0.1518 -0.2797
 5724SOL    HW228806   0.181   4.214   8.158 -0.7366  2.0518 -2.1021
 5725SOL     OW28807   0.868   0.535   9.888 -0.1837 -0.2117  0.2303
 5725SOL    HW128808   0.810   0.529   9.964 -1.4678 -1.3254 -0.8490
 5725SOL    HW228809   0.940   0.478   9.916  0.3365 -0.4584 -1.5846
 5726SOL     OW28810   1.306   1.528  13.365 -0.1934  0.5879 -0.8920
 5726SOL    HW128811   1.324   1.606  13.313  0.6070  1.1246  0.1857
 5726SOL    HW228812   1.301   1.459  13.298  1.6529 -0.6112  0.2051
 5727SOL     OW28813   1.037   2.889   6.401 -0.4243 -0.2891 -0.0835
 5727SOL    HW128814   1.002   2.960   6.347  1.9395  1.3332  0.4970
 5727SOL    HW228815   1.021   2.815   6.343 -1.2899  0.3002 -0.5982
 5728SOL     OW28816   1.394   1.355  10.864 -0.1607 -0.2030  0.1308
 5728SOL    HW128817   1.319   1.415  10.873 -0.1294 -0.7647  4.0037
 5728SOL    HW228818   1.422   1.341  10.954  1.0558 -0.1933 -0.2456
 5729SOL     OW28819   0.583   2.710   3.003  0.0266  0.1082 -0.3278
 5729SOL    HW128820   0.506   2.702   2.947  0.8656 -1.1404 -1.2878
 5729SOL    HW228821   0.642   2.660   2.947 -1.1581  0.3212 -1.7702
 5730SOL     OW28822   4.427   1.968   1.243 -0.0358  0.4347 -0.2167
 5730SOL    HW128823   4.372   1.997   1.170 -0.5125  1.5301  0.5745
 5730SOL    HW228824   4.356   1.926   1.293  2.0113 -2.8965 -0.1654
 5731SOL     OW28825   3.106   3.584   5.954 -0.3884  0.0605 -0.0728
 5731SOL    HW128826   3.179   3.642   5.932 -2.2045  2.6129  0.6825
 5731SOL    HW228827   3.109   3.608   6.046 -2.9872  0.8810 -0.2098
 5732SOL     OW28828   1.802   0.111   3.378 -0.0874  0.0738  0.0242
 5732SOL    HW128829   1.895   0.086   3.384  0.2095  1.0969 -0.2285
 5732SOL    HW228830   1.778   0.071   3.461 -0.2378  0.6344  0.2522
 5733SOL     OW28831   0.872   1.991  16.157 -0.2935  0.7014 -0.4160
 5733SOL    HW128832   0.960   2.021  16.136 -0.5373  1.7042 -0.0319
 5733SOL    HW228833   0.876   2.028  16.245 -0.7461 -0.4029  0.0753
 5734SOL     OW28834   2.324   1.037  15.331 -0.1850 -0.1280  0.1633
 5734SOL    HW128835   2.299   1.066  15.243 -0.0964  0.8204  0.4443
 5734SOL    HW228836   2.239   1.000  15.357  0.5878 -1.2004  1.1243
 5735SOL     OW28837   2.282   4.274   7.877  0.0336  0.1493 -0.3436
 5735SOL    HW128838   2.259   4.288   7.969 -1.1140 -2.7265 -0.2066
 5735SOL    HW228839   2.195   4.293   7.842 -0.3882  0.6504  0.9647
 5736SOL     OW28840   2.629   2.920  10.787  0.7893  0.0637 -0.3748
 5736SOL    HW128841   2.552   2.940  10.733  1.3784  1.7301 -0.6094
 5736SOL    HW228842   2.647   3.006  10.826 -2.3657  0.9715 -0.9330
 5737SOL     OW28843   1.786   3.807  15.713  0.7550  0.0162 -0.4789
 5737SOL    HW128844   1.871   3.835  15.748  0.2761  1.9279 -0.8181
 5737SOL    HW228845   1.739   3.799  15.796 -1.1735 -0.3962 -1.6132
 5738SOL     OW28846   4.144   1.668   9.553  0.2958 -0.0899 -0.0240
 5738SOL    HW128847   4.073   1.610   9.579  0.2427  0.0676  0.1832
 5738SOL    HW228848   4.094   1.735   9.508 -1.0804 -0.6989  0.6084
 5739SOL     OW28849   1.109   3.151   1.178  0.1035 -0.2432 -0.4517
 5739SOL    HW128850   1.040   3.149   1.112 -2.8480  0.5146  2.5798
 5739SOL    HW228851   1.068   3.212   1.239 -0.5090  1.9621 -3.1153
 5740SOL     OW28852   0.287   3.950   1.348 -0.0411  0.5091 -0.2463
 5740SOL    HW128853   0.239   3.901   1.282  0.3547  0.7324 -0.7000
 5740SOL    HW228854   0.340   3.875   1.376 -2.0776 -1.5895 -2.0315
 5741SOL     OW28855   4.314   3.006   8.306 -0.2116  0.0881 -0.3277
 5741SOL    HW128856   4.384   3.000   8.371 -0.3466 -0.0468 -0.1962
 5741SOL    HW228857   4.239   3.009   8.365 -1.5714  1.0194 -2.0802
 5742SOL     OW28858   1.131   3.241  15.928 -0.2768 -0.0478 -0.3957
 5742SOL    HW128859   1.053   3.242  15.872 -0.9761  0.2139  0.5736
 5742SOL    HW228860   1.089   3.241  16.014 -0.1858 -2.6345 -0.3577
 5743SOL     OW28861   4.106   3.011  16.904 -0.0543 -0.2460  0.1559
 5743SOL    HW128862   4.165   3.019  16.979  0.6497 -0.8759 -0.3297
 5743SOL    HW228863   4.154   2.955  16.843 -4.0906 -0.7075 -2.6258
 5744SOL     OW28864   2.505   3.951   8.725 -0.0200  0.2013 -0.2394
 5744SOL    HW128865   2.461   4.007   8.661 -1.4765  1.2280  1.6775
 5744SOL    HW228866   2.438   3.884   8.741  0.2057 -0.1136 -0.6111
 5745SOL     OW28867   1.225   2.015  14.560 -0.3011 -0.1039  0.2727
 5745SOL    HW128868   1.291   2.036  14.626 -2.3324  2.5060  1.4453
 5745SOL    HW228869   1.252   2.086  14.501  0.0334 -1.4786 -1.2380
 5746SOL     OW28870   0.374   3.712  11.069  0.1152 -0.4205  0.2365
 5746SOL    HW128871   0.286   3.686  11.040  0.4369 -1.2358 -0.0107
 5746SOL    HW228872   0.382   3.665  11.152  1.8879 -1.1038 -0.3265
 5747SOL     OW28873   1.611   1.091  12.426  0.0939  0.0036  0.0607
 5747SOL    HW128874   1.653   1.104  12.511  1.7213 -0.2741 -0.6946
 5747SOL    HW228875   1.524   1.130  12.437 -0.1437 -0.0440 -1.6740
 5748SOL     OW28876   4.726   3.020   3.809  0.6386 -0.0684 -0.6720
 5748SOL    HW128877   4.664   2.947   3.812 -1.1092  1.4104 -0.9393
 5748SOL    HW228878   4.716   3.070   3.890 -1.1967 -3.3675  1.1232
 5749SOL     OW28879   3.216   3.499   7.433  0.6622 -0.7304 -0.1081
 5749SOL    HW128880   3.206   3.408   7.404  0.5644 -0.8043  0.1503
 5749SOL    HW228881   3.258   3.488   7.518  0.4386 -0.5624  0.0251
 5750SOL     OW28882   4.440   4.323   4.485  0.0915 -0.5385  0.3913
 5750SOL    HW128883   4.422   4.312   4.578  0.3788 -1.6856  0.3034
 5750SOL    HW228884   4.499   4.399   4.489 -0.3676 -0.0861 -1.1481
 5751SOL     OW28885   2.141   0.923   4.681  0.3124  0.1910 -0.0365
 5751SOL    HW128886   2.109   1.003   4.722 -2.4766 -1.5437  1.1770
 5751SOL    HW228887   2.163   0.955   4.594  0.3509  3.1726  1.0512
 5752SOL     OW28888   1.986   4.521   3.397  0.7106  0.0630 -0.1444
 5752SOL    HW128889   1.931   4.545   3.323  1.3560  1.2364 -0.2380
 5752SOL    HW228890   1.982   4.425   3.405 -1.8483  0.2213  0.3470
 5753SOL     OW28891   1.755   4.376  13.998  0.0015  0.0244 -0.0429
 5753SOL    HW128892   1.695   4.334  13.936 -0.6698 -1.0187  1.3158
 5753SOL    HW228893   1.705   4.457  14.003 -0.1410  0.0012 -1.1206
 5754SOL     OW28894   3.273   4.041   1.076  0.5200  0.3155 -0.1727
 5754SOL    HW128895   3.232   4.044   1.162  1.0396  0.1537  0.0846
 5754SOL    HW228896   3.225   3.970   1.033  0.7044 -0.1059  0.3076
 5755SOL     OW28897   4.087   3.262   6.060 -0.1132  0.2953  0.0887
 5755SOL    HW128898   3.995   3.288   6.054  0.3021  1.6667 -0.1268
 5755SOL    HW228899   4.125   3.349   6.055  1.1898 -0.2165  0.9928
 5756SOL     OW28900   2.936   2.231  13.583  0.1474 -0.2720  0.1179
 5756SOL    HW128901   3.026   2.233  13.616 -0.9909 -1.0408  3.2618
 5756SOL    HW228902   2.916   2.140  13.608 -0.3841  0.4400  2.2821
 5757SOL     OW28903   0.118   4.662   3.785  0.2732 -0.0935  0.8097
 5757SOL    HW128904   0.163   4.608   3.850 -0.1206 -2.4822 -0.9044
 5757SOL    HW228905   0.169   4.646   3.705 -0.3095 -0.8846  0.5985
 5758SOL     OW28906   1.167   3.175  11.857 -0.2440  0.4717 -0.3446
 5758SOL    HW128907   1.139   3.260  11.823 -0.1698  1.6002  2.3685
 5758SOL    HW228908   1.250   3.176  11.810 -0.3429 -1.8629 -0.5656
 5759SOL     OW28909   3.074   2.814   5.618 -0.4750 -0.0697 -0.8364
 5759SOL    HW128910   3.161   2.791   5.584 -0.3602 -3.3105  1.6638
 5759SOL    HW228911   3.074   2.812   5.713 -0.5788  1.0707 -0.8167
 5760SOL     OW28912   4.486   4.325  16.790 -0.0415  0.2510 -0.4434
 5760SOL    HW128913   4.449   4.400  16.744  2.0410  1.0431 -0.8285
 5760SOL    HW228914   4.568   4.315  16.742  1.2357 -2.4948  2.2743
 5761SOL     OW28915   3.251   0.977   1.630  0.8036 -0.4087  0.2903
 5761SOL    HW128916   3.205   1.022   1.700  0.5184 -1.8864  1.0540
 5761SOL    HW228917   3.343   0.974   1.655  1.3048  2.5807 -1.1844
 5762SOL     OW28918   2.604   4.371   3.202 -0.3387 -0.6561 -0.1222
 5762SOL    HW128919   2.672   4.381   3.135 -0.9165  0.1456 -0.5814
 5762SOL    HW228920   2.526   4.375   3.147 -1.2248  0.2965  1.2141
 5763SOL     OW28921   2.750   2.984   5.797  0.2748 -0.0671 -0.0733
 5763SOL    HW128922   2.725   3.053   5.857 -2.6156  0.3789 -1.7454
 5763SOL    HW228923   2.815   3.025   5.740  0.1030 -0.5317 -0.6089
 5764SOL     OW28924   4.604   0.792  15.128 -0.7471 -0.3859  0.6739
 5764SOL    HW128925   4.621   0.861  15.064  0.0000 -0.3115  0.9504
 5764SOL    HW228926   4.690   0.750  15.125  1.2716  3.7352  2.1650
 5765SOL     OW28927   3.600   2.665   6.359  0.3049  0.0437  0.2910
 5765SOL    HW128928   3.540   2.595   6.385  0.2591  0.1181  0.3866
 5765SOL    HW228929   3.671   2.649   6.422  0.0837 -0.5281  0.3938
 5766SOL     OW28930   4.350   2.506   2.509 -0.1337 -0.1337 -0.0118
 5766SOL    HW128931   4.401   2.587   2.506 -0.7162  0.2161 -0.4347
 5766SOL    HW228932   4.308   2.511   2.423 -0.4337  1.8390  0.2557
 5767SOL     OW28933   2.870   3.704  12.600  0.6796  0.2896 -0.1115
 5767SOL    HW128934   2.796   3.754  12.636  0.1503 -0.0184 -0.7701
 5767SOL    HW228935   2.830   3.633  12.549  2.1433 -1.6870  1.4617
 5768SOL     OW28936   0.831   1.515   2.154  0.1351 -0.4732 -0.2776
 5768SOL    HW128937   0.920   1.481   2.163  0.6750  0.7841 -0.8410
 5768SOL    HW228938   0.858   1.607   2.157  1.6420 -0.8949 -0.9763
 5769SOL     OW28939   4.162   4.573   4.702  0.4137  0.1459  0.0409
 5769SOL    HW128940   4.229   4.509   4.723  0.1365  0.7480  2.8199
 5769SOL    HW228941   4.210   4.642   4.656  1.4440 -1.3386 -1.0968
 5770SOL     OW28942   1.527   1.608   2.759 -0.1831 -0.4855  0.5904
 5770SOL    HW128943   1.473   1.531   2.740  0.3349 -0.6720 -0.1502
 5770SOL    HW228944   1.464   1.673   2.788 -0.2128 -0.1525 -0.2372
 5771SOL     OW28945   3.816   1.049   4.867  0.0712  0.2045  0.9107
 5771SOL    HW128946   3.878   1.108   4.911  0.7369 -0.7664  1.2683
 5771SOL    HW228947   3.868   0.970   4.857  0.8852  1.0006 -1.0750
 5772SOL     OW28948   4.338   2.772   9.474  0.1543 -0.7697 -0.7989
 5772SOL    HW128949   4.364   2.853   9.519  0.0004 -1.5337  0.6776
 5772SOL    HW228950   4.404   2.773   9.405  0.5101  0.2929 -0.4431
 5773SOL     OW28951   1.409   1.245   9.658  0.3417  0.5673  0.5066
 5773SOL    HW128952   1.398   1.315   9.723  0.0635  1.0232 -0.0363
 5773SOL    HW228953   1.337   1.257   9.596  2.4393  0.9692 -1.8466
 5774SOL     OW28954   1.523   2.409   9.353  0.2381  0.2825  0.3427
 5774SOL    HW128955   1.526   2.448   9.441  1.3159 -1.6546  1.1708
 5774SOL    HW228956   1.468   2.332   9.368  0.2680 -0.2277 -2.1342
 5775SOL     OW28957   3.574   4.566  17.277  0.0578  0.1764  0.2934
 5775SOL    HW128958   3.642   4.512  17.236 -0.4541 -0.2071 -0.0502
 5775SOL    HW228959   3.593   4.658  17.259 -2.2744  0.9714  1.8878
 5776SOL     OW28960   4.127   1.989   4.489 -0.1906 -0.0286  0.2893
 5776SOL    HW128961   4.105   2.075   4.452 -0.8796 -0.6489 -0.7501
 5776SOL    HW228962   4.222   1.996   4.479 -0.0562 -0.3034  1.3990
 5777SOL     OW28963   3.678   3.998   6.230 -0.3957 -0.2560  0.6608
 5777SOL    HW128964   3.704   3.907   6.214  0.7955 -0.4113  3.5894
 5777SOL    HW228965   3.595   3.976   6.272  0.8957 -0.9170  2.8292
 5778SOL     OW28966   1.767   1.101   9.679 -0.1565  0.2775  0.2280
 5778SOL    HW128967   1.779   1.188   9.717 -1.7050  0.9584 -0.8678
 5778SOL    HW228968   1.672   1.100   9.672 -0.2834 -0.0097  1.8267
 5779SOL     OW28969   1.946   0.081   3.684 -0.5259  0.3250 -0.0350
 5779SOL    HW128970   1.862   0.046   3.655  0.4804 -1.9720 -0.2218
 5779SOL    HW228971   1.996   0.062   3.604 -0.0713 -1.7561  0.7424
 5780SOL     OW28972   1.778   2.959   3.686 -0.5763 -0.5959  0.5223
 5780SOL    HW128973   1.692   2.997   3.706  0.0951  0.9037  0.5895
 5780SOL    HW228974   1.756   2.890   3.624 -1.3756  0.6575 -0.6000
 5781SOL     OW28975   3.204   0.030   1.297 -0.8047 -0.1100 -0.0113
 5781SOL    HW128976   3.278   0.043   1.356 -1.0050 -0.7807  0.3907
 5781SOL    HW228977   3.137   0.086   1.337 -0.8456  0.2839 -0.6356
 5782SOL     OW28978   3.506   2.508   4.089  0.1817 -0.1420 -0.1864
 5782SOL    HW128979   3.577   2.527   4.028  2.3585  0.7632  2.6321
 5782SOL    HW228980   3.527   2.573   4.156  0.6646  0.4104 -0.8770
 5783SOL     OW28981   4.077   2.083   0.873  0.3661 -0.0678 -0.0022
 5783SOL    HW128982   4.035   1.997   0.863  2.6057 -1.3847  1.8533
 5783SOL    HW228983   4.004   2.128   0.915  0.0462 -0.1405 -0.4775
 5784SOL     OW28984   0.669   0.149   2.785 -0.5706 -0.0981 -0.1512
 5784SOL    HW128985   0.669   0.165   2.880  0.6694  0.3884 -0.2247
 5784SOL    HW228986   0.588   0.100   2.778  0.0560 -1.0725 -0.5841
 5785SOL     OW28987   1.031   2.919  13.786  0.1491 -1.0155 -0.3612
 5785SOL    HW128988   1.099   2.958  13.731 -0.0887  2.3199  1.7734
 5785SOL    HW228989   1.083   2.845  13.820  0.5911  0.0810  1.3479
 5786SOL     OW28990   3.559   3.133   7.027 -0.0903  0.0923  0.7018
 5786SOL    HW128991   3.573   3.061   6.965  0.1638  0.7092  0.0467
 5786SOL    HW228992   3.514   3.202   6.978  1.3688  0.2990 -0.3492
 5787SOL     OW28993   4.395   0.568   0.220 -0.6008  0.0855 -0.6544
 5787SOL    HW128994   4.368   0.490   0.172 -2.3848 -0.0395  0.5364
 5787SOL    HW228995   4.464   0.535   0.277  0.4099  1.2914 -1.1813
 5788SOL     OW28996   0.772   3.485   4.814  0.7197  0.5124 -0.4336
 5788SOL    HW128997   0.716   3.508   4.740 -0.6819  1.1367  0.8151
 5788SOL    HW228998   0.708   3.501   4.884  1.9620 -1.0016  1.0619
 5789SOL     OW28999   4.371   1.654  12.784  0.7806 -0.7411  0.3830
 5789SOL    HW129000   4.382   1.729  12.842  0.2811  0.2001 -0.7200
 5789SOL    HW229001   4.444   1.674  12.726 -1.1822 -0.5551 -2.0464
 5790SOL     OW29002   2.654   3.725   7.505 -0.4502  0.1931  0.3895
 5790SOL    HW129003   2.729   3.718   7.563 -0.2193  2.8835  0.4094
 5790SOL    HW229004   2.641   3.820   7.494  1.0322  0.4162  0.6717
 5791SOL     OW29005   1.481   4.126   4.852  0.3517  0.9638 -0.1636
 5791SOL    HW129006   1.486   4.148   4.759  0.4176  0.4414 -0.2812
 5791SOL    HW229007   1.499   4.210   4.895 -0.2932 -0.3147  2.6293
 5792SOL     OW29008   1.867   3.702   3.366  0.4007  0.4748  0.8742
 5792SOL    HW129009   1.916   3.734   3.442 -0.5824  0.3937  1.5368
 5792SOL    HW229010   1.891   3.609   3.372 -1.4089 -0.0319  0.1614
 5793SOL     OW29011   0.235   3.974   8.727 -0.0839  0.2486 -0.6154
 5793SOL    HW129012   0.261   3.941   8.813 -0.7704  0.1780 -0.4349
 5793SOL    HW229013   0.318   3.948   8.686 -0.5559 -3.1228  0.5895
 5794SOL     OW29014   3.338   3.157   8.984 -0.0508 -0.0943 -0.3335
 5794SOL    HW129015   3.390   3.123   9.057  1.2003  0.8347 -0.7989
 5794SOL    HW229016   3.270   3.090   8.980  3.6817 -4.0592  1.4796
 5795SOL     OW29017   2.215   1.408   6.450  0.5919  0.2042 -0.0187
 5795SOL    HW129018   2.200   1.493   6.409 -1.9035 -0.9299 -1.4680
 5795SOL    HW229019   2.157   1.346   6.406  1.0723 -0.7927  0.7490
 5796SOL     OW29020   1.079   3.457   8.787 -0.3888 -0.0248 -0.1631
 5796SOL    HW129021   0.999   3.453   8.840 -0.1358  0.1564  0.2375
 5796SOL    HW229022   1.051   3.473   8.697  0.2335  0.3192 -0.2928
 5797SOL     OW29023   1.776   4.169   7.655 -0.2678 -0.1682 -0.0630
 5797SOL    HW129024   1.830   4.245   7.675  0.4114 -0.6854  0.0819
 5797SOL    HW229025   1.832   4.139   7.583 -0.0508  2.1939 -0.8670
 5798SOL     OW29026   4.313   3.544  11.592  0.2289 -0.4394  0.6896
 5798SOL    HW129027   4.395   3.555  11.544 -0.4130 -0.2483 -0.3523
 5798SOL    HW229028   4.254   3.536  11.517  2.2393 -1.2375 -0.7918
 5799SOL     OW29029   4.013   4.675   6.406  0.0197  0.3298  0.3608
 5799SOL    HW129030   3.978   4.624   6.479 -2.8700 -0.2202 -1.3931
 5799SOL    HW229031   4.058   0.003   6.459 -0.7533  1.4393 -0.3579
 5800SOL     OW29032   3.729   2.209   3.810 -0.7570 -0.0847  0.1295
 5800SOL    HW129033   3.649   2.191   3.760  1.0354 -0.8451 -2.4414
 5800SOL    HW229034   3.773   2.281   3.764 -0.6917 -0.0856  0.1910
 5801SOL     OW29035   1.383   3.678   4.314  0.0862 -0.0119  0.0089
 5801SOL    HW129036   1.337   3.602   4.350  0.1197  0.8617  1.8781
 5801SOL    HW229037   1.398   3.742   4.384 -0.8518  1.5571 -1.2395
 5802SOL     OW29038   2.840   2.742  15.550 -0.2848  0.5220  0.2677
 5802SOL    HW129039   2.894   2.673  15.589  2.0096  2.2116  0.0959
 5802SOL    HW229040   2.906   2.801  15.514  0.7262 -0.5136  0.4173
 5803SOL     OW29041   3.129   2.821   3.263  0.2154  0.5927  0.9842
 5803SOL    HW129042   3.137   2.734   3.302 -0.0288 -0.0280 -0.3566
 5803SOL    HW229043   3.040   2.833   3.296 -0.1653  0.1991  0.0982
 5804SOL     OW29044   4.235   0.297   2.102  0.5352 -0.8597 -0.0605
 5804SOL    HW129045   4.205   0.219   2.149  0.3816  0.2237  1.6740
 5804SOL    HW229046   4.257   0.355   2.176  0.9979 -1.8783  0.6027
 5805SOL     OW29047   0.283   0.017   1.685  0.4792 -0.4115 -0.0487
 5805SOL    HW129048   0.322   0.078   1.748 -0.9397  3.3264 -2.7862
 5805SOL    HW229049   0.359   4.698   1.670  0.5234 -0.9091  2.0559
 5806SOL     OW29050   3.674   0.140   3.180  0.0511  0.2529 -0.2341
 5806SOL    HW129051   3.710   0.104   3.261  1.5751 -0.6226 -1.3006
 5806SOL    HW229052   3.686   0.231   3.206  0.0197 -0.0947  0.9635
 5807SOL     OW29053   1.558   0.767   3.404 -0.1953 -0.0756 -0.3174
 5807SOL    HW129054   1.600   0.837   3.354 -0.5974 -0.2064 -0.8347
 5807SOL    HW229055   1.521   0.719   3.330  0.3950 -0.0372 -0.6349
 5808SOL     OW29056   4.390   1.507   2.885 -0.0499 -0.0649 -0.0379
 5808SOL    HW129057   4.334   1.431   2.901  2.6787 -2.1740 -0.4788
 5808SOL    HW229058   4.339   1.547   2.815  0.6735 -0.4807 -0.7973
 5809SOL     OW29059   2.273   3.325   5.636  0.3351  0.1753  0.7507
 5809SOL    HW129060   2.206   3.379   5.679  1.0395  1.3139  0.4208
 5809SOL    HW229061   2.342   3.340   5.701  0.5772 -1.4190  0.8405
 5810SOL     OW29062   2.017   4.496   1.732  0.7475  0.6891 -0.2414
 5810SOL    HW129063   2.055   4.506   1.645  0.9631  1.1303 -0.1009
 5810SOL    HW229064   2.054   4.412   1.759 -3.1544 -1.2584 -1.0291
 5811SOL     OW29065   1.712   2.163   9.191 -0.6200  0.1619  0.1061
 5811SOL    HW129066   1.673   2.113   9.263 -1.8516  0.6559 -0.2171
 5811SOL    HW229067   1.642   2.173   9.126 -0.2201  3.6339  0.2270
 5812SOL     OW29068   1.171   2.340   2.045 -0.6438 -0.5904  0.5617
 5812SOL    HW129069   1.191   2.263   2.097 -1.5459 -1.3884 -0.2895
 5812SOL    HW229070   1.113   2.295   1.984 -1.9427  0.5657  0.9499
 5813SOL     OW29071   4.033   1.989   6.527 -0.3944  0.4547  0.0498
 5813SOL    HW129072   3.994   2.011   6.611  0.9834 -2.0565  1.3705
 5813SOL    HW229073   4.126   2.004   6.543 -0.3179  0.9930 -0.8808
 5814SOL     OW29074   3.975   1.552   8.741 -0.7076 -0.4934  0.1211
 5814SOL    HW129075   3.996   1.614   8.811  0.9341  0.0058 -0.8112
 5814SOL    HW229076   3.993   1.614   8.670 -0.8454  1.1270  1.4999
 5815SOL     OW29077   3.586   2.473   1.923  0.4753  0.3085  0.2175
 5815SOL    HW129078   3.677   2.477   1.892  0.1729  0.0038 -0.7079
 5815SOL    HW229079   3.554   2.553   1.881  0.8679  1.5341  2.2861
 5816SOL     OW29080   1.287   3.549   8.935  0.2354 -0.1280  0.3223
 5816SOL    HW129081   1.239   3.519   8.858  0.9702  2.4930 -1.1461
 5816SOL    HW229082   1.228   3.581   9.003 -1.2860 -2.6792  0.2344
 5817SOL     OW29083   1.711   0.482   4.235 -0.7358 -0.3134 -0.4458
 5817SOL    HW129084   1.770   0.555   4.214 -0.9535  0.1882  0.6900
 5817SOL    HW229085   1.733   0.431   4.157  2.8835  0.4300  0.0859
 5818SOL     OW29086   1.592   0.149   9.096 -1.0674  0.2324  0.3717
 5818SOL    HW129087   1.659   0.193   9.044 -1.8488 -1.2442 -1.8716
 5818SOL    HW229088   1.592   0.209   9.171  0.4686 -1.7282  1.9208
 5819SOL     OW29089   0.765   4.286   7.992  0.2504  0.0567  0.3050
 5819SOL    HW129090   0.809   4.275   8.076  0.5908  0.4236  0.1804
 5819SOL    HW229091   0.782   4.379   7.974 -0.0082 -0.0651 -0.5907
 5820SOL     OW29092   4.458   1.180   6.589 -0.5386  0.2643 -0.1951
 5820SOL    HW129093   4.432   1.267   6.619  0.9723  0.5055  0.4430
 5820SOL    HW229094   4.385   1.146   6.538 -2.5382  1.7735  1.6353
 5821SOL     OW29095   2.653   3.422  14.472  0.0036  0.5598  0.1473
 5821SOL    HW129096   2.611   3.435  14.387 -2.8511  1.8334  1.7499
 5821SOL    HW229097   2.712   3.350  14.450 -1.6780 -1.8526  3.5044
 5822SOL     OW29098   1.645   0.875   7.130  0.0305 -0.0124 -1.1729
 5822SOL    HW129099   1.601   0.922   7.059 -1.8807 -1.6627 -1.0850
 5822SOL    HW229100   1.589   0.893   7.206  1.1953 -0.6933 -0.1435
 5823SOL     OW29101   4.437   4.532   8.048  0.3296 -0.5346  0.1286
 5823SOL    HW129102   4.532   4.520   8.050  0.3084 -0.7216  0.0428
 5823SOL    HW229103   4.418   4.517   8.141  1.6183 -2.1875  0.1240
 5824SOL     OW29104   3.536   0.297   4.099  0.3679  0.9182  0.6066
 5824SOL    HW129105   3.531   0.393   4.094  1.4632  0.9670  0.3837
 5824SOL    HW229106   3.445   0.271   4.092  0.6918 -0.1064  0.2459
 5825SOL     OW29107   0.834   0.876   4.758 -0.3467  0.5030 -0.6049
 5825SOL    HW129108   0.918   0.853   4.721 -0.5746  0.1679 -0.9078
 5825SOL    HW229109   0.793   0.790   4.753  0.4524  0.1018 -0.2169
 5826SOL     OW29110   1.225   1.941   3.913 -0.2359 -0.9226  0.2860
 5826SOL    HW129111   1.198   2.028   3.883 -0.5992 -1.5156 -1.1007
 5826SOL    HW229112   1.180   1.941   3.997 -1.3769  0.6597 -0.3312
 5827SOL     OW29113   1.902   1.217   9.060  0.3019  0.2884  0.1642
 5827SOL    HW129114   1.964   1.290   9.064  0.2824  0.3481 -0.7008
 5827SOL    HW229115   1.819   1.252   9.091 -0.4430  0.6632 -2.2894
 5828SOL     OW29116   1.899   4.253   4.811 -0.4503 -0.3379  0.3130
 5828SOL    HW129117   1.991   4.254   4.838 -0.5809  1.0790  0.6806
 5828SOL    HW229118   1.851   4.247   4.894 -1.6728 -4.1733 -0.6603
 5829SOL     OW29119   3.610   0.423   0.087 -0.6455  0.1830  0.2189
 5829SOL    HW129120   3.661   0.411   0.168 -0.5668  1.4853  0.3676
 5829SOL    HW229121   3.528   0.454   0.127 -1.0816 -1.5755  0.6899
 5830SOL     OW29122   4.158   0.011  10.257  0.0529 -0.0443  0.2854
 5830SOL    HW129123   4.123   0.086  10.208 -0.6436 -0.0958  0.7162
 5830SOL    HW229124   4.205   0.064  10.321  0.7159 -0.9434  0.5253
 5831SOL     OW29125   2.617   1.041  11.019  0.2300 -0.2337 -0.6812
 5831SOL    HW129126   2.662   1.073  11.097 -1.3570  1.7815 -0.5882
 5831SOL    HW229127   2.527   1.046  11.052  0.0409  2.1635 -1.5147
 5832SOL     OW29128   4.172   4.147   4.709  0.3647 -0.6339 -0.0415
 5832SOL    HW129129   4.096   4.181   4.755  1.3561  1.4058  0.1132
 5832SOL    HW229130   4.135   4.139   4.621 -0.3163 -0.1684  0.2021
 5833SOL     OW29131   1.013   3.362  10.812 -0.0151  0.1065  0.4832
 5833SOL    HW129132   0.925   3.399  10.807 -0.4922 -1.0198  0.4766
 5833SOL    HW229133   1.076   3.431  10.834  0.9803 -0.0560 -1.7738
 5834SOL     OW29134   2.777   1.497  10.612  0.3191  0.1370 -0.6001
 5834SOL    HW129135   2.732   1.470  10.533 -0.6872 -0.7168  0.2708
 5834SOL    HW229136   2.783   1.592  10.601  1.8350 -0.0439 -1.3544
 5835SOL     OW29137   4.108   3.616   4.971 -0.1886 -0.0920 -0.3425
 5835SOL    HW129138   4.134   3.699   5.011  3.5822 -1.1220 -0.5785
 5835SOL    HW229139   4.077   3.649   4.887 -1.8752 -0.1788  0.2509
 5836SOL     OW29140   3.045   1.291   8.361 -0.2272  0.1362  0.0092
 5836SOL    HW129141   3.013   1.323   8.277 -1.3906  1.9357  1.1232
 5836SOL    HW229142   2.981   1.222   8.380  1.4137 -0.6301  2.6899
 5837SOL     OW29143   1.705   1.112   5.478  0.4497 -0.2866  0.3113
 5837SOL    HW129144   1.752   1.141   5.401 -0.4330 -2.0515 -0.9127
 5837SOL    HW229145   1.651   1.038   5.450 -2.0895  1.4297  0.6581
 5838SOL     OW29146   4.330   2.722   1.493  0.0991  0.2923 -0.2236
 5838SOL    HW129147   4.363   2.688   1.576  0.2697 -1.3596 -0.9766
 5838SOL    HW229148   4.245   2.679   1.480  0.2291 -0.2215  0.6225
 5839SOL     OW29149   1.221   1.271  12.770  0.0188  0.3094 -0.3835
 5839SOL    HW129150   1.314   1.275  12.793 -0.5107  2.5127  1.3561
 5839SOL    HW229151   1.184   1.351  12.806  0.4127  0.1014  0.4923
 5840SOL     OW29152   3.357   3.175   4.735  0.5320  0.3757 -0.1374
 5840SOL    HW129153   3.359   3.256   4.786 -1.2910 -1.1778  2.4326
 5840SOL    HW229154   3.440   3.131   4.753 -0.5449 -1.3212  0.7948
 5841SOL     OW29155   4.152   1.617   2.687  0.0461  0.0546 -0.3953
 5841SOL    HW129156   4.217   1.615   2.617  0.4989  0.9735  0.0002
 5841SOL    HW229157   4.137   1.712   2.693 -0.2463 -0.0071 -0.1575
 5842SOL     OW29158   2.735   0.192   3.462 -0.2315 -0.6140 -0.2121
 5842SOL    HW129159   2.683   0.145   3.397  0.1955 -2.1805  0.5713
 5842SOL    HW229160   2.823   0.199   3.425  0.1534 -0.2612  0.7567
 5843SOL     OW29161   3.771   3.281   3.642  0.2705 -0.3088 -0.4579
 5843SOL    HW129162   3.808   3.238   3.565  2.0575 -0.9785  0.7661
 5843SOL    HW229163   3.834   3.350   3.664  1.1959 -0.6267 -2.1256
 5844SOL     OW29164   4.333   3.905   4.767 -0.4725  0.0043  0.6218
 5844SOL    HW129165   4.306   3.989   4.730  0.3879 -0.7807 -1.7631
 5844SOL    HW229166   4.281   3.838   4.722  0.2145  1.9366 -3.0266
 5845SOL     OW29167   4.633   1.155   0.399  0.3711 -0.0551  0.6742
 5845SOL    HW129168   4.550   1.193   0.427  0.0748 -0.4703  0.3571
 5845SOL    HW229169   4.624   1.140   0.305  1.2844  0.0343  0.5686
 5846SOL     OW29170   1.475   0.670  11.623 -0.5447 -0.2942 -0.0951
 5846SOL    HW129171   1.445   0.741  11.566  1.5018  0.4835 -0.2187
 5846SOL    HW229172   1.545   0.712  11.673 -0.2387  1.3377 -1.9008
 5847SOL     OW29173   4.115   3.753   5.400 -0.3414 -0.4045 -0.0945
 5847SOL    HW129174   4.172   3.828   5.415  0.2950 -0.9879  0.4210
 5847SOL    HW229175   4.057   3.798   5.339  1.4821  0.3884 -1.2566
 5848SOL     OW29176   3.748   3.952   1.385 -0.1951 -0.4506  0.4927
 5848SOL    HW129177   3.665   3.973   1.427  0.0948  0.8544  0.4141
 5848SOL    HW229178   3.791   4.037   1.387 -1.5700  0.3051 -1.8955
 5849SOL     OW29179   3.602   3.663   0.020  0.3110  0.4869  0.3549
 5849SOL    HW129180   3.547   3.662   0.098  1.4015 -1.8517  1.0941
 5849SOL    HW229181   3.539   3.655  17.697  0.2619  1.0026  0.3411
 5850SOL     OW29182   2.449   0.197   8.043  0.1064  0.0920 -0.0104
 5850SOL    HW129183   2.540   0.217   8.022  0.9427 -2.1253  1.5702
 5850SOL    HW229184   2.429   0.114   8.002 -1.0296  1.7018 -2.7058
 5851SOL     OW29185   3.981   1.076  17.149 -0.2401  0.2485 -0.4662
 5851SOL    HW129186   3.980   1.052  17.057  0.5004 -1.8078  0.0737
 5851SOL    HW229187   3.922   1.009  17.182 -0.6592  0.1272 -1.4748
 5852SOL     OW29188   4.380   0.288   4.573 -0.0544 -1.1800 -0.0911
 5852SOL    HW129189   4.457   0.303   4.517  0.2643 -0.2144  0.6119
 5852SOL    HW229190   4.399   0.352   4.642  1.9877 -0.7449 -1.0546
 5853SOL     OW29191   4.228   4.014   1.278 -0.2351  0.6568 -0.7954
 5853SOL    HW129192   4.250   3.942   1.218 -0.3397 -1.3480  1.5959
 5853SOL    HW229193   4.140   3.989   1.305  0.2362 -0.0857  0.0634
 5854SOL     OW29194   0.772   2.786   2.261  0.0998  0.2350  0.0528
 5854SOL    HW129195   0.757   2.828   2.346  0.2016 -1.3723  0.8642
 5854SOL    HW229196   0.867   2.771   2.268 -0.0376  0.3225  2.2176
 5855SOL     OW29197   4.356   0.298   7.384  0.3084 -0.1731 -0.1232
 5855SOL    HW129198   4.353   0.324   7.292  0.6443  0.5610  0.0748
 5855SOL    HW229199   4.446   0.320   7.409  0.2785  0.2518 -0.3963
 5856SOL     OW29200   1.114   1.940   9.695  0.1440 -0.1025 -0.2404
 5856SOL    HW129201   1.200   1.964   9.660  0.3297 -0.5178 -0.0708
 5856SOL    HW229202   1.124   1.948   9.790  0.6207 -0.4629 -0.2603
 5857SOL     OW29203   0.058   2.075  14.983  0.3700  0.0082  0.0462
 5857SOL    HW129204   0.005   2.139  15.032 -2.0612 -1.7885 -0.2172
 5857SOL    HW229205   0.031   2.102  14.895  1.9966  0.4889 -0.3069
 5858SOL     OW29206   2.522   1.252  14.113  0.0535  0.6853  0.3752
 5858SOL    HW129207   2.602   1.237  14.063 -1.4658  0.1822 -1.9551
 5858SOL    HW229208   2.510   1.342  14.081  1.5393  0.7218 -0.0871
 5859SOL     OW29209   0.476   2.297   8.544 -0.4134  0.1058  0.1133
 5859SOL    HW129210   0.403   2.261   8.495 -0.8588 -0.2594  1.0580
 5859SOL    HW229211   0.543   2.311   8.477  0.0123 -1.5393  0.2000
 5860SOL     OW29212   1.726   0.641   9.752  0.4396  0.2071  0.0959
 5860SOL    HW129213   1.701   0.627   9.843  1.9144 -0.8880  0.3265
 5860SOL    HW229214   1.784   0.566   9.741  1.7547  1.3299 -0.5444
 5861SOL     OW29215   2.942   0.873   7.128 -0.1802  0.2538 -0.7354
 5861SOL    HW129216   2.911   0.797   7.079  0.3830 -0.6448  0.3278
 5861SOL    HW229217   2.933   0.847   7.219 -1.1109  0.9962 -0.6090
 5862SOL     OW29218   1.259   0.402  10.355  0.4487  0.0907  0.3022
 5862SOL    HW129219   1.230   0.311  10.349 -1.7294  0.7263  0.8746
 5862SOL    HW229220   1.249   0.423  10.448 -0.9557  1.8678 -0.2407
 5863SOL     OW29221   0.768   3.305   2.310  0.4083  0.1649  0.6104
 5863SOL    HW129222   0.803   3.312   2.221  0.8529  0.6950  0.8257
 5863SOL    HW229223   0.710   3.381   2.306 -0.2473 -0.4120 -0.9871
 5864SOL     OW29224   4.569   0.506   5.938 -0.4931  0.3740 -0.0836
 5864SOL    HW129225   4.620   0.499   5.858 -0.6040 -3.1498  0.1546
 5864SOL    HW229226   4.535   0.416   5.940 -1.3737  0.6672 -1.9533
 5865SOL     OW29227   0.396   3.780  15.526  0.0619  0.0352  0.1255
 5865SOL    HW129228   0.440   3.864  15.543  0.5650 -0.0334 -0.8174
 5865SOL    HW229229   0.355   3.787  15.440 -3.3444  1.2444  1.8364
 5866SOL     OW29230   3.718   4.619   9.852  0.0640  0.2344 -0.8897
 5866SOL    HW129231   3.677   4.541   9.888 -1.6810  1.2675 -0.6500
 5866SOL    HW229232   3.751   4.652   9.936 -0.3302  2.7168 -1.6942
 5867SOL     OW29233   2.580   4.631  16.118 -0.5032 -0.3950 -0.1655
 5867SOL    HW129234   2.567   4.612  16.211  1.0430 -1.5883 -0.1846
 5867SOL    HW229235   2.615   4.545  16.093 -0.6156  0.1377 -2.1182
 5868SOL     OW29236   2.022   1.150   7.421 -0.5343 -0.3466 -0.2135
 5868SOL    HW129237   1.950   1.135   7.360  0.1509 -2.7028 -0.4161
 5868SOL    HW229238   2.096   1.159   7.361  0.0248  0.4739  0.5986
 5869SOL     OW29239   1.804   0.049   7.387 -0.3698  0.2181  0.0588
 5869SOL    HW129240   1.854   0.075   7.464 -0.0481  2.5562 -0.9485
 5869SOL    HW229241   1.715   0.072   7.415 -0.1797 -0.4734  1.2594
 5870SOL     OW29242   1.350   0.853   0.700  0.2203  0.1587 -0.5664
 5870SOL    HW129243   1.274   0.800   0.723  0.2756 -0.2492 -1.3167
 5870SOL    HW229244   1.356   0.847   0.605  1.5466 -0.3975 -0.4522
 5871SOL     OW29245   0.888   0.290  10.760  0.0971  0.5825 -0.3012
 5871SOL    HW129246   0.927   0.220  10.708 -2.8398  0.7097 -2.6589
 5871SOL    HW229247   0.934   0.366  10.723 -0.1402 -1.1434 -4.0118
 5872SOL     OW29248   2.886   3.027   4.602  0.2226 -0.3173  0.4204
 5872SOL    HW129249   2.903   2.967   4.530  0.3938 -0.5100  0.6226
 5872SOL    HW229250   2.970   3.031   4.647  0.1620 -0.2509  0.5283
 5873SOL     OW29251   1.722   4.295   5.050 -0.1167 -0.0526 -0.2862
 5873SOL    HW129252   1.660   4.305   5.122 -1.8979  0.9395 -1.9285
 5873SOL    HW229253   1.808   4.307   5.089  0.0641  1.8319 -1.2394
 5874SOL     OW29254   1.961   2.662   6.092  0.2345 -0.2962 -0.5580
 5874SOL    HW129255   2.012   2.699   6.020 -1.1325  1.1339 -0.7959
 5874SOL    HW229256   1.969   2.724   6.164 -2.2702 -0.1692 -0.3804
 5875SOL     OW29257   2.744   3.099   6.084 -0.3358  0.9042 -0.2969
 5875SOL    HW129258   2.831   3.138   6.078  0.6459 -1.3784 -1.0430
 5875SOL    HW229259   2.761   3.005   6.091 -2.4119  0.6335  0.9676
 5876SOL     OW29260   1.410   0.114   1.344 -0.9423  0.5382  0.6107
 5876SOL    HW129261   1.397   0.029   1.302  0.8007  1.0756 -0.9914
 5876SOL    HW229262   1.423   0.180   1.276  0.8709  0.6877  1.1050
 5877SOL     OW29263   4.260   2.028   2.214  1.0847  0.7083 -0.1526
 5877SOL    HW129264   4.204   2.078   2.273  0.9495 -2.9707  2.8097
 5877SOL    HW229265   4.308   1.980   2.282  1.4451  1.2439 -0.0237
 5878SOL     OW29266   2.108   3.560  12.428 -0.3646 -0.5286 -0.0291
 5878SOL    HW129267   2.091   3.641  12.380  0.8502 -0.1828  0.1320
 5878SOL    HW229268   2.151   3.591  12.508  0.6094 -3.2687  0.4978
 5879SOL     OW29269   4.374   2.118   6.961  0.0432  0.1828 -0.5833
 5879SOL    HW129270   4.282   2.138   6.948  0.6597  3.0553 -0.6091
 5879SOL    HW229271   4.409   2.197   6.919  0.1730  0.0744 -0.6810
 5880SOL     OW29272   1.059   0.877   6.351 -0.0668  0.5145  0.2289
 5880SOL    HW129273   1.123   0.946   6.368 -1.1021  1.6581 -0.4698
 5880SOL    HW229274   0.985   0.923   6.312 -1.1163 -0.4840  1.0483
 5881SOL     OW29275   2.998   2.474   6.634 -0.2996 -0.4470 -0.2571
 5881SOL    HW129276   3.083   2.468   6.590  1.4625 -0.4064  3.1370
 5881SOL    HW229277   2.950   2.394   6.613  0.0817 -0.3608 -1.4807
 5882SOL     OW29278   4.002   4.301   7.207  0.0512 -0.0737 -0.0106
 5882SOL    HW129279   3.965   4.215   7.187 -0.2204  0.2221 -0.7590
 5882SOL    HW229280   4.096   4.281   7.203 -0.0612 -1.1933  2.8958
 5883SOL     OW29281   1.765   1.703   2.162  0.0238 -0.2345  0.1501
 5883SOL    HW129282   1.769   1.677   2.254 -1.6721  1.5948  0.7227
 5883SOL    HW229283   1.760   1.798   2.175  0.3124 -0.3359  0.9711
 5884SOL     OW29284   1.783   4.056  15.554  0.0999  0.0629 -0.3913
 5884SOL    HW129285   1.751   3.981  15.604  2.6385 -1.7983 -1.5892
 5884SOL    HW229286   1.748   4.025  15.470  1.1456 -2.2494  0.0130
 5885SOL     OW29287   2.764   4.506  13.217  0.3350 -0.4095 -0.3670
 5885SOL    HW129288   2.700   4.542  13.278  1.3463  0.4693  0.1835
 5885SOL    HW229289   2.714   4.537  13.141  0.3773  0.8923  0.1246
 5886SOL     OW29290   0.760   0.859   8.928 -1.4257 -0.0807 -0.1673
 5886SOL    HW129291   0.846   0.840   8.966 -0.5416  1.9062 -1.1687
 5886SOL    HW229292   0.762   0.825   8.838 -1.1759 -0.7356  0.0915
 5887SOL     OW29293   0.316   3.130   4.234  0.0076  0.2629  0.4290
 5887SOL    HW129294   0.250   3.149   4.167 -0.5745 -0.2879  0.8493
 5887SOL    HW229295   0.398   3.118   4.185 -1.0058  0.7838 -1.4090
 5888SOL     OW29296   0.209   1.576   3.304 -0.0146  0.3879  0.4677
 5888SOL    HW129297   0.125   1.530   3.314 -0.1788  0.9033  1.4027
 5888SOL    HW229298   0.213   1.567   3.208  0.4987  0.7490  0.4584
 5889SOL     OW29299   3.527   2.864   7.403 -0.1041 -0.2397  0.1683
 5889SOL    HW129300   3.579   2.944   7.417 -0.8736 -0.1548  2.4349
 5889SOL    HW229301   3.495   2.895   7.318  0.5496 -0.8018 -0.2836
 5890SOL     OW29302   2.683   0.447   6.983 -0.5957  0.3051  0.2025
 5890SOL    HW129303   2.635   0.529   6.983 -2.2222 -0.6461  1.9603
 5890SOL    HW229304   2.697   0.416   6.893  0.3649  0.5775  0.2610
 5891SOL     OW29305   3.813   4.239   8.697 -0.2384  0.2335 -0.0608
 5891SOL    HW129306   3.825   4.205   8.609  0.6467 -0.0090  0.1599
 5891SOL    HW229307   3.731   4.285   8.716  0.0434 -0.6022  3.2359
 5892SOL     OW29308   0.369   0.463  10.057 -0.6883 -0.2273  0.2136
 5892SOL    HW129309   0.394   0.543  10.010 -1.8070  0.2501  0.4202
 5892SOL    HW229310   0.279   0.487  10.081 -1.3054 -0.4666 -1.8186
 5893SOL     OW29311   2.698   3.482   9.617  0.1361 -0.4474 -1.0837
 5893SOL    HW129312   2.689   3.573   9.587  0.6727  0.5838  1.9276
 5893SOL    HW229313   2.625   3.435   9.576 -0.2299  0.7086 -1.7756
 5894SOL     OW29314   0.379   2.559  16.351 -0.3706  0.1278  0.6507
 5894SOL    HW129315   0.432   2.603  16.285  1.3708 -1.6589  0.8767
 5894SOL    HW229316   0.457   2.543  16.404 -0.3533 -1.7389  0.0623
 5895SOL     OW29317   1.920   2.796   5.285 -0.0328 -0.2678 -0.0750
 5895SOL    HW129318   1.929   2.836   5.371 -1.4824 -5.6165  2.5226
 5895SOL    HW229319   1.988   2.728   5.282 -0.1197 -0.2983 -1.4669
 5896SOL     OW29320   3.723   3.012   6.604  0.1358  0.1674  0.2519
 5896SOL    HW129321   3.657   3.048   6.544  0.9218 -0.1037 -0.7664
 5896SOL    HW229322   3.777   2.956   6.548  0.0992 -0.0358  0.4237
 5897SOL     OW29323   0.987   0.419   0.897 -0.5445 -0.1130 -0.0826
 5897SOL    HW129324   1.021   0.479   0.831  1.7934  0.6011  1.7841
 5897SOL    HW229325   0.905   0.399   0.851 -0.4688  1.0065 -0.6955
 5898SOL     OW29326   3.489   2.423  10.980 -0.3227  0.0994 -0.7775
 5898SOL    HW129327   3.524   2.383  10.901  0.3608  0.3611 -0.6096
 5898SOL    HW229328   3.551   2.495  10.985  0.8138 -0.7227 -3.4132
 5899SOL     OW29329   3.264   3.590   2.653  0.0510 -0.3518 -0.0946
 5899SOL    HW129330   3.310   3.518   2.696  0.7831 -1.7748 -3.2295
 5899SOL    HW229331   3.178   3.588   2.696  1.0591  0.2118  1.9245
 5900SOL     OW29332   4.018   4.387   8.826  0.5706  0.4029  0.0938
 5900SOL    HW129333   4.011   4.343   8.910  2.0495 -0.4249 -0.2106
 5900SOL    HW229334   3.945   4.352   8.774  2.0644 -3.1662  0.4271
 5901SOL     OW29335   0.859   3.355   3.162 -0.2587 -0.0171  0.1645
 5901SOL    HW129336   0.851   3.264   3.189 -1.3847  0.4229  1.3246
 5901SOL    HW229337   0.770   3.387   3.173 -1.1342 -1.7283 -2.1459
 5902SOL     OW29338   1.775   2.233   5.343  1.1487 -0.1089 -0.2514
 5902SOL    HW129339   1.832   2.309   5.355  2.0228 -0.8550  0.3444
 5902SOL    HW229340   1.789   2.193   5.430  1.3538  1.0870  0.2597
 5903SOL     OW29341   2.222   3.784  14.580 -0.2588 -0.7653 -0.7328
 5903SOL    HW129342   2.267   3.768  14.497 -0.6858  2.3157 -1.5600
 5903SOL    HW229343   2.219   3.700  14.625  0.5927 -1.5459 -2.1405
 5904SOL     OW29344   4.306   0.982   2.023 -0.4190  0.7991 -0.1964
 5904SOL    HW129345   4.369   1.050   1.997  0.5731  0.1741  0.5559
 5904SOL    HW229346   4.368   0.917   2.056  0.5934  1.9614  0.1751
 5905SOL     OW29347   3.340   2.687  16.975  0.6504  0.3135 -0.5812
 5905SOL    HW129348   3.435   2.681  16.963  0.9081 -0.3680  1.9634
 5905SOL    HW229349   3.331   2.721  17.064 -0.3583 -1.0732 -0.1486
 5906SOL     OW29350   1.872   0.669   6.247 -0.0629  0.2971  0.3018
 5906SOL    HW129351   1.953   0.623   6.270 -0.2309  0.6805  1.6426
 5906SOL    HW229352   1.821   0.594   6.215 -1.5308  0.6299  1.9223
 5907SOL     OW29353   1.065   4.281   0.292  0.5599 -0.1674  0.2218
 5907SOL    HW129354   1.061   4.239   0.206 -0.6887  1.9681 -0.7612
 5907SOL    HW229355   1.150   4.248   0.323  0.0698 -0.8281  0.8330
 5908SOL     OW29356   0.758   0.402   9.515 -0.0557 -0.3110 -1.1910
 5908SOL    HW129357   0.772   0.335   9.582 -2.0499  0.9045  0.4382
 5908SOL    HW229358   0.836   0.398   9.459  1.2587  0.9803  0.5442
 5909SOL     OW29359   1.914   0.130   1.326 -0.2199  0.2483 -0.5822
 5909SOL    HW129360   1.912   0.225   1.316  1.6536  0.4973  1.3651
 5909SOL    HW229361   1.972   0.100   1.256 -0.7455 -0.5732 -0.6693
 5910SOL     OW29362   1.121   1.533   0.956 -0.2259  0.0871 -0.1170
 5910SOL    HW129363   1.104   1.604   1.018  0.0404 -2.4789  2.8761
 5910SOL    HW229364   1.215   1.542   0.941 -0.1381 -0.8283 -0.0841
 5911SOL     OW29365   0.905   1.782   3.841  0.3265 -0.1909  0.4730
 5911SOL    HW129366   0.870   1.768   3.753 -0.4169  3.2690  0.2197
 5911SOL    HW229367   0.998   1.793   3.825  0.0144  1.8980  0.0863
 5912SOL     OW29368   0.556   2.167   8.781  0.2568 -0.0120 -0.1981
 5912SOL    HW129369   0.483   2.110   8.805  0.6570 -0.3982  0.0918
 5912SOL    HW229370   0.529   2.206   8.698  3.8488  2.0298 -0.4461
 5913SOL     OW29371   2.837   2.832   1.300  0.1430  0.9480 -0.1317
 5913SOL    HW129372   2.811   2.871   1.383 -1.7037  0.5669 -0.5241
 5913SOL    HW229373   2.926   2.810   1.327  0.3329 -0.6760 -2.0665
 5914SOL     OW29374   3.602   0.552  15.096  0.1629 -0.1774  0.1492
 5914SOL    HW129375   3.591   0.537  15.002 -1.4824  1.4610  0.0750
 5914SOL    HW229376   3.547   0.630  15.098  1.0214  0.3355  2.9363
 5915SOL     OW29377   0.032   2.965   1.246  0.0390 -0.0604  0.2010
 5915SOL    HW129378   4.736   3.052   1.266  0.4734  0.4588 -1.2936
 5915SOL    HW229379   0.035   2.924   1.333  2.3522 -1.0887 -0.3391
 5916SOL     OW29380   3.489   4.561   1.010  0.2570 -0.1178  0.0026
 5916SOL    HW129381   3.553   4.543   0.941 -1.6217  0.6652 -1.9461
 5916SOL    HW229382   3.556   4.599   1.066  0.7537 -2.1863  0.8060
 5917SOL     OW29383   1.186   3.924   9.353 -0.5443 -0.0737 -0.2348
 5917SOL    HW129384   1.216   3.998   9.406 -1.9983  0.9931 -0.8816
 5917SOL    HW229385   1.096   3.958   9.347 -0.1429  0.6301 -2.4602
 5918SOL     OW29386   4.392   0.709   4.127 -0.1431  0.3135  0.5474
 5918SOL    HW129387   4.472   0.675   4.168 -1.0126 -1.3595  0.8541
 5918SOL    HW229388   4.361   0.635   4.075 -0.0801  0.0381  0.9038
 5919SOL     OW29389   1.962   3.461   3.286  0.3951 -0.4905 -0.6403
 5919SOL    HW129390   1.896   3.455   3.217  0.8235 -2.7885 -0.8583
 5919SOL    HW229391   1.976   3.368   3.306  0.4793 -0.2899  0.2134
 5920SOL     OW29392   0.763   1.780   9.027  0.4844  1.4420  0.2774
 5920SOL    HW129393   0.763   1.684   9.036  0.5092  1.3990 -0.1538
 5920SOL    HW229394   0.808   1.804   9.108 -0.0782 -1.8750  1.5975
 5921SOL     OW29395   0.222   3.303  12.889 -0.4768 -0.4637 -0.4208
 5921SOL    HW129396   0.261   3.221  12.918  0.1261  0.8744  2.5515
 5921SOL    HW229397   0.238   3.305  12.795 -0.2090 -0.9809 -0.3884
 5922SOL     OW29398   2.564   0.554   2.043 -0.2128  0.9242  0.0919
 5922SOL    HW129399   2.633   0.594   2.097  1.9101 -1.8399 -0.5860
 5922SOL    HW229400   2.527   0.628   1.996  0.1545  0.0765 -1.5215
 5923SOL     OW29401   0.018   0.843  15.903 -0.1640 -0.4364 -0.1745
 5923SOL    HW129402   4.664   0.870  15.890 -0.2909  0.8275  3.4022
 5923SOL    HW229403   0.070   0.915  15.868 -0.4723 -0.5409 -0.8407
 5924SOL     OW29404   0.274   1.609  15.082 -0.3487  0.0949  0.5056
 5924SOL    HW129405   0.246   1.701  15.078 -3.1939 -0.7875  0.1125
 5924SOL    HW229406   0.270   1.584  14.990  0.5908 -0.6487  0.6721
 5925SOL     OW29407   2.003   1.092   7.866 -0.3084  0.4320  0.1281
 5925SOL    HW129408   2.081   1.048   7.899 -0.9075  0.7050  1.9230
 5925SOL    HW229409   2.033   1.183   7.868  0.6949  0.0781  1.7354
 5926SOL     OW29410   1.963   0.094   7.626  0.0403 -0.1944 -0.2003
 5926SOL    HW129411   2.034   0.159   7.621  0.1775 -0.4988 -2.2853
 5926SOL    HW229412   1.906   0.148   7.681  0.7828  0.8179 -0.4263
 5927SOL     OW29413   1.407   3.831   4.547 -0.6956 -0.2064 -0.3081
 5927SOL    HW129414   1.397   3.820   4.642 -0.7341 -1.1917 -0.4298
 5927SOL    HW229415   1.374   3.920   4.535  0.6065  0.5208  1.5016
 5928SOL     OW29416   3.522   2.752   2.055 -0.2713 -0.1484  0.7350
 5928SOL    HW129417   3.574   2.831   2.042  0.8196 -1.2550 -1.6483
 5928SOL    HW229418   3.440   2.787   2.091 -1.1472 -1.9339  0.4595
 5929SOL     OW29419   1.573   3.487   5.988  0.0005  0.6277  0.0084
 5929SOL    HW129420   1.515   3.548   6.035  1.1609  3.2285 -1.9252
 5929SOL    HW229421   1.583   3.421   6.056 -0.0228  1.7477  1.0992
 5930SOL     OW29422   1.955   0.711   4.690  0.5783 -0.3960  0.5910
 5930SOL    HW129423   1.876   0.763   4.703 -0.8407 -1.6527 -3.0948
 5930SOL    HW229424   2.009   0.780   4.652  0.0517 -0.9640 -1.2035
 5931SOL     OW29425   4.442   3.247   9.806  0.1274  0.0575 -0.4517
 5931SOL    HW129426   4.504   3.314   9.836  3.6297 -2.8253 -1.2278
 5931SOL    HW229427   4.371   3.310   9.796  0.0825  0.2035  0.7360
 5932SOL     OW29428   0.647   3.797  16.557 -0.2948 -0.0858 -0.2265
 5932SOL    HW129429   0.598   3.790  16.475  1.2685  0.9749 -1.2489
 5932SOL    HW229430   0.731   3.821  16.518 -1.7076  1.5216 -2.2321
 5933SOL     OW29431   3.390   3.395   7.617 -0.0436 -0.6666 -0.1836
 5933SOL    HW129432   3.422   3.374   7.529 -0.3034  0.1775 -0.4870
 5933SOL    HW229433   3.473   3.408   7.662 -0.1908 -1.3139  0.2701
 5934SOL     OW29434   1.629   2.679  11.335  0.5407 -0.2359  0.0801
 5934SOL    HW129435   1.686   2.609  11.302 -2.0174 -2.3396  0.0520
 5934SOL    HW229436   1.643   2.753  11.277  0.9508  0.3767  0.9640
 5935SOL     OW29437   3.652   2.470  14.197  0.5030 -0.3381 -0.2449
 5935SOL    HW129438   3.739   2.487  14.233  0.3086 -0.4189  0.2643
 5935SOL    HW229439   3.601   2.542  14.233  3.9066  1.2537  1.3657
 5936SOL     OW29440   0.906   1.647  11.619  0.2012 -0.0859  0.2806
 5936SOL    HW129441   1.000   1.666  11.612  0.1550 -0.4442 -1.2167
 5936SOL    HW229442   0.886   1.663  11.711  1.1738  0.5212  0.3899
 5937SOL     OW29443   3.596   1.557   2.598 -0.4431  0.4630 -0.4221
 5937SOL    HW129444   3.533   1.535   2.529 -2.1187  1.1307  0.8898
 5937SOL    HW229445   3.673   1.571   2.543  0.8571  1.0183  1.5125
 5938SOL     OW29446   0.700   2.628   5.864 -0.6848  0.3257  0.4574
 5938SOL    HW129447   0.703   2.558   5.929 -1.5998  0.9972  1.2100
 5938SOL    HW229448   0.633   2.592   5.806 -1.1278 -0.1211  1.2455
 5939SOL     OW29449   2.429   3.819   1.018  0.7512  0.4698 -0.1752
 5939SOL    HW129450   2.410   3.818   1.112  0.4700 -1.2636 -0.2507
 5939SOL    HW229451   2.517   3.781   1.017 -0.2085 -1.7028 -1.5561
 5940SOL     OW29452   0.398   3.599   8.056 -0.5585  0.0762  0.3693
 5940SOL    HW129453   0.319   3.614   8.109  0.8079 -0.2981  2.5222
 5940SOL    HW229454   0.397   3.504   8.045  0.5914 -0.0529  1.3613
 5941SOL     OW29455   1.902   1.585   1.807  0.1258 -0.2455 -0.3060
 5941SOL    HW129456   1.995   1.565   1.789  0.7262  1.0839  1.3798
 5941SOL    HW229457   1.863   1.536   1.734 -1.6178  1.7477 -0.6809
 5942SOL     OW29458   2.752   0.975   2.637 -0.7302 -0.3845 -0.3187
 5942SOL    HW129459   2.790   1.062   2.640 -1.0707 -0.1959 -1.5049
 5942SOL    HW229460   2.665   0.985   2.676 -0.0616  0.4233  0.9474
 5943SOL     OW29461   1.725   2.765   8.509  0.4447  0.4884  0.8708
 5943SOL    HW129462   1.733   2.858   8.530  1.2343  0.5884  0.1161
 5943SOL    HW229463   1.651   2.753   8.570 -0.3945  2.2347  0.1862
 5944SOL     OW29464   1.981   0.952   8.198  0.6314  0.3966 -0.5082
 5944SOL    HW129465   1.901   0.987   8.237 -0.4350 -3.0775  0.4082
 5944SOL    HW229466   1.951   0.877   8.147 -0.3694  0.2284  0.3237
 5945SOL     OW29467   0.578   0.542   6.121  0.0622 -0.1282 -0.1447
 5945SOL    HW129468   0.521   0.562   6.195  1.0741 -0.7873  0.8130
 5945SOL    HW229469   0.618   0.467   6.165 -0.7853 -1.2359 -1.2428
 5946SOL     OW29470   3.106   3.059   4.735  0.4500 -0.0403  0.1508
 5946SOL    HW129471   3.150   2.980   4.703  0.7214  0.3252 -0.3806
 5946SOL    HW229472   3.184   3.112   4.755  1.7113 -2.4295  1.5982
 5947SOL     OW29473   0.688   0.385  10.904 -0.7327  0.1151  0.2399
 5947SOL    HW129474   0.741   0.364  10.827  0.5905  0.9412  0.9086
 5947SOL    HW229475   0.628   0.312  10.918  0.2695 -0.7057  0.3050
 5948SOL     OW29476   0.391   0.751  16.058  0.5430 -0.0748  0.6291
 5948SOL    HW129477   0.362   0.836  16.091 -0.6608 -0.6189  0.9497
 5948SOL    HW229478   0.455   0.773  15.990 -0.2829 -0.6136 -0.3307
 5949SOL     OW29479   2.834   2.557   1.611  0.3220 -0.1079 -0.6642
 5949SOL    HW129480   2.879   2.507   1.679 -0.9706  0.2030  0.4130
 5949SOL    HW229481   2.826   2.482   1.552  2.0730  0.3057 -1.4221
 5950SOL     OW29482   0.324   4.646   6.865  0.0377 -0.0646 -0.2921
 5950SOL    HW129483   0.366   4.596   6.935 -0.1276 -0.7570 -0.6829
 5950SOL    HW229484   0.268   4.711   6.906  0.8425 -0.0593  0.7881
 5951SOL     OW29485   2.459   1.791  15.296  0.0264 -0.6005 -0.0708
 5951SOL    HW129486   2.423   1.879  15.287  0.2244 -0.3815  1.2108
 5951SOL    HW229487   2.449   1.780  15.391 -2.2697 -0.2259 -0.2759
 5952SOL     OW29488   1.204   2.346  10.676 -0.4415 -0.3958 -0.7331
 5952SOL    HW129489   1.141   2.359  10.746 -1.4631  1.5092 -2.0106
 5952SOL    HW229490   1.275   2.307  10.727 -0.1761 -1.1650 -1.6838
 5953SOL     OW29491   4.146   4.132   3.424  0.5563 -0.3491  0.2745
 5953SOL    HW129492   4.060   4.116   3.462  0.0247 -0.3837 -0.9582
 5953SOL    HW229493   4.199   4.089   3.491 -0.8697 -1.1889  0.8467
 5954SOL     OW29494   2.614   2.786   8.574  0.4677  0.1931  0.4566
 5954SOL    HW129495   2.614   2.710   8.516 -2.0734  0.4918  0.0523
 5954SOL    HW229496   2.559   2.753   8.645 -2.4234  1.0114 -1.3990
 5955SOL     OW29497   1.588   3.601   9.361  0.4883  0.5622  0.5762
 5955SOL    HW129498   1.536   3.655   9.301  0.7503 -2.7846 -2.6560
 5955SOL    HW229499   1.525   3.588   9.432  0.8938  2.2164  1.2615
 5956SOL     OW29500   4.380   3.776   8.327  0.5590 -0.0550 -0.0833
 5956SOL    HW129501   4.293   3.784   8.368  0.2829  1.8318 -1.0298
 5956SOL    HW229502   4.400   3.685   8.345  1.3316  0.4735  1.7767
 5957SOL     OW29503   1.943   0.161   2.593 -0.3616  0.0805  0.0237
 5957SOL    HW129504   2.001   0.152   2.669  1.0317  0.2759 -1.0047
 5957SOL    HW229505   1.865   0.144   2.646  0.2677  2.0305  1.6140
 5958SOL     OW29506   3.859   3.242   6.650  0.5242  0.0288  0.3879
 5958SOL    HW129507   3.806   3.164   6.636 -1.5118  1.6916 -1.1925
 5958SOL    HW229508   3.827   3.270   6.736 -2.4057  0.5147 -0.8645
 5959SOL     OW29509   2.489   4.185   3.485  0.1251  1.1149  0.4524
 5959SOL    HW129510   2.546   4.135   3.544  1.0986  0.2734 -1.1972
 5959SOL    HW229511   2.510   4.278   3.497 -0.7975  1.6315 -2.0456
 5960SOL     OW29512   2.947   3.255   6.426 -0.8357  0.0031 -0.9176
 5960SOL    HW129513   2.948   3.169   6.469  0.4077 -0.0461 -1.0625
 5960SOL    HW229514   2.860   3.290   6.446  0.0212  1.6159 -0.0819
 5961SOL     OW29515   1.118   4.702  11.570 -0.3016 -0.4883  0.0705
 5961SOL    HW129516   1.153   0.015  11.643  1.8759 -2.1412  0.1536
 5961SOL    HW229517   1.125   4.611  11.597 -2.1931 -0.3517  1.0268
 5962SOL     OW29518   2.037   0.286   4.256 -0.0980 -0.0676 -0.4493
 5962SOL    HW129519   1.985   0.220   4.209 -0.4681 -0.3851  0.4041
 5962SOL    HW229520   2.037   0.248   4.344 -0.5019 -0.7841 -0.7584
 5963SOL     OW29521   3.659   1.201   4.312 -0.2996  0.3371 -0.1262
 5963SOL    HW129522   3.603   1.234   4.241 -0.7285  2.5293  1.2223
 5963SOL    HW229523   3.629   1.261   4.380  1.3976 -1.7787  2.4545
 5964SOL     OW29524   3.983   0.236   4.263  0.0852 -0.0549  0.1571
 5964SOL    HW129525   4.029   0.258   4.182 -0.0802 -0.7772 -0.1412
 5964SOL    HW229526   4.051   0.207   4.324 -0.4183 -0.2255  0.6346
 5965SOL     OW29527   2.169   0.595  14.891  0.4201  0.2122  0.3434
 5965SOL    HW129528   2.196   0.528  14.829  1.6120  0.5368  0.5021
 5965SOL    HW229529   2.081   0.613  14.857 -0.0311  0.2194  1.5254
 5966SOL     OW29530   2.057   0.024   3.445 -0.4808 -0.5099 -0.2309
 5966SOL    HW129531   2.046   4.666   3.443 -1.2661 -0.4483  1.5799
 5966SOL    HW229532   2.145   0.029   3.409  0.6750  0.3306  2.7125
 5967SOL     OW29533   2.780   4.041   0.846  0.2237  0.0189 -0.3175
 5967SOL    HW129534   2.758   3.958   0.805 -1.8579 -0.1896  1.2094
 5967SOL    HW229535   2.709   4.096   0.813  0.7668 -0.2133 -1.8360
 5968SOL     OW29536   0.401   3.843   5.685 -0.1283 -0.0461  0.2666
 5968SOL    HW129537   0.335   3.850   5.616  0.9849  0.3285 -0.7732
 5968SOL    HW229538   0.381   3.752   5.709  0.3755 -0.5257 -1.1329
 5969SOL     OW29539   2.162   4.367   0.807 -0.0223  0.2917  0.9519
 5969SOL    HW129540   2.165   4.400   0.897 -3.8985  2.7092  0.1572
 5969SOL    HW229541   2.185   4.274   0.816 -1.2072  0.0191  1.2073
 5970SOL     OW29542   2.858   3.156   3.216 -0.0143  0.4056  0.2206
 5970SOL    HW129543   2.909   3.123   3.290 -0.1746 -2.5285 -0.9873
 5970SOL    HW229544   2.809   3.228   3.255  2.3353  1.4209  1.2792
 5971SOL     OW29545   4.243   3.375   4.978  0.3352  0.1464  0.2127
 5971SOL    HW129546   4.197   3.457   4.997 -0.5269  0.3474 -2.7244
 5971SOL    HW229547   4.209   3.311   5.040  0.3510  1.3610  1.4790
 5972SOL     OW29548   4.144   0.958   4.638  0.0770  0.4691 -0.2514
 5972SOL    HW129549   4.084   0.946   4.712  2.4368  0.5529  1.6760
 5972SOL    HW229550   4.225   0.991   4.676  0.8246 -1.4098 -0.2228
 5973SOL     OW29551   0.874   2.737   9.040 -0.5377 -0.1762 -0.3179
 5973SOL    HW129552   0.850   2.649   9.010 -0.5693 -0.3927  0.3432
 5973SOL    HW229553   0.855   2.777   8.955  2.5476 -2.9802 -2.3228
 5974SOL     OW29554   2.052   3.098  10.237 -0.3757 -0.3819 -0.0401
 5974SOL    HW129555   2.027   3.113  10.328 -0.5654 -0.4996 -0.0737
 5974SOL    HW229556   2.146   3.082  10.230  0.2925  2.6242  2.0955
 5975SOL     OW29557   1.855   3.528   3.644 -0.1812 -0.0917  0.4578
 5975SOL    HW129558   1.932   3.555   3.594 -0.6501 -0.5186 -0.5157
 5975SOL    HW229559   1.867   3.436   3.666  1.0272  0.0875  0.5610
 5976SOL     OW29560   2.142   3.031   4.554 -0.2325 -0.0604  0.0030
 5976SOL    HW129561   2.179   3.062   4.636  1.4640  0.1675 -0.8578
 5976SOL    HW229562   2.066   2.980   4.582  0.0729  0.2800  1.4680
 5977SOL     OW29563   2.282   0.981  16.366 -0.2285 -0.1760 -0.0692
 5977SOL    HW129564   2.219   0.933  16.420 -0.2288 -1.0405 -0.8361
 5977SOL    HW229565   2.362   0.929  16.376  0.5458  1.5887  2.8010
 5978SOL     OW29566   1.024   0.479   8.712 -0.0308  0.4377  0.5725
 5978SOL    HW129567   1.000   0.470   8.620 -0.7669 -3.6612  1.1726
 5978SOL    HW229568   0.936   0.469   8.750 -0.9950 -1.4865 -2.1933
 5979SOL     OW29569   0.267   0.534  16.154  0.2333 -0.2262  0.0252
 5979SOL    HW129570   0.346   0.489  16.183 -0.1349  0.4539  2.1012
 5979SOL    HW229571   0.306   0.617  16.125 -0.5451 -0.2862 -1.1922
 5980SOL     OW29572   2.148   1.811   5.985  0.4806 -0.4962  0.4728
 5980SOL    HW129573   2.193   1.895   5.989 -0.7081  0.0271  2.5268
 5980SOL    HW229574   2.127   1.802   5.892  1.0281  1.9092  0.1313
 5981SOL     OW29575   3.855   2.724   7.517  0.6305 -0.1892  0.9099
 5981SOL    HW129576   3.826   2.777   7.443 -1.0571 -0.9239  1.0589
 5981SOL    HW229577   3.912   2.665   7.468 -0.5767 -0.7163  0.1560
 5982SOL     OW29578   1.343   0.028   1.989  0.0427  0.7027 -0.2368
 5982SOL    HW129579   1.419   0.030   2.046  0.0369  2.8776 -0.3078
 5982SOL    HW229580   1.361   4.682   1.944  1.2732 -0.2793  2.0892
 5983SOL     OW29581   0.055   3.536   4.881 -0.0176  0.3258 -0.3128
 5983SOL    HW129582   0.018   3.452   4.852 -2.0125  0.8955  0.5845
 5983SOL    HW229583   4.708   3.578   4.896 -0.4795 -0.6387 -0.1774
 5984SOL     OW29584   1.447   0.815  17.711 -0.1998 -0.0379  0.1053
 5984SOL    HW129585   1.422   0.786  17.624  2.2394 -1.4652 -0.1460
 5984SOL    HW229586   1.359   0.836  17.741 -0.5797  1.4105 -2.0876
 5985SOL     OW29587   4.014   2.305  16.360  0.3044 -0.5530 -0.2456
 5985SOL    HW129588   4.027   2.211  16.347 -0.4100 -0.5432 -0.9792
 5985SOL    HW229589   4.002   2.334  16.270 -0.2698  0.6272  0.2172
 5986SOL     OW29590   1.425   4.015   9.823 -0.4337  0.3842 -0.2559
 5986SOL    HW129591   1.415   3.923   9.849  1.7197  0.2849  0.2115
 5986SOL    HW229592   1.334   4.042   9.836 -0.4876  0.3795 -0.6209
 5987SOL     OW29593   2.115   3.239   1.078 -0.6393 -0.3470  0.1545
 5987SOL    HW129594   2.061   3.175   1.123 -1.5167 -0.4711 -1.0639
 5987SOL    HW229595   2.153   3.184   1.009 -2.3209 -0.9852 -0.2579
 5988SOL     OW29596   2.253   2.299   9.765 -0.3462  0.3109  0.1541
 5988SOL    HW129597   2.210   2.213   9.760  1.3975 -0.3325 -3.5301
 5988SOL    HW229598   2.232   2.316   9.673 -1.5203 -0.1762  0.3204
 5989SOL     OW29599   1.047   4.055  10.679  0.1417 -0.3568 -0.0386
 5989SOL    HW129600   1.068   4.114  10.607 -0.1610  0.1880  0.3204
 5989SOL    HW229601   1.052   4.120  10.748  0.3127  0.0154 -0.4014
 5990SOL     OW29602   1.480   0.496   8.672  0.1949  0.1765 -0.3287
 5990SOL    HW129603   1.449   0.480   8.583 -1.6346 -0.6498  0.4512
 5990SOL    HW229604   1.566   0.534   8.654  0.1996  0.0061 -0.6632
 5991SOL     OW29605   3.910   3.137   5.732  0.2660  0.8094  0.1419
 5991SOL    HW129606   3.924   3.231   5.740 -0.4774  0.9091  0.2634
 5991SOL    HW229607   3.861   3.133   5.650  1.1491 -1.0128 -0.3051
 5992SOL     OW29608   1.061   3.864   4.924  0.1280  0.3066 -0.2292
 5992SOL    HW129609   1.066   3.798   4.855 -1.2447 -0.5798  0.5430
 5992SOL    HW229610   1.107   3.935   4.879 -1.8806  1.7784  0.0660
 5993SOL     OW29611   0.024   2.020  17.466  0.5566 -0.0935 -0.0411
 5993SOL    HW129612   4.671   2.049  17.459  0.6999  0.8042  1.7541
 5993SOL    HW229613   0.030   1.984  17.555  0.2578  0.4919  0.2181
 5994SOL     OW29614   2.422   4.264  17.641  0.5156 -0.2255 -0.1985
 5994SOL    HW129615   2.408   4.275  17.547 -0.1628 -3.1005 -0.4333
 5994SOL    HW229616   2.515   4.238  17.647 -0.0500 -2.3122 -0.3609
 5995SOL     OW29617   1.656   2.489   2.462  0.1233 -0.0054  0.1497
 5995SOL    HW129618   1.578   2.543   2.478  0.7437  0.3491  1.8805
 5995SOL    HW229619   1.692   2.520   2.379  1.0406 -0.5201  0.3638
 5996SOL     OW29620   1.652   4.557   7.262  0.0112  0.3943  0.0398
 5996SOL    HW129621   1.700   4.629   7.303 -0.2331 -0.2487  1.4601
 5996SOL    HW229622   1.581   4.536   7.322 -0.7450 -1.1235 -1.3673
 5997SOL     OW29623   1.289   4.496   9.749 -0.5535 -0.4196 -0.1685
 5997SOL    HW129624   1.220   4.442   9.709 -1.1905  1.2350 -1.3427
 5997SOL    HW229625   1.256   4.586   9.744  1.8692  0.4429 -0.3852
 5998SOL     OW29626   3.070   2.930  15.605 -0.3015 -0.2205  0.0473
 5998SOL    HW129627   3.003   2.997  15.620 -1.2144 -0.8199 -1.3695
 5998SOL    HW229628   3.146   2.986  15.620 -0.0289 -0.0319 -2.0368
 5999SOL     OW29629   2.586   0.184  12.259 -0.2848  0.6191  0.3989
 5999SOL    HW129630   2.624   0.096  12.259  1.0044  1.1655  0.9408
 5999SOL    HW229631   2.646   0.235  12.314  1.3435 -1.2931  0.3884
 6000SOL     OW29632   0.778   4.605  11.857 -0.1419  0.4722 -0.6902
 6000SOL    HW129633   0.809   4.628  11.945 -3.0823 -0.2160  0.5302
 6000SOL    HW229634   0.687   4.585  11.880  1.1623 -0.4274  3.6372
 6001SOL     OW29635   1.518   1.818   6.369  0.6793 -0.5803 -0.1120
 6001SOL    HW129636   1.609   1.832   6.394  1.0860 -0.8013 -1.4532
 6001SOL    HW229637   1.481   1.834   6.455 -1.2124 -1.7894 -0.7001
 6002SOL     OW29638   2.039   4.162  15.675 -0.4694  0.0477 -0.2344
 6002SOL    HW129639   1.953   4.149  15.635 -0.2394  0.0692 -0.7384
 6002SOL    HW229640   2.050   4.256  15.661 -0.1671  0.3847  2.1827
 6003SOL     OW29641   4.217   0.507  13.764  0.3708 -0.2257  0.4948
 6003SOL    HW129642   4.216   0.477  13.673 -2.6398 -1.2169  0.8421
 6003SOL    HW229643   4.310   0.492  13.781  0.0993 -1.3339  0.9749
 6004SOL     OW29644   4.055   0.994   2.224 -0.3926 -0.7973  0.1675
 6004SOL    HW129645   4.114   0.991   2.149  1.8728  0.0547  1.9269
 6004SOL    HW229646   4.025   0.903   2.228 -0.9794 -0.5078  2.2628
 6005SOL     OW29647   0.705   4.656   2.579  0.2707 -0.4935 -0.1234
 6005SOL    HW129648   0.772   4.719   2.554 -0.4097  1.1171  2.1326
 6005SOL    HW229649   0.647   4.708   2.635  1.8148  0.1982  0.8247
 6006SOL     OW29650   2.264   1.093   4.923  0.3318  0.4911  0.1418
 6006SOL    HW129651   2.248   1.182   4.954  0.9419  0.1351  1.4600
 6006SOL    HW229652   2.273   1.116   4.831  0.2099 -0.3672 -0.0825
 6007SOL     OW29653   0.232   3.622   8.265 -0.2358  0.2890 -0.6955
 6007SOL    HW129654   0.231   3.684   8.338  1.6578 -0.8461  0.3198
 6007SOL    HW229655   0.138   3.607   8.266 -0.1328 -0.3990 -1.0029
 6008SOL     OW29656   0.091   4.182   2.826 -0.2381 -0.2385  0.2722
 6008SOL    HW129657   0.149   4.122   2.779  0.5592 -0.3654  1.4030
 6008SOL    HW229658   0.026   4.123   2.862 -0.0317 -0.8475 -0.3532
 6009SOL     OW29659   3.061   2.941   6.306 -0.6179 -0.0371 -0.1437
 6009SOL    HW129660   3.129   2.963   6.243  0.4542  0.8195  1.3234
 6009SOL    HW229661   2.981   2.924   6.255 -0.9621  1.4722 -0.1161
 6010SOL     OW29662   4.127   1.885   7.573 -0.4254  0.1542 -0.3084
 6010SOL    HW129663   4.133   1.790   7.568  0.5755  0.1932 -0.0077
 6010SOL    HW229664   4.130   1.912   7.481  1.2769 -0.0811 -0.3205
 6011SOL     OW29665   4.605   3.085   8.962  0.2433 -0.2256  0.3377
 6011SOL    HW129666   4.587   3.026   9.035  0.1246 -1.7997 -0.9549
 6011SOL    HW229667   4.605   3.170   9.006  2.4887  0.1964 -0.4440
 6012SOL     OW29668   3.529   2.176   9.964  0.2542  0.2813 -0.3443
 6012SOL    HW129669   3.506   2.163  10.056 -0.0420 -0.3260 -0.5063
 6012SOL    HW229670   3.527   2.087   9.931  0.7470  0.0987  0.1077
 6013SOL     OW29671   4.126   2.797   6.562 -0.3898  0.0357  0.2025
 6013SOL    HW129672   4.194   2.863   6.556 -0.8307  0.5250  0.5820
 6013SOL    HW229673   4.179   2.720   6.543  0.1990  0.7947 -1.1807
 6014SOL     OW29674   0.358   3.103   3.363  0.0991 -0.7004  0.1558
 6014SOL    HW129675   0.293   3.081   3.430  0.3453 -0.5672  0.4328
 6014SOL    HW229676   0.408   3.023   3.350 -0.1442 -0.5282 -1.9872
 6015SOL     OW29677   4.023   3.209   0.655 -0.3671  0.0591  0.2313
 6015SOL    HW129678   4.040   3.125   0.698 -0.0340 -0.4662 -0.9247
 6015SOL    HW229679   3.950   3.242   0.706 -0.6109 -0.6938  0.3772
 6016SOL     OW29680   2.050   1.890  15.788  0.1066  0.1696 -0.4367
 6016SOL    HW129681   2.098   1.807  15.790 -0.2260 -0.0626 -2.2413
 6016SOL    HW229682   2.056   1.912  15.695 -0.1154  1.7929 -0.0623
 6017SOL     OW29683   3.810   3.894  13.369 -0.0914 -0.1196 -1.0176
 6017SOL    HW129684   3.748   3.890  13.296  0.6475 -2.3019 -1.5368
 6017SOL    HW229685   3.823   3.987  13.383 -0.3083  0.1421 -2.5736
 6018SOL     OW29686   0.722   0.863   4.071  0.7898 -0.4550  0.5544
 6018SOL    HW129687   0.735   0.779   4.026 -1.8749 -0.7650  0.3908
 6018SOL    HW229688   0.650   0.907   4.027 -1.1218 -2.2227  1.9515
 6019SOL     OW29689   4.675   2.780   8.933 -0.3485  0.2467 -0.1633
 6019SOL    HW129690   4.600   2.792   8.875  0.8228  4.1776 -0.8698
 6019SOL    HW229691   4.709   2.870   8.929  0.9985 -0.2263  0.4931
 6020SOL     OW29692   1.528   4.700   6.787  0.2612  0.2936  0.2761
 6020SOL    HW129693   1.485   4.625   6.830 -0.2098  1.2209  1.4092
 6020SOL    HW229694   1.607   4.656   6.756 -1.0617 -0.8312 -1.5831
 6021SOL     OW29695   4.039   1.385  13.515  0.2659 -0.1390 -0.2428
 6021SOL    HW129696   3.971   1.381  13.582  0.5322 -1.6679 -0.0665
 6021SOL    HW229697   4.035   1.478  13.493  0.7074 -0.1226 -0.2501
 6022SOL     OW29698   1.946   4.275   5.424  0.1661 -0.4513  0.1321
 6022SOL    HW129699   1.894   4.329   5.483  1.5670  1.7747 -0.6613
 6022SOL    HW229700   1.954   4.316   5.338  3.8381  2.3616  1.7858
 6023SOL     OW29701   1.013   0.683   3.216  0.0361 -0.3964 -0.2923
 6023SOL    HW129702   0.943   0.738   3.180  1.2117  1.9902  1.0298
 6023SOL    HW229703   1.069   0.745   3.262 -0.1765 -0.6410  0.2854
 6024SOL     OW29704   3.933   1.793   7.189 -0.3281  0.4239  0.4416
 6024SOL    HW129705   4.007   1.842   7.225  0.1633 -0.1255  0.1739
 6024SOL    HW229706   3.862   1.858   7.190  1.2072  2.1162 -2.2676
 6025SOL     OW29707   1.977   3.250   4.674 -0.2338 -0.4023 -0.4463
 6025SOL    HW129708   2.016   3.279   4.756  0.3770 -0.4691 -0.7119
 6025SOL    HW229709   1.984   3.155   4.681  1.8250 -0.3129 -1.4111
 6026SOL     OW29710   0.752   3.230   5.691 -0.2565 -0.0106  0.3191
 6026SOL    HW129711   0.839   3.204   5.661 -0.2741 -0.9193  1.0455
 6026SOL    HW229712   0.737   3.170   5.765  0.2990  0.0681  0.4876
 6027SOL     OW29713   0.367   0.909   2.533 -0.3731 -0.3666  0.1944
 6027SOL    HW129714   0.332   0.998   2.528  2.1110  0.7141  1.7833
 6027SOL    HW229715   0.339   0.867   2.452  0.4923  1.3200 -0.9752
 6028SOL     OW29716   2.705   2.130   0.075  0.6601  0.7502 -0.0623
 6028SOL    HW129717   2.700   2.189   0.150 -1.1347 -0.9840  1.1773
 6028SOL    HW229718   2.650   2.054   0.094  0.6842  0.9070  0.6417
 6029SOL     OW29719   0.353   2.643   4.951  0.5753 -0.3955 -0.3810
 6029SOL    HW129720   0.444   2.668   4.970  0.0802  1.1684 -0.0759
 6029SOL    HW229721   0.363   2.623   4.858 -1.9532  0.3878 -0.8051
 6030SOL     OW29722   0.187   0.103  11.034 -0.3958  0.1559  0.4391
 6030SOL    HW129723   0.279   0.099  11.058 -0.3858  1.1901  0.5382
 6030SOL    HW229724   0.152   0.171  11.091  0.4950  0.5621  0.4819
 6031SOL     OW29725   2.963   1.794  11.939 -0.1409 -0.7625 -0.2603
 6031SOL    HW129726   2.925   1.814  12.025  1.2552  1.1978 -0.0741
 6031SOL    HW229727   2.919   1.862  11.888  2.0409  0.3604 -0.6673
 6032SOL     OW29728   3.185   1.010  14.553 -0.9431  0.0324  0.1108
 6032SOL    HW129729   3.124   1.081  14.575  1.0718  2.0444 -0.8092
 6032SOL    HW229730   3.235   1.036  14.476 -1.1178 -2.7631 -0.9395
 6033SOL     OW29731   1.927   2.462   4.797 -0.2698  0.0740 -0.3719
 6033SOL    HW129732   2.005   2.482   4.745 -1.8029  1.1030 -2.2858
 6033SOL    HW229733   1.960   2.460   4.887  0.1168  2.9508 -0.4706
 6034SOL     OW29734   3.304   3.716   8.575 -0.0014  0.3879 -0.3639
 6034SOL    HW129735   3.369   3.646   8.573 -0.9767 -0.5088 -0.3032
 6034SOL    HW229736   3.238   3.668   8.525  1.5394 -1.4456 -0.6616
 6035SOL     OW29737   4.486   1.226  17.437  0.4821  0.0215  0.2539
 6035SOL    HW129738   4.428   1.151  17.440 -0.6993  0.9058 -0.5064
 6035SOL    HW229739   4.460   1.271  17.357  0.2149  0.3895  0.5409
 6036SOL     OW29740   1.674   4.618  11.795 -0.3572  0.4213 -0.3355
 6036SOL    HW129741   1.608   4.561  11.756  1.8736 -2.1135 -0.4391
 6036SOL    HW229742   1.633   4.704  11.786 -1.8764 -0.2016  0.7275
 6037SOL     OW29743   3.221   2.721  15.553 -0.1067  0.1609 -1.2891
 6037SOL    HW129744   3.181   2.647  15.598  1.4859  1.6093  2.5280
 6037SOL    HW229745   3.151   2.785  15.566 -1.2185 -0.8835 -2.1790
 6038SOL     OW29746   4.441   2.731   8.515 -0.4879 -0.0845  0.1104
 6038SOL    HW129747   4.524   2.711   8.472 -0.2463  1.0308  0.0686
 6038SOL    HW229748   4.421   2.820   8.486 -1.8447 -0.4262 -0.0027
 6039SOL     OW29749   0.282   1.040  13.770  0.1471  0.5783 -0.1791
 6039SOL    HW129750   0.296   1.113  13.710  0.8922  0.0017 -0.7027
 6039SOL    HW229751   0.341   1.069  13.839  1.0090  1.2533 -1.1938
 6040SOL     OW29752   2.167   2.431   1.009  0.6414  0.0571  0.3277
 6040SOL    HW129753   2.095   2.378   0.977  0.9881  0.8135 -1.6737
 6040SOL    HW229754   2.233   2.362   0.999 -0.9616 -1.1025 -2.1762
 6041SOL     OW29755   3.382   1.294   6.454  0.4633  0.1152 -0.4940
 6041SOL    HW129756   3.314   1.346   6.409 -1.2750 -0.7435  1.1607
 6041SOL    HW229757   3.326   1.235   6.504  1.0386 -0.3705 -0.4285
 6042SOL     OW29758   2.265   0.123   8.829 -0.8738 -0.4075  0.4498
 6042SOL    HW129759   2.195   0.144   8.890  0.4856  1.9037  1.2132
 6042SOL    HW229760   2.223   0.122   8.743  1.3555  1.4146 -0.6638
 6043SOL     OW29761   2.900   1.403   3.702 -0.0860  0.3233  0.1323
 6043SOL    HW129762   2.871   1.336   3.762 -1.8958 -1.4809 -2.7907
 6043SOL    HW229763   2.989   1.417   3.735  0.1779  1.5886 -1.1072
 6044SOL     OW29764   0.533   0.264  11.758 -0.5836 -0.0739  0.3493
 6044SOL    HW129765   0.473   0.287  11.828 -0.6930  2.1178 -0.4833
 6044SOL    HW229766   0.491   0.189  11.716  0.5931 -0.8648  0.5536
 6045SOL     OW29767   3.941   0.969   2.858 -0.7995  0.1211 -0.2418
 6045SOL    HW129768   3.980   0.883   2.869  1.1122  0.9988 -0.1031
 6045SOL    HW229769   4.022   1.017   2.878  0.0455 -1.4930  0.2185
 6046SOL     OW29770   2.909   3.465   5.786  0.1013 -0.0283 -0.7175
 6046SOL    HW129771   2.981   3.492   5.842 -2.2884  1.8333  1.4230
 6046SOL    HW229772   2.949   3.424   5.709  0.6772  0.3204 -0.6003
 6047SOL     OW29773   3.464   3.891   0.624  0.7724  0.0004  0.1105
 6047SOL    HW129774   3.543   3.890   0.570  0.1111  1.0194 -0.8782
 6047SOL    HW229775   3.451   3.799   0.648 -1.0678  0.5849  1.3506
 6048SOL     OW29776   3.453   3.270   7.358  0.2308  0.1737 -0.3145
 6048SOL    HW129777   3.387   3.282   7.290 -1.6107 -0.0343  1.4469
 6048SOL    HW229778   3.418   3.194   7.405  3.6170  1.4750  4.3415
 6049SOL     OW29779   0.533   4.308   0.818  0.0325  0.2102 -0.2247
 6049SOL    HW129780   0.472   4.350   0.757 -0.3725  0.0313  0.0575
 6049SOL    HW229781   0.616   4.334   0.780 -0.3227  0.0068 -1.1319
 6050SOL     OW29782   4.301   2.723  10.348  0.0058 -0.1689  0.2694
 6050SOL    HW129783   4.306   2.751  10.439  0.5079  3.7361 -0.9874
 6050SOL    HW229784   4.298   2.627  10.357  0.5787 -0.1530  0.6127
 6051SOL     OW29785   1.472   1.253   5.861  0.1941  0.1649  0.8036
 6051SOL    HW129786   1.528   1.215   5.929  0.8038  2.3676  1.5419
 6051SOL    HW229787   1.448   1.167   5.825 -2.2088  0.5209  1.5230
 6052SOL     OW29788   1.538   0.649   6.280  0.0140 -0.2264 -0.4928
 6052SOL    HW129789   1.574   0.718   6.335  0.4474 -1.5820  0.9238
 6052SOL    HW229790   1.444   0.657   6.296  0.4842 -2.3230  3.3487
 6053SOL     OW29791   4.086   3.385   5.685  0.1232 -0.1270  0.3907
 6053SOL    HW129792   4.121   3.427   5.606 -0.4922 -0.1730  0.0870
 6053SOL    HW229793   4.159   3.332   5.717  1.3289  1.5916  0.5088
 6054SOL     OW29794   4.618   3.961   5.626  0.3153 -0.3086 -0.5374
 6054SOL    HW129795   4.601   4.032   5.688 -3.1286 -0.7753 -0.9283
 6054SOL    HW229796   4.535   3.914   5.633  0.0353  0.3625  0.5764
 6055SOL     OW29797   3.745   3.068   6.171  0.3033 -0.3774  0.0072
 6055SOL    HW129798   3.750   3.018   6.089  2.4803 -1.4176  0.7613
 6055SOL    HW229799   3.708   3.005   6.232  2.2548 -0.4264  1.1230
 6056SOL     OW29800   3.630   2.817  11.366  0.2325  0.0352 -0.1045
 6056SOL    HW129801   3.554   2.867  11.395 -0.0367  0.6027 -1.7934
 6056SOL    HW229802   3.698   2.860  11.420  1.2404  0.8066 -1.9896
 6057SOL     OW29803   3.218   0.418   4.115  0.4313 -0.3893  0.3072
 6057SOL    HW129804   3.129   0.452   4.124  0.7118 -0.6353  3.9705
 6057SOL    HW229805   3.269   0.482   4.164 -1.8709  1.9840 -0.3517
 6058SOL     OW29806   1.500   3.144   8.677 -0.1755 -0.0768  0.0566
 6058SOL    HW129807   1.576   3.149   8.619 -0.1909 -0.1994  0.0264
 6058SOL    HW229808   1.451   3.225   8.663  1.0899  0.8489  1.0996
 6059SOL     OW29809   2.484   2.536   5.371 -0.3499  0.1102  0.1411
 6059SOL    HW129810   2.484   2.488   5.453 -0.4792 -2.9576 -1.6467
 6059SOL    HW229811   2.557   2.596   5.384 -2.7823  3.2837 -0.8172
 6060SOL     OW29812   2.614   3.477   1.538 -0.2659 -0.3230 -0.0989
 6060SOL    HW129813   2.584   3.389   1.560  1.7527 -0.8138  0.7543
 6060SOL    HW229814   2.529   3.521   1.538  0.0407  0.2730 -0.1265
 6061SOL     OW29815   1.405   4.579   7.745  0.6947 -0.6509 -0.4739
 6061SOL    HW129816   1.473   4.529   7.789  2.1920 -1.0035 -3.1881
 6061SOL    HW229817   1.447   4.665   7.748  0.9459 -0.8283  1.3366
 6062SOL     OW29818   0.276   4.550   3.590 -0.3114 -0.1299  0.2947
 6062SOL    HW129819   0.346   4.488   3.571 -0.2743 -0.3884  1.2888
 6062SOL    HW229820   0.221   4.538   3.512 -1.1409 -3.3160  1.3888
 6063SOL     OW29821   4.736   1.478   9.141  0.3803 -0.3204 -0.1356
 6063SOL    HW129822   0.086   1.449   9.166  0.0802 -1.3885 -0.3241
 6063SOL    HW229823   4.685   1.400   9.163  0.8080 -0.4406  0.4129
 6064SOL     OW29824   2.525   2.187   1.643 -0.0060  0.4122 -0.5106
 6064SOL    HW129825   2.506   2.277   1.668  2.1370  0.4514  0.9267
 6064SOL    HW229826   2.547   2.155   1.730  2.6767  0.1989 -1.2470
 6065SOL     OW29827   4.068   1.165   3.830  0.3979  0.1564 -0.1578
 6065SOL    HW129828   4.005   1.142   3.763 -2.2255 -0.7444  2.6009
 6065SOL    HW229829   4.000   1.209   3.882  0.5709  0.0215  0.1841
 6066SOL     OW29830   0.153   0.071   1.428  0.3920  0.2638  0.4554
 6066SOL    HW129831   0.220   0.002   1.423  0.9321  0.6563  2.1853
 6066SOL    HW229832   0.154   0.090   1.522  1.3187 -0.4117  0.5847
 6067SOL     OW29833   2.813   1.786   2.723  0.7842 -0.2085 -0.0945
 6067SOL    HW129834   2.772   1.852   2.778 -0.2663  0.0493 -1.1860
 6067SOL    HW229835   2.734   1.737   2.700 -0.1587 -0.0494  2.7322
 6068SOL     OW29836   2.791   4.293  16.748 -0.5970 -0.4540  0.0358
 6068SOL    HW129837   2.750   4.234  16.811 -0.4802 -0.1619  0.3861
 6068SOL    HW229838   2.841   4.351  16.807 -0.9255  1.6380 -1.7367
 6069SOL     OW29839   0.877   2.581  13.713  0.1490  0.0341  0.1802
 6069SOL    HW129840   0.864   2.506  13.656  1.5030  0.9899 -1.3870
 6069SOL    HW229841   0.938   2.546  13.778 -1.3290  0.5586  1.8753
 6070SOL     OW29842   3.160   0.869   3.063  0.4553 -0.2474 -0.4829
 6070SOL    HW129843   3.079   0.896   3.107  0.0176 -0.1864 -1.3119
 6070SOL    HW229844   3.184   0.952   3.022 -2.2035  0.4743 -0.5936
 6071SOL     OW29845   0.040   4.586   6.560  0.2512  0.3760 -0.2821
 6071SOL    HW129846   0.129   4.555   6.543  0.1002 -1.4411  2.0973
 6071SOL    HW229847   0.039   4.552   6.650  2.3286  1.2470  0.0562
 6072SOL     OW29848   1.769   1.923   3.578 -0.5093 -0.3166  0.1108
 6072SOL    HW129849   1.812   2.000   3.616  0.2071  0.4325 -2.2436
 6072SOL    HW229850   1.680   1.934   3.611 -0.6088 -2.5563  0.5730
 6073SOL     OW29851   1.111   3.353   5.908  0.7811 -0.1502 -0.2042
 6073SOL    HW129852   1.169   3.421   5.942  0.4203 -1.4256  2.8868
 6073SOL    HW229853   1.081   3.388   5.824 -0.0726  2.0546  1.0119
 6074SOL     OW29854   2.259   1.673  12.282 -0.5946  0.4832 -0.7582
 6074SOL    HW129855   2.302   1.596  12.244  1.3478  1.5084 -0.6127
 6074SOL    HW229856   2.249   1.649  12.374 -1.4499  0.5774 -0.8230
 6075SOL     OW29857   2.095   1.285   4.391  0.0116 -0.4319  0.3908
 6075SOL    HW129858   2.109   1.358   4.332  1.3275  0.1022  1.3632
 6075SOL    HW229859   2.013   1.319   4.426  0.7978  1.2784  0.5644
 6076SOL     OW29860   1.685   3.368   6.612  0.3124 -0.3616  0.4912
 6076SOL    HW129861   1.697   3.287   6.563  1.0017 -1.5321  2.5965
 6076SOL    HW229862   1.610   3.340   6.664  0.9244 -0.1604  1.4950
 6077SOL     OW29863   0.602   0.630   5.424 -0.4172  0.4755  0.7848
 6077SOL    HW129864   0.603   0.651   5.330  0.6795  1.5526  1.0326
 6077SOL    HW229865   0.606   0.721   5.452  1.7515  0.7336 -0.3259
 6078SOL     OW29866   0.715   3.095   2.994 -0.0203  0.0267 -0.3726
 6078SOL    HW129867   0.719   3.017   3.049 -0.6689 -1.4649 -2.4162
 6078SOL    HW229868   0.810   3.092   2.981  0.2095 -0.4985  1.4875
 6079SOL     OW29869   1.956   3.297   9.493  0.4685  0.3561  0.6499
 6079SOL    HW129870   1.953   3.391   9.475  0.3772  0.7030  2.5076
 6079SOL    HW229871   2.004   3.297   9.576 -1.4519  2.0902  1.7442
 6080SOL     OW29872   0.272   0.867   9.774  0.4866 -0.5641  0.3713
 6080SOL    HW129873   0.330   0.933   9.736  0.3103 -0.2142  0.7225
 6080SOL    HW229874   0.229   0.826   9.698  1.7956 -0.9601 -0.1652
 6081SOL     OW29875   2.788   0.136   8.228  0.0108  0.3907  0.2822
 6081SOL    HW129876   2.872   0.090   8.222 -1.8229 -2.6618 -2.1735
 6081SOL    HW229877   2.814   0.223   8.195  0.4730  0.2423  0.2616
 6082SOL     OW29878   4.427   1.465   6.607  0.4736  0.2422 -0.5063
 6082SOL    HW129879   4.353   1.526   6.613 -0.3742 -0.5636 -2.7407
 6082SOL    HW229880   4.502   1.517   6.578  1.1271 -1.0311 -1.0980
 6083SOL     OW29881   4.701   0.884  13.655 -0.2047 -0.3720 -0.1066
 6083SOL    HW129882   4.614   0.924  13.667  0.4433  1.3311 -1.0952
 6083SOL    HW229883   0.005   0.946  13.596  0.3508 -1.2699 -0.6553
 6084SOL     OW29884   1.476   1.354  14.944  0.2190 -0.3110  0.2464
 6084SOL    HW129885   1.461   1.449  14.941  0.7007 -0.2456 -0.0045
 6084SOL    HW229886   1.389   1.318  14.925 -0.0739  0.7172 -0.3731
 6085SOL     OW29887   0.189   1.441   3.697  0.4072  0.3949 -0.7012
 6085SOL    HW129888   0.160   1.369   3.641 -1.2113 -0.6735  1.5013
 6085SOL    HW229889   0.261   1.470   3.642  0.4876  0.1792 -0.7093
 6086SOL     OW29890   2.282   0.444   2.765 -0.1698  0.4208 -0.1458
 6086SOL    HW129891   2.249   0.531   2.744  1.1357  1.0912  0.6279
 6086SOL    HW229892   2.341   0.425   2.692 -1.1936  0.4990 -0.9899
 6087SOL     OW29893   0.188   3.481  14.716  0.1334 -0.4390  0.0171
 6087SOL    HW129894   0.156   3.399  14.676 -2.5898 -0.0403  1.3974
 6087SOL    HW229895   0.144   3.559  14.682  1.1732  0.7265  1.3989
 6088SOL     OW29896   1.806   3.791   9.285 -0.2014  0.4252  0.4596
 6088SOL    HW129897   1.830   3.784   9.377  2.3770 -0.3118 -0.2795
 6088SOL    HW229898   1.730   3.733   9.279  0.0159  0.0226  1.6841
 6089SOL     OW29899   0.357   0.947   8.870  0.0260  0.5207 -0.2634
 6089SOL    HW129900   0.282   0.919   8.922 -1.5882  1.5572 -2.0277
 6089SOL    HW229901   0.365   1.040   8.890 -0.8819  0.5398 -0.0106
 6090SOL     OW29902   2.111   4.160   1.681 -0.1603 -0.3188 -0.3698
 6090SOL    HW129903   2.103   4.090   1.746 -1.9476  0.2246 -0.0018
 6090SOL    HW229904   2.201   4.144   1.653 -0.4651 -0.3373 -1.3557
 6091SOL     OW29905   2.585   2.208   9.023 -0.0538  0.0910 -0.5570
 6091SOL    HW129906   2.629   2.257   9.092 -0.9771  0.9437 -0.5820
 6091SOL    HW229907   2.671   2.177   8.993 -0.6024  0.1158 -2.1799
 6092SOL     OW29908   1.273   0.850   9.304 -0.0282  0.0093  0.1245
 6092SOL    HW129909   1.280   0.945   9.317 -3.0989 -0.0466  2.2818
 6092SOL    HW229910   1.355   0.823   9.344 -0.5124 -1.6445 -0.0175
 6093SOL     OW29911   0.476   1.201   7.365  0.1788 -0.0072  0.5436
 6093SOL    HW129912   0.497   1.248   7.285  0.2724  0.4675  0.8457
 6093SOL    HW229913   0.424   1.269   7.408 -0.9724  0.4259 -1.5201
 6094SOL     OW29914   3.600   2.249   7.078 -0.0643  0.4500  0.6140
 6094SOL    HW129915   3.629   2.276   7.165  0.2219 -1.0571  0.9849
 6094SOL    HW229916   3.532   2.186   7.104 -0.6910  0.6968 -0.4233
 6095SOL     OW29917   2.687   2.713   1.932 -0.9276  0.2924 -0.5818
 6095SOL    HW129918   2.629   2.720   1.856 -0.6021 -1.1019 -0.9526
 6095SOL    HW229919   2.662   2.624   1.956 -0.3056  0.8222  1.9496
 6096SOL     OW29920   1.189   1.399   5.806  0.2735 -0.1127 -0.5249
 6096SOL    HW129921   1.102   1.378   5.840 -0.3190  0.6254 -1.5887
 6096SOL    HW229922   1.208   1.320   5.756 -1.6828 -0.6027 -0.5128
 6097SOL     OW29923   3.623   4.252   7.535  0.1416 -0.0843 -0.5307
 6097SOL    HW129924   3.565   4.296   7.597  0.1390 -0.5046 -0.2330
 6097SOL    HW229925   3.707   4.243   7.580  1.1102  0.1731 -2.2905
 6098SOL     OW29926   4.560   2.103   3.543 -0.2981 -0.0402  0.1335
 6098SOL    HW129927   4.480   2.076   3.589  0.5586 -1.4827  0.7901
 6098SOL    HW229928   4.618   2.034   3.574 -0.4203 -1.4903 -2.8051
 6099SOL     OW29929   2.229   1.694   0.176  0.0341  0.2327  0.6055
 6099SOL    HW129930   2.307   1.687   0.120 -1.7143  1.5593 -1.9578
 6099SOL    HW229931   2.168   1.648   0.119  0.2222 -0.1751  0.7291
 6100SOL     OW29932   2.500   1.946   0.061  0.2802  0.3561  1.2025
 6100SOL    HW129933   2.492   1.875   0.125 -1.1458 -0.5861 -0.0191
 6100SOL    HW229934   2.446   2.014   0.102 -2.5278 -1.3532  0.3097
 6101SOL     OW29935   4.098   2.417   0.801 -0.0309 -0.2966  0.0649
 6101SOL    HW129936   4.116   2.390   0.891 -0.8464 -0.9060  0.0524
 6101SOL    HW229937   4.026   2.479   0.812 -2.5423 -2.9080 -1.6362
 6102SOL     OW29938   1.750   2.605   3.352  0.2073  0.5927  1.0715
 6102SOL    HW129939   1.820   2.545   3.326  0.9066  1.7957  0.1914
 6102SOL    HW229940   1.728   2.643   3.267 -1.0855 -3.7607 -0.5443
 6103SOL     OW29941   4.729   2.692   6.050  0.6043  0.7164 -0.0179
 6103SOL    HW129942   4.694   2.722   5.966  0.2097  0.9410  0.2298
 6103SOL    HW229943   0.086   2.702   6.045  0.8384 -1.3329  0.1124
 6104SOL     OW29944   3.260   2.087  16.096 -0.1904 -0.2577  0.0457
 6104SOL    HW129945   3.176   2.073  16.139  0.4914 -0.6483  1.2472
 6104SOL    HW229946   3.304   2.006  16.123  0.2614  0.7581  2.3906
 6105SOL     OW29947   0.341   3.130   5.595 -0.1125  0.7259 -0.5314
 6105SOL    HW129948   0.387   3.059   5.550 -0.7054 -0.2827  0.4756
 6105SOL    HW229949   0.354   3.107   5.687 -3.3959 -2.2202 -0.8137
 6106SOL     OW29950   1.815   0.402  11.002  0.2253  0.6185  0.1260
 6106SOL    HW129951   1.884   0.435  10.945  0.3099 -1.1913 -0.8150
 6106SOL    HW229952   1.845   0.434  11.087 -2.1862  2.3710  0.3175
 6107SOL     OW29953   1.915   3.862   4.492  0.2469  0.3941  0.1390
 6107SOL    HW129954   1.926   3.957   4.501  1.1761  0.1083  1.9851
 6107SOL    HW229955   1.834   3.859   4.542 -1.5959  2.0635 -2.7768
 6108SOL     OW29956   3.977   3.690   1.121 -0.2982 -0.7709 -0.1582
 6108SOL    HW129957   4.042   3.693   1.050 -0.1386 -1.4073 -0.0351
 6108SOL    HW229958   3.922   3.618   1.090 -0.3266 -0.3965 -0.9908
 6109SOL     OW29959   1.149   2.342   4.413 -0.4836  0.7502 -0.3030
 6109SOL    HW129960   1.199   2.263   4.395  0.3881  1.7516 -2.3271
 6109SOL    HW229961   1.217   2.407   4.395  3.1055 -2.1774  2.8413
 6110SOL     OW29962   0.149   2.265   2.682 -0.2614  0.3214 -0.4246
 6110SOL    HW129963   0.198   2.235   2.605 -2.3590  4.1498 -3.2386
 6110SOL    HW229964   0.075   2.303   2.634 -1.6672 -3.7699 -1.5254
 6111SOL     OW29965   2.353   2.581   2.902  0.8142 -0.4626  0.6723
 6111SOL    HW129966   2.280   2.596   2.843 -0.4927 -2.5127  1.7975
 6111SOL    HW229967   2.309   2.550   2.981  2.2458  1.0763  2.0945
 6112SOL     OW29968   0.135   0.801   3.893  0.5931 -0.3222  0.4720
 6112SOL    HW129969   0.139   0.711   3.860  1.2216 -1.1952  2.9102
 6112SOL    HW229970   0.132   0.783   3.987  2.0800 -1.7551  0.2508
 6113SOL     OW29971   3.620   2.984   3.101  0.2062  0.0208  0.5108
 6113SOL    HW129972   3.597   3.056   3.042  0.5896 -1.5955 -1.6321
 6113SOL    HW229973   3.529   2.957   3.107  0.1115 -0.2445 -2.2410
 6114SOL     OW29974   2.644   3.877   3.834 -0.1811  0.0597 -0.2275
 6114SOL    HW129975   2.711   3.810   3.852  0.8166  0.7465 -1.3868
 6114SOL    HW229976   2.617   3.907   3.920  1.1180 -1.0575  0.5663
 6115SOL     OW29977   2.491   1.263   1.888  0.9783  0.3826  0.1168
 6115SOL    HW129978   2.498   1.357   1.905 -0.3778  0.9630 -2.5308
 6115SOL    HW229979   2.581   1.229   1.888  1.2146  0.9970 -1.0715
 6116SOL     OW29980   4.422   4.492  17.280  0.2247 -0.2230  0.9821
 6116SOL    HW129981   4.469   4.575  17.272  0.6769 -0.6867 -1.2552
 6116SOL    HW229982   4.372   4.503  17.198 -2.4054 -2.6671  2.2426
 6117SOL     OW29983   1.886   4.193   2.355 -0.2362 -0.7259  0.0152
 6117SOL    HW129984   1.800   4.153   2.367 -1.0905  0.8122 -0.9221
 6117SOL    HW229985   1.869   4.287   2.364 -1.4946 -0.6812 -3.1252
 6118SOL     OW29986   4.072   1.157   4.922 -0.0730  0.0710  0.0269
 6118SOL    HW129987   4.093   1.246   4.947 -0.4961 -0.3432  1.8522
 6118SOL    HW229988   4.152   1.133   4.876  0.5479  1.9512  0.1633
 6119SOL     OW29989   0.457   3.490   6.697  0.0327  0.3196 -0.0609
 6119SOL    HW129990   0.435   3.578   6.665 -1.0780  0.1951  0.3551
 6119SOL    HW229991   0.408   3.496   6.779  3.1050  0.3371  1.7663
 6120SOL     OW29992   4.111   1.468   3.405  0.0489  0.5582 -0.7884
 6120SOL    HW129993   4.058   1.541   3.373  0.4172  1.5141  0.7599
 6120SOL    HW229994   4.046   1.403   3.428 -0.0793  1.0644  0.3027
 6121SOL     OW29995   3.001   2.476  11.466 -0.5118  0.2788  0.2227
 6121SOL    HW129996   2.989   2.381  11.470 -2.0899  0.4318 -1.0701
 6121SOL    HW229997   2.989   2.495  11.373  2.0956 -0.9635 -0.3745
 6122SOL     OW29998   0.927   3.450   3.978 -0.5080 -0.1361 -0.0046
 6122SOL    HW129999   0.939   3.543   3.960 -1.1998  0.0999  0.7293
 6122SOL    HW230000   0.935   3.406   3.894 -3.2606 -1.8252  0.6107
 6123SOL     OW30001   0.325   3.171   8.441 -0.3523  0.5958 -0.2800
 6123SOL    HW130002   0.348   3.219   8.521 -1.3986  0.4995  0.0691
 6123SOL    HW230003   0.405   3.176   8.389  1.0614  3.2383  2.1771
 6124SOL     OW30004   0.244   3.688   6.006 -0.6603  0.1393  0.1917
 6124SOL    HW130005   0.269   3.757   6.068  1.2278 -0.5121  0.1670
 6124SOL    HW230006   0.202   3.622   6.062 -1.6059 -0.2550 -1.0019
 6125SOL     OW30007   1.336   3.131   5.625 -0.3296  0.6607  0.1001
 6125SOL    HW130008   1.288   3.058   5.587  1.5926  0.8022 -2.6276
 6125SOL    HW230009   1.372   3.172   5.546  0.1499 -1.1063 -0.5928
 6126SOL     OW30010   0.983   1.741   6.645  0.4617 -0.1692 -0.0655
 6126SOL    HW130011   0.972   1.835   6.661  1.5319 -0.4816  2.3683
 6126SOL    HW230012   0.963   1.745   6.551 -1.1929 -1.5899  0.2199
 6127SOL     OW30013   3.713   4.327   1.070 -0.3492  0.7870  0.2590
 6127SOL    HW130014   3.798   4.364   1.093 -0.0952  0.8533 -0.7491
 6127SOL    HW230015   3.698   4.367   0.984 -0.0704  1.5943  0.5894
 6128SOL     OW30016   4.603   0.766   0.319 -0.0234 -0.1475  0.2889
 6128SOL    HW130017   4.630   0.675   0.303  0.4532 -0.1320  0.9724
 6128SOL    HW230018   4.514   0.741   0.344 -0.4357 -0.5922 -1.6512
 6129SOL     OW30019   3.338   1.015   6.389  0.3038  0.2812  0.0414
 6129SOL    HW130020   3.431   0.994   6.379  0.4672  1.7554 -1.5383
 6129SOL    HW230021   3.321   1.059   6.306  1.9388  1.5111  0.3549
 6130SOL     OW30022   1.394   3.487   6.433  0.2394 -0.0929  0.4067
 6130SOL    HW130023   1.446   3.547   6.486 -2.2887  1.6138  0.9548
 6130SOL    HW230024   1.341   3.550   6.385 -0.5222  0.8647  2.5025
 6131SOL     OW30025   3.997   0.064   5.498 -0.0688 -0.3735  0.3550
 6131SOL    HW130026   4.056   4.731   5.527 -1.5297 -1.5617  0.4267
 6131SOL    HW230027   4.063   0.130   5.477 -1.3868  0.9630  0.4677
 6132SOL     OW30028   0.333   1.170   2.567  0.4451 -0.1891  0.3885
 6132SOL    HW130029   0.303   1.138   2.652 -1.4403  2.6885  0.8191
 6132SOL    HW230030   0.416   1.208   2.598 -0.3228  0.8603  1.1534
 6133SOL     OW30031   3.366   0.916  16.787  0.1932  0.1353  0.1334
 6133SOL    HW130032   3.363   0.992  16.845 -1.5557 -0.5886  0.9813
 6133SOL    HW230033   3.281   0.919  16.742 -0.8187 -3.6241  1.8198
 6134SOL     OW30034   4.041   1.857  15.807 -0.2593  0.7610 -0.0647
 6134SOL    HW130035   4.120   1.829  15.762  0.2926  1.3793  0.5171
 6134SOL    HW230036   4.016   1.775  15.850  1.1458  0.1741 -0.3702
 6135SOL     OW30037   3.986   2.593   4.180  0.1064  0.3733 -0.6295
 6135SOL    HW130038   3.921   2.631   4.121 -0.7844 -1.0460 -0.5661
 6135SOL    HW230039   3.982   2.644   4.260  1.9405 -0.0186 -0.2998
 6136SOL     OW30040   0.481   3.830   9.386 -0.0952 -0.6112  0.1385
 6136SOL    HW130041   0.432   3.748   9.383  1.0791 -1.1547 -3.4008
 6136SOL    HW230042   0.535   3.812   9.463  1.2814 -0.0133 -0.6878
 6137SOL     OW30043   0.929   2.510   0.066 -0.6384 -0.2694  0.6555
 6137SOL    HW130044   0.945   2.452  17.741  0.1080  0.5136  0.1963
 6137SOL    HW230045   0.946   2.597   0.030  0.9406 -1.6556 -1.9361
 6138SOL     OW30046   1.057   0.282  16.102 -0.2205  0.0295 -0.0964
 6138SOL    HW130047   1.047   0.373  16.128  0.1857 -0.4738  1.7973
 6138SOL    HW230048   1.098   0.295  16.016 -3.5714  2.2743 -1.3172
 6139SOL     OW30049   3.627   2.205   5.286  0.2535 -0.2105 -0.6640
 6139SOL    HW130050   3.662   2.287   5.319 -0.6475 -0.0481 -0.1282
 6139SOL    HW230051   3.695   2.153   5.331  0.2686 -0.0509 -0.5049
 6140SOL     OW30052   1.484   0.458   6.065  0.2884 -0.1865  0.3628
 6140SOL    HW130053   1.540   0.386   6.095  2.2827 -0.7338 -4.7324
 6140SOL    HW230054   1.519   0.534   6.111  0.3514 -0.4339  0.7224
 6141SOL     OW30055   3.145   0.006   6.998 -0.2001 -0.7340 -0.4562
 6141SOL    HW130056   3.129   4.659   6.955  0.8432 -1.1062 -0.1172
 6141SOL    HW230057   3.074   0.058   6.961  0.2825 -1.1816 -2.0419
 6142SOL     OW30058   2.344   0.418  13.384  0.5051 -0.0459 -0.3699
 6142SOL    HW130059   2.319   0.450  13.471 -0.8100  0.3485 -0.9112
 6142SOL    HW230060   2.439   0.430  13.393  0.4986 -1.7262  1.9162
 6143SOL     OW30061   3.001   4.351   5.077 -0.1227  0.0221 -0.2154
 6143SOL    HW130062   3.090   4.326   5.102  0.8610  3.1224 -0.6009
 6143SOL    HW230063   3.025   4.441   5.058  0.8539 -0.2366 -0.1904
 6144SOL     OW30064   3.942   0.852   1.685 -0.3170  0.3619  0.3931
 6144SOL    HW130065   3.969   0.839   1.594 -1.7745 -2.2764  0.3326
 6144SOL    HW230066   4.023   0.858   1.735  0.4518 -1.0761 -0.6847
 6145SOL     OW30067   2.075   0.269  11.328  0.6274  0.1920  0.2470
 6145SOL    HW130068   2.056   0.298  11.417  0.1687  0.4707  0.0559
 6145SOL    HW230069   1.997   0.217  11.309  0.5617 -0.3106  1.9363
 6146SOL     OW30070   0.009   2.992   3.179  0.1410 -0.0398 -0.2419
 6146SOL    HW130071   4.677   3.029   3.233  0.3422 -0.3998  0.2627
 6146SOL    HW230072   4.701   2.914   3.147  1.8157 -0.8799 -0.5443
 6147SOL     OW30073   0.729   4.419   5.724 -0.1950 -0.0801  0.2326
 6147SOL    HW130074   0.800   4.481   5.708 -2.4654  2.9668  1.8994
 6147SOL    HW230075   0.771   4.338   5.695  0.7123  1.0689 -1.5580
 6148SOL     OW30076   1.545   4.318   1.437 -0.6329  0.6815  0.2123
 6148SOL    HW130077   1.466   4.320   1.383 -1.4677 -4.0299  1.3060
 6148SOL    HW230078   1.581   4.233   1.414 -1.9338  0.2674 -0.2691
 6149SOL     OW30079   3.946   4.410   2.254 -0.1640 -0.0242  0.1097
 6149SOL    HW130080   3.921   4.452   2.336  0.1652 -2.0577  1.2532
 6149SOL    HW230081   4.022   4.467   2.239 -0.7460  0.7196  0.0002
 6150SOL     OW30082   0.408   2.577   7.942 -0.0195  0.0605 -0.2041
 6150SOL    HW130083   0.417   2.623   8.025 -0.2792  0.0826 -0.1876
 6150SOL    HW230084   0.498   2.569   7.909  0.1950  1.2728  0.1029
 6151SOL     OW30085   0.065   3.921   6.580  0.6928  0.2458 -0.3207
 6151SOL    HW130086   4.720   3.958   6.611  0.3732  0.3831 -1.3338
 6151SOL    HW230087   0.065   3.934   6.486 -1.7476  1.2009 -0.1945
 6152SOL     OW30088   1.898   0.100  14.921 -0.4086  0.5366  0.1995
 6152SOL    HW130089   1.927   0.040  14.852  0.6270 -1.1089  2.0976
 6152SOL    HW230090   1.915   0.182  14.874 -0.5210  0.4812  0.0603
 6153SOL     OW30091   3.507   4.009   1.478  0.0496 -0.1280 -0.0917
 6153SOL    HW130092   3.439   3.958   1.435 -0.5135  1.1957 -0.7838
 6153SOL    HW230093   3.489   4.100   1.453  1.1749 -0.2905 -1.4681
 6154SOL     OW30094   4.597   4.191  13.062  0.1656  0.0736  0.5567
 6154SOL    HW130095   4.584   4.163  12.971  2.0199  0.6881  0.0932
 6154SOL    HW230096   4.559   4.120  13.113  1.1776 -0.4682  0.5423
 6155SOL     OW30097   4.308   3.005   6.641  0.6589  0.1658  0.1317
 6155SOL    HW130098   4.355   2.968   6.716  1.6983 -1.5102 -1.3155
 6155SOL    HW230099   4.272   3.086   6.675 -0.6388 -0.7093  0.8343
 6156SOL     OW30100   1.379   3.732  10.681  0.9384 -0.0673 -0.0929
 6156SOL    HW130101   1.368   3.637  10.673 -2.7514  0.2205  1.5538
 6156SOL    HW230102   1.432   3.745  10.760  0.2583 -0.5543  0.4442
 6157SOL     OW30103   4.502   1.562  10.722 -0.0336 -0.3847  0.2419
 6157SOL    HW130104   4.555   1.485  10.700 -1.3709 -0.8765 -1.2357
 6157SOL    HW230105   4.503   1.608  10.638 -4.0069 -1.7419 -0.5461
 6158SOL     OW30106   2.498   2.568  11.272  0.3713  0.2332 -0.6450
 6158SOL    HW130107   2.512   2.657  11.304  0.5533 -0.0580  0.0722
 6158SOL    HW230108   2.445   2.526  11.339  1.1419  0.3339  0.0239
 6159SOL     OW30109   1.568   1.303  15.203 -0.0229  0.2573 -0.4735
 6159SOL    HW130110   1.646   1.357  15.207  1.3118 -1.7949  0.9836
 6159SOL    HW230111   1.542   1.308  15.111  0.7535 -2.8670 -0.8644
 6160SOL     OW30112   0.583   4.104  12.640  0.3590 -0.4031  0.3786
 6160SOL    HW130113   0.596   4.011  12.655 -0.3760 -0.3544  1.3333
 6160SOL    HW230114   0.574   4.149  12.724 -3.5119 -0.7013  0.1623
 6161SOL     OW30115   0.926   4.399  15.929 -0.1828  0.2293 -0.0839
 6161SOL    HW130116   0.988   4.423  15.998  1.3764  0.3382 -1.4934
 6161SOL    HW230117   0.856   4.463  15.938 -1.0262 -0.6769 -0.2395
 6162SOL     OW30118   3.522   3.628   7.918 -0.0768 -0.1598 -0.4110
 6162SOL    HW130119   3.466   3.675   7.979 -2.7927 -0.9033 -2.3022
 6162SOL    HW230120   3.558   3.558   7.973 -2.3734  0.7857  2.2722
 6163SOL     OW30121   4.348   2.561  10.657  0.1705 -0.7197  0.8251
 6163SOL    HW130122   4.367   2.615  10.733 -1.5577  0.0256  0.7288
 6163SOL    HW230123   4.257   2.587  10.643  0.4432 -0.0622  0.2497
 6164SOL     OW30124   1.502   1.297   7.499 -0.1483  0.5411 -0.2998
 6164SOL    HW130125   1.558   1.375   7.488 -1.0480  1.3360  0.7247
 6164SOL    HW230126   1.568   1.228   7.492 -0.3558  0.2297  0.8394
 6165SOL     OW30127   1.772   0.913   9.932 -0.3339  0.6800  0.1970
 6165SOL    HW130128   1.813   0.980   9.877 -1.2760 -0.3280 -1.7338
 6165SOL    HW230129   1.712   0.973   9.976  1.5124  2.2641  0.6003
 6166SOL     OW30130   0.339   1.995   7.969 -0.4194  0.3170 -0.0195
 6166SOL    HW130131   0.366   2.085   7.949 -3.1465  1.1644  0.0852
 6166SOL    HW230132   0.428   1.960   7.963  0.0109  1.0843  1.8212
 6167SOL     OW30133   0.069   3.128  16.091 -0.7268  0.4061 -1.0991
 6167SOL    HW130134   4.713   3.148  16.101 -0.5730  0.7954 -0.4063
 6167SOL    HW230135   0.103   3.202  16.040  2.0229 -0.9091 -1.1740
 6168SOL     OW30136   2.122   2.437   5.149 -0.0896  0.5837  0.5940
 6168SOL    HW130137   2.155   2.354   5.114 -0.4262  1.1347 -1.0161
 6168SOL    HW230138   2.029   2.441   5.124  0.0856  1.7940  0.1820
 6169SOL     OW30139   0.203   0.601   0.429 -0.1467 -0.0174  0.6144
 6169SOL    HW130140   0.244   0.686   0.412  0.1897 -0.3950 -0.4407
 6169SOL    HW230141   0.129   0.584   0.372 -0.2894  0.1737  0.7438
 6170SOL     OW30142   3.927   1.026   7.433 -0.1959  0.6302 -0.4874
 6170SOL    HW130143   4.009   0.994   7.397 -0.6611 -1.3935  0.2544
 6170SOL    HW230144   3.877   0.944   7.429  3.4960 -1.5348 -2.0586
 6171SOL     OW30145   2.101   4.046   6.910 -0.1213 -0.3263 -0.3797
 6171SOL    HW130146   2.169   4.108   6.938  0.2831 -1.6704  1.5515
 6171SOL    HW230147   2.163   3.987   6.866 -0.0118 -0.3927 -0.1344
 6172SOL     OW30148   1.227   2.090   2.129  0.7318 -0.8840 -0.5498
 6172SOL    HW130149   1.236   2.087   2.225  0.2224 -1.2979 -0.5129
 6172SOL    HW230150   1.188   2.004   2.111  0.1445 -0.4164 -1.4417
 6173SOL     OW30151   1.998   0.452   3.032  0.4724  0.1229  1.2297
 6173SOL    HW130152   2.033   0.364   3.045 -0.6172 -0.7344 -1.6978
 6173SOL    HW230153   2.078   0.495   3.002 -0.8460  0.8942 -1.1810
 6174SOL     OW30154   1.058   2.986  16.839 -0.0644 -0.3651  0.2036
 6174SOL    HW130155   1.151   2.966  16.850 -0.1804 -0.5867  0.7873
 6174SOL    HW230156   1.042   2.934  16.760 -2.3419 -1.6518  1.5270
 6175SOL     OW30157   4.157   2.087   9.288  0.0851 -0.1716 -0.1633
 6175SOL    HW130158   4.244   2.067   9.322 -0.0381 -1.1686 -0.4329
 6175SOL    HW230159   4.133   2.001   9.254 -1.8429 -0.6072  2.3113
 6176SOL     OW30160   1.265   0.575   7.547 -0.4720 -0.2291  0.3055
 6176SOL    HW130161   1.225   0.662   7.546  0.8359  0.3743  0.4975
 6176SOL    HW230162   1.281   0.570   7.453  2.9089  1.3273  0.8078
 6177SOL     OW30163   0.706   4.363   6.980 -0.6719  0.0521  0.2620
 6177SOL    HW130164   0.715   4.405   7.065 -1.5291 -1.3364  1.0321
 6177SOL    HW230165   0.762   4.287   6.997 -0.5183  0.4146  1.4114
 6178SOL     OW30166   3.986   1.070   8.414 -0.6399 -0.6834 -0.3186
 6178SOL    HW130167   4.011   1.163   8.414  0.6471 -1.0456  1.9130
 6178SOL    HW230168   3.950   1.061   8.326 -0.5132 -1.1120 -0.3264
 6179SOL     OW30169   2.199   3.351  17.343 -0.2025 -0.2143  0.3750
 6179SOL    HW130170   2.120   3.337  17.290 -1.6041  0.3226  2.3326
 6179SOL    HW230171   2.245   3.268  17.335 -1.0359 -0.5607 -0.7638
 6180SOL     OW30172   0.243   0.057   2.990  0.4005 -0.5139  0.8903
 6180SOL    HW130173   0.295   0.042   2.911  0.5031 -3.2757  1.4881
 6180SOL    HW230174   0.169   0.000   2.968  1.0176 -0.2924 -1.7801
 6181SOL     OW30175   3.641   1.679   9.803 -0.4620 -0.3342 -0.0744
 6181SOL    HW130176   3.624   1.773   9.794 -0.1516 -0.2058  0.7713
 6181SOL    HW230177   3.680   1.654   9.719 -1.7513 -1.5841 -0.3056
 6182SOL     OW30178   0.109   2.348   0.266 -0.3239  0.2374  1.0183
 6182SOL    HW130179   0.057   2.267   0.270  0.9470 -0.5316  1.9465
 6182SOL    HW230180   0.049   2.415   0.233  0.5143 -0.2237 -1.4919
 6183SOL     OW30181   3.129   2.224  15.028 -0.1368  0.0831 -0.2724
 6183SOL    HW130182   3.096   2.142  14.991 -0.4022 -0.3634  0.9775
 6183SOL    HW230183   3.100   2.227  15.119 -0.2955 -1.2927 -0.2770
 6184SOL     OW30184   3.621   2.105   6.241 -0.2775  0.0986 -0.3586
 6184SOL    HW130185   3.551   2.087   6.179 -0.3913 -1.6942  0.2874
 6184SOL    HW230186   3.611   2.040   6.311 -0.1817  0.7257  0.2494
 6185SOL     OW30187   0.015   3.520   2.797  0.2212 -0.6018 -0.2381
 6185SOL    HW130188   0.056   3.582   2.857  2.8785  0.0761 -2.7355
 6185SOL    HW230189   0.077   3.447   2.797 -1.4498 -2.0148  0.2758
 6186SOL     OW30190   4.250   0.199  10.989  0.0910  0.7944 -0.3316
 6186SOL    HW130191   4.275   0.237  11.073 -1.0411 -0.4586  0.5883
 6186SOL    HW230192   4.156   0.213  11.000 -0.2299 -0.8591 -0.9657
 6187SOL     OW30193   1.235   1.929  13.045  0.4164  0.8753  0.0493
 6187SOL    HW130194   1.208   1.872  12.973 -0.2317  2.1897 -0.7333
 6187SOL    HW230195   1.148   1.955  13.075  0.7187  0.7053  1.0847
 6188SOL     OW30196   4.638   0.745  16.162  0.4166  0.5407  0.2964
 6188SOL    HW130197   4.708   0.757  16.098  1.4690  1.7064  1.6560
 6188SOL    HW230198   4.590   0.826  16.144 -0.9127 -0.3787 -0.2004
 6189SOL     OW30199   2.841   1.347   0.085 -0.3014  0.5654 -0.2531
 6189SOL    HW130200   2.839   1.426   0.139 -1.4538  0.6932 -0.4714
 6189SOL    HW230201   2.916   1.354   0.026 -0.0153  0.0978  0.0519
 6190SOL     OW30202   4.245   2.296  10.091  0.2331 -0.2662 -0.3641
 6190SOL    HW130203   4.330   2.338  10.088 -0.2794  0.7480 -0.5746
 6190SOL    HW230204   4.268   2.205  10.112  1.7382  1.0666  3.6504
 6191SOL     OW30205   0.969   2.420  16.257 -0.0835 -0.0274 -0.1990
 6191SOL    HW130206   0.909   2.359  16.299  1.0119 -0.1999  1.1401
 6191SOL    HW230207   0.920   2.502  16.263 -0.8444 -0.6160  1.8864
 6192SOL     OW30208   2.438   2.008   6.730 -0.1260 -0.3145 -0.2667
 6192SOL    HW130209   2.508   1.944   6.729 -0.3817 -0.6503  3.0422
 6192SOL    HW230210   2.438   2.048   6.643 -2.0091  0.0378 -0.1152
 6193SOL     OW30211   1.407   2.261  10.851 -0.4497  0.5432 -0.0543
 6193SOL    HW130212   1.489   2.213  10.841 -1.7963 -1.9583  0.7323
 6193SOL    HW230213   1.390   2.260  10.946  0.0381  0.5010  0.0343
 6194SOL     OW30214   1.381   0.969   6.246 -0.2357  0.1237  0.3771
 6194SOL    HW130215   1.358   1.057   6.219 -2.7075 -0.4309  0.7031
 6194SOL    HW230216   1.411   0.985   6.336 -1.4096 -0.6087  0.9016
 6195SOL     OW30217   3.066   2.552   4.713  0.3460 -0.1056 -0.2358
 6195SOL    HW130218   3.034   2.575   4.626 -2.4456  0.4425  0.9196
 6195SOL    HW230219   3.102   2.466   4.691  0.7984  0.4107 -1.4813
 6196SOL     OW30220   4.651   1.258   3.816  0.4598 -0.0501 -0.2312
 6196SOL    HW130221   4.704   1.181   3.799  1.4998  0.0645  2.3937
 6196SOL    HW230222   4.562   1.224   3.813  0.6415 -0.5577  0.1308
 6197SOL     OW30223   0.783   1.720   8.196 -0.2132  0.6662 -0.3580
 6197SOL    HW130224   0.857   1.777   8.174  0.5813  0.4288  1.6702
 6197SOL    HW230225   0.825   1.661   8.260 -2.2446  0.8243  1.1325
 6198SOL     OW30226   2.243   3.418  15.761  0.5124  0.7088 -0.5242
 6198SOL    HW130227   2.153   3.384  15.765  0.7147  0.0229 -2.0563
 6198SOL    HW230228   2.251   3.417  15.666 -1.0093 -2.0726 -0.6130
 6199SOL     OW30229   3.088   4.442   4.190  0.0838 -0.3799 -0.0598
 6199SOL    HW130230   3.173   4.481   4.171  0.0985  0.4006  1.6953
 6199SOL    HW230231   3.104   4.417   4.280  2.4332  2.1307  0.2044
 6200SOL     OW30232   2.052   1.120  13.008 -0.0466  0.0717  0.5640
 6200SOL    HW130233   2.115   1.082  12.947  0.0718  1.4306 -0.1747
 6200SOL    HW230234   1.991   1.049  13.028  0.1664 -0.3303 -0.1987
 6201SOL     OW30235   0.627   0.848   7.196 -0.0663 -0.0549  0.0042
 6201SOL    HW130236   0.608   0.920   7.135 -1.0559 -1.0827 -0.8952
 6201SOL    HW230237   0.620   0.778   7.131 -0.4846  2.2865 -2.5028
 6202SOL     OW30238   3.373   2.757   2.866 -0.4201  0.6660 -0.7467
 6202SOL    HW130239   3.382   2.808   2.946 -0.3030 -0.9693  0.2927
 6202SOL    HW230240   3.277   2.751   2.867 -0.3190 -1.0657 -0.7477
 6203SOL     OW30241   4.726   2.018   7.461 -0.7749  0.0509  0.1454
 6203SOL    HW130242   0.037   1.950   7.508 -0.7627 -0.4284 -0.5575
 6203SOL    HW230243   4.638   2.004   7.495 -1.5726 -0.7516 -2.2455
 6204SOL     OW30244   1.636   2.165   8.622  0.1419 -0.6213  0.3713
 6204SOL    HW130245   1.552   2.178   8.578 -0.4263 -0.3802  1.5082
 6204SOL    HW230246   1.676   2.092   8.575 -0.0100  1.0799 -2.3970
 6205SOL     OW30247   3.830   4.001   4.224 -0.0236 -0.1645  0.6975
 6205SOL    HW130248   3.810   4.002   4.130  2.9497  2.1704  0.0958
 6205SOL    HW230249   3.843   4.095   4.235 -0.1021  0.0199 -0.7530
 6206SOL     OW30250   3.284   0.983   8.648  0.2501 -0.0974 -0.3844
 6206SOL    HW130251   3.376   0.958   8.643  0.7076  1.7530 -1.2690
 6206SOL    HW230252   3.241   0.910   8.603  3.5892 -2.0620 -0.3832
 6207SOL     OW30253   4.559   1.512   1.830  0.3712  0.4612  0.2452
 6207SOL    HW130254   4.574   1.423   1.799 -1.1066  0.9797 -1.9447
 6207SOL    HW230255   4.479   1.505   1.883  0.0436 -1.4028 -0.5193
 6208SOL     OW30256   3.435   1.047   9.114  0.0104 -0.0425  0.6247
 6208SOL    HW130257   3.444   1.140   9.133 -0.0325  0.1291 -0.1903
 6208SOL    HW230258   3.368   1.044   9.182 -0.0545 -1.4224  0.5046
 6209SOL     OW30259   1.160   1.720   6.042  0.0553  0.1588 -0.0580
 6209SOL    HW130260   1.229   1.761   6.094 -0.1891 -0.7593  0.9860
 6209SOL    HW230261   1.195   1.634   6.016 -2.2916 -0.7051 -0.4071
 6210SOL     OW30262   0.883   1.944   1.899  0.1566  0.2334 -0.2846
 6210SOL    HW130263   0.831   1.864   1.896  2.8062 -1.4558 -1.1694
 6210SOL    HW230264   0.923   1.931   1.812 -2.8767 -3.0822 -1.2018
 6211SOL     OW30265   2.220   3.817   3.312 -0.2736 -0.1818 -0.0884
 6211SOL    HW130266   2.197   3.748   3.249  1.4814 -0.2174 -0.6963
 6211SOL    HW230267   2.312   3.793   3.324  0.0905 -0.6001 -3.6263
 6212SOL     OW30268   1.419   0.093   4.557  0.0263  0.0434  0.4137
 6212SOL    HW130269   1.493   0.115   4.500 -0.7145  2.6898  0.4747
 6212SOL    HW230270   1.464   0.038   4.621  0.6682 -1.6241 -1.4823
 6213SOL     OW30271   1.567   2.046   8.873 -0.0413  0.3750 -0.3662
 6213SOL    HW130272   1.635   1.982   8.855  0.0549  0.3282  0.1656
 6213SOL    HW230273   1.582   2.097   8.793  0.7088  1.5716  0.5433
 6214SOL     OW30274   4.515   0.713   6.115  0.0503 -0.1769  0.1626
 6214SOL    HW130275   4.533   0.669   6.198 -1.2051 -2.6850 -0.8857
 6214SOL    HW230276   4.511   0.637   6.056 -0.1649  0.8695 -1.1726
 6215SOL     OW30277   1.668   3.540   2.254 -0.1547  0.2467 -0.1857
 6215SOL    HW130278   1.663   3.636   2.255 -1.0317  0.2222 -1.0089
 6215SOL    HW230279   1.591   3.511   2.302 -0.1540 -0.2208 -0.4662
 6216SOL     OW30280   3.816   3.252   5.358  0.0766 -0.1123  0.9017
 6216SOL    HW130281   3.802   3.347   5.355 -1.7627 -0.4975 -3.3705
 6216SOL    HW230282   3.911   3.256   5.369  0.2028  2.1778 -0.8635
 6217SOL     OW30283   1.140   1.639   8.116  0.2226 -0.1808  0.0629
 6217SOL    HW130284   1.231   1.654   8.141  0.0441  0.5711  0.2691
 6217SOL    HW230285   1.142   1.662   8.023 -0.6094 -0.9625 -0.1490
 6218SOL     OW30286   0.937   0.049   5.947 -0.0524  0.0598  0.4741
 6218SOL    HW130287   0.884   0.121   5.914  1.0849  1.9747  2.8418
 6218SOL    HW230288   1.022   0.092   5.955 -0.4308  0.9489 -0.3465
 6219SOL     OW30289   2.980   1.566   1.880  0.2342 -0.8628  0.2756
 6219SOL    HW130290   3.034   1.601   1.951 -1.0269 -1.4921  1.5396
 6219SOL    HW230291   2.891   1.587   1.907  1.0156  0.2945  1.9696
 6220SOL     OW30292   2.147   2.371   6.138 -0.1750 -0.6301 -0.5996
 6220SOL    HW130293   2.146   2.461   6.106  1.4727 -0.6360 -0.6624
 6220SOL    HW230294   2.075   2.369   6.201 -0.9888  0.6639 -1.4832
 6221SOL     OW30295   1.481   1.841   5.375  0.0307  0.4155  0.3406
 6221SOL    HW130296   1.558   1.882   5.334 -0.9027  1.4735 -0.3655
 6221SOL    HW230297   1.505   1.858   5.466  1.9899 -0.3413 -0.0415
 6222SOL     OW30298   3.459   1.795   6.233 -0.3974  0.3453 -0.0423
 6222SOL    HW130299   3.467   1.734   6.306 -0.0393  0.8613  0.3494
 6222SOL    HW230300   3.489   1.743   6.158  0.9101 -2.8477  2.6937
 6223SOL     OW30301   1.116   0.642   0.759 -0.3047  0.0508 -0.2581
 6223SOL    HW130302   1.090   0.703   0.689  2.8333 -0.3598 -1.7933
 6223SOL    HW230303   1.115   0.565   0.703  0.9216  1.7444 -2.6388
 6224SOL     OW30304   3.161   2.685   6.405  0.6483  0.2186 -0.4867
 6224SOL    HW130305   3.200   2.707   6.490 -0.7390 -3.0876  1.0014
 6224SOL    HW230306   3.147   2.776   6.380  1.7331 -0.2096 -2.6694
 6225SOL     OW30307   3.123   2.489  13.676 -0.0295  0.3855  0.3406
 6225SOL    HW130308   3.053   2.522  13.732 -0.0815  0.6670  0.1084
 6225SOL    HW230309   3.124   2.399  13.708  2.8693  0.0638 -0.6015
 6226SOL     OW30310   3.617   2.534  11.439 -0.0434  0.0659 -0.2922
 6226SOL    HW130311   3.645   2.523  11.348  0.4115 -0.1658 -0.1272
 6226SOL    HW230312   3.655   2.620  11.461  0.5005  0.0784 -1.2873
 6227SOL     OW30313   2.488   0.279   8.844  0.2076 -0.0144 -0.3179
 6227SOL    HW130314   2.536   0.234   8.774  1.5112  2.2183 -0.8619
 6227SOL    HW230315   2.415   0.218   8.857 -0.4676  1.2333  1.7753
 6228SOL     OW30316   4.511   0.829   6.455  0.0511 -0.0519  0.4645
 6228SOL    HW130317   4.562   0.750   6.437  1.0752  1.4685 -3.3368
 6228SOL    HW230318   4.562   0.855   6.532  0.5395 -2.7513  1.0350
 6229SOL     OW30319   2.693   1.502   0.276 -0.1351  0.2026 -0.2163
 6229SOL    HW130320   2.632   1.508   0.349 -0.9182 -1.7532 -0.7106
 6229SOL    HW230321   2.689   1.407   0.271 -0.0906  0.3836 -3.7009
 6230SOL     OW30322   4.194   2.414   8.854 -0.1113  0.2472  0.5211
 6230SOL    HW130323   4.198   2.389   8.946  3.2217 -0.2259  0.2284
 6230SOL    HW230324   4.279   2.376   8.833 -0.4896  0.1985 -0.9147
 6231SOL     OW30325   2.091   2.602   0.786 -0.2528  0.2289  0.6580
 6231SOL    HW130326   2.120   2.519   0.826 -1.3350 -0.3239  0.3041
 6231SOL    HW230327   2.017   2.573   0.733  0.3424  0.4939 -0.3178
 6232SOL     OW30328   2.478   2.474   5.103  0.7746 -0.5898 -0.1477
 6232SOL    HW130329   2.455   2.382   5.108 -2.7641  0.3031  0.1063
 6232SOL    HW230330   2.469   2.497   5.195 -0.3780 -1.2826 -0.0844
 6233SOL     OW30331   1.506   4.411   6.466  0.3870  0.3250 -0.0606
 6233SOL    HW130332   1.473   4.334   6.420 -0.2615 -0.5752  1.8862
 6233SOL    HW230333   1.445   4.413   6.540  0.1579 -0.8122 -0.2199
 6234SOL     OW30334   3.852   3.700   0.759 -0.0043 -0.0615  0.4868
 6234SOL    HW130335   3.822   3.791   0.765 -0.5712 -0.1851 -0.5410
 6234SOL    HW230336   3.770   3.654   0.744 -0.9339  1.3922  1.1727
 6235SOL     OW30337   3.868   0.154  16.217  0.3656 -0.4481  0.6876
 6235SOL    HW130338   3.837   0.133  16.129 -1.3735  0.5056  1.0734
 6235SOL    HW230339   3.786   0.167  16.265 -0.8667 -1.4056 -1.1795
 6236SOL     OW30340   1.160   0.912   5.810  0.2859 -0.0579  0.3447
 6236SOL    HW130341   1.251   0.941   5.813  0.0741  0.7693 -1.4390
 6236SOL    HW230342   1.160   0.935   5.718  0.2134  2.3041  0.9498
 6237SOL     OW30343   1.450   1.902   4.752 -0.8092 -0.4921 -0.8319
 6237SOL    HW130344   1.410   1.838   4.694 -2.4721  1.3750 -1.7678
 6237SOL    HW230345   1.434   1.843   4.826  0.1642 -1.4434 -1.3791
 6238SOL     OW30346   1.476   2.599  10.514 -0.0052  0.2660 -0.7547
 6238SOL    HW130347   1.531   2.671  10.485 -1.3910  2.2473  1.5686
 6238SOL    HW230348   1.438   2.571  10.431 -2.5495 -2.0370  1.1769
 6239SOL     OW30349   1.670   1.959   6.747 -0.2568  0.1169  0.1171
 6239SOL    HW130350   1.765   1.953   6.742 -0.2049  1.4380 -0.5452
 6239SOL    HW230351   1.634   1.947   6.659  0.4362 -0.5632 -0.0769
 6240SOL     OW30352   3.699   0.602  16.893  0.3755  0.2335  0.0836
 6240SOL    HW130353   3.762   0.573  16.826  0.4407 -1.1384  0.7382
 6240SOL    HW230354   3.665   0.689  16.871 -0.9017 -0.4613 -0.7023
 6241SOL     OW30355   0.573   1.774  10.920  0.2133 -0.3811  0.0598
 6241SOL    HW130356   0.577   1.699  10.860 -1.1218 -1.3247  1.1343
 6241SOL    HW230357   0.491   1.753  10.965  0.9820  0.8369  1.9812
 6242SOL     OW30358   3.236   1.442  10.343  0.4742  0.1479 -0.2777
 6242SOL    HW130359   3.288   1.381  10.291  1.6360  3.4465 -2.9897
 6242SOL    HW230360   3.219   1.512  10.279  1.2417  0.6314  0.0459
 6243SOL     OW30361   1.738   3.324  15.044 -0.8116 -0.1217 -0.4422
 6243SOL    HW130362   1.794   3.307  15.120  1.7768 -1.3507 -2.6144
 6243SOL    HW230363   1.691   3.242  15.055  1.6845 -1.8172 -2.3568
 6244SOL     OW30364   1.679   2.057   7.860  0.1940 -0.0936 -0.9505
 6244SOL    HW130365   1.676   2.148   7.890  2.3721  0.3597 -2.0324
 6244SOL    HW230366   1.765   2.054   7.817  0.1102  0.3233 -1.1528
 6245SOL     OW30367   1.551   4.077   5.859 -0.4154  0.4707 -0.4649
 6245SOL    HW130368   1.571   4.171   5.855  1.3116  0.1536  0.6454
 6245SOL    HW230369   1.475   4.078   5.918 -1.9550 -0.6324 -2.4265
 6246SOL     OW30370   1.790   0.058  13.352 -0.3516  0.1457  0.6267
 6246SOL    HW130371   1.725   0.008  13.303 -2.0533  1.5826  1.4277
 6246SOL    HW230372   1.738   0.131  13.385  1.7433  1.8796  0.0252
 6247SOL     OW30373   3.236   3.241   7.184 -0.6167 -0.0142  0.0972
 6247SOL    HW130374   3.184   3.213   7.259  0.0737 -1.0426  0.1921
 6247SOL    HW230375   3.173   3.216   7.117 -0.4513 -1.4947  0.4974
 6248SOL     OW30376   0.267   2.972  16.956 -0.2152  0.0503  0.0983
 6248SOL    HW130377   0.199   3.032  16.927  0.7801  1.2993  0.3511
 6248SOL    HW230378   0.220   2.893  16.930 -0.5365  0.1832  0.2755
 6249SOL     OW30379   4.343   3.979   5.407 -0.5738 -0.3586 -0.2280
 6249SOL    HW130380   4.336   4.063   5.452  1.6364  0.6811 -1.8264
 6249SOL    HW230381   4.375   3.919   5.475 -1.1787  0.8239  1.0944
 6250SOL     OW30382   2.586   1.695   3.046 -0.7984 -0.2321 -0.0042
 6250SOL    HW130383   2.563   1.633   2.977  3.1433  0.8486 -2.3378
 6250SOL    HW230384   2.566   1.646   3.126  3.5007 -0.2431  1.1056
 6251SOL     OW30385   3.584   2.997   4.796 -0.3431  0.1469  0.0813
 6251SOL    HW130386   3.557   2.918   4.749  0.8050 -0.3879  0.3108
 6251SOL    HW230387   3.665   3.032   4.758  0.3646  1.7212  3.0509
 6252SOL     OW30388   2.117   2.019   6.443  0.4182 -0.4916 -0.2608
 6252SOL    HW130389   2.117   1.948   6.507 -3.6604  1.4540  1.9361
 6252SOL    HW230390   2.211   2.033   6.426  0.6986 -0.8555  1.0199
 6253SOL     OW30391   4.156   1.754   3.211 -0.0228  0.2394  0.0461
 6253SOL    HW130392   4.099   1.745   3.287 -0.3840 -0.1102 -0.2625
 6253SOL    HW230393   4.168   1.849   3.207  1.0490  0.1753  1.5670
 6254SOL     OW30394   2.388   0.101  15.459 -0.2604 -0.2841 -0.1623
 6254SOL    HW130395   2.374   0.147  15.542  1.5413  2.2403 -1.2509
 6254SOL    HW230396   2.468   0.053  15.480  0.4164 -0.1648 -2.4285
 6255SOL     OW30397   4.290   4.423   0.894  0.5061 -0.1609 -0.5487
 6255SOL    HW130398   4.343   4.380   0.827  2.1629  0.8653  0.0703
 6255SOL    HW230399   4.282   4.348   0.952 -1.1920  0.1935 -0.3443
 6256SOL     OW30400   2.594   2.817   2.302  0.1671  0.3872  0.5453
 6256SOL    HW130401   2.669   2.796   2.358 -1.1324 -0.2110  2.0906
 6256SOL    HW230402   2.541   2.865   2.367 -1.5636  1.8505 -1.9605
 6257SOL     OW30403   4.008   3.869   1.327  0.0520 -0.0598  0.1803
 6257SOL    HW130404   3.914   3.884   1.332  0.1293 -0.5317  3.0428
 6257SOL    HW230405   4.015   3.783   1.285 -1.5797 -0.6994  1.2411
 6258SOL     OW30406   0.736   2.612   0.878  0.0307  0.4054  0.3181
 6258SOL    HW130407   0.751   2.541   0.941  0.5223 -0.3532 -0.6513
 6258SOL    HW230408   0.729   2.687   0.937  1.9942  0.2604  0.7620
 6259SOL     OW30409   0.678   4.047   2.780  0.0934  0.2731  0.2081
 6259SOL    HW130410   0.706   4.138   2.769  0.0359  0.1209 -1.1614
 6259SOL    HW230411   0.632   4.047   2.864  0.2832  0.6545  0.3135
 6260SOL     OW30412   0.386   3.337   7.899 -0.1636  0.0381 -0.1591
 6260SOL    HW130413   0.407   3.266   7.839  1.8072  0.2472  0.2692
 6260SOL    HW230414   0.316   3.377   7.848 -0.8947  2.3436  2.6080
 6261SOL     OW30415   3.823   2.048   1.170 -0.1280 -0.4536 -0.2155
 6261SOL    HW130416   3.859   2.063   1.257 -0.3736  2.6188 -0.6436
 6261SOL    HW230417   3.745   2.103   1.181 -0.2919 -0.3473 -1.9615
 6262SOL     OW30418   3.280   2.312   2.475 -0.0790 -0.3472  0.0776
 6262SOL    HW130419   3.286   2.368   2.398  0.6654 -0.1849  0.2490
 6262SOL    HW230420   3.199   2.342   2.517  0.7205  0.1714  1.2766
 6263SOL     OW30421   2.760   1.704   7.226  0.2905 -0.3543  0.1088
 6263SOL    HW130422   2.789   1.780   7.176 -0.0713 -0.3171 -0.0510
 6263SOL    HW230423   2.839   1.688   7.277  0.7749  1.7008  0.0190
 6264SOL     OW30424   2.618   2.883   4.282  0.0692  0.0171 -0.4408
 6264SOL    HW130425   2.527   2.885   4.313  0.0164 -0.3807 -0.5681
 6264SOL    HW230426   2.615   2.826   4.205 -0.2607 -0.8881  0.2427
 6265SOL     OW30427   0.081   0.410   3.172  0.5982 -0.2156 -0.1243
 6265SOL    HW130428   0.039   0.496   3.182 -2.3487 -1.5068 -1.2694
 6265SOL    HW230429   0.035   0.353   3.234 -0.9851  2.0855  0.8353
 6266SOL     OW30430   1.084   3.146   8.473 -0.3261 -0.5400 -0.0757
 6266SOL    HW130431   1.087   3.226   8.420  1.2104  1.1079  2.4851
 6266SOL    HW230432   1.067   3.196   8.552 -0.4109 -1.0902  0.2557
 6267SOL     OW30433   3.671   0.313   6.990  0.0860 -0.2348 -0.2398
 6267SOL    HW130434   3.593   0.308   6.935 -0.3974 -0.0018  0.4215
 6267SOL    HW230435   3.682   0.408   6.985 -2.2853 -0.1303 -3.2802
 6268SOL     OW30436   0.546   2.843   5.892 -0.6166 -0.3634  0.1589
 6268SOL    HW130437   0.611   2.914   5.899  1.1206 -1.9405  0.1231
 6268SOL    HW230438   0.595   2.761   5.889 -1.7091 -1.0656  1.6630
 6269SOL     OW30439   4.243   1.111   6.447 -0.3343 -0.4051 -0.0121
 6269SOL    HW130440   4.204   1.077   6.366 -2.2736  4.4755 -1.1088
 6269SOL    HW230441   4.202   1.197   6.441  0.7552 -0.1337 -3.3885
 6270SOL     OW30442   4.299   0.542  15.838  0.6715 -0.2448  0.0430
 6270SOL    HW130443   4.294   0.551  15.742 -0.3137  0.0227  0.1116
 6270SOL    HW230444   4.322   0.453  15.861  2.0042  0.2735  0.6739
 6271SOL     OW30445   0.090   4.472   7.744  0.0678 -0.0885  0.1475
 6271SOL    HW130446   0.113   4.449   7.834 -2.4034  0.2543  0.8700
 6271SOL    HW230447   0.173   4.454   7.700  0.4403  1.0134  0.4112
 6272SOL     OW30448   2.609   4.221   5.495  0.5166 -0.1699 -0.0381
 6272SOL    HW130449   2.663   4.221   5.416 -1.3100 -1.9556 -1.2930
 6272SOL    HW230450   2.575   4.311   5.495 -1.4216 -0.8804 -2.6734
 6273SOL     OW30451   3.571   0.986   4.923 -0.1958  0.4818 -0.6546
 6273SOL    HW130452   3.662   1.004   4.900  0.4905 -2.5226 -0.3314
 6273SOL    HW230453   3.539   1.073   4.946 -0.3373  0.0460  0.8004
 6274SOL     OW30454   3.440   3.361   6.060 -0.3378 -0.1644 -0.3902
 6274SOL    HW130455   3.483   3.430   6.008 -0.0436  0.4188  0.6360
 6274SOL    HW230456   3.492   3.292   6.019  0.2149 -0.7889  1.3882
 6275SOL     OW30457   2.271   3.349   7.512  0.0433 -0.3320  0.1900
 6275SOL    HW130458   2.351   3.400   7.499  0.1636 -0.0751  1.9753
 6275SOL    HW230459   2.220   3.395   7.444 -1.3695 -1.3676  0.5528
 6276SOL     OW30460   2.848   0.036   7.824 -0.2278  0.1502 -0.1464
 6276SOL    HW130461   2.871   4.682   7.841 -2.1928 -0.4233 -0.4834
 6276SOL    HW230462   2.760   0.024   7.787 -1.5352  1.6058  2.5085
 6277SOL     OW30463   2.009   2.083  15.990  0.4963  0.4818  0.2204
 6277SOL    HW130464   2.027   2.009  15.932 -1.3846  0.5650 -0.4813
 6277SOL    HW230465   2.079   2.074  16.055 -0.3234 -1.7756  0.7736
 6278SOL     OW30466   1.126   1.486   4.773 -0.0283  0.0332 -0.4946
 6278SOL    HW130467   1.039   1.503   4.737  0.0509 -0.2333 -0.8198
 6278SOL    HW230468   1.116   1.406   4.823 -2.0992 -0.0978 -1.1272
 6279SOL     OW30469   1.975   0.709  14.090  0.2516 -0.9271  0.0383
 6279SOL    HW130470   1.941   0.706  14.179 -0.1472 -2.8711 -0.1761
 6279SOL    HW230471   1.999   0.619  14.070 -0.7274 -1.1914  0.0736
 6280SOL     OW30472   1.103   1.665   1.976  0.2179  0.5584 -0.5730
 6280SOL    HW130473   1.035   1.688   2.039 -0.6578 -0.0110 -1.3223
 6280SOL    HW230474   1.177   1.698   2.028 -1.8639 -0.3766  2.9231
 6281SOL     OW30475   0.603   0.705   3.383 -0.4244  0.1413  0.0044
 6281SOL    HW130476   0.540   0.657   3.437 -1.5724  1.1547 -0.4198
 6281SOL    HW230477   0.646   0.742   3.460  0.7635 -2.5701  0.6026
 6282SOL     OW30478   0.216   4.212   3.327  0.1064  0.1772 -0.1993
 6282SOL    HW130479   0.284   4.275   3.302 -0.2614 -0.1728 -2.0414
 6282SOL    HW230480   0.259   4.160   3.395 -0.2266  1.9821  1.4075
 6283SOL     OW30481   1.517   2.808   6.084 -0.2727  0.0727 -0.5375
 6283SOL    HW130482   1.531   2.740   6.018  0.5982 -0.1746 -0.1057
 6283SOL    HW230483   1.605   2.813   6.122 -0.4505  0.5683 -0.1941
 6284SOL     OW30484   1.283   1.255   4.064  0.3014  0.3232  0.4801
 6284SOL    HW130485   1.226   1.271   3.988  0.7434  0.8049  0.2561
 6284SOL    HW230486   1.318   1.342   4.081  1.1141  0.1047 -0.0360
 6285SOL     OW30487   3.880   4.696   7.276 -0.0265  0.2956 -0.3049
 6285SOL    HW130488   3.824   0.014   7.221  1.3635  1.7925 -0.1975
 6285SOL    HW230489   3.965   4.737   7.260 -0.4484  1.1078 -0.5225
 6286SOL     OW30490   0.711   2.518  17.534  0.2181  0.1265  0.3911
 6286SOL    HW130491   0.680   2.509  17.624 -0.6465  2.4659  0.3513
 6286SOL    HW230492   0.624   2.531  17.495  0.3501 -2.6210 -0.7604
 6287SOL     OW30493   1.195   0.940  12.257 -0.1204 -0.5546 -0.2448
 6287SOL    HW130494   1.161   0.889  12.184  0.9109 -2.3891  0.5573
 6287SOL    HW230495   1.285   0.909  12.264 -0.7899 -2.1258  1.4650
 6288SOL     OW30496   0.239   0.892   5.052  0.0033  0.2967  0.0200
 6288SOL    HW130497   0.307   0.956   5.074 -0.2246  1.3287 -2.3264
 6288SOL    HW230498   0.186   0.897   5.132 -0.2413 -3.0027  0.0476
 6289SOL     OW30499   4.153   0.639  11.654  0.1304 -0.6982  0.2335
 6289SOL    HW130500   4.233   0.684  11.626 -0.8348 -0.5147 -2.2706
 6289SOL    HW230501   4.174   0.604  11.741  1.0017 -0.5174  0.0998
 6290SOL     OW30502   2.655   3.020   5.350  0.2943  0.0819 -0.7716
 6290SOL    HW130503   2.633   3.107   5.384 -0.3167 -0.8221  1.1498
 6290SOL    HW230504   2.712   2.990   5.422 -0.9138  0.5644  0.3832
 6291SOL     OW30505   4.576   3.558   7.822 -0.1221  0.0998 -0.1019
 6291SOL    HW130506   4.605   3.468   7.839  1.3720  0.6096  0.0654
 6291SOL    HW230507   4.552   3.590   7.908 -2.8873 -1.2116 -0.3956
 6292SOL     OW30508   4.653   2.575   1.216 -0.6338 -0.0967 -0.1134
 6292SOL    HW130509   0.004   2.599   1.241 -0.1058 -1.1093 -1.0130
 6292SOL    HW230510   4.675   2.546   1.128  2.6087 -1.2572  1.0893
 6293SOL     OW30511   4.606   4.146   5.015 -0.3328 -0.0006  0.2115
 6293SOL    HW130512   4.544   4.073   5.003  0.9361 -1.0502  0.0380
 6293SOL    HW230513   4.658   4.128   4.937  0.4582  0.0449  0.7339
 6294SOL     OW30514   2.028   3.043   7.259 -0.7222 -0.2397 -0.3990
 6294SOL    HW130515   1.941   3.065   7.225 -0.2067  1.5496 -0.5610
 6294SOL    HW230516   2.077   3.084   7.188  1.9189 -2.6620  0.0246
 6295SOL     OW30517   1.410   2.305   7.565  0.3830  0.1763 -0.0019
 6295SOL    HW130518   1.479   2.337   7.624  0.0249  1.4160 -0.2604
 6295SOL    HW230519   1.453   2.320   7.481 -1.0238 -0.5440 -0.8322
 6296SOL     OW30520   1.465   3.294  10.848  0.8947 -0.0131 -0.0855
 6296SOL    HW130521   1.417   3.330  10.773  0.5527 -0.5901 -0.1441
 6296SOL    HW230522   1.522   3.370  10.863 -0.8433  1.2316  0.2167
 6297SOL     OW30523   3.325   2.439  11.414 -0.2704 -0.2476  0.3727
 6297SOL    HW130524   3.238   2.475  11.401 -1.2083 -2.2407  1.1812
 6297SOL    HW230525   3.375   2.521  11.421  0.2273 -0.4755 -0.5393
 6298SOL     OW30526   1.241   0.923   2.622 -0.0337 -0.1949  0.6056
 6298SOL    HW130527   1.315   0.937   2.681 -0.4571  0.8654  0.8718
 6298SOL    HW230528   1.295   0.883   2.554 -0.2691  0.3508  0.0974
 6299SOL     OW30529   0.552   3.907   9.141  0.2906  0.2198  0.0183
 6299SOL    HW130530   0.523   3.889   9.230 -1.9373 -1.1843 -1.0001
 6299SOL    HW230531   0.648   3.912   9.150  0.1735  2.9497 -0.1493
 6300SOL     OW30532   0.729   1.731  11.151 -0.3361  0.3948 -0.4141
 6300SOL    HW130533   0.681   1.748  11.070 -2.7496  0.0033  0.9213
 6300SOL    HW230534   0.686   1.775  11.225 -2.7172 -1.0049 -0.9600
 6301SOL     OW30535   4.520   2.297   7.378  0.2162 -0.0797  0.4244
 6301SOL    HW130536   4.523   2.299   7.282 -2.1167  0.6953  0.3675
 6301SOL    HW230537   4.539   2.389   7.393 -0.6348 -0.2926  2.7796
 6302SOL     OW30538   0.084   4.075  16.894  0.2657  0.0180  0.0640
 6302SOL    HW130539   0.090   3.986  16.858  1.1593  0.9421 -2.1209
 6302SOL    HW230540   0.176   4.102  16.904  0.1807  0.4371 -0.2631
 6303SOL     OW30541   4.730   0.992   3.501 -0.5804  0.3682 -0.2819
 6303SOL    HW130542   4.666   1.060   3.518 -0.5811  0.0088  1.1854
 6303SOL    HW230543   4.673   0.936   3.448 -1.5465 -0.7115  1.8632
 6304SOL     OW30544   0.355   1.589  17.514  0.7118 -0.5480 -0.1425
 6304SOL    HW130545   0.361   1.564  17.607  0.6469 -1.7018 -0.4525
 6304SOL    HW230546   0.294   1.662  17.526  0.8123  0.0248 -3.1077
 6305SOL     OW30547   1.688   2.619  16.100  0.1650 -0.1295  0.0032
 6305SOL    HW130548   1.657   2.582  16.183  1.9152 -1.6293 -0.0163
 6305SOL    HW230549   1.684   2.539  16.047 -2.4340  1.2967 -1.9471
 6306SOL     OW30550   4.097   1.749   0.355 -0.0045  0.5194 -0.6602
 6306SOL    HW130551   4.063   1.776   0.440  2.6513 -1.8100  1.1503
 6306SOL    HW230552   4.108   1.828   0.301 -4.0847  0.6810 -1.2313
 6307SOL     OW30553   1.133   2.736   3.453  0.4647 -0.1717  0.5521
 6307SOL    HW130554   1.154   2.814   3.402  0.3896  0.0075  0.7992
 6307SOL    HW230555   1.041   2.729   3.429  0.5451 -0.6286  0.3648
 6308SOL     OW30556   3.444   3.665   8.188 -0.2525  0.3140  0.3334
 6308SOL    HW130557   3.523   3.718   8.202  2.0042 -3.4971  2.0667
 6308SOL    HW230558   3.438   3.601   8.259 -4.3161 -0.8703 -1.1289
 6309SOL     OW30559   1.758   2.104   9.520 -0.1895 -0.3666 -0.0047
 6309SOL    HW130560   1.765   2.199   9.531  3.9917 -0.8443  1.5394
 6309SOL    HW230561   1.844   2.077   9.551  0.2023  0.9338  0.0340
 6310SOL     OW30562   2.873   3.347   0.965  0.4409  0.3244  0.1408
 6310SOL    HW130563   2.810   3.311   1.028 -0.9137 -0.4223 -1.6302
 6310SOL    HW230564   2.867   3.441   0.978 -0.6358  0.0084  1.9209
 6311SOL     OW30565   3.073   1.834   7.092 -0.1848 -0.5370 -0.2828
 6311SOL    HW130566   3.142   1.898   7.110 -0.1711 -0.4414 -0.6799
 6311SOL    HW230567   3.127   1.760   7.062 -0.6809 -0.8788 -0.3234
 6312SOL     OW30568   1.688   1.003   8.199  0.4445  0.0738  0.5799
 6312SOL    HW130569   1.647   1.007   8.285  1.8375 -3.3147  1.3821
 6312SOL    HW230570   1.618   0.987   8.135 -0.2936  1.0359  1.1422
 6313SOL     OW30571   1.049   4.322   8.482  0.4705  0.2976  0.5250
 6313SOL    HW130572   1.117   4.255   8.487 -0.8775 -1.1317 -0.1609
 6313SOL    HW230573   1.064   4.366   8.565 -0.2815 -1.1971  1.4571
 6314SOL     OW30574   3.539   4.628   7.671  0.3947  0.2793  0.6864
 6314SOL    HW130575   3.526   4.534   7.665  1.1942  0.3147 -1.8566
 6314SOL    HW230576   3.490   4.659   7.594 -0.3207  0.6414  1.2854
 6315SOL     OW30577   3.381   2.440  10.033  0.3355  0.0467  0.0234
 6315SOL    HW130578   3.322   2.423   9.960 -0.2544  1.1412  0.2496
 6315SOL    HW230579   3.457   2.393   9.999  0.5729  0.9343 -0.6580
 6316SOL     OW30580   2.846   2.733  17.612  1.0410  0.3805  0.0385
 6316SOL    HW130581   2.897   2.776  17.543  1.3050  1.6163  1.0152
 6316SOL    HW230582   2.766   2.732  17.558  0.0793  0.9783  1.4514
 6317SOL     OW30583   2.634   2.695   5.548 -0.3674 -0.2558  0.2666
 6317SOL    HW130584   2.568   2.762   5.530 -0.7239 -0.4576  0.8153
 6317SOL    HW230585   2.708   2.755   5.560 -1.3763  1.3777 -1.7042
 6318SOL     OW30586   2.226   1.909   7.196  0.2516 -0.4872  0.3586
 6318SOL    HW130587   2.272   1.983   7.235 -0.4049  0.1738 -0.1044
 6318SOL    HW230588   2.259   1.908   7.106 -2.1567  0.6091 -0.5454
 6319SOL     OW30589   0.187   0.480  13.730  0.3776  0.6821  0.2383
 6319SOL    HW130590   0.171   0.385  13.734  0.2285  0.6141 -2.0506
 6319SOL    HW230591   0.263   0.491  13.786 -0.2291  0.9154  1.0148
 6320SOL     OW30592   1.688   0.115   3.859  0.4091 -0.0185 -0.1661
 6320SOL    HW130593   1.682   0.123   3.955 -1.2108 -0.6153 -0.2304
 6320SOL    HW230594   1.739   0.035   3.849  1.2933  0.7651 -1.9673
 6321SOL     OW30595   3.629   1.171  15.711 -0.3334  0.0543 -0.0172
 6321SOL    HW130596   3.557   1.168  15.648  0.6712  1.5318 -1.2398
 6321SOL    HW230597   3.611   1.263  15.731 -0.4262  0.7365 -3.1227
 6322SOL     OW30598   2.118   4.736  11.500 -0.6803  0.1142  0.4220
 6322SOL    HW130599   2.145   4.667  11.439 -0.5841  0.4556  0.0842
 6322SOL    HW230600   2.199   0.048  11.501 -1.0239  0.7104 -1.3389
 6323SOL     OW30601   2.563   4.163   2.401  0.6450  0.8434  0.3259
 6323SOL    HW130602   2.475   4.154   2.437  0.9795  1.9739  1.4488
 6323SOL    HW230603   2.551   4.247   2.356 -0.4177 -0.1178 -1.1736
 6324SOL     OW30604   4.535   1.792   6.774 -0.4405  0.1323  0.3669
 6324SOL    HW130605   4.607   1.835   6.820  1.3812  0.2159 -2.5279
 6324SOL    HW230606   4.508   1.729   6.841  0.9540 -1.1876 -0.2884
 6325SOL     OW30607   0.377   0.889   3.326 -0.3547  0.0271  0.0201
 6325SOL    HW130608   0.364   0.889   3.231  3.1572 -0.9811 -0.4755
 6325SOL    HW230609   0.395   0.795   3.333  2.1012  0.4423 -0.6307
 6326SOL     OW30610   2.137   4.502  17.613  0.4441  0.0363  0.4399
 6326SOL    HW130611   2.179   4.490  17.528 -1.5186 -2.3140 -0.1903
 6326SOL    HW230612   2.216   4.532  17.660  0.5827  0.7951 -0.2654
 6327SOL     OW30613   4.194   0.139   6.520  0.5787  0.2720 -0.1428
 6327SOL    HW130614   4.162   0.163   6.607 -0.4416  0.4568 -0.5610
 6327SOL    HW230615   4.187   0.228   6.485 -1.7350 -0.4995 -1.6720
 6328SOL     OW30616   3.844   2.263  11.195 -0.2282  0.0911 -0.5090
 6328SOL    HW130617   3.825   2.224  11.281  2.0871  1.1783  0.4729
 6328SOL    HW230618   3.939   2.260  11.184 -0.0188 -2.1696  1.7551
 6329SOL     OW30619   1.830   0.368   3.987  0.1405 -0.1563 -0.5503
 6329SOL    HW130620   1.847   0.366   3.893  0.5929 -2.1718 -0.4329
 6329SOL    HW230621   1.768   0.296   3.994  0.3174 -0.3235 -0.6962
 6330SOL     OW30622   1.488   1.174   2.614  0.2890 -0.2733 -0.2754
 6330SOL    HW130623   1.572   1.128   2.608 -0.2678 -1.0618 -1.8756
 6330SOL    HW230624   1.459   1.173   2.523  0.1949  1.1538 -0.2687
 6331SOL     OW30625   0.073   4.283  16.608  0.1528 -0.4760  0.4046
 6331SOL    HW130626   0.114   4.322  16.685 -0.6453  0.9885  0.0792
 6331SOL    HW230627   0.150   4.287  16.551 -0.9450 -1.8010 -1.1869
 6332SOL     OW30628   1.651   2.534   4.657 -0.2150  0.2496 -0.2767
 6332SOL    HW130629   1.666   2.440   4.641  2.0433  0.5719 -0.1186
 6332SOL    HW230630   1.737   2.553   4.695 -0.5271  0.8290  0.1374
 6333SOL     OW30631   0.099   0.961  16.747  1.0924 -0.2006 -0.1008
 6333SOL    HW130632   0.087   0.878  16.702  0.5866  0.7366 -1.6906
 6333SOL    HW230633   0.072   1.020  16.677  0.5512 -0.1380  0.1616
 6334SOL     OW30634   3.638   1.616  15.350 -0.0088 -0.4910  0.4650
 6334SOL    HW130635   3.555   1.647  15.386 -0.9633 -0.6107 -1.5845
 6334SOL    HW230636   3.657   1.681  15.282 -0.7338  0.6610  1.3767
 6335SOL     OW30637   0.901   3.685   5.569 -1.0930  0.2078  0.1142
 6335SOL    HW130638   0.824   3.730   5.603  1.5855  2.1640  3.6369
 6335SOL    HW230639   0.860   3.651   5.489  0.4520 -1.3473 -0.0263
 6336SOL     OW30640   1.145   0.452   7.151  0.1082 -0.6001 -0.1103
 6336SOL    HW130641   1.156   0.409   7.236  2.6757  0.7001  0.2456
 6336SOL    HW230642   1.114   0.372   7.109  3.2920 -0.4227 -2.8105
 6337SOL     OW30643   4.094   2.082   6.904 -0.1707  0.1796  0.1582
 6337SOL    HW130644   4.060   2.103   6.991 -1.2630  2.4928 -0.8235
 6337SOL    HW230645   4.032   2.017   6.871 -0.5426  0.6347 -0.0346
 6338SOL     OW30646   1.991   4.558   4.297 -0.0005  0.4319  0.4751
 6338SOL    HW130647   2.085   4.541   4.291  0.0723  0.6880  0.8875
 6338SOL    HW230648   1.974   4.513   4.379  0.0084 -1.5302 -0.5960
 6339SOL     OW30649   1.919   3.012   8.275  0.1778  0.7163  0.3227
 6339SOL    HW130650   1.996   3.061   8.248  1.8105 -0.6430  2.5557
 6339SOL    HW230651   1.910   3.050   8.362  0.9804 -0.9457  1.1427
 6340SOL     OW30652   0.907   0.855   7.228 -0.1452 -0.3742 -0.2793
 6340SOL    HW130653   0.816   0.828   7.224 -0.3266  0.4532 -1.7813
 6340SOL    HW230654   0.946   0.770   7.206  0.9683 -0.4141  1.8929
 6341SOL     OW30655   1.067   1.434   1.304  0.1096  0.1979  0.5096
 6341SOL    HW130656   1.020   1.357   1.337  1.0420 -0.0908  1.1762
 6341SOL    HW230657   0.993   1.494   1.308 -1.5237 -1.6539 -1.6992
 6342SOL     OW30658   3.415   2.255  11.612  0.4397 -0.5531  0.0812
 6342SOL    HW130659   3.403   2.293  11.525  2.1662 -2.6212 -1.0670
 6342SOL    HW230660   3.373   2.171  11.591 -1.2956  0.6266 -1.1007
 6343SOL     OW30661   0.723   3.531   5.983 -0.2193  0.4207 -0.3307
 6343SOL    HW130662   0.691   3.440   5.985  0.9179  0.0845  3.1577
 6343SOL    HW230663   0.786   3.543   6.054  0.9638  0.4865 -1.4074
 6344SOL     OW30664   1.455   1.843   7.193  0.4863 -0.4313 -0.2643
 6344SOL    HW130665   1.506   1.880   7.121 -2.4798  5.0909  0.4616
 6344SOL    HW230666   1.528   1.849   7.255  1.3461 -3.0765 -1.0569
 6345SOL     OW30667   0.191   2.081   8.652  0.3236  0.3243  0.0930
 6345SOL    HW130668   0.223   2.149   8.712 -2.1942 -0.3379  2.1724
 6345SOL    HW230669   0.270   2.028   8.647 -0.0544 -0.2675  0.4385
 6346SOL     OW30670   2.465   1.512   1.920  0.9205 -0.4470  0.1617
 6346SOL    HW130671   2.444   1.572   1.992 -1.6107 -0.7094 -0.3745
 6346SOL    HW230672   2.405   1.544   1.852 -0.9676 -3.0418  0.6064
 6347SOL     OW30673   0.101   0.166  10.745 -0.5731 -0.1661 -0.0876
 6347SOL    HW130674   0.139   0.117  10.817 -0.1402  1.1149  0.5525
 6347SOL    HW230675   0.018   0.192  10.786  0.3805 -0.8364  2.2618
 6348SOL     OW30676   3.307   0.865  11.710 -0.1260  0.4371  0.1797
 6348SOL    HW130677   3.347   0.781  11.734 -0.4886  0.7514  1.8648
 6348SOL    HW230678   3.342   0.877  11.622 -1.0143 -1.9811 -0.5090
 6349SOL     OW30679   1.345   1.254   6.611  0.3121  0.6330  0.4167
 6349SOL    HW130680   1.316   1.341   6.640  2.1262  0.9755  1.2263
 6349SOL    HW230681   1.301   1.198   6.674  1.6657 -1.1208 -0.2186
 6350SOL     OW30682   3.033   4.035  17.646  0.1937  0.1666 -0.1045
 6350SOL    HW130683   2.986   4.095  17.589  2.1279  0.6062 -1.2350
 6350SOL    HW230684   3.065   4.079  17.725 -1.3840  1.1485 -0.0131
 6351SOL     OW30685   1.767   2.821   7.235  0.4258  0.0339  0.4844
 6351SOL    HW130686   1.799   2.761   7.302 -0.8741 -0.6802  0.4631
 6351SOL    HW230687   1.781   2.908   7.274 -0.7564  1.7066 -2.7644
 6352SOL     OW30688   0.314   1.369  17.320  0.1303 -0.2060 -0.3733
 6352SOL    HW130689   0.272   1.378  17.235 -1.2236 -2.0973  0.0929
 6352SOL    HW230690   0.297   1.450  17.368  1.7775  0.7063 -1.3062
 6353SOL     OW30691   3.568   1.193   3.145 -0.7204 -0.4235  0.1679
 6353SOL    HW130692   3.474   1.211   3.133 -0.5713 -0.2210 -0.7202
 6353SOL    HW230693   3.601   1.259   3.083 -0.0998  0.3250  1.2995
 6354SOL     OW30694   1.576   1.108   8.519 -0.3633  0.2478 -0.1084
 6354SOL    HW130695   1.511   1.040   8.506  1.2863 -0.6685 -3.4459
 6354SOL    HW230696   1.652   1.055   8.543  0.4563  1.9134  0.9935
 6355SOL     OW30697   3.107   0.555   2.484  0.7134 -0.5429  1.0692
 6355SOL    HW130698   3.071   0.611   2.552 -2.4534  0.0708 -1.1066
 6355SOL    HW230699   3.029   0.530   2.434  0.5587  0.3989  0.8379
 6356SOL     OW30700   0.911   0.762   6.815 -0.8080 -0.3809  0.5737
 6356SOL    HW130701   0.936   0.670   6.806  1.7589  0.0232  3.5227
 6356SOL    HW230702   0.940   0.794   6.730 -1.9023 -0.5414  0.1316
 6357SOL     OW30703   2.923   2.581   4.426  0.3622  0.2851 -0.4344
 6357SOL    HW130704   2.958   2.633   4.353  1.9003  1.7396  1.3617
 6357SOL    HW230705   2.853   2.640   4.455  1.6115  0.9715  1.1054
 6358SOL     OW30706   2.792   3.213   7.306 -0.5087  0.2900  0.4296
 6358SOL    HW130707   2.730   3.195   7.376  0.4883  0.7451  1.4355
 6358SOL    HW230708   2.842   3.287   7.341 -1.1535  0.2975  1.3334
 6359SOL     OW30709   4.147   1.727   8.903  0.2265 -0.3351  0.1297
 6359SOL    HW130710   4.150   1.810   8.854  0.2167 -2.1471 -2.9812
 6359SOL    HW230711   4.224   1.679   8.872 -0.3135 -1.2241  0.1626
 6360SOL     OW30712   2.460   4.026  11.017  0.5302  0.2916  0.1512
 6360SOL    HW130713   2.554   4.029  11.034  0.4755 -1.6707  0.7519
 6360SOL    HW230714   2.418   4.070  11.091  0.9948  0.0238  0.5730
 6361SOL     OW30715   4.649   1.509   8.366 -0.3480 -0.2568  0.5158
 6361SOL    HW130716   4.668   1.593   8.324 -0.4794  0.2090  1.4108
 6361SOL    HW230717   4.563   1.527   8.403 -0.1780  2.3305 -0.3349
 6362SOL     OW30718   3.196   4.518  16.608  0.0191 -0.2287  0.1674
 6362SOL    HW130719   3.220   4.547  16.520  2.0151 -1.6333  0.2371
 6362SOL    HW230720   3.106   4.487  16.607 -0.5983  1.5372 -0.0275
 6363SOL     OW30721   1.922   1.736   5.466 -0.3917 -0.3189  0.2874
 6363SOL    HW130722   1.895   1.706   5.379  0.2369 -0.2603  0.0772
 6363SOL    HW230723   1.859   1.686   5.518  1.5238 -3.0955 -0.0997
 6364SOL     OW30724   0.804   1.477   7.834 -0.3882 -0.1048  0.0559
 6364SOL    HW130725   0.747   1.477   7.758 -0.6847  2.3571  0.2962
 6364SOL    HW230726   0.762   1.527   7.904  2.3528 -1.0912  2.4343
 6365SOL     OW30727   0.324   1.872   9.378  0.4567 -0.0431 -0.0039
 6365SOL    HW130728   0.257   1.904   9.317 -2.2146 -1.8655  2.0029
 6365SOL    HW230729   0.302   1.922   9.457  0.7978 -1.0982  0.7612
 6366SOL     OW30730   4.615   3.310   2.417  0.1950  0.1913 -0.3972
 6366SOL    HW130731   4.546   3.244   2.407 -0.7788  1.1097  0.3137
 6366SOL    HW230732   4.579   3.355   2.493  0.7961 -0.6197  0.3636
 6367SOL     OW30733   2.672   3.586   4.528 -0.6620 -0.8948 -0.4746
 6367SOL    HW130734   2.582   3.559   4.543  0.3156 -4.1660 -0.5380
 6367SOL    HW230735   2.681   3.671   4.570  0.8472 -0.7722 -1.0296
 6368SOL     OW30736   2.081   0.492   3.908 -0.0867  0.4720 -0.0608
 6368SOL    HW130737   2.010   0.477   3.846  0.1096  0.1909 -0.2176
 6368SOL    HW230738   2.037   0.449   3.982 -0.1011 -2.7355 -1.9447
 6369SOL     OW30739   0.872   4.545   0.724 -0.2274  0.2066 -0.2719
 6369SOL    HW130740   0.890   4.453   0.705  0.1611 -0.0703  1.4615
 6369SOL    HW230741   0.948   4.584   0.679  1.1360 -2.8622 -0.6623
 6370SOL     OW30742   3.299   0.959   1.970  0.0093 -0.3713  0.1297
 6370SOL    HW130743   3.296   1.003   2.055  3.6608  4.2367 -2.1362
 6370SOL    HW230744   3.394   0.949   1.959 -0.0529  0.2666 -0.9501
 6371SOL     OW30745   3.584   0.595   6.996  0.4910  0.0177  0.5540
 6371SOL    HW130746   3.545   0.561   6.916 -0.1470  1.1777  0.3600
 6371SOL    HW230747   3.530   0.554   7.063 -1.3512 -1.6284 -2.0003
 6372SOL     OW30748   4.017   1.123   6.952 -0.3420  0.2073 -0.4715
 6372SOL    HW130749   3.957   1.142   7.024  1.5059 -1.7029  1.5749
 6372SOL    HW230750   4.090   1.086   7.003 -1.1086 -0.3023  0.2445
 6373SOL     OW30751   2.403   0.497   6.526  0.0756 -0.0465  0.3096
 6373SOL    HW130752   2.394   0.589   6.550 -0.6050 -0.5541  2.0142
 6373SOL    HW230753   2.329   0.490   6.466  1.8374 -0.1483 -1.8651
 6374SOL     OW30754   2.102   1.452   9.256  0.2016  0.0278  0.2981
 6374SOL    HW130755   2.106   1.359   9.279  1.6925 -0.3203 -1.3728
 6374SOL    HW230756   2.050   1.468   9.335  0.8757  0.6151  0.6296
 6375SOL     OW30757   3.427   0.397   4.761  0.4647  0.9655  0.6348
 6375SOL    HW130758   3.411   0.488   4.735 -0.5015  0.3821 -0.7438
 6375SOL    HW230759   3.470   0.365   4.682 -1.5082  4.0873 -1.6769
 6376SOL     OW30760   2.816   3.485   3.033  0.2188 -0.2135 -0.1515
 6376SOL    HW130761   2.887   3.460   2.973  1.0373 -0.7392  1.0476
 6376SOL    HW230762   2.862   3.492   3.117  1.3005 -0.6450 -0.7022
 6377SOL     OW30763   0.376   4.638   9.086  0.9334  0.6708  0.2192
 6377SOL    HW130764   0.383   4.567   9.150 -1.5798 -1.2655 -1.6540
 6377SOL    HW230765   0.464   4.634   9.050 -0.3230 -1.0887 -2.6467
 6378SOL     OW30766   3.204   2.288   8.224 -0.0170  0.1791 -0.2317
 6378SOL    HW130767   3.234   2.307   8.313  1.2059  1.7671 -0.9733
 6378SOL    HW230768   3.144   2.218   8.248  0.0128 -0.0853 -0.9446
 6379SOL     OW30769   0.657   0.562   9.693 -0.3230 -0.3637  0.4421
 6379SOL    HW130770   0.684   0.503   9.622 -2.5348  2.3077 -2.6322
 6379SOL    HW230771   0.738   0.575   9.743 -1.7697  1.0976  2.3839
 6380SOL     OW30772   4.443   4.070   8.742 -0.2410 -0.7419  0.2374
 6380SOL    HW130773   4.427   3.976   8.737 -1.5507 -0.5622  1.1568
 6380SOL    HW230774   4.538   4.076   8.727 -0.5821  2.2093 -0.7697
 6381SOL     OW30775   1.828   4.261  16.675 -0.5813 -0.2687  0.1778
 6381SOL    HW130776   1.865   4.291  16.758  3.7920  1.2595 -2.3103
 6381SOL    HW230777   1.835   4.347  16.634  0.8520 -1.1659 -1.4419
 6382SOL     OW30778   3.800   1.030  16.941  0.2362 -0.0379  0.3794
 6382SOL    HW130779   3.759   1.004  16.859  1.5603 -0.5085 -0.1400
 6382SOL    HW230780   3.766   0.961  16.999 -1.4921 -0.9017 -1.6691
 6383SOL     OW30781   0.573   0.310   2.992 -0.0272  0.2166  0.3375
 6383SOL    HW130782   0.492   0.266   2.967 -0.1605 -0.1908  1.4731
 6383SOL    HW230783   0.540   0.388   3.035 -1.0276  1.2728 -2.3435
 6384SOL     OW30784   4.007   1.220   1.901  0.0957 -0.2653 -0.1912
 6384SOL    HW130785   4.040   1.262   1.980  0.9617  0.0614 -0.7194
 6384SOL    HW230786   3.987   1.295   1.844 -1.6074 -0.8369 -0.3278
 6385SOL     OW30787   1.188   1.275  13.938  0.1076  0.2493 -0.0701
 6385SOL    HW130788   1.201   1.225  14.019  0.2250 -3.0162 -2.1106
 6385SOL    HW230789   1.095   1.263  13.922 -0.5054  1.5637  2.4875
 6386SOL     OW30790   4.133   1.991   8.088  0.3304 -0.0498  0.3062
 6386SOL    HW130791   4.117   2.039   8.008 -1.5979  1.2046  1.4353
 6386SOL    HW230792   4.212   2.033   8.123  1.1390 -0.5746 -0.9176
 6387SOL     OW30793   3.082   4.439   0.574  0.5306  0.1666 -0.2186
 6387SOL    HW130794   3.080   4.533   0.555 -1.0687  0.3687  0.9448
 6387SOL    HW230795   3.089   4.434   0.670 -1.3206 -2.6584 -0.2129
 6388SOL     OW30796   1.967   1.367   3.230  0.5937  0.9309 -0.2414
 6388SOL    HW130797   1.881   1.324   3.224  0.5639  0.9650 -0.0487
 6388SOL    HW230798   2.019   1.287   3.239 -0.5106  0.3526  1.0945
 6389SOL     OW30799   1.320   1.514   8.295  0.7388  0.5261  0.0142
 6389SOL    HW130800   1.392   1.461   8.261  0.4007 -0.6444  1.0975
 6389SOL    HW230801   1.348   1.519   8.386  0.1087  0.4500  0.2092
 6390SOL     OW30802   3.710   1.722  17.183 -0.1271 -1.0025  0.2635
 6390SOL    HW130803   3.640   1.718  17.118 -0.0229 -1.5030  0.1821
 6390SOL    HW230804   3.735   1.813  17.167  1.0573 -1.4609 -0.4291
 6391SOL     OW30805   2.260   1.692   1.853 -0.3380  0.3668  0.0168
 6391SOL    HW130806   2.259   1.689   1.948  1.3558 -1.3521 -0.0364
 6391SOL    HW230807   2.307   1.773   1.834  0.1644  0.4697  1.7013
 6392SOL     OW30808   0.737   4.231   3.796 -0.3507 -0.1543 -0.0147
 6392SOL    HW130809   0.712   4.148   3.756  1.6161  0.7741 -3.1820
 6392SOL    HW230810   0.734   4.201   3.886  0.9942 -2.3873 -0.7101
 6393SOL     OW30811   1.487   4.494   7.465 -0.2269 -0.2386 -0.3674
 6393SOL    HW130812   1.459   4.469   7.554 -2.6186  2.9318 -0.2521
 6393SOL    HW230813   1.404   4.533   7.439 -1.1907 -0.9739  1.5541
 6394SOL     OW30814   4.307   4.237   5.580  0.1958 -0.0764 -0.0208
 6394SOL    HW130815   4.309   4.329   5.554  1.4351 -0.0091  0.3015
 6394SOL    HW230816   4.380   4.244   5.642 -0.7787  0.4544  1.0387
 6395SOL     OW30817   3.173   4.125   9.685 -0.3697  0.7279 -0.1884
 6395SOL    HW130818   3.266   4.131   9.666 -0.2183  0.8025  0.5887
 6395SOL    HW230819   3.167   4.030   9.682 -0.7888  0.7093  1.4446
 6396SOL     OW30820   2.653   3.698   6.307 -0.5858  0.1917  0.3259
 6396SOL    HW130821   2.625   3.698   6.216  0.4059 -0.3764  0.0156
 6396SOL    HW230822   2.716   3.626   6.310  0.2978  1.0169  1.6387
 6397SOL     OW30823   2.720   2.220   6.161 -0.1591 -0.2839  0.6188
 6397SOL    HW130824   2.735   2.260   6.076  1.3644  0.6109  1.3081
 6397SOL    HW230825   2.630   2.187   6.157 -0.5386  0.8255  0.0715
 6398SOL     OW30826   2.375   3.077   7.728  0.4899  0.5970  0.0548
 6398SOL    HW130827   2.371   3.137   7.803 -0.5640  0.6364 -0.0272
 6398SOL    HW230828   2.289   3.104   7.696 -1.1103 -0.9763  3.0469
 6399SOL     OW30829   2.406   0.626  14.156 -0.5961  0.8027  0.0101
 6399SOL    HW130830   2.357   0.561  14.106  0.3502 -0.1012  0.2717
 6399SOL    HW230831   2.329   0.671  14.189 -2.0385 -1.1117 -0.7789
 6400SOL     OW30832   2.535   4.149   0.796  0.2463  0.4476  0.6368
 6400SOL    HW130833   2.466   4.194   0.748 -0.6817 -1.5887  0.0413
 6400SOL    HW230834   2.485   4.107   0.866  1.5224 -1.1690  0.6055
 6401SOL     OW30835   2.328   2.436   7.600 -0.0688  0.4592 -0.0150
 6401SOL    HW130836   2.410   2.390   7.619 -0.1289  0.2419 -0.2901
 6401SOL    HW230837   2.342   2.459   7.508 -0.4143  1.4524  0.1790
 6402SOL     OW30838   4.257   0.922   5.363 -0.0962 -0.1247 -0.3052
 6402SOL    HW130839   4.186   0.970   5.407 -0.7936  0.4223 -2.0529
 6402SOL    HW230840   4.296   0.997   5.318 -0.1759  0.0066 -0.1599
 6403SOL     OW30841   0.058   3.287  11.912  0.5703  0.0828  0.0197
 6403SOL    HW130842   4.718   3.279  11.856  1.9499  3.1912 -2.3112
 6403SOL    HW230843   0.024   3.245  11.991 -2.1850 -0.9432 -1.7055
 6404SOL     OW30844   0.192   0.008   3.278  0.3099 -0.5514  0.0416
 6404SOL    HW130845   0.191   0.015   3.182  1.3436 -0.8212  0.0097
 6404SOL    HW230846   0.143   4.665   3.293 -1.1584  0.4199  0.4281
 6405SOL     OW30847   4.556   4.651   9.546  0.4154  0.3883  0.5060
 6405SOL    HW130848   4.578   4.594   9.472 -1.4384  0.0049  0.2560
 6405SOL    HW230849   4.585   4.598   9.620 -2.7741  1.2605  2.3656
 6406SOL     OW30850   2.729   4.236   7.108  0.1708  0.6019 -0.3103
 6406SOL    HW130851   2.734   4.319   7.061 -0.5301  0.8270  0.0105
 6406SOL    HW230852   2.747   4.270   7.196  0.6300 -1.0693  0.2495
 6407SOL     OW30853   4.044   1.781   6.043  0.5315  0.0593  0.3739
 6407SOL    HW130854   4.102   1.808   6.114 -1.5547  0.6625  1.8788
 6407SOL    HW230855   4.075   1.692   6.030 -2.3405 -0.9466  0.4387
 6408SOL     OW30856   4.048   1.835   5.386  0.1385  0.3855 -0.1177
 6408SOL    HW130857   4.090   1.817   5.302 -0.6802 -1.1631 -0.1964
 6408SOL    HW230858   4.117   1.860   5.447 -0.3051  0.1974  0.4572
 6409SOL     OW30859   0.646   4.481   4.247  0.4515  0.1416  0.2128
 6409SOL    HW130860   0.652   4.486   4.152  1.6393 -0.7355  0.2529
 6409SOL    HW230861   0.718   4.524   4.292  3.2205 -2.0887 -2.1150
 6410SOL     OW30862   1.517   2.501   1.789 -0.2666  0.0244 -0.1831
 6410SOL    HW130863   1.553   2.547   1.865 -0.9189  1.0277 -0.4825
 6410SOL    HW230864   1.583   2.432   1.778  0.6793  0.9014  0.0437
 6411SOL     OW30865   0.798   1.923   7.572  0.1647  0.6699  0.2829
 6411SOL    HW130866   0.820   1.831   7.591 -1.6441  0.1302 -0.2707
 6411SOL    HW230867   0.866   1.976   7.613  0.5442  0.3280  0.1023
 6412SOL     OW30868   3.234   3.381  16.133 -0.2576  0.4086 -0.0617
 6412SOL    HW130869   3.210   3.376  16.226  0.8716 -0.1861  0.1944
 6412SOL    HW230870   3.318   3.425  16.134 -1.0012  1.8047  0.4248
 6413SOL     OW30871   0.709   1.083   3.616 -0.0058 -0.4337 -0.0739
 6413SOL    HW130872   0.691   0.991   3.634 -0.3097  0.0349  1.9555
 6413SOL    HW230873   0.665   1.088   3.531  0.5454  1.1196 -0.2648
 6414SOL     OW30874   3.776   3.547   6.719  0.5354 -0.1192 -0.7730
 6414SOL    HW130875   3.779   3.631   6.672  1.5967 -0.3454 -1.1009
 6414SOL    HW230876   3.688   3.515   6.699  0.1006  1.1140 -0.8641
 6415SOL     OW30877   3.512   0.794   1.545 -0.0923  0.2337  0.8139
 6415SOL    HW130878   3.495   0.711   1.591 -0.2687  1.6676  3.3725
 6415SOL    HW230879   3.511   0.765   1.454 -1.1845  0.0768  0.8706
 6416SOL     OW30880   0.458   4.686   8.773  0.7662 -0.5069  0.3606
 6416SOL    HW130881   0.513   4.609   8.758 -0.6443 -1.8337  2.0273
 6416SOL    HW230882   0.507   0.022   8.735  0.3118  0.0481  0.8358
 6417SOL     OW30883   3.407   2.645   3.782 -0.8332  0.5572 -0.4663
 6417SOL    HW130884   3.490   2.602   3.804 -1.6912 -0.8389 -0.0087
 6417SOL    HW230885   3.428   2.713   3.718  1.4097  0.7933  0.5181
 6418SOL     OW30886   0.071   0.848   9.972 -0.3925 -0.5570 -0.3840
 6418SOL    HW130887   4.733   0.903   9.952 -0.3395  0.4461  2.1595
 6418SOL    HW230888   0.125   0.861   9.894  0.4268 -2.4805 -0.1377
 6419SOL     OW30889   3.982   1.225   2.579 -0.5141  0.5180 -0.0303
 6419SOL    HW130890   4.077   1.220   2.589 -0.7456 -0.9702  1.4444
 6419SOL    HW230891   3.955   1.216   2.671  0.4368 -0.9201  0.1228
 6420SOL     OW30892   0.238   4.384   8.691  0.2792  0.3786 -0.0799
 6420SOL    HW130893   0.162   4.440   8.707  0.1965 -0.0146  0.9032
 6420SOL    HW230894   0.182   4.308   8.672  0.4983  0.2254 -0.1110
 6421SOL     OW30895   2.692   1.288   1.617  0.1296 -0.1165 -0.3388
 6421SOL    HW130896   2.728   1.217   1.564  0.4321  1.2214 -1.9363
 6421SOL    HW230897   2.764   1.351   1.611 -0.1714  0.4704  2.5062
 6422SOL     OW30898   3.233   1.225   2.681  0.4747 -0.3434  0.1611
 6422SOL    HW130899   3.168   1.279   2.724 -0.3271  1.1709 -2.9386
 6422SOL    HW230900   3.311   1.237   2.735  0.0351  2.5419  0.1135
 6423SOL     OW30901   1.479   0.302   2.523 -0.3152  0.1011  0.1332
 6423SOL    HW130902   1.425   0.375   2.552 -0.4688  0.7715 -1.8744
 6423SOL    HW230903   1.549   0.343   2.472  0.7789 -0.5777  1.0574
 6424SOL     OW30904   1.302   0.629  14.917 -0.2824 -0.1793 -0.3906
 6424SOL    HW130905   1.330   0.715  14.883  0.3055  0.3915  1.5833
 6424SOL    HW230906   1.303   0.651  15.010 -3.8053 -0.3474 -0.2878
 6425SOL     OW30907   1.758   4.494   5.524  0.4541  0.3765 -0.2610
 6425SOL    HW130908   1.682   4.483   5.467  0.9605 -1.1352 -0.6447
 6425SOL    HW230909   1.816   4.534   5.459 -1.2730  2.7646 -0.3042
 6426SOL     OW30910   2.137   1.076  11.002 -0.1917 -0.4840  0.1540
 6426SOL    HW130911   2.069   1.134  10.968  1.8641  0.6698 -2.0110
 6426SOL    HW230912   2.100   0.987  10.996 -0.3065 -0.3823 -0.5610
 6427SOL     OW30913   4.154   2.485   5.899 -0.1300 -0.4945  0.4525
 6427SOL    HW130914   4.167   2.580   5.896  0.4206 -0.5567  0.9830
 6427SOL    HW230915   4.239   2.454   5.931  1.5074  2.0240 -1.4295
 6428SOL     OW30916   3.511   3.446   6.632 -0.1027  0.2218 -0.0500
 6428SOL    HW130917   3.501   3.410   6.544 -1.2269  1.3012 -0.3629
 6428SOL    HW230918   3.489   3.536   6.607  1.1071  0.4724 -0.2166
 6429SOL     OW30919   1.979   3.887   1.706 -0.1533 -0.9916  0.5894
 6429SOL    HW130920   1.885   3.868   1.709 -0.2282 -0.6813  0.3318
 6429SOL    HW230921   1.998   3.940   1.628  0.2748 -1.3859  0.4243
 6430SOL     OW30922   4.389   2.195  11.684  0.2244 -0.4586 -0.2352
 6430SOL    HW130923   4.353   2.283  11.698  1.6963 -0.0591  0.9893
 6430SOL    HW230924   4.393   2.162  11.773 -1.5259 -2.3726 -0.8588
 6431SOL     OW30925   3.116   0.796   1.065 -0.2168 -0.2015  0.1352
 6431SOL    HW130926   3.046   0.739   1.032 -1.1178  0.0324  1.6013
 6431SOL    HW230927   3.155   0.838   0.989  1.6307  0.8093  1.6674
 6432SOL     OW30928   1.354   3.061  15.891 -0.0478  0.0754 -0.6130
 6432SOL    HW130929   1.313   2.998  15.950 -0.5338  1.9292  1.0136
 6432SOL    HW230930   1.290   3.132  15.891 -0.1497 -0.0189  0.7521
 6433SOL     OW30931   0.179   2.712   1.224 -0.2331 -0.3030  0.4260
 6433SOL    HW130932   0.188   2.779   1.156 -0.1036 -0.3341  0.4126
 6433SOL    HW230933   0.161   2.760   1.305  1.1165 -0.8115  1.0212
 6434SOL     OW30934   1.864   2.686  12.845  0.3180 -0.0486  0.1839
 6434SOL    HW130935   1.874   2.761  12.788  1.0079 -0.3798 -0.1326
 6434SOL    HW230936   1.859   2.731  12.930  1.3302  0.2622  0.0865
 6435SOL     OW30937   2.525   3.501   7.089  0.4395  0.5601  0.3444
 6435SOL    HW130938   2.578   3.580   7.095  2.7973 -0.7046 -4.2107
 6435SOL    HW230939   2.589   3.436   7.061 -2.2546 -1.4501 -1.1767
 6436SOL     OW30940   2.414   2.005   2.906 -0.1484  0.4065  0.2876
 6436SOL    HW130941   2.335   2.016   2.960  0.2929 -0.2830  1.0682
 6436SOL    HW230942   2.382   1.928   2.859 -0.2700 -0.3193  1.5841
 6437SOL     OW30943   4.258   3.406  10.575  0.1022  0.2408 -0.3309
 6437SOL    HW130944   4.278   3.458  10.497 -2.4149 -0.1796 -1.2674
 6437SOL    HW230945   4.184   3.356  10.542  0.4281 -0.3155 -0.2155
 6438SOL     OW30946   0.999   4.125   3.692 -0.0257 -0.1921  0.0799
 6438SOL    HW130947   0.995   4.217   3.665  4.8458 -0.6885 -2.3715
 6438SOL    HW230948   1.058   4.082   3.630  2.2309  2.1873  0.5912
 6439SOL     OW30949   0.333   3.582   5.751  0.4153  0.0653  0.0357
 6439SOL    HW130950   0.294   3.598   5.837  1.4093 -0.2078  0.5391
 6439SOL    HW230951   0.405   3.522   5.773 -1.2845 -1.8944  0.2471
 6440SOL     OW30952   1.524   3.525   8.800 -0.3065 -0.3435  0.8784
 6440SOL    HW130953   1.461   3.527   8.872 -1.2403 -1.0926  0.0799
 6440SOL    HW230954   1.611   3.511   8.838  0.6353  0.8941 -0.7840
 6441SOL     OW30955   0.103   0.214   2.333 -0.6558 -0.3487 -0.5532
 6441SOL    HW130956   0.042   0.245   2.265  0.1445  1.7268 -0.3347
 6441SOL    HW230957   0.173   0.277   2.316  0.1363 -1.2125 -0.4644
 6442SOL     OW30958   3.597   2.603   8.449  0.5684 -0.2583 -0.7021
 6442SOL    HW130959   3.597   2.695   8.425 -1.1547  0.5808  2.5395
 6442SOL    HW230960   3.689   2.585   8.471  1.2382  1.3290 -2.2113
 6443SOL     OW30961   1.903   1.553   0.324 -0.6543  0.8097  0.2096
 6443SOL    HW130962   1.818   1.597   0.330 -1.4557 -0.7713  0.5995
 6443SOL    HW230963   1.905   1.555   0.228  2.6479  0.1472  0.2663
 6444SOL     OW30964   4.103   0.381   4.074  0.4417 -0.3382  0.3325
 6444SOL    HW130965   4.194   0.367   4.048  0.3707 -2.3759  1.1675
 6444SOL    HW230966   4.100   0.475   4.087  1.8114 -0.1392 -0.7992
 6445SOL     OW30967   3.085   1.232   3.545 -0.5416  0.0202  0.0190
 6445SOL    HW130968   2.991   1.248   3.555 -0.0111  1.6619  2.4423
 6445SOL    HW230969   3.095   1.291   3.470 -0.3875 -1.2581 -0.9700
 6446SOL     OW30970   1.565   0.842   9.753  0.6735  0.5186  0.1966
 6446SOL    HW130971   1.597   0.883   9.833  2.6195  1.1224 -0.8720
 6446SOL    HW230972   1.625   0.768   9.745 -0.1530 -0.1972  0.7738
 6447SOL     OW30973   0.722   1.382  13.281  0.0727 -0.4157  0.4494
 6447SOL    HW130974   0.759   1.344  13.202  0.7026 -0.5580  0.8097
 6447SOL    HW230975   0.761   1.318  13.341  1.6965 -0.3448 -0.5262
 6448SOL     OW30976   3.604   1.214  14.825  0.3841 -0.1532  0.4898
 6448SOL    HW130977   3.645   1.128  14.814  2.8325  0.8403  1.8508
 6448SOL    HW230978   3.511   1.193  14.816  0.2956  1.9558 -3.5425
 6449SOL     OW30979   2.838   4.711  16.119  0.2598  0.6339 -0.1666
 6449SOL    HW130980   2.822   0.063  16.088 -0.2771  0.7088  0.3255
 6449SOL    HW230981   2.749   4.677  16.116  0.5742 -0.1430 -0.5034
 6450SOL     OW30982   0.837   2.006   9.849  0.0923  0.1461 -0.2902
 6450SOL    HW130983   0.860   1.975   9.937  0.7129 -0.5842 -0.7092
 6450SOL    HW230984   0.903   2.064   9.812  1.3156 -0.4169  1.0055
 6451SOL     OW30985   0.176   2.696  11.670 -0.4716  0.5417 -0.1334
 6451SOL    HW130986   0.200   2.668  11.758 -1.2198 -0.3730 -0.2232
 6451SOL    HW230987   0.227   2.639  11.614  1.3127 -0.1460  2.1859
 6452SOL     OW30988   4.113   1.878   2.622 -0.2263 -0.2501  0.4486
 6452SOL    HW130989   4.189   1.863   2.566  0.1907 -0.7592  1.1443
 6452SOL    HW230990   4.045   1.908   2.562  1.8664  1.5442 -1.0126
 6453SOL     OW30991   2.530   0.891  16.452 -0.5836  0.4409 -0.0282
 6453SOL    HW130992   2.561   0.832  16.383 -1.0211  1.9751 -1.5247
 6453SOL    HW230993   2.565   0.855  16.533  0.4201  1.5603  0.0300
 6454SOL     OW30994   0.624   1.250   6.824  0.7666 -0.4305 -1.0173
 6454SOL    HW130995   0.690   1.296   6.877 -1.0121  1.8902 -0.8216
 6454SOL    HW230996   0.673   1.240   6.743 -0.4169  2.7862 -2.1255
 6455SOL     OW30997   3.247   1.178   2.185  0.3526 -0.2000  0.2887
 6455SOL    HW130998   3.224   1.140   2.270 -0.6655 -1.4583 -0.5532
 6455SOL    HW230999   3.342   1.187   2.192  0.4425 -0.0118 -1.1555
 6456SOL     OW31000   4.609   3.043   1.012  0.5565 -0.2570 -0.4518
 6456SOL    HW131001   4.545   3.084   1.069  0.4165 -1.2333  0.1010
 6456SOL    HW231002   4.687   3.028   1.065  0.6706  0.3475 -0.4584
 6457SOL     OW31003   1.959   2.576   4.300  0.8057 -0.2289  0.5438
 6457SOL    HW131004   2.041   2.622   4.317 -1.1635  2.5289  2.5991
 6457SOL    HW231005   1.974   2.498   4.353  0.3213  0.3985  1.5948
 6458SOL     OW31006   1.997   1.144   1.388 -0.4192 -0.2581  0.3408
 6458SOL    HW131007   2.005   1.126   1.294 -0.7221 -1.0713  0.4731
 6458SOL    HW231008   2.029   1.234   1.391  0.7931 -0.6417 -1.2970
 6459SOL     OW31009   2.402   0.949   1.730  0.5576 -0.0382 -0.0106
 6459SOL    HW131010   2.475   0.963   1.791 -0.6189 -1.3750  1.7170
 6459SOL    HW231011   2.445   0.883   1.676 -0.7255 -1.9924  1.3484
 6460SOL     OW31012   1.892   2.065   7.688  0.0123 -0.1038  0.2270
 6460SOL    HW131013   1.949   1.988   7.695 -0.1892 -0.2265  0.5107
 6460SOL    HW231014   1.960   2.130   7.708 -1.3039  1.8969 -1.8478
 6461SOL     OW31015   0.719   0.082   6.499 -0.0034  0.2980 -0.5324
 6461SOL    HW131016   0.689   0.011   6.443 -2.6729  0.1612  1.0705
 6461SOL    HW231017   0.804   0.051   6.530 -1.2057 -1.2905  1.1850
 6462SOL     OW31018   2.988   0.907   8.735  0.7540  0.2615 -0.1424
 6462SOL    HW131019   2.932   0.830   8.742  0.8732  0.1174 -0.8119
 6462SOL    HW231020   3.063   0.885   8.789  1.0974  0.7708 -0.4094
 6463SOL     OW31021   1.085   3.333   4.594  0.0966 -0.7446  0.2513
 6463SOL    HW131022   0.993   3.338   4.570 -0.4179 -1.6035  2.0511
 6463SOL    HW231023   1.098   3.249   4.551  1.7987 -0.3668  0.0214
 6464SOL     OW31024   0.736   4.377  17.192 -0.0372  0.0073  0.0550
 6464SOL    HW131025   0.742   4.353  17.284  1.9291  2.6675  0.6296
 6464SOL    HW231026   0.819   4.350  17.153  1.1858  3.4172  0.3096
 6465SOL     OW31027   0.810   2.684   3.405 -0.0168  0.1167  0.1339
 6465SOL    HW131028   0.785   2.738   3.480  2.8081  1.4013  0.1661
 6465SOL    HW231029   0.820   2.602   3.454 -1.2143 -0.6954 -0.9917
 6466SOL     OW31030   2.212   0.626   7.157  0.1019  0.1882  0.3203
 6466SOL    HW131031   2.264   0.548   7.180 -0.2087  0.4295  1.8742
 6466SOL    HW231032   2.271   0.683   7.109  3.5237 -2.8068  0.8893
 6467SOL     OW31033   2.758   3.942   8.779 -0.2043  0.0380  0.3133
 6467SOL    HW131034   2.781   4.035   8.788  2.0414 -0.2380 -2.5760
 6467SOL    HW231035   2.665   3.942   8.759 -0.2388 -1.8234  0.4686
 6468SOL     OW31036   0.460   1.536   4.295  0.5818 -0.5560  0.1607
 6468SOL    HW131037   0.532   1.595   4.274  0.1657 -0.2529 -0.4105
 6468SOL    HW231038   0.506   1.458   4.325  2.5184  0.7203  0.4702
 6469SOL     OW31039   1.035   0.318   3.946  0.1868 -0.5331  0.1967
 6469SOL    HW131040   0.943   0.334   3.967 -0.2787 -1.1592 -1.3854
 6469SOL    HW231041   1.069   0.403   3.975 -0.5877 -0.2670  0.3082
 6470SOL     OW31042   1.566   4.234   8.167 -0.7976 -0.0070  0.5911
 6470SOL    HW131043   1.625   4.175   8.119 -0.8501  0.2078  0.2610
 6470SOL    HW231044   1.536   4.180   8.239  3.0830 -2.3984  0.4123
 6471SOL     OW31045   4.543   1.498   3.919 -0.0962  0.7263  0.3711
 6471SOL    HW131046   4.584   1.415   3.897 -1.3178 -0.3677  2.1932
 6471SOL    HW231047   4.595   1.554   3.861  0.7492  0.4417  0.8563
 6472SOL     OW31048   3.156   1.563   4.530 -0.0421  0.0115 -0.5840
 6472SOL    HW131049   3.245   1.531   4.545  0.7429  2.3026 -0.5146
 6472SOL    HW231050   3.139   1.596   4.618 -0.0013  0.1714 -0.6367
 6473SOL     OW31051   1.039   1.136  15.284 -0.4071  0.7410  0.7534
 6473SOL    HW131052   1.032   1.040  15.289 -1.0070  0.7812  0.7140
 6473SOL    HW231053   1.008   1.143  15.193 -0.3984 -2.0541  0.5144
 6474SOL     OW31054   0.706   2.020   5.810 -0.1592  0.0430  0.9501
 6474SOL    HW131055   0.782   1.968   5.784 -1.1745 -0.4825 -0.9902
 6474SOL    HW231056   0.703   2.080   5.735  3.8317  1.3877  1.8990
 6475SOL     OW31057   0.928   0.875   9.253 -0.0974  0.1116  0.1457
 6475SOL    HW131058   0.982   0.935   9.200  0.3414 -0.1693  0.2750
 6475SOL    HW231059   0.980   0.795   9.258  0.9355  0.7390 -0.4515
 6476SOL     OW31060   0.620   1.672   0.564 -0.1452  0.0338  0.4842
 6476SOL    HW131061   0.683   1.699   0.631  1.2155 -0.1921 -0.7147
 6476SOL    HW231062   0.602   1.753   0.517  0.8800  0.1226  0.2411
 6477SOL     OW31063   1.887   4.003  12.200 -0.2780  0.3917 -0.1033
 6477SOL    HW131064   1.805   3.979  12.243 -1.1708  2.6352 -0.5300
 6477SOL    HW231065   1.906   4.085  12.246 -0.6222 -1.2608  2.9637
 6478SOL     OW31066   3.767   1.382  15.301 -0.0204 -0.2964  0.2456
 6478SOL    HW131067   3.820   1.431  15.237 -1.4252  1.9274  0.7704
 6478SOL    HW231068   3.726   1.454  15.349 -1.0063  0.9815 -2.5378
 6479SOL     OW31069   0.575   1.821  11.375  0.2629 -0.1618 -0.1098
 6479SOL    HW131070   0.503   1.832  11.313 -1.6322  0.0745  2.0923
 6479SOL    HW231071   0.611   1.910  11.373 -0.6877  0.2124 -0.5803
 6480SOL     OW31072   4.571   1.535   5.232  0.0841 -0.8711 -0.2277
 6480SOL    HW131073   4.642   1.476   5.256 -1.6595 -2.3658  1.2137
 6480SOL    HW231074   4.572   1.571   5.321 -0.7321  2.1728 -1.4372
 6481SOL     OW31075   2.597   1.176   8.560 -0.0266 -0.6509  0.5553
 6481SOL    HW131076   2.632   1.105   8.506  0.5893 -0.6847  1.0030
 6481SOL    HW231077   2.669   1.238   8.573 -0.1071 -0.5784  0.6530
 6482SOL     OW31078   3.948   4.685  16.834  0.2986 -0.3043 -0.1948
 6482SOL    HW131079   4.017   4.695  16.768  0.1784  1.4942 -0.0578
 6482SOL    HW231080   3.942   4.590  16.832 -1.3902 -0.2088  0.5100
 6483SOL     OW31081   1.809   2.104   2.210  0.0674  0.6348 -0.5720
 6483SOL    HW131082   1.774   2.025   2.251  0.1773  0.1926 -1.3269
 6483SOL    HW231083   1.850   2.136   2.290  1.9968 -0.7083 -1.0341
 6484SOL     OW31084   0.905   3.048  13.510 -0.2456 -0.5342 -0.2114
 6484SOL    HW131085   0.981   2.994  13.529  0.6813  0.9953  0.3671
 6484SOL    HW231086   0.928   3.114  13.575 -0.5522 -0.7440  0.1092
 6485SOL     OW31087   0.590   2.493  16.546  0.0437 -0.2962  0.1219
 6485SOL    HW131088   0.555   2.414  16.587  0.3619  0.1633  1.2744
 6485SOL    HW231089   0.568   2.564  16.606  1.4939 -0.2370  0.5804
 6486SOL     OW31090   4.278   2.219  17.562 -0.5414 -0.2209  0.2934
 6486SOL    HW131091   4.284   2.300  17.512 -0.5036 -0.2960  0.1745
 6486SOL    HW231092   4.193   2.183  17.537 -1.1456  0.7340  1.0140
 6487SOL     OW31093   3.389   4.107  11.750 -0.3210 -0.4129 -0.2978
 6487SOL    HW131094   3.303   4.147  11.734 -1.0097 -1.1625  1.5448
 6487SOL    HW231095   3.408   4.141  11.837 -1.3577  2.3811 -1.1545
 6488SOL     OW31096   2.799   4.479  10.735 -0.8230  0.3362  0.7562
 6488SOL    HW131097   2.728   4.529  10.777 -0.6263  0.0319  1.4601
 6488SOL    HW231098   2.802   4.402  10.793 -0.8570 -0.3006 -0.0862
 6489SOL     OW31099   1.468   2.873  12.633 -0.0072  0.3074  0.5609
 6489SOL    HW131100   1.504   2.874  12.544 -2.7932 -2.2719 -0.5730
 6489SOL    HW231101   1.390   2.928  12.624  0.3745  0.5534 -1.2750
 6490SOL     OW31102   1.702   1.988   5.249  0.0066  0.0575  0.1472
 6490SOL    HW131103   1.715   2.080   5.274  2.0231 -0.2760  0.3168
 6490SOL    HW231104   1.722   1.996   5.156  2.0356 -0.7732  0.5073
 6491SOL     OW31105   0.499   2.650   1.725  0.1016  0.2537 -0.3021
 6491SOL    HW131106   0.485   2.707   1.800 -2.1875  0.5668 -0.9796
 6491SOL    HW231107   0.500   2.565   1.770  0.4217  1.8278  2.6519
 6492SOL     OW31108   1.853   1.321   4.501  0.5554 -0.2529 -0.3647
 6492SOL    HW131109   1.844   1.227   4.486 -2.0905  0.5162 -3.4183
 6492SOL    HW231110   1.772   1.326   4.552  1.6076  0.6466  1.2314
 6493SOL     OW31111   0.282   0.315   6.234 -0.4285 -0.1744  0.6075
 6493SOL    HW131112   0.255   0.372   6.162  1.1172 -0.7977 -0.4610
 6493SOL    HW231113   0.217   0.245   6.237  0.0174 -0.5338  1.8607
 6494SOL     OW31114   2.642   0.945   7.125  0.5703  0.5640  0.0866
 6494SOL    HW131115   2.735   0.947   7.148  0.5927  0.9876 -0.0267
 6494SOL    HW231116   2.606   0.947   7.214  3.6275  1.2238  1.3258
 6495SOL     OW31117   2.593   2.411   6.685 -0.0662 -0.1013  0.1013
 6495SOL    HW131118   2.547   2.495   6.674 -0.7952 -0.3149  1.5800
 6495SOL    HW231119   2.537   2.351   6.637  0.9050 -0.2875 -0.8106
 6496SOL     OW31120   0.919   3.838  11.978 -0.0158 -0.4910 -0.7572
 6496SOL    HW131121   1.009   3.870  11.974  0.7897 -2.9186 -1.7672
 6496SOL    HW231122   0.917   3.791  12.061 -1.0242 -0.1696 -0.5972
 6497SOL     OW31123   0.461   4.079   7.642  0.1529 -0.0790 -0.0508
 6497SOL    HW131124   0.459   4.032   7.558  2.1832  0.4641 -0.3886
 6497SOL    HW231125   0.548   4.117   7.642 -0.5582  1.6011  2.1085
 6498SOL     OW31126   3.124   1.562   2.431  0.0639  0.2864  0.2075
 6498SOL    HW131127   3.115   1.620   2.506  1.0349  2.9703 -1.7668
 6498SOL    HW231128   3.219   1.548   2.424  0.3397  2.0937  0.5104
 6499SOL     OW31129   1.527   3.131  11.242  0.2465 -0.1087 -0.2657
 6499SOL    HW131130   1.531   3.151  11.336 -2.2620  1.4536 -0.4809
 6499SOL    HW231131   1.442   3.172  11.223  0.1825  0.3487  0.9947
 6500SOL     OW31132   0.278   0.961   3.554  0.0222  0.2136  0.7013
 6500SOL    HW131133   0.323   0.921   3.479  0.8578  0.3393  1.1397
 6500SOL    HW231134   0.192   0.966   3.513  0.6532 -0.3364 -0.7017
 6501SOL     OW31135   2.786   1.110   1.439  0.8046 -0.0729  0.3473
 6501SOL    HW131136   2.875   1.093   1.407 -0.9155  1.0606 -5.1164
 6501SOL    HW231137   2.744   1.062   1.368 -0.8084 -0.8021  1.7930
 6502SOL     OW31138   0.269   2.340   0.487 -0.6251 -0.1640  0.5137
 6502SOL    HW131139   0.293   2.248   0.480  0.4732  0.0871  1.0950
 6502SOL    HW231140   0.196   2.346   0.425  0.2291  1.3776 -0.3620
 6503SOL     OW31141   1.995   3.970   7.431 -0.1486 -0.1104  0.3885
 6503SOL    HW131142   1.950   3.965   7.347  1.1296 -4.4449 -0.0273
 6503SOL    HW231143   2.075   3.918   7.418 -0.3642 -0.9625  2.4418
 6504SOL     OW31144   1.078   2.793   1.835 -0.1851 -0.0896 -0.6252
 6504SOL    HW131145   1.150   2.733   1.857  1.3797  2.0297  0.0621
 6504SOL    HW231146   1.067   2.844   1.915 -0.3382 -1.4338  0.2161
 6505SOL     OW31147   1.069   4.312   4.604 -0.1654 -0.0566  0.1643
 6505SOL    HW131148   0.990   4.364   4.624 -1.0476 -2.3792  2.7513
 6505SOL    HW231149   1.092   4.259   4.680  0.6795  1.1593  0.7690
 6506SOL     OW31150   1.988   3.623   4.927 -0.2014  0.0329 -0.5534
 6506SOL    HW131151   2.057   3.648   4.988  1.0379 -1.9492 -1.1210
 6506SOL    HW231152   2.032   3.562   4.867  1.2881  0.5476  0.0153
 6507SOL     OW31153   2.685   1.307  16.519  0.6183 -0.4119  0.2127
 6507SOL    HW131154   2.719   1.383  16.472  1.0678 -1.3967 -1.0755
 6507SOL    HW231155   2.677   1.338  16.609  2.3174  0.8298 -0.0728
 6508SOL     OW31156   3.961   3.483   3.642  0.1124  0.3787  0.5310
 6508SOL    HW131157   3.967   3.554   3.577  0.9620 -0.2825 -0.1250
 6508SOL    HW231158   4.046   3.486   3.686 -0.5526 -0.0878  1.8111
 6509SOL     OW31159   2.431   3.332   6.829  0.2569  0.1018  0.1600
 6509SOL    HW131160   2.392   3.380   6.902  2.0522  0.4845  0.8663
 6509SOL    HW231161   2.496   3.274   6.868  0.4273  0.1528 -0.0483
 6510SOL     OW31162   0.649   4.159   2.249 -0.0596 -0.0783  0.0058
 6510SOL    HW131163   0.709   4.233   2.238 -0.6354  0.4517  0.3808
 6510SOL    HW231164   0.643   4.156   2.345  0.2908  0.1025  0.0342
 6511SOL     OW31165   3.141   4.509   8.363 -0.3926  0.0982 -0.2210
 6511SOL    HW131166   3.168   4.581   8.419  1.5396 -0.0995 -0.8681
 6511SOL    HW231167   3.142   4.435   8.424  0.6215  0.3380  0.0518
 6512SOL     OW31168   0.105   0.112   6.101 -0.4356 -0.2482  0.3937
 6512SOL    HW131169   0.144   0.027   6.126 -3.6343 -1.9986 -0.6168
 6512SOL    HW231170   0.020   0.111   6.144 -0.6367 -1.7651 -0.0204
 6513SOL     OW31171   3.042   0.436   1.924 -0.3428 -0.3962 -0.2410
 6513SOL    HW131172   3.100   0.412   1.852  0.3387  1.1584 -0.2293
 6513SOL    HW231173   3.076   0.526   1.928 -0.1962 -0.4359 -0.6469
 6514SOL     OW31174   3.868   2.817   6.462  0.2159  0.0956  0.2245
 6514SOL    HW131175   3.841   2.727   6.478  3.2529 -0.8633 -0.1281
 6514SOL    HW231176   3.961   2.821   6.483  0.5825  1.3990 -1.6538
 6515SOL     OW31177   0.939   1.122   7.292 -0.7760 -0.2680 -0.3902
 6515SOL    HW131178   0.964   1.129   7.384 -2.2499  1.3352 -0.1021
 6515SOL    HW231179   0.940   1.028   7.276  1.8157 -0.2498 -0.2547
 6516SOL     OW31180   0.762   0.450   7.932  0.0706  0.0224 -0.8480
 6516SOL    HW131181   0.681   0.412   7.899 -0.0510  0.0126 -0.5418
 6516SOL    HW231182   0.733   0.529   7.979  0.3658  0.5178 -1.4915
 6517SOL     OW31183   1.789   2.279  16.144 -0.0531  0.1748 -0.7839
 6517SOL    HW131184   1.883   2.264  16.133  0.1784  0.1002  1.4209
 6517SOL    HW231185   1.763   2.190  16.119  0.3444 -0.1304 -0.1357
 6518SOL     OW31186   0.114   3.722   2.965  0.2192 -0.1951  0.2635
 6518SOL    HW131187   0.136   3.720   3.058  1.8282 -1.6679 -0.1618
 6518SOL    HW231188   0.197   3.765   2.943  0.7031 -0.5607  1.3583
 6519SOL     OW31189   1.036   0.569   4.094  0.0334  0.7680 -0.1371
 6519SOL    HW131190   1.106   0.625   4.060  1.0806  0.5064  1.6308
 6519SOL    HW231191   1.031   0.593   4.186 -2.3547  1.3848 -0.4181
 6520SOL     OW31192   3.963   3.172  16.563  0.4607 -0.0541  0.5615
 6520SOL    HW131193   3.883   3.172  16.511  1.0013  1.1720 -0.2582
 6520SOL    HW231194   3.925   3.188  16.649 -4.1302 -1.0710 -1.2999
 6521SOL     OW31195   4.423   4.663   0.819 -0.8533  0.4144  0.1967
 6521SOL    HW131196   4.342   4.629   0.856 -0.6215  0.1810  0.4930
 6521SOL    HW231197   4.474   4.673   0.899  2.3886 -1.7462 -1.6059
 6522SOL     OW31198   3.316   2.725   5.536 -0.5530  0.0173  0.4613
 6522SOL    HW131199   3.409   2.726   5.515 -0.1779  0.7981  2.2017
 6522SOL    HW231200   3.278   2.717   5.448 -2.1610 -1.8890  1.3307
 6523SOL     OW31201   4.110   3.789  13.365 -0.7769  0.1784  0.0125
 6523SOL    HW131202   4.085   3.700  13.390  1.7399 -0.5024  0.1481
 6523SOL    HW231203   4.023   3.830  13.362 -1.6427 -1.2576  5.6697
 6524SOL     OW31204   4.393   1.011   8.038 -0.5363  0.2079  0.0368
 6524SOL    HW131205   4.452   1.076   8.000  0.6947 -2.0635 -1.9571
 6524SOL    HW231206   4.370   0.968   7.955  0.1736 -0.4161  0.1604
 6525SOL     OW31207   1.433   1.116   4.375 -0.0535  0.0493 -0.6758
 6525SOL    HW131208   1.529   1.123   4.370 -0.2498  1.6625 -2.3208
 6525SOL    HW231209   1.415   1.056   4.447 -2.8528  1.4035 -0.2528
 6526SOL     OW31210   1.411   2.881  16.248  0.1205  0.0948  0.3059
 6526SOL    HW131211   1.440   2.852  16.161  2.9972  0.6626  1.0698
 6526SOL    HW231212   1.371   2.968  16.240  0.1890  0.5393  4.4617
 6527SOL     OW31213   1.447   2.791   5.754 -0.2140 -0.3108  0.3403
 6527SOL    HW131214   1.357   2.821   5.769 -0.3972  0.3888 -2.2107
 6527SOL    HW231215   1.445   2.714   5.810  0.0594 -0.6626 -0.1389
 6528SOL     OW31216   4.401   1.896  12.948  0.1138  0.0675  0.3376
 6528SOL    HW131217   4.347   1.895  13.027  1.3311 -1.4172  1.1633
 6528SOL    HW231218   4.479   1.855  12.985  1.2855 -0.0853 -2.3043
 6529SOL     OW31219   3.460   1.147  15.080  0.4026  0.3834  0.1678
 6529SOL    HW131220   3.495   1.099  15.004  0.6016  2.3085 -0.9641
 6529SOL    HW231221   3.530   1.129  15.142  2.9357  0.8538 -2.5287
 6530SOL     OW31222   3.801   0.956   8.557  0.1695 -0.2147 -0.1289
 6530SOL    HW131223   3.834   0.981   8.644  0.0099  0.1944 -0.1833
 6530SOL    HW231224   3.872   0.997   8.507 -1.3117  2.8895  0.2886
 6531SOL     OW31225   2.327   1.609   8.199 -0.1282 -0.2922  0.0391
 6531SOL    HW131226   2.357   1.559   8.275  0.6790  1.1811  0.6892
 6531SOL    HW231227   2.361   1.563   8.122 -0.9741  0.5438 -0.8423
 6532SOL     OW31228   2.358   1.828  15.555 -0.0192 -0.0644 -0.1483
 6532SOL    HW131229   2.409   1.827  15.636  1.3342 -0.8992 -1.0058
 6532SOL    HW231230   2.293   1.898  15.562 -0.0498 -0.0149 -0.9323
 6533SOL     OW31231   0.631   3.140   5.364  0.2914  0.0007  0.5889
 6533SOL    HW131232   0.716   3.109   5.331 -0.2008  0.1976 -0.8543
 6533SOL    HW231233   0.610   3.070   5.427 -3.7652  0.6128 -0.1156
 6534SOL     OW31234   1.531   0.248   6.787  0.2317 -0.3373 -0.4031
 6534SOL    HW131235   1.593   0.245   6.860  1.1306 -1.6549 -1.2230
 6534SOL    HW231236   1.526   0.154   6.772 -1.7224 -0.2245 -0.3809
 6535SOL     OW31237   4.097   3.844  15.404 -0.6374 -0.5978 -1.1133
 6535SOL    HW131238   4.041   3.823  15.329 -0.7984  0.5662 -1.3068
 6535SOL    HW231239   4.144   3.918  15.367  1.3273  0.5313  3.6451
 6536SOL     OW31240   3.348   2.184  11.316 -0.1156 -0.2514 -0.1811
 6536SOL    HW131241   3.299   2.140  11.385 -0.9647  1.3190  0.2053
 6536SOL    HW231242   3.338   2.276  11.338 -0.7866 -0.4506  0.3433
 6537SOL     OW31243   1.318   3.097   3.125  0.5024 -0.4085  0.0364
 6537SOL    HW131244   1.338   3.179   3.169 -0.1770  0.9205 -2.0807
 6537SOL    HW231245   1.390   3.095   3.063  0.8390 -3.5389  0.5346
 6538SOL     OW31246   3.280   2.469   2.203  0.0498  0.0858 -0.3332
 6538SOL    HW131247   3.208   2.532   2.214 -0.6684 -0.6193 -1.0077
 6538SOL    HW231248   3.346   2.537   2.217  1.4636 -1.1021 -1.3051
 6539SOL     OW31249   1.964   2.455   6.343  0.7802 -0.5048  0.4425
 6539SOL    HW131250   1.964   2.386   6.409  0.4780 -0.3438  0.6111
 6539SOL    HW231251   1.877   2.449   6.303  1.1062  0.7993 -0.4540
 6540SOL     OW31252   2.424   3.802   6.567  0.1512  0.0786 -0.4113
 6540SOL    HW131253   2.512   3.774   6.594  0.1266  1.5594  1.1952
 6540SOL    HW231254   2.370   3.726   6.589 -0.3022  0.9516  1.4843
 6541SOL     OW31255   1.539   1.393   6.884 -0.2268  0.5158 -0.4635
 6541SOL    HW131256   1.448   1.369   6.902  0.1664  0.9594  2.1121
 6541SOL    HW231257   1.558   1.460   6.949 -2.7610 -0.0384  0.8531
 6542SOL     OW31258   1.106   1.987   6.536  0.5186  0.0152  0.0992
 6542SOL    HW131259   1.124   1.902   6.497 -3.3043 -1.2144  0.9502
 6542SOL    HW231260   1.022   2.002   6.492 -0.1572 -0.6225  1.1445
 6543SOL     OW31261   4.291   0.296   9.122 -1.0587  0.0056  0.4323
 6543SOL    HW131262   4.381   0.263   9.120 -0.9468  0.2713  1.0600
 6543SOL    HW231263   4.247   0.251   9.050  0.4267 -0.0618 -0.4507
 6544SOL     OW31264   0.171   0.498   5.595 -0.4523  0.2004 -0.1731
 6544SOL    HW131265   0.246   0.439   5.591  0.7291  1.6047  1.4697
 6544SOL    HW231266   0.104   0.443   5.637  0.2859  0.4293  1.3219
 6545SOL     OW31267   3.688   0.678  15.351  0.6478  0.0907 -0.3874
 6545SOL    HW131268   3.648   0.617  15.289 -1.4092  1.3314 -0.2903
 6545SOL    HW231269   3.642   0.758  15.327 -0.8844 -0.2625  1.4011
 6546SOL     OW31270   3.415   3.345  10.511 -0.3878 -0.4164  0.1710
 6546SOL    HW131271   3.351   3.415  10.499  0.4822  0.7678  2.5876
 6546SOL    HW231272   3.457   3.373  10.592  0.8763  0.9861 -0.9834
 6547SOL     OW31273   0.112   2.828   2.067  0.3592  0.3837  0.3190
 6547SOL    HW131274   0.199   2.791   2.078 -0.4636 -1.7419 -0.3282
 6547SOL    HW231275   0.134   2.918   2.092  1.3486  0.2507 -0.0998
 6548SOL     OW31276   4.201   1.594   6.412  0.1763  0.6169  0.4291
 6548SOL    HW131277   4.164   1.676   6.378 -3.1274 -0.7471  0.7852
 6548SOL    HW231278   4.285   1.593   6.366  2.2866 -1.6812  4.3431
 6549SOL     OW31279   0.871   1.832   5.727  0.2217  0.2498  0.0135
 6549SOL    HW131280   0.934   1.863   5.662  1.2932  1.6556  1.6901
 6549SOL    HW231281   0.881   1.738   5.720  1.4020  0.3940 -0.1460
 6550SOL     OW31282   2.340   4.279   5.624  0.9346 -0.1354  0.0527
 6550SOL    HW131283   2.295   4.254   5.543 -1.6691  3.0394  0.4992
 6550SOL    HW231284   2.421   4.237   5.596  0.7503 -0.1284 -0.5061
 6551SOL     OW31285   1.361   4.119   1.151 -0.1646  0.4571  0.5205
 6551SOL    HW131286   1.333   4.187   1.211  2.7896  3.1934 -1.2165
 6551SOL    HW231287   1.351   4.043   1.208 -0.1605 -0.4866 -0.7266
 6552SOL     OW31288   1.085   3.471  12.057 -0.1934 -0.0548  0.4279
 6552SOL    HW131289   1.040   3.454  11.974  1.1889 -3.0804  0.3090
 6552SOL    HW231290   1.174   3.479  12.023 -0.7839 -0.9995 -1.3330
 6553SOL     OW31291   0.931   3.921   4.607 -0.2796 -0.2813 -0.1348
 6553SOL    HW131292   1.008   3.873   4.637 -2.1339 -1.8569  2.1787
 6553SOL    HW231293   0.971   3.989   4.554  0.6914  0.4246  1.4874
 6554SOL     OW31294   4.499   0.232  15.439  0.7378  0.1794  0.3175
 6554SOL    HW131295   4.573   0.279  15.401  0.5084 -0.0139 -0.3691
 6554SOL    HW231296   4.534   0.142  15.442  0.6545  0.0505 -2.4938
 6555SOL     OW31297   0.386   2.146   4.719  0.1853  0.0263  0.0602
 6555SOL    HW131298   0.317   2.128   4.654  1.2330  1.2114 -1.3728
 6555SOL    HW231299   0.425   2.219   4.673  2.3163 -1.3051 -0.2275
 6556SOL     OW31300   0.466   1.367   1.483 -0.0610  0.0362  0.2770
 6556SOL    HW131301   0.512   1.394   1.562 -1.6283  0.3342  1.0997
 6556SOL    HW231302   0.375   1.395   1.492  0.3053  0.7591  1.7315
 6557SOL     OW31303   2.068   4.592   3.875  0.2261 -0.3614 -0.1380
 6557SOL    HW131304   1.979   4.609   3.845  0.0978  0.0953  0.4935
 6557SOL    HW231305   2.127   4.648   3.826 -0.4198 -0.6638 -1.2669
 6558SOL     OW31306   3.053   2.697   5.908  0.9889  0.6177 -0.2319
 6558SOL    HW131307   3.029   2.661   5.994 -0.5433  2.0030 -0.0707
 6558SOL    HW231308   3.059   2.790   5.929 -3.0947  0.4481  1.7812
 6559SOL     OW31309   3.948   1.806   5.037  0.1038  0.5549  0.2962
 6559SOL    HW131310   3.936   1.888   4.989  1.7366  0.3626 -0.4288
 6559SOL    HW231311   4.040   1.811   5.062 -0.1649  0.7216  1.2560
 6560SOL     OW31312   0.061   1.961   9.306  0.2178  0.0141 -0.6203
 6560SOL    HW131313   0.041   1.947   9.213  1.2982 -0.1824 -0.8266
 6560SOL    HW231314   4.719   2.007   9.331  2.2328  2.0510  2.0123
 6561SOL     OW31315   0.577   3.138  17.665 -0.1234 -0.3042 -0.0036
 6561SOL    HW131316   0.526   3.075  17.715  0.4242 -1.9430 -1.4932
 6561SOL    HW231317   0.508   3.169  17.606  0.7508  0.7983 -0.4311
 6562SOL     OW31318   2.788   2.595  16.816  0.2634 -0.2865 -0.1453
 6562SOL    HW131319   2.838   2.676  16.808 -0.2279  0.0115 -0.2075
 6562SOL    HW231320   2.712   2.625  16.766 -2.0193 -2.3023  2.0842
 6563SOL     OW31321   0.187   0.224   9.217 -0.5872  0.3406  0.1740
 6563SOL    HW131322   0.150   0.139   9.238  2.6285 -0.4112  2.7434
 6563SOL    HW231323   0.186   0.215   9.121  2.8012 -1.0244  0.2548
 6564SOL     OW31324   0.241   0.488   9.028 -0.5645 -0.3711 -0.1014
 6564SOL    HW131325   0.248   0.578   9.061  0.0291 -0.6928  0.6624
 6564SOL    HW231326   0.188   0.450   9.098 -0.0109 -1.3495 -0.2216
 6565SOL     OW31327   0.717   0.161   5.057 -0.7306 -0.4943  0.0581
 6565SOL    HW131328   0.698   0.083   5.108 -1.6102  0.0593  0.5833
 6565SOL    HW231329   0.710   0.231   5.122 -0.3029  0.1656 -0.6012
 6566SOL     OW31330   2.434   2.596   2.204  0.4873  0.2339 -0.6564
 6566SOL    HW131331   2.411   2.555   2.287 -1.2382  0.2313 -1.1311
 6566SOL    HW231332   2.447   2.687   2.230 -2.0498  0.0419  1.2213
 6567SOL     OW31333   2.067   3.802   7.686 -0.0570  0.0537  0.4046
 6567SOL    HW131334   2.063   3.861   7.610  2.5585  0.3795  0.4944
 6567SOL    HW231335   2.017   3.727   7.656 -0.0200 -0.1042  0.7380
 6568SOL     OW31336   2.558   0.942   7.743  0.0441  0.9127 -0.3479
 6568SOL    HW131337   2.610   1.018   7.718  0.2486  1.1812  0.8949
 6568SOL    HW231338   2.557   0.946   7.839  3.5795  1.8537 -0.3350
 6569SOL     OW31339   3.969   0.709  10.985  0.1577 -0.0086  0.0978
 6569SOL    HW131340   3.960   0.768  11.059 -2.0878  1.2639 -1.1948
 6569SOL    HW231341   4.007   0.633  11.031 -0.3818  0.0836  0.6920
 6570SOL     OW31342   4.327   2.448   3.603  0.3373  0.0310  0.1770
 6570SOL    HW131343   4.295   2.537   3.589 -0.2105 -0.4713 -1.7294
 6570SOL    HW231344   4.416   2.472   3.628  0.1591  1.7689 -0.8583
 6571SOL     OW31345   2.364   3.023   7.360  0.0751 -0.0404 -0.1874
 6571SOL    HW131346   2.284   2.971   7.364  1.6972 -2.5882 -0.7463
 6571SOL    HW231347   2.344   3.114   7.382  0.4099 -0.1399  0.5385
 6572SOL     OW31348   0.706   3.660  14.259  0.1666  0.8251  0.9113
 6572SOL    HW131349   0.720   3.584  14.316 -4.0766  0.3712  1.3732
 6572SOL    HW231350   0.787   3.657  14.209 -0.0464 -0.9158  0.6749
 6573SOL     OW31351   1.541   3.534   7.846  0.2825 -0.7312  0.0618
 6573SOL    HW131352   1.633   3.509   7.846  0.5082  0.1014  0.1958
 6573SOL    HW231353   1.529   3.512   7.938  1.5307 -0.2956  0.3257
 6574SOL     OW31354   4.129   2.169  13.831  0.7118 -0.1247  0.1903
 6574SOL    HW131355   4.079   2.126  13.762  0.9154  0.7305 -0.4872
 6574SOL    HW231356   4.212   2.121  13.830  1.8152  1.7101  1.3501
 6575SOL     OW31357   2.407   1.187   1.462 -0.2205  0.3017 -0.2493
 6575SOL    HW131358   2.474   1.176   1.530 -0.8060 -2.1483 -0.0727
 6575SOL    HW231359   2.438   1.146   1.381  0.3287 -0.0391  0.1290
 6576SOL     OW31360   2.739   3.976   7.839 -0.4331  0.0224  0.5642
 6576SOL    HW131361   2.707   3.905   7.784  0.1494  0.6589 -0.6164
 6576SOL    HW231362   2.657   3.996   7.883  0.0933  0.6410  1.2633
 6577SOL     OW31363   3.583   2.137   2.307 -0.1006 -0.4577 -0.0404
 6577SOL    HW131364   3.609   2.064   2.363  1.3201 -0.6816 -0.9934
 6577SOL    HW231365   3.498   2.158   2.346  1.1476  1.8610  1.4150
 6578SOL     OW31366   2.325   2.984   1.388  0.5354 -0.4808  0.1936
 6578SOL    HW131367   2.280   2.965   1.470 -3.7288  2.8493 -1.3979
 6578SOL    HW231368   2.260   2.946   1.330  0.3646 -0.3410  0.2962
 6579SOL     OW31369   4.451   2.860   2.147  0.4335  0.0962  0.3849
 6579SOL    HW131370   4.516   2.920   2.110  0.2767 -1.1605 -1.9039
 6579SOL    HW231371   4.375   2.880   2.092  0.0586  0.1480  0.9270
 6580SOL     OW31372   4.310   0.346   7.105 -0.7111 -0.0407  0.6973
 6580SOL    HW131373   4.376   0.278   7.090  0.5403  1.1327  0.8946
 6580SOL    HW231374   4.275   0.369   7.019  2.0621 -1.1925 -0.7209
 6581SOL     OW31375   1.416   4.453  10.006  1.0443 -0.2044 -0.5706
 6581SOL    HW131376   1.484   4.388   9.989  0.2533 -0.3667 -3.1145
 6581SOL    HW231377   1.374   4.455   9.920 -2.2120 -0.0784  0.9969
 6582SOL     OW31378   1.881   0.931   1.557 -0.2874 -0.1307  0.1822
 6582SOL    HW131379   1.950   0.871   1.529 -0.7764 -0.6110  0.0145
 6582SOL    HW231380   1.907   1.013   1.514 -1.2860 -0.0531 -0.2913
 6583SOL     OW31381   3.495   4.678   6.903  0.3102 -0.0191 -0.2149
 6583SOL    HW131382   3.424   4.615   6.916  0.0525  0.0899 -1.1074
 6583SOL    HW231383   3.548   4.647   6.976 -0.1564  0.0427  0.1553
 6584SOL     OW31384   1.658   1.574   8.378 -0.5947  0.2609  0.7720
 6584SOL    HW131385   1.613   1.542   8.300 -1.2297 -0.9121  1.6140
 6584SOL    HW231386   1.668   1.493   8.428  0.2472  0.0981  0.3424
 6585SOL     OW31387   1.277   1.726   4.670  0.3892 -0.7673  0.0829
 6585SOL    HW131388   1.254   1.646   4.717 -3.1589  0.2964  0.2076
 6585SOL    HW231389   1.196   1.742   4.621  0.2598  1.4991  1.0168
 6586SOL     OW31390   2.412   0.703   7.382  0.6175 -0.5150  0.1317
 6586SOL    HW131391   2.361   0.753   7.319  1.1588  1.2977  1.1069
 6586SOL    HW231392   2.352   0.697   7.456 -0.8894 -3.1854 -1.3342
 6587SOL     OW31393   3.711   2.395   6.755  0.1819  0.6300  0.7451
 6587SOL    HW131394   3.769   2.351   6.818  0.8597 -1.0122 -1.0456
 6587SOL    HW231395   3.623   2.364   6.777  0.1249  2.5207  3.2023
 6588SOL     OW31396   1.074   0.748   4.697  0.1123 -0.0248  0.3502
 6588SOL    HW131397   1.061   0.664   4.653 -1.5729  0.2603  0.2978
 6588SOL    HW231398   1.117   0.725   4.779 -0.8340 -0.8881  0.5941
 6589SOL     OW31399   3.984   3.418   0.811  0.1419 -0.4338 -0.3973
 6589SOL    HW131400   3.903   3.469   0.806  0.1805 -0.4528 -1.1858
 6589SOL    HW231401   4.020   3.442   0.726  0.5871  3.0176  0.7644
 6590SOL     OW31402   3.972   4.407   3.398  0.1235 -0.7089 -0.0562
 6590SOL    HW131403   4.053   4.361   3.418 -0.8843 -2.8975 -0.9426
 6590SOL    HW231404   3.967   4.468   3.472  0.3608 -0.3125 -0.3682
 6591SOL     OW31405   1.687   3.743   2.951 -0.2992 -0.3101 -0.2695
 6591SOL    HW131406   1.757   3.745   2.886  0.3487  0.7847  0.4662
 6591SOL    HW231407   1.628   3.811   2.917  0.0790  0.7913  1.2706
 6592SOL     OW31408   1.939   3.000   8.739 -0.7879 -0.5737  0.1076
 6592SOL    HW131409   1.895   2.933   8.790 -1.2352 -1.2282 -1.1529
 6592SOL    HW231410   2.032   2.976   8.740 -0.6635 -0.1037 -0.3358
 6593SOL     OW31411   3.885   0.046   5.124  0.0170  0.1949  0.0216
 6593SOL    HW131412   3.895   4.706   5.179  2.0859  0.5509  0.1489
 6593SOL    HW231413   3.935   0.018   5.047  0.6335 -0.4442  0.6533
 6594SOL     OW31414   2.321   4.453   6.908  0.3029  0.4210  0.5632
 6594SOL    HW131415   2.322   4.373   6.961  0.7870 -0.6744 -1.0810
 6594SOL    HW231416   2.236   4.490   6.931 -0.3279  0.4190 -1.7807
 6595SOL     OW31417   2.619   1.807   6.749 -0.2919  0.0479  0.4005
 6595SOL    HW131418   2.676   1.785   6.823 -0.2587 -2.2830 -0.2963
 6595SOL    HW231419   2.680   1.770   6.685  0.4069 -1.5034  1.9580
 6596SOL     OW31420   1.080   0.983  15.545  0.2326 -0.2181 -0.0371
 6596SOL    HW131421   1.057   1.072  15.518  1.2495  0.2246  0.5713
 6596SOL    HW231422   1.012   0.929  15.504 -0.3440  0.1720  0.4135
 6597SOL     OW31423   3.954   1.572  14.763  0.6437  0.4502  0.6441
 6597SOL    HW131424   3.895   1.517  14.815  0.0696  0.2999 -0.1800
 6597SOL    HW231425   4.033   1.519  14.761  1.0952  1.0091  2.9522
 6598SOL     OW31426   0.253   1.456  12.388 -0.1141 -0.8687  0.7953
 6598SOL    HW131427   0.269   1.511  12.311  0.6102 -1.4264  0.5506
 6598SOL    HW231428   0.241   1.372  12.344  1.2478  0.3087 -1.8356
 6599SOL     OW31429   4.527   2.520   8.882  0.1684 -0.2062 -0.2710
 6599SOL    HW131430   4.540   2.602   8.833  1.0343 -2.1223 -3.2553
 6599SOL    HW231431   4.548   2.549   8.971 -0.0618 -0.8435 -0.0097
 6600SOL     OW31432   4.172   1.401   8.644  0.4823  0.5627  0.0883
 6600SOL    HW131433   4.143   1.342   8.575  1.1748 -2.1235  2.0742
 6600SOL    HW231434   4.094   1.452   8.665  0.0129 -1.6707  3.6278
 6601SOL     OW31435   3.609   3.064   8.751  0.5361  0.0248 -0.4442
 6601SOL    HW131436   3.620   3.065   8.656 -0.1337 -0.1598 -0.5263
 6601SOL    HW231437   3.609   2.968   8.755 -3.7430  0.1043  1.8166
 6602SOL     OW31438   2.992   2.864   7.227 -0.2315  0.2482 -0.0268
 6602SOL    HW131439   3.044   2.849   7.306 -0.7770 -0.2591  0.2413
 6602SOL    HW231440   2.936   2.787   7.213  1.2914 -1.3828  2.6914
 6603SOL     OW31441   0.079   0.744   4.625 -0.7958  0.2211  0.1015
 6603SOL    HW131442   0.133   0.666   4.624 -1.8588 -0.4909 -1.1058
 6603SOL    HW231443   0.097   0.785   4.710  0.3543  0.8484 -0.4412
 6604SOL     OW31444   3.763   1.159  10.082  0.2327  0.8061 -0.4367
 6604SOL    HW131445   3.850   1.125  10.100  0.1726  0.8013 -0.1559
 6604SOL    HW231446   3.770   1.240  10.132 -0.6610 -0.6828  2.1243
 6605SOL     OW31447   2.718   0.604   0.595 -0.4811  0.2700  0.5035
 6605SOL    HW131448   2.786   0.593   0.529 -0.8541  1.2078 -0.0496
 6605SOL    HW231449   2.635   0.583   0.552  0.0481 -0.4424 -0.1502
 6606SOL     OW31450   1.885   3.009   1.135 -0.4105  0.2188  0.3183
 6606SOL    HW131451   1.801   2.996   1.179 -0.1489 -1.2148  0.3860
 6606SOL    HW231452   1.878   2.942   1.066  1.8131  0.6416 -0.3007
 6607SOL     OW31453   3.432   1.469   3.443 -0.1105  0.0165 -0.0316
 6607SOL    HW131454   3.521   1.498   3.423 -0.1922  1.2142  1.3642
 6607SOL    HW231455   3.450   1.395   3.501 -2.2894 -0.6245 -0.1594
 6608SOL     OW31456   3.866   3.338   2.357  0.3404 -0.0567  0.3284
 6608SOL    HW131457   3.881   3.382   2.273  0.8537 -2.7726 -0.9958
 6608SOL    HW231458   3.795   3.276   2.342 -0.6623  0.4986  2.7440
 6609SOL     OW31459   3.660   3.565   2.666 -0.1253  0.0829  0.6826
 6609SOL    HW131460   3.605   3.496   2.629  1.1469 -0.5887  0.0129
 6609SOL    HW231461   3.674   3.612   2.583 -3.1520 -1.1044 -0.4824
 6610SOL     OW31462   3.829   2.631   2.140  0.5882 -0.5691 -0.2424
 6610SOL    HW131463   3.764   2.698   2.121  0.1158 -0.8334  0.4665
 6610SOL    HW231464   3.789   2.567   2.198 -0.2071  0.9516  0.8755
 6611SOL     OW31465   0.130   3.043   7.492  0.2218  0.1907  0.2004
 6611SOL    HW131466   0.052   3.019   7.442  0.3246  0.1314  0.0680
 6611SOL    HW231467   0.197   3.044   7.424 -0.7969 -1.5939 -0.8403
 6612SOL     OW31468   4.204   0.413   8.583  0.6457  0.3815  0.6343
 6612SOL    HW131469   4.275   0.390   8.523  0.9098  1.9481  0.3708
 6612SOL    HW231470   4.167   0.477   8.523 -0.8157 -0.7466  0.3071
 6613SOL     OW31471   4.457   2.300   9.106  0.0695  0.2048 -0.3066
 6613SOL    HW131472   4.370   2.337   9.121  1.0124  1.6603  1.5984
 6613SOL    HW231473   4.505   2.382   9.099  0.5649 -0.0751 -0.2287
 6614SOL     OW31474   1.976   2.084   6.889  0.1010  0.2331  0.2156
 6614SOL    HW131475   1.908   2.132   6.842  0.4796  0.0403 -0.5217
 6614SOL    HW231476   2.048   2.131   6.848 -0.5474 -0.2029 -1.4399
 6615SOL     OW31477   4.636   4.178   7.002  0.1424  0.1249  0.3380
 6615SOL    HW131478   4.714   4.234   7.006 -0.2151  0.5439  1.4166
 6615SOL    HW231479   4.618   4.157   7.094  0.4017 -1.5884 -0.0150
 6616SOL     OW31480   0.799   3.822   4.400 -0.2945  0.2222  0.5115
 6616SOL    HW131481   0.869   3.774   4.355  0.0067  1.2919 -0.1682
 6616SOL    HW231482   0.844   3.856   4.477 -1.0887  0.3225  0.9267
 6617SOL     OW31483   3.013   1.753   7.340 -0.0194  0.1120 -0.1836
 6617SOL    HW131484   3.068   1.808   7.284  0.9082 -1.3708 -0.7355
 6617SOL    HW231485   3.053   1.670   7.316 -1.4095 -0.5029 -0.4090
 6618SOL     OW31486   1.200   0.808   4.090  0.2382 -0.4223 -0.2722
 6618SOL    HW131487   1.176   0.823   3.998 -1.2785 -1.2860 -0.0176
 6618SOL    HW231488   1.175   0.889   4.135 -1.0231 -0.1384 -1.4649
 6619SOL     OW31489   1.220   3.626   1.147  0.4116  0.1908 -0.4230
 6619SOL    HW131490   1.226   3.715   1.181  0.8358  1.0717 -2.8105
 6619SOL    HW231491   1.213   3.650   1.055  0.5632 -1.8872 -0.9773
 6620SOL     OW31492   3.461   4.070   5.527  0.2006  0.0699 -0.0160
 6620SOL    HW131493   3.495   4.013   5.595 -2.4918 -1.4966 -0.0045
 6620SOL    HW231494   3.535   4.132   5.519  0.4047 -0.2027 -0.2419
 6621SOL     OW31495   0.966   1.216   9.895 -0.0253  0.0187  0.2610
 6621SOL    HW131496   0.940   1.155   9.964  0.3483 -0.9003 -0.4126
 6621SOL    HW231497   0.983   1.161   9.818 -1.0443 -0.5436  0.4449
 6622SOL     OW31498   3.363   3.712  16.510 -0.5721 -0.3813 -0.7129
 6622SOL    HW131499   3.389   3.620  16.501 -2.6960 -1.1293  0.8543
 6622SOL    HW231500   3.271   3.723  16.486 -0.8502  3.1758  2.0293
 6623SOL     OW31501   0.361   0.077   7.376  0.3746 -0.3014 -0.6748
 6623SOL    HW131502   0.306   0.095   7.299  1.3531  0.7823 -1.1048
 6623SOL    HW231503   0.315   0.122   7.446  1.1348 -0.2317 -0.2258
 6624SOL     OW31504   4.371   1.992   3.723 -0.5873  0.1860 -0.5210
 6624SOL    HW131505   4.407   2.028   3.804  2.3842 -1.4742 -1.1082
 6624SOL    HW231506   4.374   1.897   3.730 -0.8769  0.0908 -1.6183
 6625SOL     OW31507   0.168   0.217   7.232 -0.3482  0.6129  0.0069
 6625SOL    HW131508   0.162   0.261   7.317 -0.6627 -0.6312  0.6177
 6625SOL    HW231509   0.225   0.277   7.184 -0.4341 -1.1542 -2.3249
 6626SOL     OW31510   2.227   4.217  12.078  0.4548 -0.5827  0.4831
 6626SOL    HW131511   2.187   4.295  12.039  0.7146 -0.9413 -0.4968
 6626SOL    HW231512   2.176   4.229  12.158  1.0906  1.1739  0.6402
 6627SOL     OW31513   4.275   3.948   1.788 -0.0476  0.0253  0.2784
 6627SOL    HW131514   4.317   3.878   1.737  3.5603  1.1926  1.6541
 6627SOL    HW231515   4.198   3.964   1.734 -1.6847 -0.1978  2.5595
 6628SOL     OW31516   3.580   0.234  13.808  0.0205  0.1605 -0.1927
 6628SOL    HW131517   3.605   0.177  13.735  0.0910 -0.2913  0.1849
 6628SOL    HW231518   3.553   0.316  13.765 -0.5868  0.2395  0.3408
 6629SOL     OW31519   0.116   2.240   7.702 -0.0396  0.1347  0.6437
 6629SOL    HW131520   0.073   2.322   7.727 -0.5238  0.0689  0.0147
 6629SOL    HW231521   0.123   2.247   7.607 -1.6761 -1.4761  0.4064
 6630SOL     OW31522   0.637   0.879   5.503  0.1147  0.1118 -0.0842
 6630SOL    HW131523   0.581   0.949   5.470 -0.7287 -1.4897 -2.0482
 6630SOL    HW231524   0.696   0.918   5.567  0.0432 -1.4149  0.9217
 6631SOL     OW31525   1.883   3.270   7.877  0.0525  0.5706 -0.0910
 6631SOL    HW131526   1.829   3.263   7.956  0.8713 -3.2329  0.1329
 6631SOL    HW231527   1.902   3.176   7.879  1.0452  0.7805  0.7496
 6632SOL     OW31528   0.671   3.639   0.222  0.0775  0.3648 -0.3135
 6632SOL    HW131529   0.619   3.669   0.148  0.6624  1.9474 -0.0738
 6632SOL    HW231530   0.639   3.549   0.231  0.0449  0.4317  0.2811
 6633SOL     OW31531   1.891   4.181   6.789  0.2524  0.0793  0.5560
 6633SOL    HW131532   1.915   4.273   6.796 -0.4687  0.3921 -1.0527
 6633SOL    HW231533   1.961   4.135   6.834  1.0012  1.9361  1.2996
 6634SOL     OW31534   0.867   2.480   5.579 -0.0003 -0.3370  0.0800
 6634SOL    HW131535   0.878   2.532   5.500 -1.1608 -2.5837 -1.5589
 6634SOL    HW231536   0.778   2.500   5.605 -0.7275 -0.8916 -1.9998
 6635SOL     OW31537   4.536   0.933   4.023  0.0211  0.3777  0.8073
 6635SOL    HW131538   4.477   0.882   4.079 -0.3690 -1.7633 -1.5266
 6635SOL    HW231539   4.502   1.019   4.046 -1.6169 -0.2305  0.6828
 6636SOL     OW31540   2.348   1.181   4.669  0.7929 -0.0624 -0.1903
 6636SOL    HW131541   2.434   1.213   4.644  0.2491  1.7238  0.2190
 6636SOL    HW231542   2.325   1.129   4.592 -1.5317  0.8122 -0.1024
 6637SOL     OW31543   1.034   3.666   7.835  0.1311 -0.1753 -0.3309
 6637SOL    HW131544   0.954   3.669   7.783  1.1291  0.6840 -1.8237
 6637SOL    HW231545   1.103   3.686   7.772 -0.3273  1.7106 -0.2299
 6638SOL     OW31546   3.199   0.308   4.912 -0.1169 -0.2772  0.3351
 6638SOL    HW131547   3.248   0.355   4.845 -1.4198  0.8702  0.1932
 6638SOL    HW231548   3.237   0.220   4.911  0.3817 -0.0601  0.3776
 6639SOL     OW31549   2.677   2.669   7.721  0.2387 -0.7654  0.3680
 6639SOL    HW131550   2.600   2.725   7.710 -0.1415 -1.2235  0.7204
 6639SOL    HW231551   2.640   2.582   7.707  2.3992 -1.0444 -3.5263
 6640SOL     OW31552   4.211   3.202   1.813 -0.6096 -0.1252  0.1017
 6640SOL    HW131553   4.176   3.180   1.726 -0.5514  0.3003 -0.0280
 6640SOL    HW231554   4.246   3.286   1.784  0.3534 -0.6953 -0.3806
 6641SOL     OW31555   1.192   3.550  10.924  0.4128  0.4692 -0.0236
 6641SOL    HW131556   1.205   3.644  10.923 -2.2903  0.8072 -2.6949
 6641SOL    HW231557   1.211   3.536  11.017 -2.7723  0.4945  0.6424
 6642SOL     OW31558   0.773   1.236   5.438  0.0815  0.6466  0.0908
 6642SOL    HW131559   0.837   1.169   5.415 -2.5710 -1.5193 -0.9502
 6642SOL    HW231560   0.758   1.234   5.533  0.5438 -0.0280  0.1512
 6643SOL     OW31561   1.561   1.458   8.126 -0.3345  0.9278  0.0486
 6643SOL    HW131562   1.521   1.445   8.040  0.9559 -0.5536 -0.3251
 6643SOL    HW231563   1.576   1.370   8.162  2.1343 -0.4198 -4.2266
 6644SOL     OW31564   3.287   0.117   3.760 -0.3720  0.1733 -0.0446
 6644SOL    HW131565   3.326   0.074   3.684  2.3242  1.5736  0.5329
 6644SOL    HW231566   3.296   0.046   3.822  0.5018 -0.3076 -0.7122
 6645SOL     OW31567   2.570   3.139  12.287  0.3712 -0.4065 -0.2825
 6645SOL    HW131568   2.560   3.048  12.261 -0.2614 -0.5791  0.5752
 6645SOL    HW231569   2.647   3.164  12.235 -0.6597  0.5165 -1.3727
 6646SOL     OW31570   3.205   1.422  14.797  0.7004  0.5430 -0.1192
 6646SOL    HW131571   3.123   1.375  14.811  1.8357 -1.8112 -1.3464
 6646SOL    HW231572   3.274   1.371  14.838 -0.0735 -0.4754 -0.0800
 6647SOL     OW31573   2.000   3.989   2.498  0.3018 -0.2622 -0.1858
 6647SOL    HW131574   2.093   4.009   2.512  1.2315 -2.1386 -3.5893
 6647SOL    HW231575   1.969   4.065   2.449 -0.1222  0.1618  0.7288
 6648SOL     OW31576   1.138   0.381   1.140  0.7473 -0.0839 -0.4555
 6648SOL    HW131577   1.066   0.321   1.159 -0.4552  2.3078  2.5216
 6648SOL    HW231578   1.112   0.429   1.061 -1.1187 -0.1005  0.1394
 6649SOL     OW31579   2.317   0.499   9.152 -0.2017 -0.0743 -0.0651
 6649SOL    HW131580   2.356   0.452   9.226 -0.0655 -0.6207 -0.4835
 6649SOL    HW231581   2.249   0.548   9.199 -0.5233 -2.3500  1.8744
 6650SOL     OW31582   3.605   3.543   5.922 -0.2401 -0.2686 -0.1848
 6650SOL    HW131583   3.559   3.534   5.839 -0.9352  0.3370  0.1263
 6650SOL    HW231584   3.587   3.636   5.936  2.3686 -0.2953  3.5327
 6651SOL     OW31585   4.623   0.005   4.655  0.3662  0.0712 -0.2601
 6651SOL    HW131586   4.704   0.054   4.637  1.4094 -1.7272 -0.4379
 6651SOL    HW231587   4.577   0.045   4.729  0.8163 -0.5004  0.3334
 6652SOL     OW31588   3.006   4.466   8.131 -0.3398 -0.1391 -0.2069
 6652SOL    HW131589   3.031   4.374   8.139  0.9264  0.1132 -1.3104
 6652SOL    HW231590   3.026   4.493   8.220  0.5299 -1.3704 -0.0201
 6653SOL     OW31591   4.609   0.290  10.994 -0.6667 -0.5268 -0.4310
 6653SOL    HW131592   4.525   0.274  11.038 -0.1218 -0.2891  0.7052
 6653SOL    HW231593   4.676   0.269  11.059 -1.0552 -1.0959 -0.2148
 6654SOL     OW31594   3.106   4.346   6.198 -0.4000  0.2813  0.6879
 6654SOL    HW131595   3.193   4.349   6.236  0.1978  2.1654 -0.8419
 6654SOL    HW231596   3.049   4.339   6.275 -1.0949  0.0759  0.1567
 6655SOL     OW31597   4.041   3.982   6.875 -0.1642 -0.0924 -0.3179
 6655SOL    HW131598   4.040   3.886   6.877  1.8869 -0.0974  0.8724
 6655SOL    HW231599   4.031   4.008   6.967  1.9516 -1.0608  0.1893
 6656SOL     OW31600   1.563   1.830   1.198 -0.5095 -0.1429  0.1336
 6656SOL    HW131601   1.471   1.849   1.179 -0.8843 -0.0898  2.0506
 6656SOL    HW231602   1.579   1.743   1.160 -0.2408  0.2928 -0.7418
 6657SOL     OW31603   2.218   2.767  16.851 -0.3119  0.0747  0.9596
 6657SOL    HW131604   2.248   2.840  16.906  1.5558  1.2168 -1.5725
 6657SOL    HW231605   2.159   2.815  16.793  0.5158  1.4064  1.2184
 6658SOL     OW31606   4.446   1.876   9.052  0.0825  0.0682  0.1875
 6658SOL    HW131607   4.473   1.847   8.965 -1.3933 -0.8100  0.0260
 6658SOL    HW231608   4.469   1.801   9.107 -2.2391 -0.9268 -0.2199
 6659SOL     OW31609   3.574   3.746   4.542 -0.5066 -0.7378  0.2715
 6659SOL    HW131610   3.532   3.715   4.462  1.4931  0.0253 -1.0630
 6659SOL    HW231611   3.657   3.777   4.507 -0.9486  1.7333  1.3866
 6660SOL     OW31612   0.886   2.397   4.479 -0.6215  0.5210 -0.6762
 6660SOL    HW131613   0.978   2.368   4.476 -1.1854 -1.1267 -2.0187
 6660SOL    HW231614   0.889   2.493   4.481 -0.6483  0.4890  0.3786
 6661SOL     OW31615   1.597   0.290   5.474 -0.1272  0.1567  0.1556
 6661SOL    HW131616   1.673   0.312   5.420 -0.9224  0.0067 -1.0413
 6661SOL    HW231617   1.614   0.340   5.554  1.2838  1.6780 -1.1013
 6662SOL     OW31618   0.611   1.714   6.322  0.2099  0.6096  0.4565
 6662SOL    HW131619   0.586   1.755   6.405  1.5200  1.3911  0.4780
 6662SOL    HW231620   0.629   1.621   6.336  2.6445  0.7592 -1.6079
 6663SOL     OW31621   4.016   2.530   9.115 -0.0186  0.1835  0.2700
 6663SOL    HW131622   4.057   2.443   9.113  0.6589  0.4536  2.9533
 6663SOL    HW231623   4.061   2.577   9.185 -0.8756  0.7944  0.4149
 6664SOL     OW31624   0.852   3.983   2.454 -0.5744 -0.0222 -0.0633
 6664SOL    HW131625   0.775   3.944   2.494 -1.4566  1.0165 -0.7465
 6664SOL    HW231626   0.902   4.003   2.533  0.3004 -1.3110 -0.2974
 6665SOL     OW31627   2.766   1.352   7.621  0.4622 -0.5742 -0.3876
 6665SOL    HW131628   2.828   1.303   7.675 -0.3461 -0.8818  0.2645
 6665SOL    HW231629   2.830   1.396   7.565 -0.5459 -1.4116 -2.1589
 6666SOL     OW31630   0.676   0.331   6.268 -0.2182  0.8664  0.7688
 6666SOL    HW131631   0.769   0.313   6.283 -0.2574 -1.4489 -1.6835
 6666SOL    HW231632   0.630   0.247   6.272  0.2828  0.5276 -0.6370
 6667SOL     OW31633   2.714   3.596  11.870 -0.1974  0.1432  0.4280
 6667SOL    HW131634   2.637   3.546  11.845 -0.4375  1.0670 -0.6758
 6667SOL    HW231635   2.682   3.648  11.944 -0.9253  2.9835 -1.8657
 6668SOL     OW31636   0.787   4.214  11.404  0.4122 -0.1783 -0.1766
 6668SOL    HW131637   0.871   4.204  11.449  0.7916  0.6145 -0.7019
 6668SOL    HW231638   0.776   4.309  11.397 -2.5886 -0.5235  0.0348
 6669SOL     OW31639   1.967   3.466   1.005  0.1571  0.2296  0.8823
 6669SOL    HW131640   2.012   3.493   1.085  0.5533  1.4180  0.2695
 6669SOL    HW231641   1.977   3.372   1.017 -1.0470  0.1963  1.5364
 6670SOL     OW31642   2.664   2.759   5.925 -0.3156  0.4249  0.4317
 6670SOL    HW131643   2.709   2.837   5.892 -1.4472  0.5411 -0.8146
 6670SOL    HW231644   2.578   2.773   5.886  0.1236  1.3490 -0.2039
 6671SOL     OW31645   1.319   4.210   5.090 -0.5274  0.1838 -0.2225
 6671SOL    HW131646   1.363   4.171   5.165 -0.3581 -0.0774 -0.4569
 6671SOL    HW231647   1.245   4.150   5.091 -1.7942  1.8217  4.6302
 6672SOL     OW31648   4.433   2.828  12.152 -0.3317 -0.0862  0.1195
 6672SOL    HW131649   4.425   2.802  12.243 -0.3668  0.0037  0.1428
 6672SOL    HW231650   4.367   2.897  12.144 -1.2353 -0.8276  1.2517
 6673SOL     OW31651   0.021   3.578   1.670 -0.1730  0.1555  0.1329
 6673SOL    HW131652   0.106   3.569   1.713  0.3106  1.1252 -0.6399
 6673SOL    HW231653   4.704   3.637   1.722 -1.3191  1.4156 -2.5392
 6674SOL     OW31654   3.585   1.545   6.955 -0.5248  0.1003 -0.5082
 6674SOL    HW131655   3.618   1.544   7.044 -0.9617  0.1094 -0.3471
 6674SOL    HW231656   3.555   1.458   6.927 -1.3746  0.2440 -0.0497
 6675SOL     OW31657   0.677   1.014   4.299  0.3803 -0.2925  0.5960
 6675SOL    HW131658   0.671   0.966   4.216 -1.5581  0.3943  0.3401
 6675SOL    HW231659   0.761   0.986   4.336 -0.3223 -2.9429  0.1732
 6676SOL     OW31660   1.967   0.818   5.858  0.2894  0.2040  0.4354
 6676SOL    HW131661   1.888   0.771   5.885 -0.9032  1.4612 -0.9155
 6676SOL    HW231662   1.975   0.794   5.766  0.0099 -0.1117  0.4927
 6677SOL     OW31663   2.680   0.825  10.875  0.1335  0.0381  0.0284
 6677SOL    HW131664   2.675   0.910  10.918 -0.4258  0.9248 -1.7734
 6677SOL    HW231665   2.769   0.792  10.867 -0.1699 -0.6648 -0.5517
 6678SOL     OW31666   0.970   1.191   8.913  0.2927 -0.7977 -0.1593
 6678SOL    HW131667   1.007   1.191   8.825  2.7433 -0.0552  0.8997
 6678SOL    HW231668   0.877   1.171   8.900  0.4620 -0.4386 -1.8549
 6679SOL     OW31669   3.494   4.269  17.459  0.2581 -0.9713 -0.2754
 6679SOL    HW131670   3.567   4.234  17.510 -0.6321  0.1609  1.7910
 6679SOL    HW231671   3.517   4.246  17.369  0.2029 -2.1558  0.0214
 6680SOL     OW31672   2.781   2.339  16.858 -0.1342  0.8277 -0.0664
 6680SOL    HW131673   2.689   2.327  16.835 -0.5367 -0.6855  2.3785
 6680SOL    HW231674   2.784   2.433  16.844 -0.5128  0.9485  0.6684
 6681SOL     OW31675   0.816   4.691  10.022 -0.3697  0.0128 -0.0964
 6681SOL    HW131676   0.767   4.626  10.072 -2.0846  1.2396 -0.1644
 6681SOL    HW231677   0.752   0.022  10.003  1.0959  1.3978 -0.0805
 6682SOL     OW31678   1.361   4.364   6.702 -0.2263 -0.2710  0.3737
 6682SOL    HW131679   1.316   4.309   6.766 -0.8929  0.8102  0.8397
 6682SOL    HW231680   1.442   4.377   6.752 -0.0128 -1.2249  0.2656
 6683SOL     OW31681   4.668   1.156   4.635  0.5262 -0.0462 -0.0465
 6683SOL    HW131682   4.634   1.245   4.647  0.3732 -0.1185  0.0630
 6683SOL    HW231683   4.695   1.153   4.543 -0.2662 -0.6304 -0.2577
 6684SOL     OW31684   0.951   1.827   1.046 -0.6495  0.3634 -0.5615
 6684SOL    HW131685   0.871   1.870   1.076 -0.5781  0.2659 -0.2296
 6684SOL    HW231686   0.999   1.906   1.022 -0.6397  0.5252 -0.0070
 6685SOL     OW31687   4.191   4.449   6.611 -0.6212  0.0938  0.6044
 6685SOL    HW131688   4.247   4.440   6.534  0.0394  0.0406  1.0921
 6685SOL    HW231689   4.173   4.358   6.634  0.9191 -0.6281 -0.9772
 6686SOL     OW31690   4.107   0.495   9.212 -0.1702  0.2731  0.5324
 6686SOL    HW131691   4.183   0.450   9.175 -1.2744 -1.2110  0.0612
 6686SOL    HW231692   4.048   0.421   9.227 -0.2863  0.0624 -0.9745
 6687SOL     OW31693   0.184   0.529   3.667  0.1287 -0.1366  0.1756
 6687SOL    HW131694   0.094   0.563   3.665  0.0438 -0.3133  0.7940
 6687SOL    HW231695   0.187   0.474   3.746 -0.4545  1.3538  1.2483
 6688SOL     OW31696   1.696   1.353   8.548  0.2551  0.2666 -0.1075
 6688SOL    HW131697   1.764   1.330   8.611 -1.4296  1.3087  2.0917
 6688SOL    HW231698   1.646   1.271   8.555  1.5472 -0.4458  0.8081
 6689SOL     OW31699   3.743   0.462   6.324  0.2411  0.4830  0.1906
 6689SOL    HW131700   3.806   0.524   6.362  1.4317  1.9431 -4.1997
 6689SOL    HW231701   3.672   0.477   6.386  1.1790  0.0770  1.3792
 6690SOL     OW31702   2.220   2.183   6.790  0.3131  0.5885  0.1085
 6690SOL    HW131703   2.275   2.126   6.736  0.7989  2.2860 -1.2103
 6690SOL    HW231704   2.289   2.224   6.842  0.8475  0.8347 -0.7883
 6691SOL     OW31705   1.870   0.353   3.732  0.5764  0.0045 -0.1376
 6691SOL    HW131706   1.827   0.355   3.646 -1.7840  0.1729  1.0314
 6691SOL    HW231707   1.906   0.265   3.719 -2.2435 -0.9860 -1.2343
 6692SOL     OW31708   4.503   2.551   7.993  0.0471  0.3590  0.2475
 6692SOL    HW131709   4.469   2.499   7.920  2.2786  0.8986 -1.1586
 6692SOL    HW231710   4.480   2.635   7.952  1.0278  1.2304  1.4830
 6693SOL     OW31711   2.909   1.410   4.461  0.3733 -0.0658  0.0104
 6693SOL    HW131712   2.868   1.450   4.537  0.6211 -1.7239  1.0332
 6693SOL    HW231713   2.988   1.464   4.457 -0.4628  1.2106  1.1309
 6694SOL     OW31714   0.574   4.669  10.147 -0.1850 -0.0514 -0.1969
 6694SOL    HW131715   0.556   4.642  10.237  0.4079  2.0254  0.5494
 6694SOL    HW231716   0.543   0.021  10.160 -0.1034 -0.0560  0.0410
 6695SOL     OW31717   2.188   1.850   5.152 -0.6678 -0.0845 -0.3520
 6695SOL    HW131718   2.195   1.890   5.066 -1.3540 -1.6484 -1.1388
 6695SOL    HW231719   2.139   1.916   5.201 -0.3411  0.3721 -0.6371
 6696SOL     OW31720   2.198   2.316   9.502 -0.3563 -0.2076  0.1953
 6696SOL    HW131721   2.140   2.384   9.467  0.4114 -0.4879 -1.6548
 6696SOL    HW231722   2.187   2.251   9.432 -1.1272 -2.1337  2.1102
 6697SOL     OW31723   4.399   2.076  13.884  0.0145  0.6497 -0.2797
 6697SOL    HW131724   4.474   2.029  13.847  0.4179 -0.8286  2.4357
 6697SOL    HW231725   4.436   2.132  13.952  0.4712  2.0225 -1.6622
 6698SOL     OW31726   1.539   2.847  10.904  0.2736  0.3945 -0.0677
 6698SOL    HW131727   1.447   2.871  10.893 -0.4227 -0.4823  3.9905
 6698SOL    HW231728   1.544   2.766  10.852 -0.1150 -0.1036  0.6710
 6699SOL     OW31729   0.350   0.331   5.097  0.4009  0.3355 -0.0414
 6699SOL    HW131730   0.415   0.336   5.167  1.1730 -0.4511 -0.7032
 6699SOL    HW231731   0.302   0.414   5.098 -0.1969 -0.0135  0.9029
 6700SOL     OW31732   0.091   3.143  12.231 -0.0412 -0.4500  0.4945
 6700SOL    HW131733   0.010   3.112  12.190  0.1566  0.3411 -0.4889
 6700SOL    HW231734   0.084   3.085  12.307 -0.4404 -1.6702 -0.4608
 6701SOL     OW31735   3.310   3.582  14.671  0.2627 -0.3764  0.2282
 6701SOL    HW131736   3.375   3.519  14.639 -0.0213  0.2938 -1.6774
 6701SOL    HW231737   3.247   3.566  14.601 -0.2134 -1.1365  0.8381
 6702SOL     OW31738   0.391   3.645   8.894  0.3384 -0.2798 -0.0526
 6702SOL    HW131739   0.311   3.633   8.843 -1.0337  1.3877  1.6982
 6702SOL    HW231740   0.406   3.553   8.916  1.8114 -0.1151 -0.4144
 6703SOL     OW31741   3.158   4.022   6.415 -0.0333 -0.1842  0.6092
 6703SOL    HW131742   3.136   3.929   6.412  0.1432 -0.2164  0.3311
 6703SOL    HW231743   3.205   4.032   6.332 -0.2120 -1.8990  0.3153
 6704SOL     OW31744   3.547   2.765  10.958  0.0327 -0.0227 -0.2044
 6704SOL    HW131745   3.623   2.764  11.017  0.7752  0.9325 -1.1419
 6704SOL    HW231746   3.495   2.834  10.999 -1.9825 -1.4542 -0.3808
 6705SOL     OW31747   3.352   3.931   8.077  0.3986  0.2317  0.0773
 6705SOL    HW131748   3.394   3.859   8.124 -0.2687 -1.8188 -2.4510
 6705SOL    HW231749   3.368   4.009   8.129  0.2371  0.1418  0.2616
 6706SOL     OW31750   4.059   3.916   8.930 -0.5442 -0.0071  0.0751
 6706SOL    HW131751   4.108   3.954   8.858  0.1463  0.8169  0.9835
 6706SOL    HW231752   4.108   3.958   9.000  0.4190 -0.2617 -0.4412
 6707SOL     OW31753   4.392   1.568   9.435  0.4630  0.6927 -0.2465
 6707SOL    HW131754   4.314   1.614   9.466  0.5451  0.9403 -0.4060
 6707SOL    HW231755   4.451   1.602   9.503  0.9352  0.7166 -0.6668
 6708SOL     OW31756   1.487   3.908   2.833  0.0070  1.2844 -0.2714
 6708SOL    HW131757   1.471   3.857   2.754  2.5897 -1.6746  1.1026
 6708SOL    HW231758   1.432   3.981   2.806 -2.3364 -0.6313 -0.6448
 6709SOL     OW31759   3.916   2.759  15.228  0.4606 -0.3606  0.1684
 6709SOL    HW131760   3.918   2.688  15.164  0.7910 -0.0104 -0.2210
 6709SOL    HW231761   3.887   2.711  15.304  1.5260 -0.1535  0.7106
 6710SOL     OW31762   2.067   2.898   6.887  0.2412  0.3998  0.1101
 6710SOL    HW131763   2.056   2.983   6.844  0.5331 -1.0226 -2.7587
 6710SOL    HW231764   1.978   2.882   6.919 -0.0082  1.3920 -0.0759
 6711SOL     OW31765   4.651   0.016   2.273  0.1879  0.2402  0.5605
 6711SOL    HW131766   4.630   0.091   2.217 -2.1157 -0.7016  0.1798
 6711SOL    HW231767   4.715   0.055   2.332  1.0981 -0.4987  0.0607
 6712SOL     OW31768   0.409   3.912   5.282  0.5184 -0.4219  0.4353
 6712SOL    HW131769   0.463   3.991   5.286 -0.2687  0.2236 -1.5692
 6712SOL    HW231770   0.473   3.859   5.236 -0.7024  0.6190 -2.4907
 6713SOL     OW31771   0.558   3.143   2.413  0.5949  0.6729 -0.2740
 6713SOL    HW131772   0.600   3.211   2.361 -1.1446  1.9502  0.0021
 6713SOL    HW231773   0.474   3.181   2.439  0.3206  0.8600 -1.4394
 6714SOL     OW31774   4.210   0.648   9.517  0.2804  0.6210 -0.8811
 6714SOL    HW131775   4.231   0.677   9.428  3.7034 -0.4592 -0.4177
 6714SOL    HW231776   4.161   0.724   9.550 -1.7225 -0.7794 -0.6597
 6715SOL     OW31777   0.339   0.228   4.035  0.3739  0.1643  0.0119
 6715SOL    HW131778   0.280   0.300   4.014 -0.1213  0.1926  1.5001
 6715SOL    HW231779   0.399   0.227   3.961 -0.0288 -0.6787 -0.3074
 6716SOL     OW31780   1.131   0.147   0.615 -0.1560  0.1989  0.1384
 6716SOL    HW131781   1.146   0.147   0.521  0.0032 -1.7562  0.1542
 6716SOL    HW231782   1.107   0.056   0.631 -0.9222  0.6160  1.4136
 6717SOL     OW31783   0.895   2.984  16.350  0.2382 -0.3167  0.4155
 6717SOL    HW131784   0.924   3.041  16.421  0.6444 -1.0611  0.8425
 6717SOL    HW231785   0.962   3.009  16.286  0.5901 -0.0509  0.8918
 6718SOL     OW31786   0.147   2.963   4.931 -0.4713 -0.3444  0.4893
 6718SOL    HW131787   0.091   2.885   4.932 -0.5748 -0.2927 -2.9367
 6718SOL    HW231788   0.100   3.018   4.993  4.8597  0.3521  3.9176
 6719SOL     OW31789   1.743   0.465  16.590  0.1251  0.1157 -0.0517
 6719SOL    HW131790   1.689   0.412  16.649  1.8860 -0.1230  1.3649
 6719SOL    HW231791   1.790   0.523  16.651 -0.2694  0.4767 -0.0912
 6720SOL     OW31792   1.905   4.424  15.398  0.1956  0.1794  0.1120
 6720SOL    HW131793   1.954   4.499  15.431  0.7323 -0.2143  0.2137
 6720SOL    HW231794   1.916   4.444  15.305 -0.7780  0.9466  0.1631
 6721SOL     OW31795   2.375   2.342   3.780  0.2241 -0.0885 -0.6708
 6721SOL    HW131796   2.465   2.368   3.760 -0.6175  3.0193 -0.2807
 6721SOL    HW231797   2.395   2.272   3.842 -0.7694 -0.2181 -0.5083
 6722SOL     OW31798   1.415   0.009   5.894 -0.3089  0.3955 -0.2051
 6722SOL    HW131799   1.437   0.031   5.803 -0.6356 -0.5945 -0.5222
 6722SOL    HW231800   1.504   0.004   5.929 -1.5940 -2.3470  2.5930
 6723SOL     OW31801   1.022   1.597  15.297 -0.1730  0.3055 -0.2831
 6723SOL    HW131802   1.103   1.553  15.274  0.2826  0.7409  0.5056
 6723SOL    HW231803   1.043   1.633  15.383 -0.8372 -1.8044  0.7667
 6724SOL     OW31804   0.740   4.652  11.591 -0.0230 -0.5161 -0.0562
 6724SOL    HW131805   0.728   4.650  11.686 -0.5407 -2.4952 -0.1668
 6724SOL    HW231806   0.791   4.733  11.588  1.5629 -1.6033 -1.9169
 6725SOL     OW31807   1.417   4.002   8.950  0.1735 -0.2235 -0.8519
 6725SOL    HW131808   1.499   3.954   8.944  0.2154 -0.2539 -0.0755
 6725SOL    HW231809   1.428   4.059   9.026 -1.6499 -1.0675  0.0630
 6726SOL     OW31810   4.429   3.802   7.464  0.0897 -0.6702 -0.3234
 6726SOL    HW131811   4.416   3.717   7.507  2.7233  0.2191  2.2129
 6726SOL    HW231812   4.510   3.832   7.504 -0.1190 -0.3964 -0.1011
 6727SOL     OW31813   1.850   4.311   5.704  0.1930 -0.0292  0.2450
 6727SOL    HW131814   1.808   4.380   5.652  0.0703 -0.1313  0.2095
 6727SOL    HW231815   1.923   4.363   5.737  0.4818 -0.2132 -0.1104
 6728SOL     OW31816   3.522   2.598   7.407  0.4882 -0.3512 -0.2862
 6728SOL    HW131817   3.452   2.626   7.466 -1.5696  0.0503 -2.9030
 6728SOL    HW231818   3.534   2.682   7.363 -1.1785 -0.1257 -0.3044
 6729SOL     OW31819   2.246   1.133   2.815  0.3982  0.2324  0.0061
 6729SOL    HW131820   2.244   1.166   2.725 -1.8119 -1.3031 -0.5002
 6729SOL    HW231821   2.208   1.210   2.857 -0.8636  0.8194 -2.2442
 6730SOL     OW31822   4.558   0.988  16.084 -0.1440  0.1751  0.0164
 6730SOL    HW131823   4.551   1.081  16.105 -0.7904  0.8658 -3.3671
 6730SOL    HW231824   4.529   0.991  15.993 -0.2220 -2.0546 -0.0476
 6731SOL     OW31825   3.445   1.702   2.263  0.0860 -0.5371  0.2809
 6731SOL    HW131826   3.478   1.727   2.177 -4.2269  1.5836 -0.7636
 6731SOL    HW231827   3.401   1.619   2.248 -0.7557  0.4709 -2.9145
 6732SOL     OW31828   2.162   0.523   4.513  0.3878 -0.4184  0.0830
 6732SOL    HW131829   2.083   0.549   4.467  0.5298  2.1598  1.3374
 6732SOL    HW231830   2.223   0.559   4.449 -1.8926  3.1603 -0.0625
 6733SOL     OW31831   3.323   1.641   3.241 -0.0445 -0.2437  0.5368
 6733SOL    HW131832   3.394   1.704   3.225  1.1145 -1.3763  1.1851
 6733SOL    HW231833   3.357   1.602   3.322 -0.3814  0.3115  0.9465
 6734SOL     OW31834   2.373   4.516  16.794  0.3186 -0.1024  0.4317
 6734SOL    HW131835   2.358   4.554  16.708 -1.5282  1.1109  1.2869
 6734SOL    HW231836   2.292   4.545  16.835  1.3191  1.3943  1.3151
 6735SOL     OW31837   3.433   0.091   2.175  0.1564 -0.1176  0.2025
 6735SOL    HW131838   3.451   0.185   2.179 -0.6173  0.0259  0.2252
 6735SOL    HW231839   3.420   0.081   2.270 -1.0872  2.8346  0.3552
 6736SOL     OW31840   2.313   4.572   2.822 -0.3234 -0.0880  0.1253
 6736SOL    HW131841   2.390   4.543   2.773 -0.5163 -0.4835  0.0567
 6736SOL    HW231842   2.312   4.512   2.896  0.5131  1.1872  1.1744
 6737SOL     OW31843   2.788   0.917   3.400  0.6059  0.2213 -0.3891
 6737SOL    HW131844   2.736   0.954   3.471 -2.4355 -1.2667 -1.8540
 6737SOL    HW231845   2.718   0.863   3.364  0.7761  0.3908 -0.9711
 6738SOL     OW31846   2.980   0.888  12.480  0.3767  0.4008 -0.3128
 6738SOL    HW131847   2.915   0.954  12.457 -0.2028 -0.0317  0.0758
 6738SOL    HW231848   3.062   0.935  12.470  0.0499  0.6007 -2.1051
 6739SOL     OW31849   1.761   4.398   6.321  0.0809  0.3691  0.6193
 6739SOL    HW131850   1.675   4.436   6.339  0.0329  1.0505 -1.0057
 6739SOL    HW231851   1.727   4.325   6.269 -0.3033 -0.3386  1.8817
 6740SOL     OW31852   4.179   1.048   7.170  0.1372  0.1072  1.1006
 6740SOL    HW131853   4.211   1.058   7.260  0.4969 -1.7473  1.1797
 6740SOL    HW231854   4.255   1.088   7.128 -0.9454 -1.8188 -2.6534
 6741SOL     OW31855   0.116   3.106   1.781  0.4869 -0.2225 -0.1970
 6741SOL    HW131856   0.070   3.188   1.799 -1.5915 -1.5580  0.5656
 6741SOL    HW231857   0.073   3.049   1.844 -2.0286  0.4791 -1.2916
 6742SOL     OW31858   1.630   1.685  15.580  0.0204  0.8460  0.2133
 6742SOL    HW131859   1.647   1.701  15.673 -0.3859 -1.9205  0.7478
 6742SOL    HW231860   1.688   1.611  15.564 -1.9249 -0.7900  0.7688
 6743SOL     OW31861   2.502   4.354   2.688 -0.1767 -0.6685  0.0636
 6743SOL    HW131862   2.510   4.268   2.729 -0.4253 -1.5211 -1.6467
 6743SOL    HW231863   2.589   4.393   2.676 -0.2879 -1.3404 -2.9668
 6744SOL     OW31864   1.321   4.604   6.099  0.0987  0.3186 -0.3134
 6744SOL    HW131865   1.267   4.681   6.120  0.2015  0.5796 -1.0011
 6744SOL    HW231866   1.364   4.632   6.018 -0.9660  0.5308 -0.8139
 6745SOL     OW31867   3.291   4.462   5.351 -0.1493  0.0542 -0.0572
 6745SOL    HW131868   3.385   4.447   5.358  0.1920  1.2548 -1.8488
 6745SOL    HW231869   3.281   4.445   5.257 -0.2499 -0.2978  0.0155
 6746SOL     OW31870   2.789   1.448   6.257  0.3474 -0.2672  0.0301
 6746SOL    HW131871   2.725   1.394   6.303  2.3612  0.4997  3.7015
 6746SOL    HW231872   2.748   1.534   6.267  0.7822  0.0810 -1.0822
 6747SOL     OW31873   3.631   4.444  15.051  0.7784 -0.2514  0.1191
 6747SOL    HW131874   3.685   4.484  14.983 -0.6524  0.9256 -0.3253
 6747SOL    HW231875   3.557   4.414  14.998  1.0732  0.0194 -0.4478
 6748SOL     OW31876   0.970   2.788  11.728 -0.0663  0.0004 -0.1661
 6748SOL    HW131877   0.906   2.858  11.736  0.1363  0.1565  0.0922
 6748SOL    HW231878   1.013   2.804  11.812  0.8732  0.5330 -0.7508
 6749SOL     OW31879   3.424   4.369   2.768  0.1389 -0.2371 -0.3761
 6749SOL    HW131880   3.345   4.368   2.822 -0.0101 -3.0064 -0.6639
 6749SOL    HW231881   3.476   4.442   2.802  0.3227 -0.0592 -1.0346
 6750SOL     OW31882   4.721   2.044   2.391  0.2948 -0.8340  0.3673
 6750SOL    HW131883   0.010   2.012   2.304 -0.1926  1.2576 -0.5596
 6750SOL    HW231884   0.068   2.077   2.421  1.2901 -0.6258 -2.6428
 6751SOL     OW31885   1.041   4.394   3.622 -0.1507 -0.7033  0.9046
 6751SOL    HW131886   1.041   4.483   3.657  1.5592  0.8937 -3.0882
 6751SOL    HW231887   1.011   4.413   3.533  0.7417 -1.9310  0.3405
 6752SOL     OW31888   0.039   0.031   9.314  0.2241 -0.1927 -0.3746
 6752SOL    HW131889   4.689   4.737   9.293 -0.9816  3.0555 -0.2599
 6752SOL    HW231890   0.086   4.685   9.317 -0.2931 -0.4733 -0.1673
 6753SOL     OW31891   2.062   1.212  14.836  0.5114 -0.3074  0.0093
 6753SOL    HW131892   1.990   1.209  14.773 -0.7257 -0.4887  1.4402
 6753SOL    HW231893   2.095   1.125  14.812  0.1334 -0.3201 -0.4783
 6754SOL     OW31894   0.369   0.734   8.010  0.0612 -0.4152 -0.5661
 6754SOL    HW131895   0.308   0.761   7.942  0.3146 -0.3682 -0.7731
 6754SOL    HW231896   0.364   0.812   8.066  0.1273 -0.9219  0.1557
 6755SOL     OW31897   0.074   1.310   2.018  0.4587 -0.0043 -0.0300
 6755SOL    HW131898   0.088   1.380   1.954  0.7435  0.9314  1.0565
 6755SOL    HW231899   0.143   1.330   2.081  1.3989 -1.3663 -0.6080
 6756SOL     OW31900   2.746   1.275  17.222  0.2191  0.1911 -0.7378
 6756SOL    HW131901   2.663   1.229  17.233  0.0224  0.9109  0.9129
 6756SOL    HW231902   2.750   1.330  17.301  0.7679  0.2933 -0.8384
 6757SOL     OW31903   1.506   3.707   2.623  0.2646 -0.6586  0.0188
 6757SOL    HW131904   1.587   3.657   2.621 -0.1542 -1.3218 -0.7696
 6757SOL    HW231905   1.444   3.642   2.658  0.4598 -1.5640 -1.2794
 6758SOL     OW31906   3.554   4.431   6.737 -0.3262 -0.0693  0.5780
 6758SOL    HW131907   3.634   4.405   6.692 -0.4212  0.6388  0.0016
 6758SOL    HW231908   3.569   4.522   6.762  1.1239 -0.7274  2.1233
 6759SOL     OW31909   3.594   2.205   0.997  0.2210  0.5777 -0.4631
 6759SOL    HW131910   3.576   2.220   1.089  1.3703  1.5079 -0.3852
 6759SOL    HW231911   3.538   2.133   0.968  1.8713 -1.5476  1.6485
 6760SOL     OW31912   4.185   0.989  16.902  0.3613  0.3896  0.6105
 6760SOL    HW131913   4.275   0.972  16.933  0.5981  2.0404  0.8403
 6760SOL    HW231914   4.190   1.085  16.905 -0.0460  0.4066  0.6333
 6761SOL     OW31915   2.676   4.438  14.679  0.0978 -0.2352 -0.9163
 6761SOL    HW131916   2.587   4.409  14.657  0.0935 -0.9971  0.1007
 6761SOL    HW231917   2.670   4.531  14.655  0.5463  0.0813  0.2109
 6762SOL     OW31918   0.208   1.945   5.015  0.1480  0.5859  0.7130
 6762SOL    HW131919   0.119   1.977   5.032  0.2410 -0.1295  2.4884
 6762SOL    HW231920   0.238   2.030   4.982 -2.0747  1.7277  1.6292
 6763SOL     OW31921   2.157   2.531   2.691 -0.4613 -0.2367  0.0430
 6763SOL    HW131922   2.129   2.441   2.705 -0.6630 -0.2187 -0.2477
 6763SOL    HW231923   2.085   2.574   2.644  0.9762  0.8845 -1.1410
 6764SOL     OW31924   1.782   1.192  16.685  0.2849 -0.0407  0.0307
 6764SOL    HW131925   1.857   1.243  16.717 -0.1726 -1.4308  3.3861
 6764SOL    HW231926   1.820   1.147  16.610  0.9555  0.8068 -0.1354
 6765SOL     OW31927   4.046   1.467   4.052 -0.3955  1.1008  0.4883
 6765SOL    HW131928   3.959   1.476   4.091  0.4176 -0.1231  2.5602
 6765SOL    HW231929   4.064   1.551   4.011  0.4417  1.4527  1.5916
 6766SOL     OW31930   0.322   1.295   1.023  0.1700  0.1025  0.9122
 6766SOL    HW131931   0.360   1.327   1.105  0.3437 -3.4103  2.2130
 6766SOL    HW231932   0.396   1.251   0.980 -0.9900 -0.8463 -0.1044
 6767SOL     OW31933   4.360   1.511   3.293 -0.4258  0.8294 -0.1701
 6767SOL    HW131934   4.305   1.568   3.240 -0.3643  1.6738  0.6753
 6767SOL    HW231935   4.303   1.464   3.354  1.3347 -0.3364  0.6049
 6768SOL     OW31936   2.163   2.181   0.327  0.7096  0.0522  0.3186
 6768SOL    HW131937   2.157   2.255   0.387 -0.6821  1.7386 -1.8697
 6768SOL    HW231938   2.079   2.179   0.281 -0.3521 -2.2431  2.3778
 6769SOL     OW31939   1.772   1.309  10.646 -0.4623  0.4180  0.3020
 6769SOL    HW131940   1.786   1.388  10.593 -0.5523  0.5080  0.4132
 6769SOL    HW231941   1.843   1.324  10.708  1.6137  2.6154 -2.5705
 6770SOL     OW31942   1.447   1.686   4.098  0.1978  0.3606  0.5720
 6770SOL    HW131943   1.471   1.717   4.186 -1.7593 -0.0862  1.2693
 6770SOL    HW231944   1.365   1.640   4.115  2.5508 -2.6396  3.9812
 6771SOL     OW31945   3.474   3.912  13.393  0.0252  0.4460  0.1462
 6771SOL    HW131946   3.510   3.952  13.314  1.4935 -0.1274  0.5380
 6771SOL    HW231947   3.534   3.838  13.395 -0.6078 -0.0116  2.5248
 6772SOL     OW31948   4.291   2.885  10.585  0.3077  0.4851  0.5892
 6772SOL    HW131949   4.334   2.969  10.566  0.3522  0.5917  1.1482
 6772SOL    HW231950   4.327   2.867  10.672  1.2242  0.4459  0.2009
 6773SOL     OW31951   0.109   1.917   5.719 -0.6587  0.5292  0.0803
 6773SOL    HW131952   0.034   1.947   5.668 -1.2429 -0.6396  0.2599
 6773SOL    HW231953   0.163   1.870   5.654 -0.5800  0.8305 -0.0701
 6774SOL     OW31954   0.445   2.126  14.554  0.2331  0.1819 -0.0507
 6774SOL    HW131955   0.539   2.114  14.567  0.1638  1.9697  2.1111
 6774SOL    HW231956   0.422   2.163  14.639  2.8852  2.6136 -0.3849
 6775SOL     OW31957   3.727   3.289   6.889 -0.2152 -0.6459  0.4818
 6775SOL    HW131958   3.634   3.311   6.883 -0.2119 -0.6164  0.5489
 6775SOL    HW231959   3.743   3.304   6.982 -2.4529 -0.6426  0.8643
 6776SOL     OW31960   0.233   0.003   2.183  0.3143 -0.0492  0.1677
 6776SOL    HW131961   0.297   0.055   2.230  2.1994 -0.5262 -1.8960
 6776SOL    HW231962   0.172   0.067   2.146  1.2586  0.8237  0.1188
 6777SOL     OW31963   1.084   1.311   3.865 -0.1097 -0.1601  0.3891
 6777SOL    HW131964   0.992   1.296   3.845  0.5409 -0.3374 -2.6158
 6777SOL    HW231965   1.127   1.370   3.802 -0.6639 -0.5692 -0.3743
 6778SOL     OW31966   1.982   1.128   5.317 -0.2376 -0.0567  0.1145
 6778SOL    HW131967   1.987   1.033   5.332  1.5596 -0.2013 -1.4443
 6778SOL    HW231968   2.017   1.167   5.397 -1.5544  1.7301 -0.1766
 6779SOL     OW31969   1.143   2.709   2.806 -0.6092 -0.4368 -0.0505
 6779SOL    HW131970   1.097   2.686   2.887 -1.3044 -0.4537 -0.4475
 6779SOL    HW231971   1.231   2.737   2.829 -0.0251 -2.4175  0.0775
 6780SOL     OW31972   1.083   3.572   9.449 -0.3674  0.6162  0.1920
 6780SOL    HW131973   1.017   3.598   9.513  0.2219  2.7875 -0.0770
 6780SOL    HW231974   1.165   3.557   9.496 -0.8387 -0.7500  0.5666
 6781SOL     OW31975   4.424   4.507   5.653  0.0917 -0.5761 -0.4937
 6781SOL    HW131976   4.496   4.553   5.696 -1.1935  0.5392  0.4772
 6781SOL    HW231977   4.479   4.493   5.576  1.0668 -2.3100  0.5394
 6782SOL     OW31978   1.368   3.770   5.691  0.0825 -0.3535  0.2518
 6782SOL    HW131979   1.437   3.771   5.626 -0.1010 -2.4816  0.0201
 6782SOL    HW231980   1.350   3.676   5.692  3.2501 -0.9526 -0.1563
 6783SOL     OW31981   0.867   1.085   3.085  0.1050  0.4633  0.4841
 6783SOL    HW131982   0.835   1.003   3.122  1.8149 -0.2876  0.3202
 6783SOL    HW231983   0.884   1.057   2.995  2.2886  0.1459  0.9957
 6784SOL     OW31984   0.435   1.112   5.772 -0.0803  0.2150 -0.3161
 6784SOL    HW131985   0.403   1.023   5.788 -1.6696  1.0070  0.9016
 6784SOL    HW231986   0.512   1.098   5.828 -1.1138 -3.1970  0.2649
 6785SOL     OW31987   0.470   1.360  12.713 -0.2786 -0.4842 -0.1697
 6785SOL    HW131988   0.429   1.311  12.784  3.3576  0.2601  2.4407
 6785SOL    HW231989   0.491   1.291  12.650  0.5611 -0.5016  0.1328
 6786SOL     OW31990   4.724   0.030   7.766  0.6171 -0.1045  0.2046
 6786SOL    HW131991   4.652   0.032   7.829  1.3180 -1.6120  1.0809
 6786SOL    HW231992   4.721   4.678   7.732 -0.2625  0.0316 -0.0659
 6787SOL     OW31993   1.568   3.310   7.512 -0.2460  0.3202  0.0819
 6787SOL    HW131994   1.650   3.343   7.549  0.8832 -0.8196 -1.3517
 6787SOL    HW231995   1.561   3.229   7.562 -0.3059  1.6948  2.2816
 6788SOL     OW31996   3.675   0.253   3.795 -0.1880 -0.2109  0.0419
 6788SOL    HW131997   3.627   0.238   3.876  0.2775 -0.4412  0.2763
 6788SOL    HW231998   3.765   0.274   3.818  0.2732 -1.4161 -0.6166
 6789SOL     OW31999   3.479   2.320   7.416  0.1837  0.1791  0.1628
 6789SOL    HW132000   3.526   2.402   7.402 -0.5407  0.7839  1.3195
 6789SOL    HW232001   3.443   2.336   7.503 -1.4884  1.6794 -0.8150
 6790SOL     OW32002   4.056   3.648   5.764 -0.0413 -0.3313  0.7869
 6790SOL    HW132003   4.149   3.622   5.770 -0.1042 -0.4708  1.2188
 6790SOL    HW232004   4.018   3.561   5.752  2.1706 -1.1881 -0.0819
 6791SOL     OW32005   4.308   2.504   4.462 -0.1398 -0.1625 -0.4704
 6791SOL    HW132006   4.404   2.507   4.466 -0.2443  1.4153  0.8206
 6791SOL    HW232007   4.291   2.420   4.420  1.1840 -1.1591  0.9764
 6792SOL     OW32008   2.453   2.717   8.800 -0.1578  0.3142 -0.1473
 6792SOL    HW132009   2.489   2.724   8.889  0.3674 -0.4588 -0.2988
 6792SOL    HW232010   2.359   2.729   8.814 -0.1033 -0.0757  0.5758
 6793SOL     OW32011   0.906   2.193   5.316 -0.0763 -0.6533 -0.1787
 6793SOL    HW132012   0.981   2.215   5.262 -0.2873  0.0372 -0.1948
 6793SOL    HW232013   0.832   2.210   5.258 -0.8294  2.0542  1.5858
 6794SOL     OW32014   2.743   4.581   2.511  0.3543 -0.4729 -0.0800
 6794SOL    HW132015   2.781   4.494   2.499 -2.4822 -1.6115 -0.7672
 6794SOL    HW232016   2.771   4.620   2.428  1.3334 -0.3385  0.3076
 6795SOL     OW32017   3.613   4.387   4.865  0.2072 -0.2711  0.2224
 6795SOL    HW132018   3.664   4.447   4.919  1.0033 -2.1612  1.6024
 6795SOL    HW232019   3.629   4.400   4.771  1.9048  0.2693  0.5910
 6796SOL     OW32020   1.189   1.065   6.736  0.3239  0.6266  0.2025
 6796SOL    HW132021   1.242   1.013   6.796 -1.8474  0.9057  2.3651
 6796SOL    HW232022   1.120   1.005   6.708  0.3334  0.8959 -0.3968
 6797SOL     OW32023   3.420   1.950   8.021  0.3987 -0.0859 -0.4472
 6797SOL    HW132024   3.464   1.871   8.050 -0.5204 -0.1348  0.8189
 6797SOL    HW232025   3.342   1.938   8.075  0.7541  0.3478  0.1533
 6798SOL     OW32026   2.213   3.952   5.697  0.5005 -0.5305 -0.0854
 6798SOL    HW132027   2.236   4.039   5.731 -1.6104  0.2238 -0.5877
 6798SOL    HW232028   2.261   3.890   5.752  1.3135 -0.1579 -0.3831
 6799SOL     OW32029   0.976   2.706   1.495 -0.0824  0.0275  0.3609
 6799SOL    HW132030   0.883   2.704   1.519  0.1717 -0.9154  1.2601
 6799SOL    HW232031   0.972   2.724   1.401 -3.7503  0.4238  0.6024
 6800SOL     OW32032   0.359   3.485   2.930 -0.5290  0.4046 -0.0670
 6800SOL    HW132033   0.425   3.438   2.983 -0.2595 -0.2908 -1.0130
 6800SOL    HW232034   0.370   3.451   2.841 -1.2350  0.1219 -0.0412
 6801SOL     OW32035   1.051   0.406   3.241 -0.8269 -0.5800  0.8544
 6801SOL    HW132036   1.048   0.501   3.234 -1.8438 -0.6931 -0.1618
 6801SOL    HW232037   1.144   0.392   3.263 -0.5284  0.8881  0.5084
 6802SOL     OW32038   0.383   2.213  11.836 -0.3133 -0.0414  0.1100
 6802SOL    HW132039   0.349   2.298  11.864  2.5952  0.4755  2.0420
 6802SOL    HW232040   0.353   2.152  11.904 -2.5284 -1.5005 -2.1900
 6803SOL     OW32041   1.638   1.231   2.154 -0.6254  0.3156 -0.1415
 6803SOL    HW132042   1.624   1.277   2.071  2.5027 -0.4232 -1.0637
 6803SOL    HW232043   1.558   1.179   2.161  0.5483 -1.2883  1.2535
 6804SOL     OW32044   4.534   0.427   5.200 -0.4687 -0.3694  0.3313
 6804SOL    HW132045   4.499   0.338   5.194  3.0925 -1.8378  1.4188
 6804SOL    HW232046   4.457   0.479   5.223 -0.2243  1.3187 -2.5771
 6805SOL     OW32047   1.074   4.372   5.370 -0.4814  0.0863  0.3247
 6805SOL    HW132048   1.086   4.466   5.354 -2.0006  0.3633  0.7858
 6805SOL    HW232049   0.979   4.369   5.380 -0.4418 -0.2397  0.6014
 6806SOL     OW32050   4.280   2.566  16.767 -0.5186  0.0919  0.0677
 6806SOL    HW132051   4.357   2.582  16.712  1.7849  0.2812  3.3108
 6806SOL    HW232052   4.200   2.575  16.716  1.0029 -2.6842 -2.8718
 6807SOL     OW32053   3.936   0.567   2.683  0.2608  0.7337  0.0180
 6807SOL    HW132054   3.983   0.603   2.758 -3.4365  1.4955  1.9300
 6807SOL    HW232055   3.853   0.613   2.697 -0.2976 -0.5609  0.9716
 6808SOL     OW32056   0.474   0.575   3.570  0.0853  0.0634  0.2823
 6808SOL    HW132057   0.407   0.528   3.522 -0.6312  0.6123  0.7368
 6808SOL    HW232058   0.445   0.607   3.656 -0.4088  1.6574 -0.4820
 6809SOL     OW32059   3.167   2.241   1.673  0.0790 -0.2412 -0.0373
 6809SOL    HW132060   3.077   2.258   1.645  0.0516  1.1032  0.8620
 6809SOL    HW232061   3.153   2.169   1.734 -0.4465  0.6900  0.9419
 6810SOL     OW32062   2.320   4.222   3.803 -0.3254  0.0330  0.4392
 6810SOL    HW132063   2.394   4.173   3.767 -1.0930 -0.9002  0.1260
 6810SOL    HW232064   2.300   4.286   3.735 -0.3412  0.1367  0.5425
 6811SOL     OW32065   2.783   1.891  10.095 -0.2410 -0.2762 -0.2084
 6811SOL    HW132066   2.787   1.942  10.176  0.0864  0.9228 -0.9841
 6811SOL    HW232067   2.774   1.800  10.124 -2.4994  1.0148  3.2017
 6812SOL     OW32068   4.074   3.889   2.275 -0.1263 -0.8165  0.2845
 6812SOL    HW132069   4.162   3.881   2.312 -0.2027  1.4603  0.9756
 6812SOL    HW232070   4.072   3.982   2.251 -0.2459 -0.6015  1.1364
 6813SOL     OW32071   2.644   0.913   4.157 -0.1558  0.2609 -0.6123
 6813SOL    HW132072   2.569   0.861   4.128  0.3704 -1.0140  0.3691
 6813SOL    HW232073   2.643   0.898   4.251 -1.6248 -1.5306 -0.9271
 6814SOL     OW32074   0.577   1.157   6.470 -0.4480 -0.0115 -0.8743
 6814SOL    HW132075   0.609   1.095   6.535 -0.4312  1.0436  0.1428
 6814SOL    HW232076   0.487   1.162   6.503 -1.4215  0.6785 -3.6258
 6815SOL     OW32077   3.684   2.623  14.502 -0.8588  0.5492  0.3144
 6815SOL    HW132078   3.680   2.642  14.596 -2.2498  2.2509 -0.0993
 6815SOL    HW232079   3.732   2.540  14.502 -1.3660  0.2470  0.7105
 6816SOL     OW32080   1.889   2.765   6.361  0.5139  0.1076 -0.1267
 6816SOL    HW132081   1.943   2.812   6.424  1.8233 -0.6070 -0.7087
 6816SOL    HW232082   1.937   2.682   6.364 -0.1640 -0.3089 -0.7383
 6817SOL     OW32083   2.197   1.478  15.979  0.0854 -0.1181 -0.2823
 6817SOL    HW132084   2.287   1.459  16.006  0.1114  0.2373 -0.1116
 6817SOL    HW232085   2.167   1.389  15.962 -0.0073 -0.8482  3.7251
 6818SOL     OW32086   1.679   2.687   5.594 -0.3271  0.0079 -0.6275
 6818SOL    HW132087   1.628   2.739   5.655 -1.0231  1.4795 -2.4729
 6818SOL    HW232088   1.759   2.740   5.596  1.1466 -2.2235 -0.2121
 6819SOL     OW32089   0.369   4.701   2.503  0.7107  0.3060 -0.2935
 6819SOL    HW132090   0.286   0.006   2.480  0.9571  2.3060  2.5686
 6819SOL    HW232091   0.434   0.026   2.469  0.5201  1.0695  0.7436
 6820SOL     OW32092   2.043   0.579   4.268 -0.0998  0.2627  0.2377
 6820SOL    HW132093   2.036   0.483   4.263  2.1941  0.1879 -1.5527
 6820SOL    HW232094   2.020   0.611   4.181 -1.6764 -0.2423  0.4482
 6821SOL     OW32095   1.751   3.966   9.938 -0.2771  0.2170 -0.0676
 6821SOL    HW132096   1.731   3.895   9.999 -1.3282  1.9784  1.6504
 6821SOL    HW232097   1.834   4.000   9.971  0.4445 -1.2275 -0.3686
 6822SOL     OW32098   3.906   0.304   7.225 -0.5191 -0.0418  0.5438
 6822SOL    HW132099   3.955   0.369   7.174  1.5924 -2.9692 -1.1983
 6822SOL    HW232100   3.863   0.354   7.294  0.0998 -0.7908  1.4852
 6823SOL     OW32101   0.405   4.476   3.052  0.0853 -0.4594 -0.4990
 6823SOL    HW132102   0.316   4.445   3.036 -1.0241  2.3781  0.0817
 6823SOL    HW232103   0.430   4.484   2.961  1.0370 -0.4128 -0.2302
 6824SOL     OW32104   2.937   0.210   6.067  0.5646 -0.0725 -0.6281
 6824SOL    HW132105   2.856   0.211   6.015 -0.3943  1.2700  0.8922
 6824SOL    HW232106   2.996   0.172   6.002  0.4747  1.0716 -1.3646
 6825SOL     OW32107   3.408   2.980   3.712  0.0654 -0.1375 -0.3085
 6825SOL    HW132108   3.390   3.033   3.634 -1.4851  2.8126  2.0545
 6825SOL    HW232109   3.317   2.957   3.732 -0.1533 -0.0819 -1.2451
 6826SOL     OW32110   1.043   4.204   5.012  0.2516 -1.1008 -0.1241
 6826SOL    HW132111   0.999   4.151   5.078 -1.1407 -0.6172 -0.6527
 6826SOL    HW232112   1.075   4.136   4.953 -0.5921  0.0519 -1.9237
 6827SOL     OW32113   1.499   1.192   7.820 -0.3292  0.3777 -0.1940
 6827SOL    HW132114   1.587   1.159   7.839  0.2407  2.2929  0.5287
 6827SOL    HW232115   1.505   1.281   7.855  0.5955 -0.0102  0.6336
 6828SOL     OW32116   3.320   1.726   5.791  0.1290  0.2617 -0.2919
 6828SOL    HW132117   3.403   1.766   5.764  0.4074  0.7854  1.3847
 6828SOL    HW232118   3.260   1.742   5.718 -0.4776  1.0074  0.3834
 6829SOL     OW32119   2.853   1.670  16.571 -0.3667 -0.2022  0.2397
 6829SOL    HW132120   2.771   1.635  16.606 -1.6950 -0.2175 -2.8601
 6829SOL    HW232121   2.868   1.597  16.510  1.5258  1.3282 -1.1073
 6830SOL     OW32122   0.804   2.900   3.195  0.0861  0.1936 -0.0093
 6830SOL    HW132123   0.845   2.958   3.259 -1.0272 -0.1224  0.9895
 6830SOL    HW232124   0.785   2.823   3.248  1.2115  0.0325  0.1581
 6831SOL     OW32125   1.128   1.966   9.411 -0.4588 -0.4317  0.1269
 6831SOL    HW132126   1.203   1.950   9.354 -1.1849 -1.1381 -0.6398
 6831SOL    HW232127   1.125   1.878   9.448  0.8948 -0.3086  0.5416
 6832SOL     OW32128   3.601   2.565   1.527  0.7230  0.4544  0.0479
 6832SOL    HW132129   3.552   2.501   1.579  0.1127  0.5877 -0.3636
 6832SOL    HW232130   3.677   2.514   1.500  0.8635  0.8060 -0.2113
 6833SOL     OW32131   1.364   1.802  11.605  0.4685  0.8948 -0.0524
 6833SOL    HW132132   1.353   1.713  11.571 -1.3817  1.0217  0.2053
 6833SOL    HW232133   1.412   1.847  11.536 -1.1979  0.6859 -1.3429
 6834SOL     OW32134   4.523   0.357   5.470  0.2667  0.2151  0.9012
 6834SOL    HW132135   4.611   0.381   5.440 -1.4214  2.6912 -2.1145
 6834SOL    HW232136   4.460   0.398   5.410 -0.0566  1.9733  2.4616
 6835SOL     OW32137   3.612   3.133   4.211  0.1821 -0.3050  0.4109
 6835SOL    HW132138   3.574   3.115   4.297 -1.0965  1.1326  0.1383
 6835SOL    HW232139   3.559   3.083   4.149  1.1417 -1.2976  0.3845
 6836SOL     OW32140   0.207   3.504   1.885  0.0584  0.2544  0.3207
 6836SOL    HW132141   0.262   3.472   1.956 -1.4178  1.3703  1.9704
 6836SOL    HW232142   0.125   3.464   1.917 -0.7926 -0.1065 -2.3102
 6837SOL     OW32143   2.785   3.562   2.239 -0.3593  0.3904  0.3607
 6837SOL    HW132144   2.789   3.476   2.198 -2.8793  1.2906 -1.7618
 6837SOL    HW232145   2.707   3.548   2.293 -0.9372 -0.5850 -0.7325
 6838SOL     OW32146   1.097   4.417   1.874  0.4184 -0.6231 -0.5438
 6838SOL    HW132147   1.101   4.512   1.871 -2.8105 -0.4485  1.1456
 6838SOL    HW232148   1.079   4.399   1.966 -0.4841  2.2455 -0.1539
 6839SOL     OW32149   2.213   4.492  14.662  0.0775 -0.1483  0.1947
 6839SOL    HW132150   2.234   4.559  14.597 -1.4614  1.2546  1.1433
 6839SOL    HW232151   2.289   4.434  14.656 -0.2014 -0.2956 -2.0159
 6840SOL     OW32152   3.837   1.979   3.951  0.2182  0.3466 -0.2757
 6840SOL    HW132153   3.809   2.054   3.899 -1.3852 -0.0036  0.0683
 6840SOL    HW232154   3.930   1.999   3.963 -0.5111  3.7745 -0.4267
 6841SOL     OW32155   4.209   2.503   1.849  0.4037  0.4862 -0.0527
 6841SOL    HW132156   4.143   2.471   1.911 -0.8358  2.8949 -0.1330
 6841SOL    HW232157   4.171   2.471   1.767  0.1754 -0.4857  0.4283
 6842SOL     OW32158   2.875   0.369   3.899 -0.1340  0.5717  0.3432
 6842SOL    HW132159   2.850   0.345   3.989 -0.2931 -1.1016 -0.1500
 6842SOL    HW232160   2.954   0.314   3.895  0.3114  1.4438 -2.3452
 6843SOL     OW32161   1.818   1.207  17.180 -0.1873  0.5048 -0.3931
 6843SOL    HW132162   1.798   1.270  17.111 -1.3925  0.5244 -0.0245
 6843SOL    HW232163   1.884   1.255  17.230  0.5529 -1.1462  0.2415
 6844SOL     OW32164   0.114   3.442   2.348 -0.1874 -0.6927 -0.2749
 6844SOL    HW132165   0.033   3.399   2.374 -1.0253  0.1464 -1.4967
 6844SOL    HW232166   0.072   3.494   2.279  0.3420  0.2647  0.1354
 6845SOL     OW32167   1.809   4.737   5.681 -0.1801  0.0541 -0.4306
 6845SOL    HW132168   1.783   4.649   5.652  4.6653 -1.2101 -0.9767
 6845SOL    HW232169   1.723   0.041   5.682  0.1877  0.7994 -0.2429
 6846SOL     OW32170   3.631   1.766   4.361  0.1194 -0.4484 -0.5117
 6846SOL    HW132171   3.575   1.821   4.306  0.4283  0.9944  0.6075
 6846SOL    HW232172   3.709   1.822   4.366  1.1527 -1.9854  0.4786
 6847SOL     OW32173   2.156   4.189   4.875  0.1075  0.1839 -0.1758
 6847SOL    HW132174   2.205   4.216   4.797 -1.3200  0.7278 -0.8771
 6847SOL    HW232175   2.179   4.097   4.887  1.3649  0.3937 -0.9439
 6848SOL     OW32176   2.560   0.862   8.841 -0.2320  0.3819  0.1720
 6848SOL    HW132177   2.632   0.922   8.822 -0.6026  0.0761 -2.2270
 6848SOL    HW232178   2.603   0.786   8.879  1.2938  0.5647 -1.1956
 6849SOL     OW32179   3.240   1.259   5.068 -0.2772 -0.1883  0.6840
 6849SOL    HW132180   3.286   1.313   5.004 -0.4956  1.3327  1.8129
 6849SOL    HW232181   3.238   1.178   5.017  0.0367 -0.9727  1.9125
 6850SOL     OW32182   2.609   3.624  14.655  0.3207  0.2466  0.3489
 6850SOL    HW132183   2.617   3.550  14.595  0.3675 -0.0042  0.6619
 6850SOL    HW232184   2.526   3.663  14.628  0.9123  0.2065 -1.5188
 6851SOL     OW32185   2.405   3.263   7.922  0.4635 -0.5325 -0.2937
 6851SOL    HW132186   2.358   3.340   7.888  1.6272  0.0581 -0.5741
 6851SOL    HW232187   2.493   3.300   7.934  0.4551 -1.8819  3.9533
 6852SOL     OW32188   1.176   0.795   9.730 -0.3440  0.2084 -0.4919
 6852SOL    HW132189   1.220   0.737   9.668 -0.4645 -0.4515  0.0405
 6852SOL    HW232190   1.249   0.799   9.793 -0.8611  1.4908  0.0208
 6853SOL     OW32191   4.241   1.001   3.585  0.2130 -0.6928 -0.5904
 6853SOL    HW132192   4.296   1.007   3.507  1.6208  0.7474  0.5249
 6853SOL    HW232193   4.154   0.991   3.546 -0.4863 -0.7082  1.0002
 6854SOL     OW32194   3.485   1.318   9.798  0.0376  0.3167  0.3725
 6854SOL    HW132195   3.406   1.265   9.799  0.9906 -1.1190 -0.7929
 6854SOL    HW232196   3.554   1.252   9.792 -0.8384 -0.4719 -0.8602
 6855SOL     OW32197   1.050   4.043   2.269  0.5768 -0.7752 -0.2991
 6855SOL    HW132198   0.971   4.040   2.323 -0.9952 -0.2720 -2.5755
 6855SOL    HW232199   1.082   3.954   2.261  1.1410 -0.5911 -0.1159
 6856SOL     OW32200   0.077   1.046   3.773 -0.2361 -0.0467 -0.7857
 6856SOL    HW132201   0.070   0.984   3.700 -0.6072 -0.5910 -0.2825
 6856SOL    HW232202   0.128   0.985   3.827  0.7358  2.3500  0.9821
 6857SOL     OW32203   2.845   2.211   2.024 -0.3508 -0.3426 -0.4978
 6857SOL    HW132204   2.939   2.224   2.030 -0.0306 -3.3831  1.4737
 6857SOL    HW232205   2.831   2.248   1.937 -0.3483  1.2996  0.1998
 6858SOL     OW32206   2.818   2.796   2.974 -0.4769  0.6360  0.1972
 6858SOL    HW132207   2.747   2.750   2.929 -0.9214 -0.7686  2.3680
 6858SOL    HW232208   2.857   2.848   2.903  1.4652 -0.5355  0.3943
 6859SOL     OW32209   4.044   3.467  11.442 -0.6264  0.3354 -0.1741
 6859SOL    HW132210   3.978   3.426  11.497 -0.7649 -1.0406 -1.3673
 6859SOL    HW232211   4.013   3.555  11.420  1.8109  0.8545 -1.5896
 6860SOL     OW32212   0.629   3.359   0.222  0.3123  0.1090 -0.2558
 6860SOL    HW132213   0.571   3.304   0.274 -0.2366  1.1087  0.2089
 6860SOL    HW232214   0.703   3.307   0.254  0.8955 -0.0784 -1.9319
 6861SOL     OW32215   3.676   1.150  15.236  0.3930  0.0050 -0.2531
 6861SOL    HW132216   3.767   1.121  15.231 -0.1437 -1.4529 -1.2744
 6861SOL    HW232217   3.687   1.244  15.251 -3.2169  0.0915  1.9126
 6862SOL     OW32218   1.550   2.479   7.320 -0.6085  0.0081  0.8450
 6862SOL    HW132219   1.623   2.430   7.357 -1.5568 -2.5998 -0.7939
 6862SOL    HW232220   1.598   2.543   7.266 -0.5992 -1.8118 -1.2782
 6863SOL     OW32221   3.966   1.683   2.999 -0.2780 -0.7169  0.1440
 6863SOL    HW132222   4.043   1.705   3.052 -0.2310  0.2633 -0.3364
 6863SOL    HW232223   3.943   1.766   2.959  1.8212 -0.1933  0.0157
 6864SOL     OW32224   1.682   4.451   8.063  0.4189 -0.0575 -0.1437
 6864SOL    HW132225   1.636   4.371   8.087  2.3778 -0.8702  0.8262
 6864SOL    HW232226   1.678   4.484   8.152  4.8742 -0.6376  0.2735
 6865SOL     OW32227   0.538   1.103   5.391 -0.0771  0.0739  0.8297
 6865SOL    HW132228   0.468   1.146   5.440  0.6563  2.2512 -0.0690
 6865SOL    HW232229   0.615   1.158   5.402 -1.2690  1.7169  0.8477
 6866SOL     OW32230   4.173   1.531  12.651 -0.3140 -0.0270  0.1067
 6866SOL    HW132231   4.245   1.581  12.690  0.7879 -0.3855 -1.4579
 6866SOL    HW232232   4.215   1.497  12.571  0.1042 -1.3742  0.8870
 6867SOL     OW32233   2.598   4.104   4.784  0.1494  0.4918 -0.2332
 6867SOL    HW132234   2.589   4.032   4.847  0.3683  0.4324 -0.2714
 6867SOL    HW232235   2.548   4.077   4.706 -1.5446 -0.8563  1.3041
 6868SOL     OW32236   3.383   1.569   9.761  0.0182 -0.0740 -0.2325
 6868SOL    HW132237   3.460   1.624   9.773  0.3410 -0.6965  0.5770
 6868SOL    HW232238   3.411   1.483   9.791  0.2607 -0.0262 -0.3211
 6869SOL     OW32239   4.091   1.037   6.005  0.3149  0.4880  0.6229
 6869SOL    HW132240   4.085   1.043   6.100 -0.6503  0.1048  0.5877
 6869SOL    HW232241   4.011   0.997   5.970 -0.7207  1.6301  1.6658
 6870SOL     OW32242   1.622   3.231   2.003 -0.5543  0.2301 -0.0269
 6870SOL    HW132243   1.666   3.315   1.999  0.0362 -0.1128 -0.7862
 6870SOL    HW232244   1.536   3.244   1.963 -0.3082  0.6777 -0.4044
 6871SOL     OW32245   4.224   2.544   3.951 -0.0447 -0.3300  0.2788
 6871SOL    HW132246   4.153   2.526   4.013  1.4923 -0.8385  1.8779
 6871SOL    HW232247   4.167   2.562   3.876  0.2608 -0.7761 -0.0535
 6872SOL     OW32248   1.775   1.343   0.498  0.0597  0.5817  0.0987
 6872SOL    HW132249   1.828   1.394   0.436 -0.7867  0.3857 -0.7914
 6872SOL    HW232250   1.851   1.318   0.549  0.1859  0.7369 -0.0139
 6873SOL     OW32251   4.225   3.693   3.873  0.2331 -0.1025 -0.2240
 6873SOL    HW132252   4.207   3.647   3.791 -1.7444  2.3815 -1.2253
 6873SOL    HW232253   4.148   3.663   3.922  0.0911  0.6927  0.0533
 6874SOL     OW32254   0.333   1.243  15.730 -0.0600 -0.3887 -0.6402
 6874SOL    HW132255   0.269   1.306  15.697 -1.6889 -1.7778 -0.1451
 6874SOL    HW232256   0.406   1.301  15.754  0.0132 -0.7310 -0.0302
 6875SOL     OW32257   1.753   1.791   6.515  0.2403 -0.2390  0.6422
 6875SOL    HW132258   1.775   1.768   6.605 -0.0719 -1.3459  0.4299
 6875SOL    HW232259   1.744   1.702   6.481 -0.7708 -0.9319  2.7958
 6876SOL     OW32260   2.244   0.405   6.269  0.4120  0.4475 -0.3933
 6876SOL    HW132261   2.242   0.360   6.184 -1.0605  1.1834 -0.7652
 6876SOL    HW232262   2.300   0.344   6.316 -1.8544 -0.1138  1.6018
 6877SOL     OW32263   1.254   2.125   5.410 -0.2489  0.0666 -0.1006
 6877SOL    HW132264   1.234   2.210   5.372 -1.0736 -0.3757 -0.6696
 6877SOL    HW232265   1.297   2.070   5.345 -0.7373  0.6993 -0.9454
 6878SOL     OW32266   4.194   1.779   5.151 -0.2254 -0.2202 -0.3133
 6878SOL    HW132267   4.233   1.771   5.064  1.1790 -1.0678  0.3908
 6878SOL    HW232268   4.236   1.706   5.197  1.2195  1.7036  1.4182
 6879SOL     OW32269   3.666   3.429  15.992  0.3383 -0.4299  0.1075
 6879SOL    HW132270   3.655   3.335  15.974 -1.2828  0.0204 -1.2273
 6879SOL    HW232271   3.655   3.459  15.902 -0.1945 -1.6554 -0.2471
 6880SOL     OW32272   3.203   4.247   7.744  0.0061  0.0981  0.3205
 6880SOL    HW132273   3.170   4.179   7.803  2.2659  0.4069  1.9529
 6880SOL    HW232274   3.218   4.197   7.664 -1.9636  0.8586 -0.5216
 6881SOL     OW32275   0.392   4.112  16.018  0.4505  0.2354  0.6242
 6881SOL    HW132276   0.377   4.075  15.931  1.9097 -2.0610  1.3702
 6881SOL    HW232277   0.448   4.054  16.070 -0.2515 -0.9281  0.0729
 6882SOL     OW32278   0.830   0.004  12.156 -0.1553 -0.5852  0.1182
 6882SOL    HW132279   0.922   0.025  12.140 -0.1089 -0.2174  0.8908
 6882SOL    HW232280   0.825   0.011  12.251  0.4604  0.4326  0.0774
 6883SOL     OW32281   1.817   2.107  14.509  0.0391 -0.4459  0.0745
 6883SOL    HW132282   1.884   2.038  14.511  0.5661 -0.0056 -2.6495
 6883SOL    HW232283   1.795   2.110  14.416 -1.1764  3.9022  0.5071
 6884SOL     OW32284   1.051   4.698   7.198 -0.4485  1.1028  0.0853
 6884SOL    HW132285   0.989   4.665   7.263 -0.0979 -0.3527 -0.3043
 6884SOL    HW232286   1.052   4.615   7.150  1.0615  0.7203  0.7569
 6885SOL     OW32287   0.402   1.337   6.105  0.0878  0.3802 -0.1813
 6885SOL    HW132288   0.440   1.423   6.087  1.4783  0.4946  3.3664
 6885SOL    HW232289   0.316   1.340   6.063  0.0350 -0.7194 -0.1411
 6886SOL     OW32290   4.383   4.247   3.362  0.4660  0.2359 -0.1586
 6886SOL    HW132291   4.355   4.222   3.274  0.3942  1.0781 -0.3758
 6886SOL    HW232292   4.325   4.185   3.408  0.7832 -1.1214 -1.5864
 6887SOL     OW32293   0.825   0.792  12.496  1.0441 -0.1172 -0.2619
 6887SOL    HW132294   0.877   0.715  12.519  1.8890  0.1851 -1.1401
 6887SOL    HW232295   0.815   0.830  12.583  2.1187 -1.1509  0.3096
 6888SOL     OW32296   0.536   1.748   4.983 -0.4735  0.1025 -0.8995
 6888SOL    HW132297   0.546   1.722   5.075  1.9032 -1.6952 -1.6543
 6888SOL    HW232298   0.496   1.835   4.982 -0.8190 -0.0502  0.1207
 6889SOL     OW32299   3.468   2.275   6.714 -0.5095  0.0063  0.4688
 6889SOL    HW132300   3.397   2.340   6.713 -0.9099 -0.4106  2.9557
 6889SOL    HW232301   3.480   2.276   6.619  1.2404  1.2173  0.7068
 6890SOL     OW32302   4.287   0.511   1.663  0.2020  0.5544 -0.4221
 6890SOL    HW132303   4.237   0.471   1.734 -0.0977 -0.4005 -1.1716
 6890SOL    HW232304   4.213   0.532   1.606 -0.3308 -1.4740 -0.4846
 6891SOL     OW32305   4.165   1.246  15.034  0.1451 -0.5313 -0.1083
 6891SOL    HW132306   4.101   1.186  14.995 -0.0069 -0.3999 -0.0603
 6891SOL    HW232307   4.152   1.226  15.127 -0.4047  0.9015  0.1213
 6892SOL     OW32308   0.323   2.649   5.273  0.2591  0.2164  0.0350
 6892SOL    HW132309   0.319   2.603   5.190  2.3236 -0.4842  0.3176
 6892SOL    HW232310   0.247   2.609   5.316 -0.0462 -0.3185 -0.9979
 6893SOL     OW32311   1.065   0.952   7.742 -0.2254  0.1073 -0.2062
 6893SOL    HW132312   1.153   0.990   7.740 -1.1078  2.0209 -2.7033
 6893SOL    HW232313   1.021   1.036   7.729 -1.9277 -0.3755  2.4834
 6894SOL     OW32314   0.444   0.771   3.787 -0.2514  0.3546  0.0573
 6894SOL    HW132315   0.418   0.788   3.877 -0.3605  3.5447 -0.5575
 6894SOL    HW232316   0.378   0.821   3.737 -0.0213 -0.8586 -1.4647
 6895SOL     OW32317   2.419   3.323   4.814  0.8690 -0.3904 -0.2574
 6895SOL    HW132318   2.445   3.329   4.722  2.0876 -0.0250  0.1113
 6895SOL    HW232319   2.440   3.229   4.818  0.2426 -0.6408 -2.8056
 6896SOL     OW32320   4.344   0.499   3.944 -0.3318 -0.4860 -0.5307
 6896SOL    HW132321   4.393   0.451   3.878  1.7543  0.3020  0.4536
 6896SOL    HW232322   4.285   0.548   3.886 -0.3568  1.1785  0.8858
 6897SOL     OW32323   1.055   3.781   4.279 -0.3095  0.2446 -0.4303
 6897SOL    HW132324   1.084   3.691   4.289 -0.6769  0.0942 -0.6986
 6897SOL    HW232325   1.088   3.799   4.190  0.7311 -1.4381 -0.3800
 6898SOL     OW32326   2.157   1.565  16.819  0.2487 -0.1526  0.6269
 6898SOL    HW132327   2.155   1.553  16.724 -1.2398  0.2439  0.6019
 6898SOL    HW232328   2.245   1.603  16.821 -0.4819  1.4902  1.8738
 6899SOL     OW32329   3.470   1.994   0.953  0.2553  0.5984 -0.4337
 6899SOL    HW132330   3.484   1.906   0.988 -2.3470  0.0040 -0.8877
 6899SOL    HW232331   3.472   1.981   0.858  0.8236  0.2991 -0.3772
 6900SOL     OW32332   0.989   4.697   4.679  0.1304 -0.3015 -0.4604
 6900SOL    HW132333   1.037   4.715   4.760 -0.2516  1.9957 -0.7329
 6900SOL    HW232334   1.031   0.022   4.619  2.4015 -2.3922 -1.0855
 6901SOL     OW32335   0.089   0.733  15.669  0.4428 -0.1570 -0.0193
 6901SOL    HW132336   0.012   0.723  15.613  1.3917  2.8716 -1.9093
 6901SOL    HW232337   0.055   0.735  15.758  0.4104 -1.7836 -0.0072
 6902SOL     OW32338   1.539   0.387   2.114 -0.2228 -0.0174 -0.3676
 6902SOL    HW132339   1.633   0.372   2.127  0.0021 -0.3902 -2.3220
 6902SOL    HW232340   1.490   0.311   2.145  1.3660 -0.8657  0.0742
 6903SOL     OW32341   4.401   4.573   7.148  0.4751  0.0653  0.0514
 6903SOL    HW132342   4.402   4.555   7.242 -1.0306 -3.5081 -0.6350
 6903SOL    HW232343   4.313   4.550   7.120  0.4205 -1.1993  1.2517
 6904SOL     OW32344   2.003   0.033   7.923  0.2341  0.9145 -0.2231
 6904SOL    HW132345   1.986   0.074   7.838  0.6354 -0.4919 -0.9705
 6904SOL    HW232346   1.919   4.729   7.941  1.2603 -0.1214  2.2349
 6905SOL     OW32347   1.170   0.071   6.213 -0.2417 -0.1304  0.0831
 6905SOL    HW132348   1.137   0.081   6.302  0.8515 -2.3326  0.7446
 6905SOL    HW232349   1.127   0.148   6.176  1.2320  0.2624 -0.8211
 6906SOL     OW32350   1.339   0.408   3.340  0.4830 -0.1907 -0.1628
 6906SOL    HW132351   1.418   0.374   3.299  1.4398  0.1517  1.3965
 6906SOL    HW232352   1.313   0.345   3.408 -1.0685  3.1611  2.3259
 6907SOL     OW32353   3.155   2.980   5.390  0.7582 -0.3548 -0.1899
 6907SOL    HW132354   3.112   2.923   5.453 -0.5417  0.3762 -0.4136
 6907SOL    HW232355   3.200   3.046   5.443 -0.8638 -0.2393  1.0347
 6908SOL     OW32356   0.144   2.749  16.848 -0.3849  0.7368  0.2081
 6908SOL    HW132357   0.100   2.674  16.808 -1.1427  1.7801 -0.9217
 6908SOL    HW232358   0.193   2.708  16.919 -2.3349 -2.6475 -0.3973
 6909SOL     OW32359   1.970   4.445   7.213 -0.1738 -0.5684 -0.1815
 6909SOL    HW132360   1.879   4.416   7.222 -0.2661  0.1896  1.3957
 6909SOL    HW232361   1.956   4.539   7.200 -0.2984 -0.5065  0.4041
 6910SOL     OW32362   3.757   0.875   3.804  0.0601 -0.2143  0.4852
 6910SOL    HW132363   3.728   0.788   3.829 -3.7301  0.6367 -0.7605
 6910SOL    HW232364   3.732   0.919   3.885  1.4466  2.2573 -0.4260
 6911SOL     OW32365   1.648   4.337   0.695  0.2579 -0.4884  0.4357
 6911SOL    HW132366   1.620   4.252   0.660  0.8065 -1.5765  2.6501
 6911SOL    HW232367   1.689   4.316   0.778  1.3193 -2.7863 -0.6608
 6912SOL     OW32368   2.344   4.143   9.112 -0.1745  0.5684 -0.6961
 6912SOL    HW132369   2.296   4.226   9.116  0.2872  0.7012  2.2013
 6912SOL    HW232370   2.362   4.150   9.018  1.1350 -1.7355 -0.6107
 6913SOL     OW32371   0.586   2.426   6.371  0.2868 -0.4097  0.5077
 6913SOL    HW132372   0.602   2.332   6.364  1.3991 -0.0026 -2.2471
 6913SOL    HW232373   0.505   2.428   6.422  0.8746  1.7650  1.3866
 6914SOL     OW32374   1.725   3.595   7.147  0.3965  0.6832 -0.1303
 6914SOL    HW132375   1.676   3.587   7.229  2.2207 -0.5868  0.8143
 6914SOL    HW232376   1.683   3.525   7.097 -0.7140  0.7334  0.7454
 6915SOL     OW32377   0.108   1.538   6.233 -0.5672 -0.5550  0.7979
 6915SOL    HW132378   0.143   1.515   6.319  1.4648  0.2828  0.2007
 6915SOL    HW232379   0.053   1.612   6.259 -0.9460 -0.3195 -0.6591
 6916SOL     OW32380   3.710   2.556   3.885 -0.1576 -0.4793  0.6971
 6916SOL    HW132381   3.699   2.555   3.790 -0.1734 -1.6534  0.7117
 6916SOL    HW232382   3.736   2.647   3.901 -1.0655 -0.0230 -0.4719
 6917SOL     OW32383   4.431   2.614   5.042  0.1835 -0.2412 -0.0369
 6917SOL    HW132384   4.430   2.643   4.951 -0.0303 -1.3426 -0.3895
 6917SOL    HW232385   4.469   2.692   5.081 -1.3937  0.9001 -0.8002
 6918SOL     OW32386   4.589   3.929   5.987  0.6675 -0.1568  0.4370
 6918SOL    HW132387   4.673   3.964   5.958 -1.2903  2.9129 -1.4701
 6918SOL    HW232388   4.573   3.986   6.062 -0.7688  1.7763 -1.3169
 6919SOL     OW32389   2.596   1.705   4.774  0.3556  0.0778  0.4753
 6919SOL    HW132390   2.564   1.795   4.768  1.2650  0.2724 -1.4585
 6919SOL    HW232391   2.537   1.660   4.714  0.8095 -1.2718  1.0305
 6920SOL     OW32392   0.935   3.167   7.184  0.9497  0.1374  0.1781
 6920SOL    HW132393   0.885   3.184   7.104 -0.9657 -0.3940  1.2665
 6920SOL    HW232394   1.007   3.118   7.145  0.1951 -1.2747  0.5667
 6921SOL     OW32395   1.481   0.882  12.290  0.1821  0.1146  0.1470
 6921SOL    HW132396   1.486   0.833  12.372  1.8227 -0.5769 -0.3628
 6921SOL    HW232397   1.521   0.966  12.314 -0.7911  1.0230 -1.4709
 6922SOL     OW32398   2.403   2.136   0.212 -0.5675 -0.7027 -0.5532
 6922SOL    HW132399   2.323   2.129   0.264 -1.2748 -2.6064 -1.9178
 6922SOL    HW232400   2.463   2.157   0.284  0.4409 -0.4318 -1.4790
 6923SOL     OW32401   2.727   1.450   4.230  0.1899  0.2755  0.0732
 6923SOL    HW132402   2.729   1.388   4.303  2.4733 -0.9298 -1.0181
 6923SOL    HW232403   2.812   1.493   4.225 -0.5634  1.7943  0.4470
 6924SOL     OW32404   2.570   3.040   6.492 -0.0628 -1.1633  0.1429
 6924SOL    HW132405   2.548   3.059   6.401  0.0459  0.9084  0.5420
 6924SOL    HW232406   2.647   3.097   6.496 -1.0376  0.2429 -1.0651
 6925SOL     OW32407   4.706   4.316   2.591 -0.1637 -0.4614  0.3020
 6925SOL    HW132408   4.658   4.245   2.634 -1.2419 -0.1100 -0.3087
 6925SOL    HW232409   4.656   4.322   2.510 -1.0005  3.0141  1.0919
 6926SOL     OW32410   1.015   2.152   6.118 -0.3094  0.5854  0.2557
 6926SOL    HW132411   1.012   2.143   6.023 -2.5682  2.5244  0.1525
 6926SOL    HW232412   1.096   2.103   6.135 -1.5417 -1.4701  0.1780
 6927SOL     OW32413   4.234   0.299   2.792  0.0267 -0.2422 -0.5398
 6927SOL    HW132414   4.201   0.317   2.703 -0.3402 -0.2592 -0.4049
 6927SOL    HW232415   4.324   0.283   2.762  0.1304  0.5800 -0.6821
 6928SOL     OW32416   1.359   2.251   3.570  0.2595  0.0041 -0.3529
 6928SOL    HW132417   1.427   2.289   3.626  1.6905 -2.7974 -0.2147
 6928SOL    HW232418   1.290   2.318   3.570 -0.4209 -0.7094  2.6295
 6929SOL     OW32419   4.051   0.383  16.104  0.7787 -0.1949  0.0317
 6929SOL    HW132420   4.001   0.305  16.131  0.2104 -0.1123 -0.7766
 6929SOL    HW232421   4.142   0.352  16.107  0.4730 -1.2215 -1.2123
 6930SOL     OW32422   3.245   0.133   6.296  0.2131 -0.1068  0.4198
 6930SOL    HW132423   3.278   0.138   6.385 -1.0418  0.4317  0.8517
 6930SOL    HW232424   3.314   0.170   6.241 -1.5408  0.0243 -1.7233
 6931SOL     OW32425   2.234   3.954   3.547  0.2043  0.1468  0.7255
 6931SOL    HW132426   2.326   3.931   3.562  0.3039  0.8144  1.1688
 6931SOL    HW232427   2.216   3.900   3.469  0.0864  2.4496 -0.8533
 6932SOL     OW32428   2.671   1.031   3.614  0.0214  0.2170 -0.6056
 6932SOL    HW132429   2.720   1.096   3.663 -0.2734  0.3329 -0.4667
 6932SOL    HW232430   2.606   0.994   3.673 -0.8160 -0.2488 -1.8081
 6933SOL     OW32431   1.771   1.857  15.792 -0.0219  0.0483  0.0779
 6933SOL    HW132432   1.866   1.857  15.796 -0.0050 -1.6167 -0.4379
 6933SOL    HW232433   1.756   1.811  15.875 -1.3147  3.7121  1.8747
 6934SOL     OW32434   0.903   2.054   9.495 -0.2962  0.2543 -0.1501
 6934SOL    HW132435   0.983   2.026   9.450 -0.5595  0.7004 -0.9137
 6934SOL    HW232436   0.924   2.047   9.588  1.5942 -0.5750 -0.6364
 6935SOL     OW32437   0.325   0.342  12.887  0.1515  0.3008  0.2121
 6935SOL    HW132438   0.275   0.295  12.820 -2.2530  1.5148  1.1774
 6935SOL    HW232439   0.346   0.273  12.949 -1.4935 -0.7191 -0.3785
 6936SOL     OW32440   0.963   4.692   6.510 -0.4603 -0.1751  0.0066
 6936SOL    HW132441   0.970   4.602   6.479  3.0578  0.0457  0.1563
 6936SOL    HW232442   1.052   4.698   6.547 -0.5412 -0.7228  0.2821
 6937SOL     OW32443   3.073   0.444  14.089 -0.0071  0.3662 -0.0036
 6937SOL    HW132444   3.038   0.522  14.132 -0.6278  0.1218 -0.0758
 6937SOL    HW232445   3.096   0.478  14.003 -0.6043 -0.4464 -0.4756
 6938SOL     OW32446   1.272   4.714   4.198  0.0273  0.3667 -0.1269
 6938SOL    HW132447   1.231   4.648   4.255 -0.6845  1.2022  0.3310
 6938SOL    HW232448   1.280   0.055   4.253  0.9569  1.3061 -1.6300
 6939SOL     OW32449   1.185   0.913   0.116  0.0615 -0.1044 -0.0037
 6939SOL    HW132450   1.130   0.835   0.113 -0.3421  0.1465  1.0215
 6939SOL    HW232451   1.231   0.877   0.192 -1.3054 -1.6080  0.1196
 6940SOL     OW32452   0.763   4.629  15.243  0.3430  0.2894 -0.6341
 6940SOL    HW132453   0.775   4.567  15.171  1.1969  0.8960 -1.0187
 6940SOL    HW232454   0.708   4.576  15.301  1.1494 -0.9851 -1.0261
 6941SOL     OW32455   3.590   2.716   0.522 -0.7045  0.0507  0.2800
 6941SOL    HW132456   3.519   2.733   0.584 -0.7019 -2.3327  0.9439
 6941SOL    HW232457   3.573   2.766   0.442 -1.6151 -0.3774  0.2095
 6942SOL     OW32458   2.081   0.488   5.509 -0.3688 -0.8110  0.1028
 6942SOL    HW132459   2.130   0.530   5.439  0.5043  0.7929  1.6771
 6942SOL    HW232460   2.153   0.432   5.538  0.5966  0.4325  0.1036
 6943SOL     OW32461   0.174   3.762   7.962 -0.0733 -0.1837 -0.9494
 6943SOL    HW132462   0.217   3.686   7.923  2.5148 -0.3577  2.2864
 6943SOL    HW232463   0.083   3.731   7.963 -0.2967  0.4504 -1.1888
 6944SOL     OW32464   3.841   3.786   5.688 -0.2621  0.0844  0.4080
 6944SOL    HW132465   3.902   3.749   5.751  2.1793  2.3485 -0.6487
 6944SOL    HW232466   3.840   3.714   5.626 -1.0873 -0.7824  1.4324
 6945SOL     OW32467   4.199   1.907  17.668  0.0776  0.5509  0.0935
 6945SOL    HW132468   4.183   1.978  17.606 -1.6866  1.3928  1.4810
 6945SOL    HW232469   4.149   1.833  17.633  2.2372 -0.4515 -0.8574
 6946SOL     OW32470   3.525   3.047   9.189  0.0328  0.7279 -0.1985
 6946SOL    HW132471   3.494   3.018   9.275  1.8939  1.1569  0.6290
 6946SOL    HW232472   3.526   2.962   9.145  2.2007 -0.5481  2.2931
 6947SOL     OW32473   2.634   3.501   4.149 -0.0663 -1.2616  0.2785
 6947SOL    HW132474   2.716   3.470   4.110  0.3139  0.5279 -0.3690
 6947SOL    HW232475   2.604   3.420   4.191 -0.7992 -0.1222  1.9802
 6948SOL     OW32476   4.732   2.102   0.256 -0.5377 -0.4120  0.4560
 6948SOL    HW132477   4.648   2.130   0.292 -0.4722  0.4558 -0.0555
 6948SOL    HW232478   0.016   2.035   0.321  1.8910 -0.9422 -0.8911
 6949SOL     OW32479   2.036   1.297   0.581  0.1017  0.4876 -0.9457
 6949SOL    HW132480   2.077   1.379   0.554 -1.4052  1.5742  0.0463
 6949SOL    HW232481   2.076   1.296   0.668  2.3295  1.3765 -1.9711
 6950SOL     OW32482   2.201   0.254   7.586  0.0811 -0.5825  0.1434
 6950SOL    HW132483   2.267   0.210   7.533  0.1634 -0.9544  0.5489
 6950SOL    HW232484   2.255   0.294   7.654  1.9773 -1.4681 -0.8417
 6951SOL     OW32485   2.204   0.971   4.212 -0.4478  0.0623  0.4710
 6951SOL    HW132486   2.150   1.027   4.156  1.0865 -0.1267 -1.2193
 6951SOL    HW232487   2.237   0.907   4.149 -1.6669  0.5963 -0.7188
 6952SOL     OW32488   2.507   4.176   1.776 -0.4673  0.3321 -0.4544
 6952SOL    HW132489   2.509   4.137   1.864 -1.6885  0.6836 -0.2769
 6952SOL    HW232490   2.519   4.270   1.785 -0.0386  0.2160  0.2260
 6953SOL     OW32491   1.797   2.344   8.802  0.4743 -0.0736  0.0445
 6953SOL    HW132492   1.827   2.412   8.741 -0.7155  1.0393  0.6788
 6953SOL    HW232493   1.770   2.275   8.742  0.8227  1.5025 -1.9054
 6954SOL     OW32494   2.827   1.409  10.852 -0.3017 -0.3113 -0.5161
 6954SOL    HW132495   2.909   1.459  10.848 -0.5339  0.1217  0.1329
 6954SOL    HW232496   2.793   1.416  10.763 -1.4071 -2.4222 -0.2635
 6955SOL     OW32497   2.154   3.156  14.639 -0.3691  0.5577 -0.3384
 6955SOL    HW132498   2.224   3.105  14.598 -2.4421 -1.8886 -0.8150
 6955SOL    HW232499   2.162   3.240  14.594 -0.6621 -0.0309 -1.4877
 6956SOL     OW32500   1.077   1.401   7.813  1.1271 -0.0541 -0.4312
 6956SOL    HW132501   0.983   1.418   7.816  1.2797  0.6825  0.0910
 6956SOL    HW232502   1.076   1.335   7.743  0.8074  0.5512 -1.0042
 6957SOL     OW32503   3.336   2.309   3.957  0.0323 -0.4288 -0.0139
 6957SOL    HW132504   3.353   2.388   4.008 -0.1602 -0.8055  0.6312
 6957SOL    HW232505   3.378   2.245   4.014 -0.0297  1.2356  1.8937
 6958SOL     OW32506   1.927   3.407   6.944  0.0276 -0.4849  0.1912
 6958SOL    HW132507   1.843   3.389   6.987 -1.4539 -0.8350 -2.8753
 6958SOL    HW232508   1.991   3.366   7.003  0.2049 -3.1840 -1.8451
 6959SOL     OW32509   4.356   0.073   7.525 -0.5071  0.1734 -0.0982
 6959SOL    HW132510   4.304   4.736   7.496  0.2418 -1.0898  1.8279
 6959SOL    HW232511   4.328   0.145   7.467 -1.4957  1.5561  2.0762
 6960SOL     OW32512   0.532   4.270   9.556  0.4408 -0.2449 -0.1343
 6960SOL    HW132513   0.487   4.309   9.631 -2.7275 -0.2774 -2.0223
 6960SOL    HW232514   0.477   4.194   9.540 -0.0648  0.3675 -1.3021
 6961SOL     OW32515   2.087   2.540  12.826  0.3129 -0.2474  0.8937
 6961SOL    HW132516   1.997   2.559  12.853 -0.4592 -0.0808 -1.7962
 6961SOL    HW232517   2.121   2.629  12.836  2.1117 -1.0604  1.9118
 6962SOL     OW32518   3.195   4.073  10.634  0.3324 -0.3961  0.3012
 6962SOL    HW132519   3.286   4.100  10.626 -0.1820  0.7469 -1.6140
 6962SOL    HW232520   3.150   4.153  10.659  1.2216  0.1893  0.0060
 6963SOL     OW32521   0.400   3.210   6.759  0.0672  0.4031 -0.5751
 6963SOL    HW132522   0.424   3.302   6.773  3.2457 -0.3900 -0.7934
 6963SOL    HW232523   0.312   3.203   6.796  0.1332 -1.2538 -0.7319
 6964SOL     OW32524   0.354   1.854   6.116  0.3288 -0.4100 -0.4511
 6964SOL    HW132525   0.325   1.916   6.049  0.2932  0.4244  0.3413
 6964SOL    HW232526   0.444   1.849   6.085  0.6558  0.7618  0.3032
 6965SOL     OW32527   1.856   3.603   5.543 -0.1405  0.0068  0.3453
 6965SOL    HW132528   1.912   3.602   5.465 -0.5309 -3.8534  0.1222
 6965SOL    HW232529   1.814   3.688   5.539  0.1417  0.2513  2.6704
 6966SOL     OW32530   2.759   1.475   7.986 -0.0585  0.6192 -0.0551
 6966SOL    HW132531   2.713   1.398   7.952 -1.1805  1.6267 -0.8061
 6966SOL    HW232532   2.759   1.520   7.902  1.2076  0.4654 -0.1528
 6967SOL     OW32533   0.889   0.592   2.884  0.0590  0.0134  0.2697
 6967SOL    HW132534   0.831   0.653   2.930 -1.8263 -0.6614 -1.2139
 6967SOL    HW232535   0.885   0.510   2.933  2.1418 -0.5315 -0.4723
 6968SOL     OW32536   1.849   3.129   6.466 -0.6732 -0.1763 -0.1298
 6968SOL    HW132537   1.910   3.195   6.433 -0.7196 -0.9814 -1.8160
 6968SOL    HW232538   1.773   3.145   6.411 -1.9694 -0.6389  1.5527
 6969SOL     OW32539   2.621   1.896   9.103 -0.1197 -0.0966  0.5927
 6969SOL    HW132540   2.625   1.831   9.033 -0.6096 -1.7777  2.1381
 6969SOL    HW232541   2.682   1.962   9.067  0.3360 -1.3299 -0.8771
 6970SOL     OW32542   3.426   0.028   1.451  0.9637  0.9087  0.2164
 6970SOL    HW132543   3.492   4.708   1.412  1.8469 -0.7319  4.2220
 6970SOL    HW232544   3.400   4.731   1.536  0.8081 -2.0958 -1.0280
 6971SOL     OW32545   4.643   0.288   8.001 -0.3300  0.8006  0.2631
 6971SOL    HW132546   4.558   0.244   8.006  0.2712 -0.4433 -0.2862
 6971SOL    HW232547   4.617   0.372   8.039  0.6446  1.1028  0.2499
 6972SOL     OW32548   0.917   1.979  10.260  0.3813  0.5586 -0.0813
 6972SOL    HW132549   0.989   1.922  10.232  0.6751  0.9272 -0.0697
 6972SOL    HW232550   0.868   1.924  10.321 -0.5588 -1.3910 -2.6021
 6973SOL     OW32551   2.167   2.555   8.858  0.4249 -0.3973  0.2977
 6973SOL    HW132552   2.178   2.569   8.764 -0.4005  2.5260  0.6506
 6973SOL    HW232553   2.130   2.466   8.858 -1.4659  0.3739 -0.1602
 6974SOL     OW32554   0.669   4.551   7.979 -0.4123  0.3159  0.1752
 6974SOL    HW132555   0.590   4.499   7.993  1.1742 -1.9936  0.4088
 6974SOL    HW232556   0.654   4.635   8.023 -0.6840 -0.2414  1.1397
 6975SOL     OW32557   2.831   3.121  16.661 -0.6194  0.0707 -0.1221
 6975SOL    HW132558   2.759   3.177  16.633  0.8715  1.1840 -1.7572
 6975SOL    HW232559   2.869   3.109  16.574  0.3770  1.2745  0.1414
 6976SOL     OW32560   3.523   4.569  16.867  0.3358  0.1807  0.6257
 6976SOL    HW132561   3.437   4.528  16.862  0.7606 -0.5187 -1.2413
 6976SOL    HW232562   3.575   4.504  16.819 -0.4261 -0.4037  0.5886
 6977SOL     OW32563   1.828   1.344   3.950  0.3426  0.4811  0.2950
 6977SOL    HW132564   1.854   1.286   3.879 -0.9185 -0.5547  0.6821
 6977SOL    HW232565   1.761   1.384   3.895  0.6120  2.0734  1.0977
 6978SOL     OW32566   1.730   3.267   3.890  0.0757 -0.6340  0.3017
 6978SOL    HW132567   1.806   3.269   3.832  0.3145 -0.9929  0.6046
 6978SOL    HW232568   1.766   3.268   3.979  0.9497  2.8383 -0.0895
 6979SOL     OW32569   0.688   3.032   8.021 -0.3293  0.0744 -0.1626
 6979SOL    HW132570   0.728   3.094   7.959 -0.0348 -0.6844 -0.7434
 6979SOL    HW232571   0.770   2.987   8.041 -1.0458 -0.7101  0.9995
 6980SOL     OW32572   1.767   4.450   2.413  0.1953  0.3131  0.4367
 6980SOL    HW132573   1.785   4.541   2.387 -0.9057  0.1714 -0.7980
 6980SOL    HW232574   1.703   4.424   2.347 -1.5479  1.0181  1.8581
 6981SOL     OW32575   4.638   0.568   3.648  0.5038 -0.2736  0.8331
 6981SOL    HW132576   4.611   0.657   3.671  0.7212 -0.0244  0.1267
 6981SOL    HW232577   4.592   0.565   3.565  3.2188  1.8875 -0.7766
 6982SOL     OW32578   4.651   2.164   4.819 -0.2375 -0.0913  0.0588
 6982SOL    HW132579   4.633   2.073   4.842 -1.2634  0.1782  0.3308
 6982SOL    HW232580   4.736   2.181   4.859 -0.5575 -1.5970  1.3532
 6983SOL     OW32581   3.906   3.290  13.478  0.5937 -0.2640  0.6928
 6983SOL    HW132582   3.879   3.280  13.569  2.3329  1.3062  1.3718
 6983SOL    HW232583   3.928   3.200  13.455 -2.3661 -0.9795  0.6525
 6984SOL     OW32584   3.252   3.609   6.780 -0.4279  0.1820 -0.1636
 6984SOL    HW132585   3.224   3.576   6.865 -0.5335  1.8030  0.4230
 6984SOL    HW232586   3.176   3.620   6.722  2.0195  2.8641 -2.8277
 6985SOL     OW32587   4.181   1.140   9.511  0.3075 -0.1786 -0.1395
 6985SOL    HW132588   4.200   1.158   9.603 -0.6953 -1.8604  0.3898
 6985SOL    HW232589   4.234   1.209   9.470 -1.3244  1.3352  0.3040
 6986SOL     OW32590   0.735   0.180   7.762  0.2943  0.1450  0.0292
 6986SOL    HW132591   0.694   0.192   7.847  0.2780  1.9763 -0.2230
 6986SOL    HW232592   0.662   0.201   7.704  0.5168 -1.1377 -0.7047
 6987SOL     OW32593   3.730   3.375   2.811 -0.6053  0.6893  0.0735
 6987SOL    HW132594   3.813   3.357   2.767 -0.9599  2.1145 -1.1538
 6987SOL    HW232595   3.700   3.449   2.759 -2.2685 -0.0014  0.0734
 6988SOL     OW32596   0.483   3.055  12.418  0.0913 -0.5622 -0.1759
 6988SOL    HW132597   0.452   3.056  12.327  1.2808  0.0717 -0.5718
 6988SOL    HW232598   0.498   2.962  12.432  2.2465  0.1023  1.9314
 6989SOL     OW32599   2.617   0.313  15.337 -0.2969  0.8812  0.3293
 6989SOL    HW132600   2.643   0.228  15.371 -0.9070  0.6734  0.2756
 6989SOL    HW232601   2.540   0.328  15.392 -0.5676  1.7703 -0.2915
 6990SOL     OW32602   0.068   4.627  13.365  0.3446 -0.0000  0.4289
 6990SOL    HW132603   0.100   4.614  13.276 -0.5644  0.8296 -0.0278
 6990SOL    HW232604   4.716   4.593  13.362 -1.2199  4.3041 -1.7060
 6991SOL     OW32605   1.504   4.229   4.547 -0.3759 -0.6522  0.8494
 6991SOL    HW132606   1.551   4.169   4.491 -2.5513 -2.5896  1.1036
 6991SOL    HW232607   1.564   4.303   4.543 -0.4808 -0.5382  1.3054
 6992SOL     OW32608   3.765   1.469   6.097 -0.6436 -0.0085  0.3146
 6992SOL    HW132609   3.745   1.383   6.135  1.2525 -0.1802  0.9314
 6992SOL    HW232610   3.808   1.517   6.167 -1.1051  1.6023 -0.5158
 6993SOL     OW32611   1.880   3.689  10.914 -0.0096 -0.2407 -0.0201
 6993SOL    HW132612   1.885   3.768  10.967  0.0186 -0.1268 -0.1939
 6993SOL    HW232613   1.910   3.627  10.981  0.6934  1.9242  1.6849
 6994SOL     OW32614   0.719   0.368   9.142 -0.1218 -0.2389 -0.0776
 6994SOL    HW132615   0.709   0.357   9.047  1.1270 -2.0028  0.0105
 6994SOL    HW232616   0.630   0.402   9.154  0.9525  3.6575 -3.0682
 6995SOL     OW32617   2.847   1.060   7.705 -0.1391 -0.3087 -0.1419
 6995SOL    HW132618   2.902   1.068   7.626  0.7910 -0.9066  0.4467
 6995SOL    HW232619   2.869   0.970   7.727  0.3643 -0.6445 -1.9659
 6996SOL     OW32620   2.398   3.695  12.911  0.1235 -1.0471  0.2375
 6996SOL    HW132621   2.385   3.636  12.985 -3.8998  0.3399  0.6561
 6996SOL    HW232622   2.384   3.772  12.966 -0.6486  0.1744 -1.6343
 6997SOL     OW32623   0.982   0.147  10.547  0.1663 -0.2189  0.0549
 6997SOL    HW132624   0.918   0.185  10.487  1.6953  2.0966 -0.1298
 6997SOL    HW232625   1.065   0.166  10.503 -0.3809  1.7736 -0.0906
 6998SOL     OW32626   4.358   0.757  11.547 -0.5481 -0.1635  0.4084
 6998SOL    HW132627   4.433   0.724  11.498 -0.8985 -0.7674  0.2843
 6998SOL    HW232628   4.347   0.844  11.510  2.0641 -0.6842 -1.5859
 6999SOL     OW32629   1.989   1.978   4.115 -0.5181  0.4146 -0.2247
 6999SOL    HW132630   1.942   2.043   4.064 -0.5312  0.9075  0.4193
 6999SOL    HW232631   1.934   1.973   4.192 -2.0684 -2.7474 -1.5346
 7000SOL     OW32632   1.267   1.512  15.227 -0.4342 -0.2200 -0.5882
 7000SOL    HW132633   1.335   1.458  15.187  0.6866  1.2023 -0.6298
 7000SOL    HW232634   1.320   1.547  15.299  1.7519 -1.4686 -1.5830
 7001SOL     OW32635   0.328   0.275   9.776  0.1830 -0.4650 -0.4875
 7001SOL    HW132636   0.295   0.360   9.748 -0.8030 -0.0818  1.8093
 7001SOL    HW232637   0.336   0.287   9.871  0.4919 -0.7561 -0.4769
 7002SOL     OW32638   2.215   4.697   4.950 -0.9410 -0.0506 -0.1469
 7002SOL    HW132639   2.198   0.035   4.894 -0.0477 -0.1727 -0.5839
 7002SOL    HW232640   2.307   4.680   4.931 -0.8003  1.3024 -0.6795
 7003SOL     OW32641   2.561   2.945   0.890  0.3512 -0.7037 -0.6648
 7003SOL    HW132642   2.523   2.995   0.962  2.8435  0.5603 -0.2231
 7003SOL    HW232643   2.532   2.855   0.905  1.1521 -0.6836  1.0090
 7004SOL     OW32644   2.967   0.811   9.030  0.3381  0.0570 -0.8797
 7004SOL    HW132645   3.034   0.871   8.997  0.1195  0.6453 -0.2521
 7004SOL    HW232646   2.969   0.739   8.967  0.2736  0.0475 -0.8713
 7005SOL     OW32647   3.291   2.662   0.283  0.3573 -0.2198  0.8996
 7005SOL    HW132648   3.247   2.579   0.300  0.5765 -0.2998  1.0613
 7005SOL    HW232649   3.254   2.691   0.199  2.2948 -0.0851  0.1001
 7006SOL     OW32650   1.232   1.150  16.673  0.2591 -0.1315 -0.3660
 7006SOL    HW132651   1.309   1.204  16.693  0.3095 -0.6333  0.7833
 7006SOL    HW232652   1.222   1.152  16.578 -0.5003 -0.3347 -0.2898
 7007SOL     OW32653   1.850   4.627  14.204  0.5710  0.1714  0.1371
 7007SOL    HW132654   1.850   4.593  14.293 -0.0913 -0.8859 -0.2769
 7007SOL    HW232655   1.763   4.604  14.172  0.8902 -0.2871 -0.4094
 7008SOL     OW32656   3.052   3.611  12.214 -0.4167  0.4012  0.4726
 7008SOL    HW132657   3.006   3.543  12.263  2.5467 -1.1361  1.1042
 7008SOL    HW232658   3.038   3.569  12.130  0.5346  4.2336 -1.6282
 7009SOL     OW32659   1.216   1.145  17.683 -0.1231  0.5028 -0.0064
 7009SOL    HW132660   1.223   1.051  17.701 -0.4883  0.3379 -0.6898
 7009SOL    HW232661   1.195   1.178   0.022 -1.6947 -0.1304 -0.1385
 7010SOL     OW32662   0.811   1.253   9.298  0.3828 -0.0908 -0.1847
 7010SOL    HW132663   0.887   1.298   9.262 -0.2902  1.0180 -0.2335
 7010SOL    HW232664   0.822   1.262   9.393 -3.6714  2.9890  0.0288
 7011SOL     OW32665   2.187   1.335  12.644  0.9270  0.1242  0.5407
 7011SOL    HW132666   2.198   1.240  12.646 -0.5715  0.0433  3.8774
 7011SOL    HW232667   2.245   1.362  12.715  0.7687 -1.1550  1.1538
 7012SOL     OW32668   4.285   2.117   6.491  0.3065  0.1893  0.1691
 7012SOL    HW132669   4.347   2.119   6.564  0.5212  1.2896 -0.0330
 7012SOL    HW232670   4.337   2.158   6.422 -0.7532  1.4007  0.0746
 7013SOL     OW32671   2.477   0.936   9.130  0.1829  0.7560  0.0365
 7013SOL    HW132672   2.566   0.968   9.118  0.1586  0.7968 -0.0287
 7013SOL    HW232673   2.486   0.841   9.117  1.5613  0.5747  2.2345
 7014SOL     OW32674   0.233   0.500   6.019  0.0506 -0.2207 -0.5900
 7014SOL    HW132675   0.304   0.563   6.007 -0.1660  0.0853 -0.2708
 7014SOL    HW232676   0.245   0.435   5.950 -1.1410 -1.3570  0.2673
 7015SOL     OW32677   3.741   2.064   8.826 -0.3535 -0.0119  0.3039
 7015SOL    HW132678   3.754   1.970   8.813 -2.2229 -0.2601  0.1565
 7015SOL    HW232679   3.668   2.077   8.886 -1.6509 -0.1955 -1.2314
 7016SOL     OW32680   4.553   1.871   9.834  0.0558 -0.3036  0.0149
 7016SOL    HW132681   4.554   1.844   9.926  0.9765 -0.6045 -0.0813
 7016SOL    HW232682   4.646   1.896   9.830  0.2031 -0.2439  3.9408
 7017SOL     OW32683   2.457   0.271  16.198 -0.2737  0.2338  0.5542
 7017SOL    HW132684   2.412   0.246  16.279 -3.1441 -1.5759 -1.6346
 7017SOL    HW232685   2.450   0.367  16.201 -0.3626  0.2121  1.1272
 7018SOL     OW32686   0.666   1.218   8.615 -0.4191  0.2599 -0.1234
 7018SOL    HW132687   0.734   1.151   8.611 -0.7226 -0.2812  3.2615
 7018SOL    HW232688   0.636   1.213   8.706 -3.6583  0.5887 -1.1829
 7019SOL     OW32689   1.670   3.968   7.844 -0.2069  0.1246  0.2191
 7019SOL    HW132690   1.713   4.031   7.785  0.9405  0.1694  1.0952
 7019SOL    HW232691   1.694   4.021   7.920  1.6382  0.9664 -0.9391
 7020SOL     OW32692   2.772   3.165   4.991 -0.2467  0.1790 -0.3075
 7020SOL    HW132693   2.840   3.104   4.963 -0.3366 -0.0433 -0.0440
 7020SOL    HW232694   2.827   3.218   5.048 -1.2766 -1.7590  2.4955
 7021SOL     OW32695   3.608   1.436   6.568 -0.1089 -0.4865 -0.7368
 7021SOL    HW132696   3.515   1.415   6.556 -1.0265  3.0332 -0.1004
 7021SOL    HW232697   3.635   1.376   6.637  1.8000 -0.9410 -1.8992
 7022SOL     OW32698   2.961   0.394   4.558 -0.5357 -0.2985  0.0091
 7022SOL    HW132699   2.923   0.392   4.646  0.9657 -1.7369  0.6044
 7022SOL    HW232700   3.018   0.471   4.563 -0.9129 -0.0126 -0.0520
 7023SOL     OW32701   2.591   0.398   4.326 -0.3410 -0.3460 -0.4187
 7023SOL    HW132702   2.647   0.471   4.353 -0.8649  0.1975 -0.7769
 7023SOL    HW232703   2.509   0.448   4.326 -0.2664 -0.2226 -0.1935
 7024SOL     OW32704   2.095   3.677   3.586  0.3504 -0.1942 -0.3483
 7024SOL    HW132705   2.165   3.742   3.584 -0.5531  0.6213 -4.1616
 7024SOL    HW232706   2.105   3.651   3.678 -0.8927 -0.2661 -0.2402
 7025SOL     OW32707   3.909   3.065   2.593  0.0884 -0.0968  0.2659
 7025SOL    HW132708   3.864   3.036   2.513 -2.3315 -0.6981  1.8685
 7025SOL    HW232709   3.984   3.005   2.590 -0.4718 -0.7859 -0.0028
 7026SOL     OW32710   0.118   4.701   8.180  0.1843  0.5606  0.4643
 7026SOL    HW132711   0.105   0.001   8.093 -0.1813  1.5755  0.9596
 7026SOL    HW232712   0.203   4.658   8.179  0.7639  1.6554  2.7896
 7027SOL     OW32713   4.134   2.025   7.796  0.8551  0.0253  0.0713
 7027SOL    HW132714   4.117   1.961   7.728  1.1698  0.8833 -0.8149
 7027SOL    HW232715   4.226   2.045   7.781  1.1984 -0.8692  1.0287
 7028SOL     OW32716   3.959   1.839   1.045  0.0836  0.2375  0.0308
 7028SOL    HW132717   3.906   1.909   1.082  0.7330  0.1767  1.0803
 7028SOL    HW232718   3.889   1.790   1.001  0.4646  0.0363 -0.3371
 7029SOL     OW32719   3.444   3.063   3.977  0.4248  0.2110 -0.1175
 7029SOL    HW132720   3.365   3.115   3.960  1.1638  1.2720 -0.2799
 7029SOL    HW232721   3.444   2.997   3.908 -1.1176 -1.8755  1.8489
 7030SOL     OW32722   3.256   1.000   3.942  0.1089  0.1176  0.6050
 7030SOL    HW132723   3.250   0.950   3.861 -1.3699 -0.8940  1.3371
 7030SOL    HW232724   3.308   1.063   3.893  0.3194  1.6752  2.8091
 7031SOL     OW32725   0.309   3.043   5.881  0.3147 -0.1367 -0.2526
 7031SOL    HW132726   0.287   3.074   5.969 -0.7137  0.5080 -0.7416
 7031SOL    HW232727   0.379   2.980   5.900  0.7778  0.1250 -1.0897
 7032SOL     OW32728   0.631   1.405   0.502 -0.3703  0.5212 -0.0821
 7032SOL    HW132729   0.655   1.498   0.494  1.6772  0.0062  0.1686
 7032SOL    HW232730   0.543   1.418   0.538 -0.2119  1.6760 -0.1170
 7033SOL     OW32731   4.062   0.409  15.013 -0.0135  0.2855  0.0525
 7033SOL    HW132732   4.140   0.379  14.967 -0.7732  0.1494 -1.1765
 7033SOL    HW232733   4.002   0.363  14.954 -1.0227  0.7174  0.7472
 7034SOL     OW32734   0.708   0.005  13.280  1.0655 -0.3218 -0.4619
 7034SOL    HW132735   0.711   4.709  13.369 -1.3846  0.8320  0.0579
 7034SOL    HW232736   0.741   4.667  13.232  0.1238 -1.3406  0.4950
 7035SOL     OW32737   1.479   4.627  11.525 -0.5213  0.0785  0.6884
 7035SOL    HW132738   1.444   4.634  11.613  1.2958  0.4488  1.3664
 7035SOL    HW232739   1.424   4.555  11.494 -0.5249  0.1383  0.5546
 7036SOL     OW32740   3.844   0.125   7.030 -0.0234  0.0482 -0.1790
 7036SOL    HW132741   3.868   0.190   7.096 -0.8095  3.1110 -2.9266
 7036SOL    HW232742   3.758   0.159   7.007 -0.2607  0.9575  2.0341
 7037SOL     OW32743   1.109   3.941   9.914 -0.6536  0.1757 -0.7747
 7037SOL    HW132744   1.061   3.901   9.986 -0.5782 -0.9382 -1.3525
 7037SOL    HW232745   1.196   3.908   9.939 -1.6757 -0.9623  1.2899
 7038SOL     OW32746   0.782   3.906  12.443 -0.3545 -0.3358  0.3651
 7038SOL    HW132747   0.836   3.896  12.520 -1.3208 -1.9104  0.8493
 7038SOL    HW232748   0.834   3.844  12.391  0.7017 -0.4015  1.5241
 7039SOL     OW32749   1.437   2.239  15.357 -0.3958 -0.1986  0.8617
 7039SOL    HW132750   1.512   2.246  15.298 -1.3002  1.4929 -0.0951
 7039SOL    HW232751   1.423   2.144  15.351 -2.3050  0.0512  1.5308
 7040SOL     OW32752   3.922   0.483   6.116  0.6582 -0.5911 -0.7628
 7040SOL    HW132753   3.953   0.396   6.089  1.8706 -0.2748 -0.3902
 7040SOL    HW232754   3.848   0.458   6.172  1.4366  0.9511  0.9632
 7041SOL     OW32755   3.069   0.676   0.210 -0.1398 -0.0923  0.1522
 7041SOL    HW132756   3.143   0.683   0.149  0.2459 -2.3192  0.3833
 7041SOL    HW232757   3.053   0.768   0.230  2.2299  0.2164  0.6662
 7042SOL     OW32758   1.465   0.070   6.535  0.6391 -0.7910 -0.2581
 7042SOL    HW132759   1.506   0.024   6.461  1.3342  0.3052 -0.5607
 7042SOL    HW232760   1.509   0.033   6.612 -1.4026 -0.1090  1.2155
 7043SOL     OW32761   0.108   1.516   3.973  0.1497 -0.2976 -0.1561
 7043SOL    HW132762   0.158   1.450   4.020  0.6876 -0.1004 -0.4435
 7043SOL    HW232763   0.103   1.484   3.883 -0.3598 -0.9474  0.1032
 7044SOL     OW32764   4.345   1.570   2.100  0.0861  0.2452 -0.0467
 7044SOL    HW132765   4.436   1.586   2.124  0.1281  0.2336 -0.1962
 7044SOL    HW232766   4.308   1.526   2.176 -0.7018  1.9490  0.5479
 7045SOL     OW32767   3.173   2.889   3.801 -0.3693  0.0171  0.1314
 7045SOL    HW132768   3.186   2.820   3.865  0.7213 -0.3674 -0.4978
 7045SOL    HW232769   3.085   2.907   3.835 -0.3898 -0.3172  0.2545
 7046SOL     OW32770   2.426   0.133  13.949  0.1421 -0.2569  0.1718
 7046SOL    HW132771   2.519   0.140  13.972 -0.2927  1.3610  1.4293
 7046SOL    HW232772   2.423   0.207  13.888 -1.6377  0.0862  0.6929
 7047SOL     OW32773   3.917   0.623  14.847 -0.1170  0.0902 -0.3191
 7047SOL    HW132774   3.894   0.549  14.903  1.2269  0.0435  0.1847
 7047SOL    HW232775   3.863   0.596  14.773 -1.3126  1.3546  0.0965
 7048SOL     OW32776   0.232   2.337   8.815 -0.0451  0.7118  0.2346
 7048SOL    HW132777   0.247   2.431   8.802 -0.0182  0.5058 -1.2148
 7048SOL    HW232778   0.248   2.326   8.909 -1.6910  0.3055  0.4790
 7049SOL     OW32779   3.939   2.625  12.210 -0.0053  0.1496 -0.1570
 7049SOL    HW132780   3.936   2.708  12.259  2.7079  0.3002 -0.2687
 7049SOL    HW232781   4.019   2.587  12.245 -0.7981 -1.6719 -0.3446
 7050SOL     OW32782   4.155   1.941   7.321 -0.1056 -0.1629  0.1764
 7050SOL    HW132783   4.230   1.916   7.267 -0.1430  1.8593 -0.8075
 7050SOL    HW232784   4.113   2.021   7.287 -1.0077  0.1051  1.9143
 7051SOL     OW32785   2.930   1.123  10.883  0.6981 -0.1237  0.4457
 7051SOL    HW132786   2.883   1.204  10.864  0.0595 -0.6407 -0.1706
 7051SOL    HW232787   2.984   1.111  10.805 -1.3908 -1.2728 -0.8353
 7052SOL     OW32788   4.404   4.102  13.929 -0.0474 -0.1702 -0.6486
 7052SOL    HW132789   4.454   4.147  13.861 -1.8955  0.0930 -1.8483
 7052SOL    HW232790   4.423   4.009  13.921 -1.3117 -0.2026 -3.3237
 7053SOL     OW32791   1.602   4.708   4.731 -0.3155  0.5440 -0.0831
 7053SOL    HW132792   1.645   4.637   4.779  1.6533  1.5723 -0.3539
 7053SOL    HW232793   1.662   4.707   4.657 -0.9808  0.9561 -0.6299
 7054SOL     OW32794   2.829   3.446   8.137 -0.2397  0.2415  0.4134
 7054SOL    HW132795   2.841   3.479   8.048 -1.2839  2.3878  1.0863
 7054SOL    HW232796   2.840   3.526   8.188 -1.3345 -0.8560  2.3860
 7055SOL     OW32797   0.236   3.928   3.764  0.1242 -0.1434 -0.2146
 7055SOL    HW132798   0.212   3.965   3.849  1.8783  0.7815 -0.1137
 7055SOL    HW232799   0.150   3.891   3.742 -0.4180 -0.1904  1.9904
 7056SOL     OW32800   4.178   0.474   8.851  0.2989 -0.1615  0.0492
 7056SOL    HW132801   4.162   0.445   8.761 -2.3715  1.5950 -0.0231
 7056SOL    HW232802   4.193   0.389   8.892  0.5298  0.1759  0.6661
 7057SOL     OW32803   1.583   3.950   6.547 -0.3824 -0.0692 -0.1441
 7057SOL    HW132804   1.487   3.959   6.543 -0.3240 -0.1215 -1.6500
 7057SOL    HW232805   1.607   4.042   6.555 -0.9399 -0.0454  1.2980
 7058SOL     OW32806   3.038   1.749  11.381  0.0248  0.2229  0.1739
 7058SOL    HW132807   3.003   1.810  11.316  0.1182  0.2173  0.1184
 7058SOL    HW232808   2.977   1.756  11.454 -0.9899  0.7252 -0.7265
 7059SOL     OW32809   3.658   1.283   8.200  0.6462  0.3667  0.9269
 7059SOL    HW132810   3.651   1.227   8.277 -1.2799  1.4282  1.5528
 7059SOL    HW232811   3.646   1.217   8.132  4.4810  0.9761 -0.3488
 7060SOL     OW32812   3.215   0.472   5.494  0.3747  0.0548  0.1956
 7060SOL    HW132813   3.165   0.456   5.575 -0.8215  1.2378 -0.2960
 7060SOL    HW232814   3.303   0.495   5.523  0.2651  2.2072 -1.1826
 7061SOL     OW32815   1.162   0.998   3.187 -0.0499 -0.0809  0.8657
 7061SOL    HW132816   1.150   0.972   3.278 -1.9681 -0.2239  0.5769
 7061SOL    HW232817   1.078   1.044   3.175  0.2907  0.0406 -1.0378
 7062SOL     OW32818   3.927   3.163   3.451 -0.2454  0.1817  0.2312
 7062SOL    HW132819   3.954   3.075   3.424 -0.8293  0.8928 -2.7183
 7062SOL    HW232820   4.011   3.208   3.443  0.2316 -1.1082 -2.1457
 7063SOL     OW32821   2.347   3.483   6.286 -0.7527 -0.3213  0.1606
 7063SOL    HW132822   2.362   3.452   6.375 -0.1426 -0.1024  0.1382
 7063SOL    HW232823   2.255   3.463   6.270 -1.5923  1.8760  2.3050
 7064SOL     OW32824   1.080   3.476  13.024  0.1471 -0.0998 -0.3275
 7064SOL    HW132825   1.086   3.408  13.090 -1.8958 -0.3277 -0.3544
 7064SOL    HW232826   1.172   3.499  13.010 -0.1386  0.7861 -0.7884
 7065SOL     OW32827   2.041   2.995   3.696  0.3654  0.1551  0.3017
 7065SOL    HW132828   2.032   2.963   3.606  0.9024 -1.3345  0.7678
 7065SOL    HW232829   1.956   2.973   3.733 -0.0809 -1.7424 -1.8774
 7066SOL     OW32830   3.805   1.698   2.771 -0.2909  0.8446 -0.2876
 7066SOL    HW132831   3.764   1.651   2.698 -0.8885 -0.3536  0.8105
 7066SOL    HW232832   3.871   1.630   2.787 -0.4628  0.3555 -1.6560
 7067SOL     OW32833   3.632   4.255   8.099 -0.1142  0.8988  0.6355
 7067SOL    HW132834   3.622   4.179   8.157  0.2364 -0.4990 -1.1506
 7067SOL    HW232835   3.601   4.222   8.015 -0.0169 -1.1150  1.4035
 7068SOL     OW32836   2.142   0.069   6.718  0.5772  0.0507  0.2230
 7068SOL    HW132837   2.226   0.096   6.682  1.3442 -0.1538  1.8920
 7068SOL    HW232838   2.114   0.143   6.772 -1.2041 -1.0401  0.8106
 7069SOL     OW32839   3.995   0.741   2.189 -0.1763 -0.5219 -0.4790
 7069SOL    HW132840   4.037   0.706   2.110  3.3093  0.9388  0.7122
 7069SOL    HW232841   3.991   0.667   2.249  1.4401  1.2594  1.8310
 7070SOL     OW32842   4.238   2.383   6.252 -0.1398  0.2209  0.1905
 7070SOL    HW132843   4.168   2.319   6.238 -0.4153  0.9494 -1.7928
 7070SOL    HW232844   4.289   2.376   6.172 -0.0944 -1.1842  0.3504
 7071SOL     OW32845   0.225   4.345   7.067 -0.8040 -0.3050 -0.3058
 7071SOL    HW132846   0.304   4.334   7.013 -0.5651  1.4944 -0.3476
 7071SOL    HW232847   0.256   4.293   7.141 -0.3641  0.6114  0.1520
 7072SOL     OW32848   1.377   1.061   8.824 -0.1333 -0.0766  0.7740
 7072SOL    HW132849   1.293   1.016   8.815 -0.2106  0.0243  0.9835
 7072SOL    HW232850   1.433   0.984   8.821 -1.0097 -0.6974  0.3361
 7073SOL     OW32851   1.511   1.752   5.841  0.2884 -0.0270 -0.3556
 7073SOL    HW132852   1.491   1.683   5.905 -2.3509  0.5545 -0.5584
 7073SOL    HW232853   1.421   1.771   5.815  0.1572 -0.3272 -0.1287
 7074SOL     OW32854   4.710   3.357   7.542  0.0818 -0.2689 -0.0764
 7074SOL    HW132855   0.008   3.358   7.453  2.4369  2.3281  0.8788
 7074SOL    HW232856   0.047   3.345   7.600  0.1156 -1.8618 -0.4497
 7075SOL     OW32857   1.021   4.376  11.427 -0.3602 -0.5080  0.3935
 7075SOL    HW132858   0.992   4.389  11.517  2.2122 -0.7693  1.2636
 7075SOL    HW232859   0.962   4.438  11.384  3.2568  1.5457 -1.6157
 7076SOL     OW32860   0.450   1.467   2.649 -0.0565 -0.3185  0.5726
 7076SOL    HW132861   0.509   1.392   2.649 -0.5865 -0.7396 -0.4160
 7076SOL    HW232862   0.435   1.486   2.742  2.0513 -0.5553  0.9633
 7077SOL     OW32863   1.080   3.921   7.477 -0.3510 -0.6981 -0.1319
 7077SOL    HW132864   1.102   3.976   7.552 -1.3032 -0.2820 -0.1635
 7077SOL    HW232865   1.086   3.833   7.514 -0.2418 -0.8966 -0.6172
 7078SOL     OW32866   2.213   0.521  12.254  0.4577 -0.0540  0.0195
 7078SOL    HW132867   2.253   0.545  12.171  1.0631 -2.1960 -0.3294
 7078SOL    HW232868   2.149   0.591  12.263  0.4502 -0.1792  0.9445
 7079SOL     OW32869   4.281   2.260   2.068  0.0486 -0.6224 -0.0479
 7079SOL    HW132870   4.220   2.235   1.999  0.9999  0.3919 -1.2536
 7079SOL    HW232871   4.295   2.182   2.122  0.2799  1.0954  2.3819
 7080SOL     OW32872   0.119   2.477  16.777  0.6514 -0.1021  0.0455
 7080SOL    HW132873   0.136   2.383  16.769 -0.2276 -0.3866  1.5807
 7080SOL    HW232874   0.137   2.495  16.684 -0.1385 -0.1558 -0.1138
 7081SOL     OW32875   1.325   2.374   4.144  0.3915 -0.2391  0.0724
 7081SOL    HW132876   1.363   2.399   4.228  0.5419  0.2973 -0.1549
 7081SOL    HW232877   1.261   2.309   4.173  0.9362 -0.3780  0.9664
 7082SOL     OW32878   0.900   3.898   1.183  0.2646 -0.5615 -0.7111
 7082SOL    HW132879   0.827   3.959   1.181  0.4083 -0.3686 -0.1265
 7082SOL    HW232880   0.966   3.950   1.228 -1.0852  0.5903 -0.0662
 7083SOL     OW32881   2.521   3.829   8.123 -0.6182 -0.2274 -0.2657
 7083SOL    HW132882   2.524   3.874   8.207 -0.0422 -1.3711  0.3170
 7083SOL    HW232883   2.519   3.905   8.064 -0.6652 -0.2028 -0.2324
 7084SOL     OW32884   2.455   1.816   5.303 -0.2810  0.8181  0.3618
 7084SOL    HW132885   2.393   1.777   5.365 -1.3025 -0.4101 -1.4570
 7084SOL    HW232886   2.406   1.811   5.221 -1.4864  3.5717  0.8879
 7085SOL     OW32887   4.083   0.149   3.666 -0.6215 -0.0394  0.2485
 7085SOL    HW132888   4.157   0.131   3.725  0.5169  0.7498 -0.9357
 7085SOL    HW232889   4.031   0.210   3.719 -0.6435  0.2916 -0.1524
 7086SOL     OW32890   4.074   0.330   2.581  0.5554  0.8467  0.6840
 7086SOL    HW132891   4.015   0.339   2.506  2.0950  1.4690 -0.4752
 7086SOL    HW232892   4.028   0.392   2.637 -0.0803  1.6444 -0.7308
 7087SOL     OW32893   4.413   3.487   3.472  0.1425 -0.3784  0.5341
 7087SOL    HW132894   4.467   3.409   3.463 -0.3923 -0.7810  0.8428
 7087SOL    HW232895   4.455   3.541   3.406  1.0014  1.5255  2.6334
 7088SOL     OW32896   0.112   1.473   5.588 -0.1095 -0.1977 -0.3679
 7088SOL    HW132897   0.144   1.562   5.574 -1.2397  0.1178 -0.9656
 7088SOL    HW232898   0.095   1.476   5.682 -1.4291 -0.1932 -0.6021
 7089SOL     OW32899   3.190   1.317   9.535  0.1088  0.1933 -0.1417
 7089SOL    HW132900   3.261   1.309   9.597 -0.9270 -1.1062  0.8904
 7089SOL    HW232901   3.239   1.371   9.473 -0.4453 -1.0807 -1.6989
 7090SOL     OW32902   1.352   2.822  16.506 -0.0631  0.0771 -0.3137
 7090SOL    HW132903   1.394   2.738  16.519 -0.5447  0.1087  1.4692
 7090SOL    HW232904   1.398   2.854  16.428 -0.3866 -1.6971 -1.2288
 7091SOL     OW32905   0.012   3.357   7.264 -0.2017 -0.2681  0.1203
 7091SOL    HW132906   0.104   3.380   7.281 -0.6521  1.7705 -0.2058
 7091SOL    HW232907   4.704   3.440   7.252 -0.8128 -0.4871  0.9421
 7092SOL     OW32908   0.035   3.368   8.606  0.3872 -0.5232 -0.5747
 7092SOL    HW132909   0.093   3.417   8.664  0.5855  0.4843 -1.6442
 7092SOL    HW232910   0.094   3.349   8.533  0.5497  0.5068 -0.6990
 7093SOL     OW32911   4.413   4.594   1.840  0.1499 -0.1230  0.0021
 7093SOL    HW132912   4.363   4.513   1.842  1.1116 -0.7595 -1.5356
 7093SOL    HW232913   4.368   4.647   1.905 -0.5513 -0.9983  0.2213
 7094SOL     OW32914   1.510   1.614   7.030 -0.1813 -0.2903 -0.1717
 7094SOL    HW132915   1.432   1.619   7.084 -1.2244 -2.8396 -1.4373
 7094SOL    HW232916   1.555   1.698   7.039  0.2710 -0.5702  0.1556
 7095SOL     OW32917   3.293   2.296   3.671  0.4385  0.4691 -0.2262
 7095SOL    HW132918   3.297   2.295   3.767 -1.2903  1.0131 -0.1455
 7095SOL    HW232919   3.358   2.226   3.667  0.5751  0.4509  2.3481
 7096SOL     OW32920   2.375   1.432   4.041  0.0322  0.0280  0.2591
 7096SOL    HW132921   2.417   1.511   4.073  0.0213  0.9917 -2.0694
 7096SOL    HW232922   2.429   1.366   4.084  0.1951 -0.0317 -0.0402
 7097SOL     OW32923   2.903   1.501   8.898  0.4765  0.2126  0.0339
 7097SOL    HW132924   2.991   1.485   8.863  0.0359  0.1846 -1.0615
 7097SOL    HW232925   2.922   1.491   8.991  2.7876 -1.0758 -0.5708
 7098SOL     OW32926   3.622   1.481   4.390 -0.1679 -0.2337 -0.2270
 7098SOL    HW132927   3.649   1.481   4.482  1.7571  0.1303 -0.7946
 7098SOL    HW232928   3.625   1.576   4.379  0.7495 -0.0726  1.3559
 7099SOL     OW32929   0.500   1.402   1.203 -0.6779 -0.7700  0.1094
 7099SOL    HW132930   0.496   1.498   1.211  0.6250 -0.8082  1.2451
 7099SOL    HW232931   0.479   1.377   1.293  2.0516 -1.3695  0.5704
 7100SOL     OW32932   4.630   3.832  17.390 -0.0655 -0.2750 -0.6948
 7100SOL    HW132933   4.634   3.914  17.439  0.5675 -0.7846  0.0915
 7100SOL    HW232934   4.552   3.848  17.336 -0.5195 -0.0269  0.0451
 7101SOL     OW32935   3.268   2.395   4.609  0.3508 -0.2147 -0.0502
 7101SOL    HW132936   3.362   2.381   4.623  0.5267  0.8526 -0.1493
 7101SOL    HW232937   3.276   2.435   4.522 -0.3584 -1.1837 -0.5605
 7102SOL     OW32938   2.167   0.176   7.215  0.0039 -0.2438  0.5074
 7102SOL    HW132939   2.130   0.225   7.289 -2.1107  1.1522 -1.4494
 7102SOL    HW232940   2.243   0.136   7.256 -0.2758  1.3525  2.5599
 7103SOL     OW32941   1.227   0.210  14.306  0.3669 -0.5800 -0.6102
 7103SOL    HW132942   1.190   0.128  14.273 -1.4387  0.4491 -1.1257
 7103SOL    HW232943   1.187   0.204  14.392  1.9515 -0.1243  0.1604
 7104SOL     OW32944   1.912   1.729   6.152 -0.3820  0.2819  0.4822
 7104SOL    HW132945   1.831   1.771   6.121 -0.1968 -0.1652 -0.6368
 7104SOL    HW232946   1.978   1.733   6.083  1.0674 -2.9633  1.6627
 7105SOL     OW32947   1.259   0.205   6.849  0.5228 -0.0824 -0.0603
 7105SOL    HW132948   1.238   0.166   6.935  1.2698  1.2785  0.7335
 7105SOL    HW232949   1.355   0.213   6.849  0.5413 -0.2823  0.0857
 7106SOL     OW32950   3.044   2.671   2.202 -0.1503  0.2557 -0.6774
 7106SOL    HW132951   3.019   2.745   2.257 -0.4909 -0.2670 -0.1368
 7106SOL    HW232952   2.977   2.606   2.222  0.0363 -0.6833 -3.0331
 7107SOL     OW32953   1.145   4.247  17.145  0.2530 -0.5712 -0.6693
 7107SOL    HW132954   1.075   4.256  17.080  1.2115  1.8126 -1.3657
 7107SOL    HW232955   1.203   4.316  17.111 -0.5397  0.2818 -0.2599
 7108SOL     OW32956   2.004   3.738   6.876  0.1515  0.1072 -0.0922
 7108SOL    HW132957   1.964   3.812   6.830  1.7202  0.0269 -1.6208
 7108SOL    HW232958   1.946   3.668   6.849 -0.4304  0.5689 -0.0310
 7109SOL     OW32959   0.973   0.528   6.695 -0.1128  0.6175 -0.2308
 7109SOL    HW132960   0.971   0.432   6.701  1.5542  0.3703 -3.4777
 7109SOL    HW232961   0.969   0.531   6.599 -0.7071  0.0840 -0.2263
 7110SOL     OW32962   4.148   3.012   1.139  0.1718  0.8605  0.0857
 7110SOL    HW132963   4.106   3.084   1.092  0.7477  0.1538 -1.5148
 7110SOL    HW232964   4.175   2.961   1.062  0.0037  1.4255 -0.3511
 7111SOL     OW32965   1.664   1.669   1.667  0.3864  0.2714 -0.0144
 7111SOL    HW132966   1.699   1.722   1.738  2.6756 -0.5946 -0.5103
 7111SOL    HW232967   1.681   1.578   1.690  0.2794  0.4555  0.7826
 7112SOL     OW32968   0.869   1.827   7.083  0.3254  0.0052 -0.1922
 7112SOL    HW132969   0.778   1.856   7.075  0.9935  1.9409 -0.7284
 7112SOL    HW232970   0.898   1.858   7.169 -0.7652 -0.2239  0.2510
 7113SOL     OW32971   0.498   1.905   4.608  0.3553 -0.4290 -0.4447
 7113SOL    HW132972   0.421   1.859   4.643  2.4733 -2.1557  1.9920
 7113SOL    HW232973   0.467   1.991   4.637  0.5655 -0.7662  0.8019
 7114SOL     OW32974   2.810   4.042   3.368 -0.2859 -0.8147  0.6703
 7114SOL    HW132975   2.833   4.061   3.459 -1.5591 -0.3560  0.8865
 7114SOL    HW232976   2.832   4.129   3.334  0.0560 -0.7879  0.9495
 7115SOL     OW32977   2.662   1.872   4.110 -0.5195 -0.6105  0.5246
 7115SOL    HW132978   2.714   1.858   4.189  0.2843  0.9775  0.2728
 7115SOL    HW232979   2.647   1.966   4.116 -3.4574 -1.1095  0.8583
 7116SOL     OW32980   3.512   3.202  14.589  0.0686  0.3570  0.3900
 7116SOL    HW132981   3.489   3.122  14.637  0.3457 -0.7289 -1.2940
 7116SOL    HW232982   3.605   3.216  14.608  0.1682 -2.8748  2.3635
 7117SOL     OW32983   0.182   0.156   7.586  0.6336  0.1131  0.1703
 7117SOL    HW132984   0.086   0.152   7.590  0.5695  0.2128 -1.2562
 7117SOL    HW232985   0.189   0.239   7.634 -2.1294  0.8442 -0.6577
 7118SOL     OW32986   0.316   3.091   2.044  0.3676  0.0704  0.0366
 7118SOL    HW132987   0.361   3.148   1.982 -2.4183  3.3122  1.0003
 7118SOL    HW232988   0.390   3.060   2.095 -1.3988 -1.9511  1.3986
 7119SOL     OW32989   0.806   4.175   9.608  0.0680 -0.0385 -0.2804
 7119SOL    HW132990   0.858   4.250   9.637 -1.5639  0.2733  1.8633
 7119SOL    HW232991   0.717   4.209   9.595  0.2417  0.9322  1.0901
 7120SOL     OW32992   1.824   3.654  14.256 -0.2376 -0.0023  0.4028
 7120SOL    HW132993   1.867   3.715  14.316  1.6557 -0.7594 -0.2120
 7120SOL    HW232994   1.778   3.717  14.201  0.7168  1.1991  0.9880
 7121SOL     OW32995   3.104   2.507   2.568 -0.2512  0.6070  0.1687
 7121SOL    HW132996   3.034   2.569   2.588 -1.2996 -0.0029 -1.6194
 7121SOL    HW232997   3.089   2.436   2.630  2.1189  0.2132  0.2954
 7122SOL     OW32998   1.848   3.524   1.600  0.1813 -0.1050 -0.0479
 7122SOL    HW132999   1.793   3.592   1.640  1.1453 -1.2811  3.2502
 7122SOL    HW233000   1.781   3.455   1.602  0.9070 -0.8114 -0.2723
 7123SOL     OW33001   0.607   1.954   7.976 -0.7881  0.2458  0.1257
 7123SOL    HW133002   0.640   1.913   7.897  0.6524  0.2799  0.7084
 7123SOL    HW233003   0.631   2.047   7.976 -0.1309  0.0921  3.1525
 7124SOL     OW33004   1.184   0.505   2.482  0.5272 -0.2012 -0.4581
 7124SOL    HW133005   1.111   0.532   2.537  1.4339 -1.2191  1.2211
 7124SOL    HW233006   1.256   0.541   2.534  0.1290  0.9042 -0.6540
 7125SOL     OW33007   4.471   1.171   1.934  0.0956  0.8188 -0.0486
 7125SOL    HW133008   4.422   1.251   1.914  0.4042  0.8898 -0.5155
 7125SOL    HW233009   4.544   1.191   1.876 -1.7217  0.5457 -2.4664
 7126SOL     OW33010   2.113   1.124   3.276 -0.0913 -0.2816  0.4485
 7126SOL    HW133011   2.179   1.119   3.345  0.8833  3.1957 -0.2232
 7126SOL    HW233012   2.156   1.079   3.203  0.4979 -2.0839  1.8816
 7127SOL     OW33013   0.374   2.773   8.853 -0.9410  0.0346 -0.4978
 7127SOL    HW133014   0.373   2.805   8.763 -1.7156 -0.4921 -0.6729
 7127SOL    HW233015   0.302   2.710   8.853 -0.1180 -0.8985  0.5680
 7128SOL     OW33016   1.746   2.148   3.281  0.1833  0.0507 -0.1774
 7128SOL    HW133017   1.776   2.057   3.281 -0.5043 -0.1718 -1.3394
 7128SOL    HW233018   1.657   2.143   3.315  0.7542 -1.9868  1.0308
 7129SOL     OW33019   1.112   0.858  11.340 -0.4296  0.1426 -0.1144
 7129SOL    HW133020   1.034   0.869  11.286 -1.0022  1.0770  0.9108
 7129SOL    HW233021   1.078   0.794  11.403  3.5791 -1.2640  0.6415
 7130SOL     OW33022   3.746   2.834  17.433 -0.3357  0.3133  0.1934
 7130SOL    HW133023   3.834   2.833  17.472 -1.4029  0.0769  2.5559
 7130SOL    HW233024   3.777   2.882  17.356 -0.0522 -1.2026 -0.6490
 7131SOL     OW33025   1.233   2.919  14.816 -0.3175 -0.4243 -0.4639
 7131SOL    HW133026   1.253   3.006  14.782  1.1009 -1.5289 -2.5054
 7131SOL    HW233027   1.217   2.882  14.729 -0.0515 -0.1531 -0.6311
 7132SOL     OW33028   3.432   3.737   7.639 -0.5606 -0.1451 -1.0243
 7132SOL    HW133029   3.425   3.803   7.708  0.1407 -2.4472  1.1978
 7132SOL    HW233030   3.483   3.667   7.678 -0.5677  0.8840  0.8367
 7133SOL     OW33031   3.093   2.753  11.807  0.4599  0.3847  0.7324
 7133SOL    HW133032   3.069   2.758  11.714  0.7156  0.3008  0.6615
 7133SOL    HW233033   3.128   2.663  11.807  0.9728  0.5860  0.0932
 7134SOL     OW33034   2.039   4.356   6.063  0.1630  0.0183 -0.0839
 7134SOL    HW133035   2.104   4.294   6.097 -0.2367  0.2079  1.0227
 7134SOL    HW233036   1.979   4.300   6.015 -0.2586  0.2962  0.1184
 7135SOL     OW33037   2.796   4.251   8.428  0.3405  0.0415 -0.1736
 7135SOL    HW133038   2.802   4.159   8.456  1.4795 -0.2645 -1.3907
 7135SOL    HW233039   2.808   4.252   8.333  1.7470  3.0008  0.0437
 7136SOL     OW33040   1.870   4.239   4.266 -0.5358 -0.1801 -0.0185
 7136SOL    HW133041   1.923   4.289   4.204 -0.2721 -0.9427 -0.4092
 7136SOL    HW233042   1.895   4.148   4.253 -0.5393 -0.6658  3.4492
 7137SOL     OW33043   4.301   4.330   6.913  0.5684  0.3022 -0.0329
 7137SOL    HW133044   4.363   4.391   6.874 -1.2126  2.7461  0.9471
 7137SOL    HW233045   4.296   4.364   7.003 -0.3106 -0.3432  0.1616
 7138SOL     OW33046   1.033   1.832   4.569  0.7932  0.2547 -0.1999
 7138SOL    HW133047   1.009   1.839   4.661 -1.0939 -0.9318 -0.5921
 7138SOL    HW233048   0.958   1.871   4.525  0.3956 -0.2068  0.0627
 7139SOL     OW33049   3.954   4.695   0.983 -0.7950 -0.3521 -0.7786
 7139SOL    HW133050   3.923   4.629   0.921  0.4421 -0.6068 -1.1094
 7139SOL    HW233051   3.898   4.679   1.059 -1.0909 -0.1606 -0.9521
 7140SOL     OW33052   1.478   1.923  16.146  0.3003  0.1061 -0.0036
 7140SOL    HW133053   1.386   1.909  16.170  0.7127 -1.5294  0.6562
 7140SOL    HW233054   1.502   2.003  16.193 -1.2251 -0.0161  0.9766
 7141SOL     OW33055   1.415   1.606  15.449  0.0311  0.6939  0.0167
 7141SOL    HW133056   1.347   1.672  15.464 -0.0190  0.9759 -1.3879
 7141SOL    HW233057   1.496   1.648  15.479  0.5992 -0.6761  0.4050
 7142SOL     OW33058   3.534   2.380   0.206  0.1659 -0.2003  0.3676
 7142SOL    HW133059   3.592   2.424   0.269  1.7313  0.2150 -1.3747
 7142SOL    HW233060   3.570   2.393   0.119  1.1219 -1.0819  0.6355
 7143SOL     OW33061   4.295   1.060  15.233 -0.1406 -0.3910 -0.4375
 7143SOL    HW133062   4.282   0.965  15.230 -0.9398 -0.3087  0.3382
 7143SOL    HW233063   4.387   1.077  15.249  0.7320 -1.9928 -3.6657
 7144SOL     OW33064   0.483   3.967   7.268  0.0209  0.1178  0.2236
 7144SOL    HW133065   0.566   3.924   7.289 -0.4286  0.3004  2.4039
 7144SOL    HW233066   0.433   3.912   7.329 -0.3584  1.5905  1.2478
 7145SOL     OW33067   2.678   1.558   6.903  0.0575 -0.7459  0.3645
 7145SOL    HW133068   2.759   1.583   6.946  1.0057 -0.1216 -1.8073
 7145SOL    HW233069   2.694   1.465   6.886  1.5724 -0.1289 -1.6246
 7146SOL     OW33070   2.799   2.205  12.304  0.7844 -0.2471  0.1249
 7146SOL    HW133071   2.887   2.192  12.270  0.6882 -3.2677  1.0209
 7146SOL    HW233072   2.825   2.222  12.394 -0.0284 -1.1164  0.5283
 7147SOL     OW33073   1.858   1.014  10.685 -0.0407 -0.0750  0.2854
 7147SOL    HW133074   1.929   1.014  10.621  0.4830 -1.7174  0.8551
 7147SOL    HW233075   1.886   1.072  10.756  0.5633  0.6753 -0.5737
 7148SOL     OW33076   1.779   2.350   2.085  0.4411  0.7193  0.5115
 7148SOL    HW133077   1.730   2.296   2.024  1.1334  0.8549 -0.1624
 7148SOL    HW233078   1.797   2.283   2.151 -0.5165 -0.3856 -0.3423
 7149SOL     OW33079   2.049   0.165  15.145  0.1485 -0.3084  0.7239
 7149SOL    HW133080   2.050   0.260  15.138 -2.5493 -0.4081 -0.9501
 7149SOL    HW233081   2.022   0.137  15.057  0.3150 -1.1799  0.9450
 7150SOL     OW33082   2.035   4.569   9.002  0.2321 -0.0051  0.1001
 7150SOL    HW133083   1.985   4.535   9.076  1.2074 -0.1237  0.7118
 7150SOL    HW233084   2.074   4.649   9.037 -0.0098 -0.3678  1.2037
 7151SOL     OW33085   1.815   0.111   6.616  0.4698 -0.4499 -0.0771
 7151SOL    HW133086   1.829   0.109   6.711 -0.4747 -0.6153  0.0613
 7151SOL    HW233087   1.812   0.020   6.586  1.9917 -1.6151  3.3023
 7152SOL     OW33088   3.506   2.203   8.024  0.7341  0.6326  0.4864
 7152SOL    HW133089   3.596   2.203   7.993 -0.2792  1.5889 -2.4467
 7152SOL    HW233090   3.478   2.112   8.023 -0.3059  0.9338  2.0360
 7153SOL     OW33091   4.617   1.390   6.114 -0.0395  0.2746 -0.1409
 7153SOL    HW133092   4.702   1.422   6.147  0.5414 -0.1819 -1.2017
 7153SOL    HW233093   4.595   1.349   6.198 -2.5772  1.1640 -0.3793
 7154SOL     OW33094   2.765   2.410   2.514  0.1006 -0.4599  0.3596
 7154SOL    HW133095   2.751   2.340   2.579 -0.7106 -1.0123 -0.4191
 7154SOL    HW233096   2.712   2.479   2.554  0.0422 -0.0920 -0.3710
 7155SOL     OW33097   1.985   1.957  10.793  0.9413 -0.1003 -0.3940
 7155SOL    HW133098   1.968   2.044  10.830 -0.7243  0.0649 -1.5153
 7155SOL    HW233099   2.022   1.990  10.711 -0.7362 -0.8806 -1.4644
 7156SOL     OW33100   4.394   2.942   5.528 -0.3637  0.1327 -0.4212
 7156SOL    HW133101   4.385   2.859   5.575 -0.8596  0.1818 -0.4227
 7156SOL    HW233102   4.449   2.997   5.584 -0.8514 -0.8132  0.9918
 7157SOL     OW33103   0.845   3.522   1.499  0.0400  0.5175 -0.0688
 7157SOL    HW133104   0.917   3.563   1.547  1.8658 -0.9778 -1.5815
 7157SOL    HW233105   0.824   3.587   1.432 -1.2813  0.5505  0.3713
 7158SOL     OW33106   0.503   2.348   8.142 -0.0667 -0.0533  0.0869
 7158SOL    HW133107   0.555   2.418   8.183  0.6567  0.3108 -1.4638
 7158SOL    HW233108   0.445   2.311   8.209 -0.0417 -0.9455 -0.3954
 7159SOL     OW33109   2.360   3.973  12.401 -0.5456 -0.5413  0.0377
 7159SOL    HW133110   2.417   3.947  12.474  0.5858  0.4077 -0.5036
 7159SOL    HW233111   2.374   3.902  12.338  2.5109  1.6084 -1.6930
 7160SOL     OW33112   4.072   3.155   0.210  0.5300 -0.1383 -0.0590
 7160SOL    HW133113   4.136   3.096   0.248  0.4120 -0.3423 -0.1798
 7160SOL    HW233114   4.118   3.239   0.215  0.7074 -0.3128  1.1605
 7161SOL     OW33115   3.337   0.169  10.661  0.4895  0.1147  0.0729
 7161SOL    HW133116   3.349   0.174  10.566  0.6545 -1.1802  0.0223
 7161SOL    HW233117   3.245   0.187  10.679 -0.0874 -2.4196 -0.3314
 7162SOL     OW33118   2.975   0.123  11.415 -0.0516 -0.2996 -0.2613
 7162SOL    HW133119   2.946   0.131  11.506 -2.8457  1.0327 -1.2720
 7162SOL    HW233120   3.012   0.035  11.426  1.2711  0.2578 -0.3094
 7163SOL     OW33121   0.217   3.904   7.748  0.2752  0.2073  0.4177
 7163SOL    HW133122   0.286   3.968   7.763  0.0459  0.7478 -0.8158
 7163SOL    HW233123   0.196   3.868   7.834 -0.1545  1.4414  0.8361
 7164SOL     OW33124   2.523   4.087  14.586 -0.3215 -0.5373 -0.6934
 7164SOL    HW133125   2.453   4.095  14.521 -0.8133  0.5611 -0.0239
 7164SOL    HW233126   2.590   4.133  14.536 -1.1042  2.4058  0.9863
 7165SOL     OW33127   2.419   3.995   5.392 -0.1448  0.0284  0.5010
 7165SOL    HW133128   2.338   4.036   5.424 -0.6146 -0.5571  0.0611
 7165SOL    HW233129   2.416   4.014   5.299 -1.2495 -0.1073  0.5091
 7166SOL     OW33130   2.963   3.077   0.004  0.2993  0.0148  0.0003
 7166SOL    HW133131   2.991   3.056   0.093 -1.5498  0.2800  0.6506
 7166SOL    HW233132   3.044   3.067  17.704 -0.5629 -4.3128 -0.4844
 7167SOL     OW33133   3.961   2.845   7.733  0.3347  0.2129  0.8749
 7167SOL    HW133134   3.948   2.933   7.696 -0.3664  0.3153  1.3657
 7167SOL    HW233135   3.931   2.792   7.659  0.8263  2.0360 -0.6536
 7168SOL     OW33136   2.758   1.918  16.626 -0.2204 -0.1698  0.3957
 7168SOL    HW133137   2.819   1.844  16.633 -0.9740 -0.8760 -0.4741
 7168SOL    HW233138   2.694   1.892  16.559 -0.0157 -0.9261  0.4876
 7169SOL     OW33139   1.103   0.414   2.125 -0.4338 -0.0604 -0.4383
 7169SOL    HW133140   1.114   0.496   2.078  1.1457 -1.8498 -3.1439
 7169SOL    HW233141   1.138   0.352   2.061 -1.4709 -1.2189  0.1173
 7170SOL     OW33142   0.377   4.192   5.573  0.3992  0.2196  0.6218
 7170SOL    HW133143   0.467   4.186   5.541  0.1444 -1.1406  0.1797
 7170SOL    HW233144   0.386   4.147   5.657  2.7265  0.0159  0.2818
 7171SOL     OW33145   3.036   1.999  11.661 -0.1896  0.3226  0.4587
 7171SOL    HW133146   2.960   1.943  11.643  1.6048 -2.4031  1.3347
 7171SOL    HW233147   3.026   1.997  11.756 -1.9409 -1.4761  0.2478
 7172SOL     OW33148   3.244   0.021   8.500  0.0373 -0.0457  0.0540
 7172SOL    HW133149   3.289   0.090   8.450  0.0466 -0.1245 -0.0456
 7172SOL    HW233150   3.316   4.717   8.547 -1.3553 -0.9130  1.3893
 7173SOL     OW33151   3.907   1.380  16.676 -0.3019  0.6241 -0.0308
 7173SOL    HW133152   3.909   1.302  16.620  0.3232 -0.3330  1.3276
 7173SOL    HW233153   3.851   1.347  16.746 -0.0544 -0.7545 -0.4756
 7174SOL     OW33154   1.562   2.100  14.968 -0.2583  0.3370  0.0404
 7174SOL    HW133155   1.604   2.137  14.890  1.3502 -1.1671  0.1991
 7174SOL    HW233156   1.575   2.173  15.029  1.2229 -0.2795  0.4520
 7175SOL     OW33157   2.102   0.915   2.659  0.5079 -0.5935 -0.0223
 7175SOL    HW133158   2.035   0.961   2.609  0.6607  0.0013  0.3247
 7175SOL    HW233159   2.148   0.987   2.702  0.4455 -0.2915 -0.4622
 7176SOL     OW33160   0.945   1.291   5.895  0.5830 -0.0863 -0.3344
 7176SOL    HW133161   0.974   1.213   5.942 -1.9647 -1.0460 -0.3010
 7176SOL    HW233162   0.909   1.341   5.968 -1.4184 -1.5119 -0.3365
 7177SOL     OW33163   2.606   1.707  11.997  0.0167 -0.0976  0.3138
 7177SOL    HW133164   2.541   1.641  12.022 -0.8299  0.8328  0.6050
 7177SOL    HW233165   2.679   1.648  11.981  1.3140  1.4598  0.4890
 7178SOL     OW33166   4.394   0.060  10.801 -0.5313 -0.4405 -0.5747
 7178SOL    HW133167   4.342   0.120  10.855 -1.1421 -1.0886 -0.4455
 7178SOL    HW233168   4.417   4.727  10.860  0.7694  0.0913 -0.4416
 7179SOL     OW33169   4.182   2.398   1.088 -0.3622 -0.1511  0.2567
 7179SOL    HW133170   4.245   2.458   1.129 -0.0392  1.3317 -2.4603
 7179SOL    HW233171   4.101   2.445   1.108 -0.7642  0.0564 -1.8785
 7180SOL     OW33172   3.900   3.872   7.475 -0.5597  0.3139  0.1482
 7180SOL    HW133173   3.894   3.923   7.556 -3.4176 -0.3728  0.3529
 7180SOL    HW233174   3.995   3.857   7.468 -0.2646  2.8485 -1.0810
 7181SOL     OW33175   1.994   1.963   5.298 -0.1730  0.4413  0.5329
 7181SOL    HW133176   1.909   1.973   5.257  0.5188  2.2563 -0.4429
 7181SOL    HW233177   1.976   1.889   5.355 -0.6417 -0.3188 -0.6095
 7182SOL     OW33178   1.380   2.268  17.415 -0.5752 -0.0303 -0.4039
 7182SOL    HW133179   1.310   2.204  17.426  2.1984 -3.2004 -1.2744
 7182SOL    HW233180   1.419   2.244  17.331 -0.0024 -2.7018  0.6248
 7183SOL     OW33181   1.457   1.475   3.292  0.0485 -0.0480 -0.1046
 7183SOL    HW133182   1.495   1.530   3.224 -0.1769 -2.1415 -1.9319
 7183SOL    HW233183   1.421   1.541   3.351 -2.0114 -2.2183  1.0665
 7184SOL     OW33184   1.016   1.595  11.153 -0.7804 -0.3461 -0.4254
 7184SOL    HW133185   0.941   1.643  11.117 -0.7421  1.5990  2.0513
 7184SOL    HW233186   0.976   1.508  11.159 -0.4637 -0.4289  0.5216
 7185SOL     OW33187   3.083   4.486   6.845  0.3011  0.1816 -0.5024
 7185SOL    HW133188   3.058   4.487   6.752  1.8038  1.1727 -0.9119
 7185SOL    HW233189   3.045   4.400   6.865 -0.1238  1.2970  3.3335
 7186SOL     OW33190   3.257   1.772  17.576 -0.4202 -0.4782 -0.3411
 7186SOL    HW133191   3.300   1.840  17.627 -1.6777  0.2605 -0.2557
 7186SOL    HW233192   3.295   1.781  17.489 -0.9189 -1.1373 -0.6303
 7187SOL     OW33193   2.467   1.326   2.600 -0.1218 -0.0536 -0.0241
 7187SOL    HW133194   2.462   1.421   2.611 -0.3890 -0.0224 -0.4206
 7187SOL    HW233195   2.561   1.311   2.614  0.1515  0.4640 -1.2769
 7188SOL     OW33196   2.165   1.183  15.563  0.8436 -0.1905 -1.0273
 7188SOL    HW133197   2.132   1.101  15.528  0.3638 -1.0380  1.3992
 7188SOL    HW233198   2.259   1.169  15.553  1.3386  1.5124  1.0395
 7189SOL     OW33199   4.728   0.385   6.985 -0.2916  0.5469  0.6369
 7189SOL    HW133200   0.079   0.386   7.020  1.1779 -0.7153 -2.9858
 7189SOL    HW233201   4.707   0.294   6.963 -0.0931  0.4704  0.7599
 7190SOL     OW33202   0.522   1.835  10.633  0.5601 -0.8704  0.0339
 7190SOL    HW133203   0.561   1.899  10.693  2.4223 -2.2202  0.2716
 7190SOL    HW233204   0.531   1.756  10.686  0.1520 -1.6895 -1.1266
 7191SOL     OW33205   2.434   2.813   7.734  0.0059 -0.3301  0.5807
 7191SOL    HW133206   2.430   2.813   7.829 -1.4578 -1.0061  0.5126
 7191SOL    HW233207   2.428   2.907   7.723 -2.3534 -0.5386  0.1593
 7192SOL     OW33208   2.270   1.597   5.065  0.1024  0.0929  0.0386
 7192SOL    HW133209   2.262   1.663   4.997  2.7099  2.9991  2.5658
 7192SOL    HW233210   2.228   1.644   5.137  1.0206  0.5916  0.2429
 7193SOL     OW33211   2.588   1.228   5.141 -0.1997 -0.2302 -0.3906
 7193SOL    HW133212   2.659   1.204   5.200 -1.8005 -1.4647  1.0202
 7193SOL    HW233213   2.528   1.153   5.150  0.3162 -0.8134 -1.9389
 7194SOL     OW33214   1.521   4.691   3.176 -0.2049 -0.0100 -0.5027
 7194SOL    HW133215   1.494   4.624   3.239 -1.4525  1.1392  0.1813
 7194SOL    HW233216   1.614   4.682   3.154  0.0282  2.9006 -0.7794
 7195SOL     OW33217   4.001   3.483   5.183  0.1655  0.6636  0.3605
 7195SOL    HW133218   3.908   3.507   5.181 -0.3218 -1.2597 -0.5514
 7195SOL    HW233219   4.037   3.521   5.103  0.3501 -2.1532 -0.9034
 7196SOL     OW33220   0.915   2.765   2.968 -0.2859 -0.2161  0.2376
 7196SOL    HW133221   0.954   2.833   2.913 -1.7946  1.7629  1.6398
 7196SOL    HW233222   0.869   2.809   3.039 -1.3815 -0.5229 -0.2733
 7197SOL     OW33223   2.323   3.317   5.184 -0.1124 -0.3347 -0.3808
 7197SOL    HW133224   2.396   3.364   5.224 -0.2795 -0.1836 -0.2575
 7197SOL    HW233225   2.377   3.252   5.138 -2.1465  0.0665 -3.3625
 7198SOL     OW33226   3.865   2.926   2.360  1.0966  0.5092  0.3033
 7198SOL    HW133227   3.931   2.961   2.300 -1.9025  2.7398 -1.6702
 7198SOL    HW233228   3.916   2.851   2.391  0.4950  0.0265  0.1261
 7199SOL     OW33229   3.651   2.117   6.829 -0.2789 -0.3328 -0.0041
 7199SOL    HW133230   3.642   2.152   6.918  1.9146 -1.1678  0.5434
 7199SOL    HW233231   3.581   2.165   6.785 -1.8716 -1.6063  1.1311
 7200SOL     OW33232   2.762   2.014  16.323 -0.2598 -0.5085 -0.3162
 7200SOL    HW133233   2.724   2.078  16.383 -2.0764 -0.2466 -1.7597
 7200SOL    HW233234   2.694   1.946  16.325 -0.6110 -0.1304  0.4813
 7201SOL     OW33235   1.628   2.552   2.961  0.1310  0.1405  0.8975
 7201SOL    HW133236   1.716   2.521   2.983 -0.1316 -2.2832 -1.4450
 7201SOL    HW233237   1.567   2.515   3.026  1.2501  0.4307  2.1158
 7202SOL     OW33238   0.040   3.685   7.436  0.3499  0.1467 -0.0501
 7202SOL    HW133239   4.734   3.676   7.351  1.3145 -1.0173 -0.4286
 7202SOL    HW233240   0.076   3.597   7.447  0.0287  0.4356  3.2538
 7203SOL     OW33241   3.146   4.378  12.203 -0.1099  0.4058 -0.1721
 7203SOL    HW133242   3.078   4.335  12.151 -0.4277 -1.0047  1.4264
 7203SOL    HW233243   3.109   4.347  12.286  2.5952 -1.3815  0.3592
 7204SOL     OW33244   3.926   1.114  15.030  0.4963  0.2142 -0.4119
 7204SOL    HW133245   3.943   1.087  15.120  0.0930 -2.5601 -1.1599
 7204SOL    HW233246   3.855   1.050  15.019 -0.3084  0.6560  2.0997
 7205SOL     OW33247   3.814   1.669  17.467 -0.4753  0.3568  0.4692
 7205SOL    HW133248   3.779   1.673  17.378 -2.5110  1.9089  1.3610
 7205SOL    HW233249   3.729   1.662  17.510  0.6789 -3.0660  2.2222
 7206SOL     OW33250   2.427   2.181   1.150  0.4588  0.0383  0.5077
 7206SOL    HW133251   2.405   2.094   1.119 -0.8101 -0.4605  2.8062
 7206SOL    HW233252   2.402   2.167   1.241  0.5440  1.6098  0.7763
 7207SOL     OW33253   4.183   2.395   9.814  0.1736 -0.3469 -0.1124
 7207SOL    HW133254   4.228   2.387   9.898 -2.1130 -0.1385  1.1450
 7207SOL    HW233255   4.092   2.385   9.844  0.1851 -2.5309 -0.8372
 7208SOL     OW33256   1.320   2.622  12.661  0.6857 -0.3786 -0.5196
 7208SOL    HW133257   1.395   2.661  12.616  2.1389  0.7998  2.8896
 7208SOL    HW233258   1.289   2.555  12.600 -1.7169 -0.3533  0.6908
 7209SOL     OW33259   2.399   0.348  15.152  0.1573  0.3808  0.1216
 7209SOL    HW133260   2.491   0.328  15.172 -0.2351 -0.2530  1.3136
 7209SOL    HW233261   2.365   0.385  15.234  1.3993 -2.0358  1.7217
 7210SOL     OW33262   4.480   0.170   7.067  0.0418 -0.3285 -0.8301
 7210SOL    HW133263   4.542   0.163   6.994  1.0313 -2.0240  0.1670
 7210SOL    HW233264   4.527   0.131   7.140 -0.1356 -0.2628 -0.6823
 7211SOL     OW33265   3.518   3.144   5.937  0.2806 -0.0335  0.2721
 7211SOL    HW133266   3.489   3.137   5.846 -1.4387  0.3222  0.7820
 7211SOL    HW233267   3.487   3.060   5.970 -0.3303 -0.1600 -0.6049
 7212SOL     OW33268   3.332   4.478  17.295  0.6573  0.3691 -0.3090
 7212SOL    HW133269   3.422   4.507  17.280  1.5969 -2.3433  0.1252
 7212SOL    HW233270   3.284   4.554  17.262  0.6750  0.1070 -0.9492
 7213SOL     OW33271   1.009   3.266   8.097 -0.4034  0.2624 -0.5831
 7213SOL    HW133272   1.095   3.225   8.089  0.3399  1.6391  0.2063
 7213SOL    HW233273   1.038   3.356   8.084 -1.5193  0.6888 -0.1111
 7214SOL     OW33274   2.638   2.346   4.872  0.1980  0.8427 -0.2434
 7214SOL    HW133275   2.715   2.401   4.859  3.0195 -2.7659  1.2313
 7214SOL    HW233276   2.591   2.392   4.942  0.6670 -1.7148  1.7719
 7215SOL     OW33277   2.908   3.633  11.680  0.0536 -0.7474 -0.4181
 7215SOL    HW133278   2.842   3.623  11.749 -0.7669  2.3734 -0.7273
 7215SOL    HW233279   2.874   3.564  11.624  0.0825 -0.3881 -0.8786
 7216SOL     OW33280   1.948   4.172   6.377  0.1177  0.1629 -0.0621
 7216SOL    HW133281   1.931   4.161   6.471  1.4552  0.6708  0.2311
 7216SOL    HW233282   1.909   4.258   6.362  0.9334 -0.1060 -3.5363
 7217SOL     OW33283   1.872   1.619   0.069 -0.0894  0.5709  0.8755
 7217SOL    HW133284   1.864   1.530   0.037  0.6745  1.5463 -2.0150
 7217SOL    HW233285   1.824   1.670   0.003  0.5565 -1.4299 -1.1202
 7218SOL     OW33286   4.600   1.779  10.098  0.1780  0.0078 -0.1254
 7218SOL    HW133287   4.606   1.692  10.058 -1.0038  0.7637 -1.9407
 7218SOL    HW233288   4.512   1.785  10.137  0.5007 -0.0111  0.6142
 7219SOL     OW33289   4.147   4.178   2.839  0.6864  0.2202 -0.5048
 7219SOL    HW133290   4.210   4.234   2.794  0.9497  0.4524  0.1613
 7219SOL    HW233291   4.081   4.237   2.876 -0.9331 -1.4936 -0.6436
 7220SOL     OW33292   0.964   0.675   8.142 -0.6545  0.1837  0.0012
 7220SOL    HW133293   0.924   0.752   8.103  2.4854  1.5742 -0.4683
 7220SOL    HW233294   1.046   0.668   8.094 -0.5354  1.3798  0.0382
 7221SOL     OW33295   3.483   1.874   6.895  0.7090  0.2316 -0.1019
 7221SOL    HW133296   3.429   1.953   6.898 -0.1573 -0.3823  0.5180
 7221SOL    HW233297   3.489   1.843   6.985  0.4923  1.9352  0.5050
 7222SOL     OW33298   1.410   1.508   0.928 -0.4401  0.2703 -0.2633
 7222SOL    HW133299   1.476   1.541   0.990  0.7379 -1.3309 -0.6775
 7222SOL    HW233300   1.465   1.512   0.849  2.2784  0.2850  1.6200
 7223SOL     OW33301   4.421   3.067  12.479 -0.1843  0.1729 -0.1375
 7223SOL    HW133302   4.396   2.988  12.527 -1.4101  1.3815  1.2290
 7223SOL    HW233303   4.386   3.141  12.530  0.2140  1.9738 -2.4510
 7224SOL     OW33304   4.209   0.417   6.858  0.4836  0.2441 -0.1456
 7224SOL    HW133305   4.279   0.409   6.794  1.0843  0.8571  0.4434
 7224SOL    HW233306   4.158   0.339   6.836  1.3732 -1.0644  2.5012
 7225SOL     OW33307   1.667   4.201   6.142 -0.4892  0.0197 -0.0634
 7225SOL    HW133308   1.739   4.143   6.119 -0.1728  0.3135  0.1930
 7225SOL    HW233309   1.641   4.249   6.063  1.4271 -0.7466 -1.1350
 7226SOL     OW33310   2.153   3.231   8.799  0.2388 -0.3294 -0.1836
 7226SOL    HW133311   2.164   3.239   8.704  3.0386  1.4789  0.2873
 7226SOL    HW233312   2.101   3.151   8.803  0.3126 -0.3144  1.1386
 7227SOL     OW33313   1.323   1.028   7.692 -0.3831  0.7881  0.4589
 7227SOL    HW133314   1.400   0.971   7.684 -1.4971 -0.4262 -1.6387
 7227SOL    HW233315   1.371   1.107   7.716 -1.1476  1.7129 -1.0612
 7228SOL     OW33316   0.817   2.133   5.572 -0.0716 -0.5283  0.2708
 7228SOL    HW133317   0.858   2.163   5.490 -0.9263 -2.9018 -1.0291
 7228SOL    HW233318   0.884   2.159   5.635 -1.4848 -2.4518  2.5452
 7229SOL     OW33319   3.995   1.350   8.431 -0.1776 -0.3626 -0.5141
 7229SOL    HW133320   3.913   1.343   8.478 -2.1041 -0.3194 -3.8364
 7229SOL    HW233321   3.976   1.428   8.379  1.4976 -1.1914 -2.3946
 7230SOL     OW33322   4.222   3.286   2.963  0.3343 -0.5692 -0.3132
 7230SOL    HW133323   4.157   3.276   3.032 -1.7275  2.4800 -1.7960
 7230SOL    HW233324   4.301   3.313   3.009 -1.2814  0.3131  1.9092
 7231SOL     OW33325   3.678   1.911   1.841  0.0333 -0.9106  0.0610
 7231SOL    HW133326   3.624   1.938   1.916  0.7185 -0.6967  0.4816
 7231SOL    HW233327   3.617   1.949   1.778  1.2979  2.0376  0.6445
 7232SOL     OW33328   3.583   2.831  15.510  0.1796 -0.4147 -0.0158
 7232SOL    HW133329   3.487   2.835  15.512  0.1071 -2.8274  1.5093
 7232SOL    HW233330   3.601   2.867  15.423 -1.4663  0.3793 -0.0404
 7233SOL     OW33331   1.934   1.883   0.568 -0.2269  0.2124  0.5717
 7233SOL    HW133332   1.942   1.791   0.593  1.3554 -0.3542 -2.0235
 7233SOL    HW233333   1.844   1.875   0.539 -0.1774  2.1098 -0.1486
 7234SOL     OW33334   1.421   1.856  13.231  0.4784  0.2330 -0.0920
 7234SOL    HW133335   1.499   1.874  13.179  0.6039 -0.7088 -0.2425
 7234SOL    HW233336   1.354   1.884  13.168  1.3388  0.2703 -0.9835
 7235SOL     OW33337   2.875   2.020  12.117 -0.1659  0.2556 -0.3476
 7235SOL    HW133338   2.784   2.032  12.143 -0.2267 -2.2494  0.5901
 7235SOL    HW233339   2.893   1.944  12.172  1.3674  0.6129 -0.3568
 7236SOL     OW33340   3.877   0.344  13.602  0.5426  0.1039 -0.4014
 7236SOL    HW133341   3.889   0.260  13.558 -0.1233 -0.1058 -0.1796
 7236SOL    HW233342   3.963   0.385  13.595  1.6329 -1.9198  1.0551
 7237SOL     OW33343   4.025   2.026  16.075 -0.4877 -0.1516 -0.4259
 7237SOL    HW133344   4.077   2.018  15.996 -1.1567  0.9296 -0.9757
 7237SOL    HW233345   3.976   1.945  16.065  1.2137 -1.1546 -0.6467
 7238SOL     OW33346   2.846   4.597   2.751 -0.1473 -0.2316  0.1437
 7238SOL    HW133347   2.810   4.613   2.663 -1.8585  0.4698  0.9738
 7238SOL    HW233348   2.925   4.650   2.751 -0.8407  0.8223 -2.0189
 7239SOL     OW33349   3.345   1.352  12.656  0.5342 -0.5022 -0.1266
 7239SOL    HW133350   3.408   1.280  12.655 -0.0207 -0.9557 -1.6875
 7239SOL    HW233351   3.392   1.412  12.599 -3.1966  0.9283 -1.6429
 7240SOL     OW33352   2.498   0.713  16.979  0.5189 -0.6822 -0.2370
 7240SOL    HW133353   2.517   0.678  17.066  1.8170  0.1032 -0.2086
 7240SOL    HW233354   2.457   0.794  17.011  2.2241 -0.0547  0.3508
 7241SOL     OW33355   1.720   3.484   1.979  0.1705 -1.0501 -0.1635
 7241SOL    HW133356   1.749   3.573   1.958 -1.0345 -0.9108 -1.2512
 7241SOL    HW233357   1.707   3.483   2.074  0.4315  0.8803 -0.1011
 7242SOL     OW33358   2.762   1.088   5.331  0.2860  0.3068 -0.2812
 7242SOL    HW133359   2.737   1.158   5.392 -0.9281  0.4399 -0.9153
 7242SOL    HW233360   2.820   1.038   5.387  1.3732 -0.1200 -1.7924
 7243SOL     OW33361   2.585   4.426  16.634  0.5087  0.6413  0.3891
 7243SOL    HW133362   2.657   4.381  16.677  0.5942  0.4460  0.0437
 7243SOL    HW233363   2.513   4.436  16.696 -0.0623  0.9414 -0.3176
 7244SOL     OW33364   3.390   2.997  14.159 -0.0340 -0.7955  0.1238
 7244SOL    HW133365   3.349   3.048  14.090 -1.3388 -0.3935  1.1903
 7244SOL    HW233366   3.331   2.922  14.150 -0.3630 -0.3402 -1.5642
 7245SOL     OW33367   1.304   1.568   1.272  0.5209 -0.0149 -0.2144
 7245SOL    HW133368   1.383   1.514   1.268 -0.1346 -1.0206  0.5849
 7245SOL    HW233369   1.231   1.510   1.291 -0.7358  1.3954 -0.7538
 7246SOL     OW33370   0.712   0.346   5.289  0.0617 -0.4238 -0.6085
 7246SOL    HW133371   0.621   0.375   5.299  0.4521  0.1861  1.1183
 7246SOL    HW233372   0.729   0.321   5.380  0.9005 -3.8565 -1.6931
 7247SOL     OW33373   3.976   3.933   5.226 -0.4198  0.3069 -0.1537
 7247SOL    HW133374   4.031   3.957   5.152  0.7405  3.1789  1.6133
 7247SOL    HW233375   3.887   3.942   5.192 -1.1221 -0.0781  1.5602
 7248SOL     OW33376   1.691   4.651  10.155  0.0542 -0.2931 -0.3707
 7248SOL    HW133377   1.678   0.007  10.169 -1.2856 -0.4024 -0.8996
 7248SOL    HW233378   1.777   4.641  10.195  0.1324 -0.9151 -0.6907
 7249SOL     OW33379   1.042   2.304   9.191 -0.5197  0.1780  0.2990
 7249SOL    HW133380   1.133   2.310   9.220 -0.6650  3.0328  0.1997
 7249SOL    HW233381   1.047   2.283   9.098  0.8611  2.2181 -0.0920
 7250SOL     OW33382   0.891   4.030   9.388 -0.6711  0.3931  0.2219
 7250SOL    HW133383   0.881   3.943   9.425  2.8669  0.4127  1.1921
 7250SOL    HW233384   0.886   4.081   9.468 -1.1255  0.5900  0.0744
 7251SOL     OW33385   1.369   3.480   2.652 -0.5485  0.0876  0.0896
 7251SOL    HW133386   1.427   3.438   2.716  1.8388  1.6047 -1.0587
 7251SOL    HW233387   1.282   3.453   2.681 -0.8033 -1.3082 -1.9992
 7252SOL     OW33388   2.786   1.332  11.151  0.0859 -0.2891 -0.1629
 7252SOL    HW133389   2.840   1.408  11.171 -0.4950  0.0166  0.2401
 7252SOL    HW233390   2.783   1.343  11.056 -1.8732 -1.8842 -0.2810
 7253SOL     OW33391   4.264   2.126   1.062  0.1992 -0.8283  0.1002
 7253SOL    HW133392   4.234   2.202   1.111 -0.1281 -0.2618 -1.0043
 7253SOL    HW233393   4.207   2.123   0.986  2.2535 -0.5532 -1.4635
 7254SOL     OW33394   1.247   1.895   8.829 -0.8785  0.2880  0.5818
 7254SOL    HW133395   1.194   1.831   8.781 -0.0452  1.2094 -1.5558
 7254SOL    HW233396   1.280   1.942   8.752 -1.5040 -0.4035 -0.1132
 7255SOL     OW33397   4.712   0.279   9.917  0.1646 -0.9109 -0.5726
 7255SOL    HW133398   4.714   0.235   9.832 -1.0261 -1.7209 -0.1870
 7255SOL    HW233399   4.618   0.282   9.935  0.5090 -0.9776  1.1997
 7256SOL     OW33400   3.725   4.000   3.018  0.0738 -0.0037 -0.4684
 7256SOL    HW133401   3.723   3.943   2.942 -2.5311 -0.6637  0.0887
 7256SOL    HW233402   3.708   4.089   2.989  0.1479  0.7138  1.7006
 7257SOL     OW33403   0.494   0.362   2.087 -0.0664  0.0820  0.2028
 7257SOL    HW133404   0.415   0.386   2.040  0.3593 -0.5614 -0.8270
 7257SOL    HW233405   0.547   0.340   2.010 -2.5732  1.1633 -1.8295
 7258SOL     OW33406   1.479   4.498   3.392  0.6277 -0.3129  0.3562
 7258SOL    HW133407   1.423   4.496   3.470  0.5440  0.2733  0.3070
 7258SOL    HW233408   1.561   4.462   3.425 -0.5335 -1.1034  2.3451
 7259SOL     OW33409   3.616   0.932   4.385 -0.5903 -0.7666  0.8524
 7259SOL    HW133410   3.634   1.024   4.366 -0.0734 -0.9573  0.3903
 7259SOL    HW233411   3.649   0.921   4.474  0.7129 -1.1435  0.3181
 7260SOL     OW33412   1.716   3.766   8.223 -0.1572  0.3026 -0.1523
 7260SOL    HW133413   1.652   3.731   8.162  1.2969 -0.9690 -0.9551
 7260SOL    HW233414   1.657   3.827   8.268 -0.3331 -0.8696  1.1920
 7261SOL     OW33415   1.057   1.088   6.016  0.0153 -0.0858  0.0207
 7261SOL    HW133416   0.998   1.036   6.072 -0.3503  1.9367  1.5074
 7261SOL    HW233417   1.101   1.012   5.977 -1.7378 -0.7525 -0.6629
 7262SOL     OW33418   2.171   4.314   7.310  0.0854  0.0474  0.3787
 7262SOL    HW133419   2.170   4.225   7.272  0.7023  0.2775 -0.1870
 7262SOL    HW233420   2.108   4.363   7.258  0.8407  1.8576  1.1850
 7263SOL     OW33421   3.114   0.882  14.264 -0.6644 -0.0935 -0.5986
 7263SOL    HW133422   3.039   0.935  14.293 -1.4112 -1.3987 -0.1645
 7263SOL    HW233423   3.186   0.931  14.304 -2.4630 -0.3111  2.9446
 7264SOL     OW33424   1.692   2.867  16.349 -0.6254 -0.4234  0.3991
 7264SOL    HW133425   1.613   2.898  16.306 -0.3965  1.0835  1.0494
 7264SOL    HW233426   1.652   2.795  16.398 -0.9849  0.7005  1.7529
 7265SOL     OW33427   2.443   1.982   7.651 -0.5364 -0.4103  0.0667
 7265SOL    HW133428   2.420   1.986   7.744  0.4533 -0.6856  0.3169
 7265SOL    HW233429   2.533   1.953   7.659 -0.4377 -0.2929 -0.6313
 7266SOL     OW33430   0.499   2.143   1.134  0.0537  0.6741  0.2597
 7266SOL    HW133431   0.427   2.166   1.192 -0.9494 -1.4588 -0.1234
 7266SOL    HW233432   0.458   2.070   1.088 -2.0274  2.7663 -1.2277
 7267SOL     OW33433   3.651   3.825   0.419  0.2939  0.4492 -0.1601
 7267SOL    HW133434   3.684   3.842   0.331  0.4451 -0.4447 -0.2758
 7267SOL    HW233435   3.576   3.769   0.395  1.0436 -0.4655 -0.3647
 7268SOL     OW33436   0.699   4.682   5.237  0.5097 -0.4234  0.2037
 7268SOL    HW133437   0.704   4.693   5.332  0.6306 -0.5333  0.2098
 7268SOL    HW233438   0.665   4.594   5.223  0.2555 -0.2248 -0.4363
 7269SOL     OW33439   2.144   2.545   4.577  0.3321 -0.1041 -0.7597
 7269SOL    HW133440   2.127   2.616   4.638  0.0553 -1.8365  1.1724
 7269SOL    HW233441   2.186   2.587   4.502  3.8418 -1.4691  0.4366
 7270SOL     OW33442   2.333   2.327   9.132 -0.1874  0.4305  0.3217
 7270SOL    HW133443   2.382   2.315   9.213 -3.1014 -0.8953  1.8727
 7270SOL    HW233444   2.389   2.292   9.063 -1.6121  2.8425 -2.0856
 7271SOL     OW33445   4.126   1.597   1.447  0.2670 -0.1478  0.2982
 7271SOL    HW133446   4.041   1.629   1.417  0.8468  1.6675  0.5814
 7271SOL    HW233447   4.101   1.528   1.508 -1.4403  1.1965  1.1164
 7272SOL     OW33448   1.359   1.544   5.028 -0.1871 -0.5241  0.3666
 7272SOL    HW133449   1.419   1.498   5.086  1.0110  2.5004  1.5222
 7272SOL    HW233450   1.283   1.499   5.063 -0.0092 -0.1964  1.1651
 7273SOL     OW33451   1.263   1.047   8.464 -0.1510  0.4552  0.1683
 7273SOL    HW133452   1.212   0.966   8.460 -1.3845  1.3319 -1.3035
 7273SOL    HW233453   1.230   1.092   8.387 -0.3865 -3.9387 -2.2936
 7274SOL     OW33454   1.936   2.306   0.547  0.0083  0.0747  0.2243
 7274SOL    HW133455   1.908   2.315   0.456  1.7173 -0.4536 -0.3511
 7274SOL    HW233456   1.877   2.365   0.593  2.4711  0.7490  2.5100
 7275SOL     OW33457   0.471   3.879   8.671  0.2330 -0.2231 -0.3094
 7275SOL    HW133458   0.491   3.811   8.736  0.5626 -0.5637 -0.7632
 7275SOL    HW233459   0.501   3.832   8.593 -1.9087  0.2014 -1.3769
 7276SOL     OW33460   4.133   2.354   4.206 -0.0379  0.0664 -0.4441
 7276SOL    HW133461   4.075   2.296   4.255  4.0108 -2.6555  1.1568
 7276SOL    HW233462   4.085   2.435   4.221 -0.2413  0.0957 -1.2634
 7277SOL     OW33463   3.683   2.233   9.054  0.2119 -0.4496 -0.3001
 7277SOL    HW133464   3.736   2.234   8.974  0.5926 -1.0366 -0.0562
 7277SOL    HW233465   3.622   2.305   9.035  1.2858  1.0581  2.0393
 7278SOL     OW33466   2.429   3.490   3.222  0.3266 -0.0683 -0.7435
 7278SOL    HW133467   2.336   3.504   3.203  1.4784  3.0751 -3.9883
 7278SOL    HW233468   2.454   3.574   3.261  2.2855 -0.4550 -1.1999
 7279SOL     OW33469   2.621   2.639   2.862  0.6594 -0.5362  0.3258
 7279SOL    HW133470   2.526   2.635   2.872  0.2210  1.4792 -2.9675
 7279SOL    HW233471   2.640   2.546   2.871 -0.7084 -0.7618  0.8516
 7280SOL     OW33472   1.690   3.905   7.105 -0.2257 -0.0314 -0.1162
 7280SOL    HW133473   1.700   3.814   7.077 -0.7816  0.3039 -1.3887
 7280SOL    HW233474   1.779   3.934   7.126  0.0849 -0.7032 -0.5138
 7281SOL     OW33475   3.095   0.532   8.644 -0.1601  0.0481 -0.0712
 7281SOL    HW133476   3.107   0.438   8.660 -0.4625  0.1036  0.4879
 7281SOL    HW233477   3.120   0.567   8.729 -0.7755 -3.4306  1.5737
 7282SOL     OW33478   3.639   3.194   2.274  0.1248  0.1171 -0.6930
 7282SOL    HW133479   3.627   3.116   2.330 -1.3096 -0.8259 -2.3088
 7282SOL    HW233480   3.552   3.234   2.279 -0.9836 -2.2262 -0.9315
 7283SOL     OW33481   0.951   4.240   3.975 -0.4815 -0.2067  0.0183
 7283SOL    HW133482   0.915   4.253   3.887 -1.6798  0.8888  0.6816
 7283SOL    HW233483   1.040   4.277   3.968 -0.9232  0.2457 -3.3352
 7284SOL     OW33484   2.582   3.291   8.174 -0.4152 -0.5474 -0.3255
 7284SOL    HW133485   2.538   3.375   8.161  2.3636  0.7219 -1.5943
 7284SOL    HW233486   2.670   3.327   8.187 -1.0154  1.4038 -1.6424
 7285SOL     OW33487   3.163   3.013   5.838 -0.4548 -0.0007  0.6355
 7285SOL    HW133488   3.179   2.984   5.928 -0.5723 -2.4687 -0.1433
 7285SOL    HW233489   3.230   3.078   5.817  2.1216 -2.6573  0.6327
 7286SOL     OW33490   2.347   3.169   2.494 -0.2207  0.1390  0.1742
 7286SOL    HW133491   2.252   3.174   2.484 -0.3125 -0.3811  0.7411
 7286SOL    HW233492   2.358   3.227   2.569 -0.5130  2.6143 -1.6835
 7287SOL     OW33493   3.645   4.470   6.345 -0.3976  0.4846 -0.1912
 7287SOL    HW133494   3.698   4.397   6.313 -1.9716 -0.3171 -0.9717
 7287SOL    HW233495   3.587   4.425   6.406  2.1559  0.1788  1.9853
 7288SOL     OW33496   4.215   3.828   3.287  0.3927 -0.3473 -0.2150
 7288SOL    HW133497   4.265   3.835   3.205  0.0877 -2.3561 -0.5650
 7288SOL    HW233498   4.172   3.914   3.289  0.5821 -0.3002  1.4069
 7289SOL     OW33499   2.058   0.118  10.558  0.1158 -0.4825 -0.2289
 7289SOL    HW133500   2.029   0.200  10.519  2.7467  0.3078 -0.5196
 7289SOL    HW233501   2.006   0.116  10.639 -1.2598  1.5095 -1.0756
 7290SOL     OW33502   0.549   1.690  17.331  0.0856 -0.7267 -0.0057
 7290SOL    HW133503   0.481   1.652  17.388 -1.5088  0.8070 -0.8947
 7290SOL    HW233504   0.488   1.744  17.281 -0.1486 -0.9893 -0.0078
 7291SOL     OW33505   1.986   3.814   6.560 -0.3089  0.2340 -0.3226
 7291SOL    HW133506   1.912   3.763   6.592 -1.4405  0.5031 -2.4957
 7291SOL    HW233507   1.958   3.903   6.581  0.2140 -0.2001  2.2170
 7292SOL     OW33508   4.042   2.761   5.641  0.1661  0.6974  0.0225
 7292SOL    HW133509   4.112   2.753   5.705 -0.4564 -0.1911  0.6035
 7292SOL    HW233510   3.966   2.783   5.695  0.3149 -0.0133  0.5250
 7293SOL     OW33511   1.521   0.354  15.362 -0.1647  0.3479 -0.1085
 7293SOL    HW133512   1.541   0.302  15.440 -0.5963  1.8202  0.9918
 7293SOL    HW233513   1.605   0.365  15.319 -1.0669  2.1206 -1.4617
 7294SOL     OW33514   4.389   3.363   6.841  0.3068  0.3414 -0.7806
 7294SOL    HW133515   4.435   3.430   6.790 -0.5991  0.1091 -1.9036
 7294SOL    HW233516   4.305   3.356   6.797  1.5157  0.6884 -3.1231
 7295SOL     OW33517   3.696   3.820  11.607  0.4990 -0.0506 -0.1526
 7295SOL    HW133518   3.784   3.785  11.614  0.3020  0.0130  2.6421
 7295SOL    HW233519   3.661   3.784  11.525 -1.5547  1.8508 -0.1086
 7296SOL     OW33520   2.203   2.306   7.992  0.2665  0.8923  0.5292
 7296SOL    HW133521   2.293   2.326   8.019 -0.8880  2.7971  2.9262
 7296SOL    HW233522   2.161   2.335   8.072 -0.3315  3.2373 -0.6438
 7297SOL     OW33523   0.888   2.412  12.527 -0.8899 -0.2028  0.1475
 7297SOL    HW133524   0.908   2.505  12.529  1.8220 -0.8043  1.2259
 7297SOL    HW233525   0.971   2.364  12.521 -0.1341  1.2908 -1.6987
 7298SOL     OW33526   1.231   1.462  15.646  0.6225 -0.9884 -0.4085
 7298SOL    HW133527   1.304   1.505  15.601 -1.4188  2.2831 -0.5807
 7298SOL    HW233528   1.204   1.393  15.585  3.1757 -1.4998 -0.9953
 7299SOL     OW33529   1.840   4.390   8.802 -0.3360 -0.7706 -0.4237
 7299SOL    HW133530   1.853   4.296   8.815  1.4410 -0.3473  0.8226
 7299SOL    HW233531   1.922   4.417   8.761 -0.2839 -1.3463 -0.7016
 7300SOL     OW33532   4.394   0.391  15.073  0.1502 -0.0954 -0.5041
 7300SOL    HW133533   4.379   0.465  15.014  0.9193 -0.5231 -1.2192
 7300SOL    HW233534   4.489   0.393  15.080  0.4532 -0.4763 -4.4518
 7301SOL     OW33535   3.413   0.212  10.921  0.5782 -0.0269  0.0458
 7301SOL    HW133536   3.365   0.293  10.940 -1.0020 -0.9216 -0.1760
 7301SOL    HW233537   3.391   0.184  10.833  0.6384 -1.0397  0.3568
 7302SOL     OW33538   2.138   3.277   0.075 -0.2269  0.3111 -0.5371
 7302SOL    HW133539   2.189   3.357   0.087 -1.1559  0.8047  0.2281
 7302SOL    HW233540   2.142   3.281  17.729 -0.5064 -0.3633 -0.5767
 7303SOL     OW33541   3.262   4.006   8.875  0.0182 -0.4043  0.1108
 7303SOL    HW133542   3.297   4.094   8.861 -1.1530  0.0185 -0.2339
 7303SOL    HW233543   3.335   3.945   8.878 -0.2931 -0.8161 -0.6724
 7304SOL     OW33544   4.054   1.084   5.473 -0.4230 -0.2147 -0.3450
 7304SOL    HW133545   4.016   1.165   5.508  1.2153  1.0428 -1.5391
 7304SOL    HW233546   3.981   1.024   5.456 -0.2872 -1.2696  2.7745
 7305SOL     OW33547   1.615   4.219   9.894 -0.4097  0.0764  0.3078
 7305SOL    HW133548   1.688   4.158   9.894 -1.2708 -0.9626  0.5782
 7305SOL    HW233549   1.540   4.165   9.870  1.6277 -2.2433 -0.7455
 7306SOL     OW33550   0.596   2.653   2.098 -0.1123 -0.3289 -0.3260
 7306SOL    HW133551   0.652   2.673   2.173  0.6820 -1.1963 -0.6928
 7306SOL    HW233552   0.666   2.678   2.037 -1.2472 -0.5661 -1.7078
 7307SOL     OW33553   2.313   1.570   9.134  0.4912  0.1447 -0.1435
 7307SOL    HW133554   2.235   1.543   9.183  0.3171  1.9992  0.5936
 7307SOL    HW233555   2.339   1.486   9.097 -2.9299 -2.3119  3.0555
 7308SOL     OW33556   1.749   4.673   8.909 -0.7759  0.0670 -0.3662
 7308SOL    HW133557   1.792   4.590   8.892 -0.2062 -0.0609  1.6577
 7308SOL    HW233558   1.772   4.671   9.002  1.2360  0.9790 -0.8339
 7309SOL     OW33559   2.648   1.409  13.475  0.3437 -0.1785 -0.4928
 7309SOL    HW133560   2.613   1.323  13.454 -0.1180  0.4898 -2.4146
 7309SOL    HW233561   2.597   1.456  13.409 -0.2668  1.1838  0.9463
 7310SOL     OW33562   0.668   2.864  10.106 -0.1987 -0.4243 -0.2934
 7310SOL    HW133563   0.713   2.883  10.189  0.9493 -0.3414 -0.9276
 7310SOL    HW233564   0.594   2.810  10.133  0.1097 -1.5886 -1.7980
 7311SOL     OW33565   2.348   0.358   4.660  0.4587  0.5870 -0.8491
 7311SOL    HW133566   2.358   0.415   4.736  1.5930 -0.7103 -0.0205
 7311SOL    HW233567   2.287   0.414   4.612  1.1406  0.3732 -1.9741
 7312SOL     OW33568   1.604   2.810   6.851  0.0092  0.0420  0.4972
 7312SOL    HW133569   1.607   2.717   6.828  0.9017  0.4728 -1.1464
 7312SOL    HW233570   1.556   2.805   6.934 -0.3096 -0.4200  0.2835
 7313SOL     OW33571   1.983   0.652   1.796  0.1920  0.2237  0.1679
 7313SOL    HW133572   1.962   0.745   1.801 -2.6666 -0.3738 -0.8699
 7313SOL    HW233573   2.051   0.660   1.864  0.4286  0.3109 -0.0793
 7314SOL     OW33574   2.422   0.566  16.217  0.1241  0.4109 -0.5001
 7314SOL    HW133575   2.486   0.636  16.233  0.4241  0.0390 -0.0497
 7314SOL    HW233576   2.398   0.538  16.306  3.6971  2.0688  0.9668
 7315SOL     OW33577   2.198   0.197   4.807 -0.1448 -0.3654 -0.0621
 7315SOL    HW133578   2.106   0.218   4.792 -0.7269 -1.2852  2.2781
 7315SOL    HW233579   2.243   0.253   4.744  1.0361  0.0431  1.1278
 7316SOL     OW33580   1.360   0.524  15.169  0.2395 -0.0096 -0.4634
 7316SOL    HW133581   1.379   0.468  15.094  0.3992 -2.3522  1.3392
 7316SOL    HW233582   1.416   0.491  15.240 -3.5656 -0.2449  2.4470
 7317SOL     OW33583   4.589   2.923   6.789  0.4671  0.4952  0.6651
 7317SOL    HW133584   4.525   2.957   6.853 -1.5497  0.0102 -1.0863
 7317SOL    HW233585   4.649   2.878   6.848 -0.9808  0.2882  1.9754
 7318SOL     OW33586   1.272   0.360   8.899  0.5479  0.4265  0.6163
 7318SOL    HW133587   1.314   0.443   8.920  1.1022  0.3771 -0.2886
 7318SOL    HW233588   1.300   0.296   8.964  0.3009 -0.5118 -0.1937
 7319SOL     OW33589   3.229   0.974  12.504  0.2222 -0.3807 -0.2156
 7319SOL    HW133590   3.291   1.028  12.456 -0.9649 -0.2715 -1.6393
 7319SOL    HW233591   3.255   0.995  12.594  1.5085  1.1860 -0.9559
 7320SOL     OW33592   3.958   0.854  11.210 -0.2632  0.7469 -0.2883
 7320SOL    HW133593   3.932   0.853  11.302  1.6852  0.3317  0.2483
 7320SOL    HW233594   3.977   0.946  11.193 -1.7732  1.1795  0.2860
 7321SOL     OW33595   3.983   0.863   4.114 -0.2460  0.5924 -0.4963
 7321SOL    HW133596   4.045   0.885   4.045  0.3176 -0.2000 -0.2372
 7321SOL    HW233597   4.033   0.854   4.195 -1.1499  0.4843  0.0578
 7322SOL     OW33598   0.172   2.512  16.529 -0.2837 -0.4525  0.2349
 7322SOL    HW133599   0.107   2.573  16.495  0.1397 -0.3112 -0.3174
 7322SOL    HW233600   0.254   2.531  16.483 -0.7248 -2.1388 -1.2566
 7323SOL     OW33601   3.694   1.231   1.453  0.2720 -0.4125 -0.1980
 7323SOL    HW133602   3.759   1.234   1.383  0.1414  1.3496 -0.2246
 7323SOL    HW233603   3.740   1.204   1.533 -0.6981 -1.1320  0.1163
 7324SOL     OW33604   2.546   3.515   2.054  0.0784 -0.3157 -0.0933
 7324SOL    HW133605   2.464   3.476   2.086  1.2943 -0.3982  2.8536
 7324SOL    HW233606   2.520   3.606   2.067  0.4733 -0.4525  1.5815
 7325SOL     OW33607   2.312   1.110   3.868 -0.1400  0.0485  0.8794
 7325SOL    HW133608   2.280   1.199   3.849 -1.2719 -0.5816 -0.1465
 7325SOL    HW233609   2.407   1.124   3.875 -0.0833 -0.6690  1.5953
 7326SOL     OW33610   3.719   0.448   2.920  0.1267 -0.0110  0.0607
 7326SOL    HW133611   3.732   0.503   2.997  1.8390 -1.7638  1.0105
 7326SOL    HW233612   3.774   0.373   2.941 -0.3074 -0.7793 -1.5764
 7327SOL     OW33613   1.082   4.637   2.993 -0.6754  0.8706 -0.2078
 7327SOL    HW133614   1.162   4.664   2.949  0.1598 -0.0976  0.7127
 7327SOL    HW233615   1.016   4.684   2.942 -3.3449 -1.4725  1.0761
 7328SOL     OW33616   3.000   2.067  16.200 -0.1600 -0.1832  0.0043
 7328SOL    HW133617   2.950   2.052  16.280 -0.3971  0.3516 -0.0411
 7328SOL    HW233618   2.953   2.016  16.134  0.9562 -0.6296 -0.4347
 7329SOL     OW33619   2.697   1.672  12.957 -0.4993 -0.1745 -0.2634
 7329SOL    HW133620   2.637   1.598  12.971 -2.4328  2.0093  2.8879
 7329SOL    HW233621   2.676   1.719  13.038  0.8782  2.2503 -1.3367
 7330SOL     OW33622   4.095   2.049  16.336 -0.0902  0.5887 -0.1720
 7330SOL    HW133623   4.091   2.044  16.241  2.0465  0.0573 -0.2327
 7330SOL    HW233624   4.102   1.958  16.364  3.5421  0.0038 -3.0207
 7331SOL     OW33625   3.905   2.274  17.435  0.9994 -0.0168 -0.2165
 7331SOL    HW133626   3.884   2.349  17.379 -2.0971 -0.7166  0.0009
 7331SOL    HW233627   3.837   2.211  17.411  2.3011 -0.8453 -1.6944
 7332SOL     OW33628   2.506   4.135  11.992  0.4445 -0.2195 -0.1635
 7332SOL    HW133629   2.415   4.164  11.992  0.9555  1.4350  0.3695
 7332SOL    HW233630   2.531   4.159  12.081  1.3718  1.2629 -0.8049
 7333SOL     OW33631   0.764   0.266   7.125  0.2452 -0.1567 -0.0620
 7333SOL    HW133632   0.770   0.287   7.218 -1.4523 -0.2151  0.0511
 7333SOL    HW233633   0.696   0.199   7.133  0.9349 -0.9227 -0.6263
 7334SOL     OW33634   2.547   0.174   8.567 -0.1750 -0.7408  0.1702
 7334SOL    HW133635   2.489   0.180   8.490 -0.3409  0.4922  0.3824
 7334SOL    HW233636   2.629   0.210   8.534 -0.5833  1.4192  1.4972
 7335SOL     OW33637   4.676   2.320   2.531 -0.2765  0.1723 -0.3629
 7335SOL    HW133638   4.631   2.375   2.467 -1.7973  2.1501  2.3775
 7335SOL    HW233639   4.665   2.233   2.493 -0.1690  0.5800 -1.3290
 7336SOL     OW33640   2.492   2.076   5.387 -0.2112  0.1791  0.2752
 7336SOL    HW133641   2.479   1.984   5.362 -1.3047  0.2489  0.5989
 7336SOL    HW233642   2.438   2.085   5.465 -0.1238 -1.1475  0.4923
 7337SOL     OW33643   1.102   1.898   5.104 -0.2440 -0.3844  0.1721
 7337SOL    HW133644   1.058   1.956   5.165 -0.4287 -0.1371 -0.1936
 7337SOL    HW233645   1.089   1.814   5.148  2.8664 -0.8802  0.2078
 7338SOL     OW33646   1.788   1.533   9.102  0.3057  0.7374 -0.1861
 7338SOL    HW133647   1.860   1.576   9.148  0.4486  1.1332 -0.7813
 7338SOL    HW233648   1.764   1.466   9.166 -0.7026 -0.7552 -2.1182
 7339SOL     OW33649   3.464   4.396   3.768 -0.5320 -0.2337  0.1631
 7339SOL    HW133650   3.511   4.471   3.731  3.0736 -2.3822  0.4223
 7339SOL    HW233651   3.499   4.396   3.857  1.0486  2.3050 -0.4483
 7340SOL     OW33652   4.415   4.411  16.078 -0.4692  0.0594 -0.8635
 7340SOL    HW133653   4.396   4.490  16.128  0.1909 -0.1679 -0.2572
 7340SOL    HW233654   4.421   4.355  16.155  0.2877  0.6860 -0.4682
 7341SOL     OW33655   0.154   3.784   2.133 -0.1879  0.2985 -0.2858
 7341SOL    HW133656   0.088   3.841   2.173 -0.6834 -0.8308  0.5056
 7341SOL    HW233657   0.103   3.705   2.151  3.3074 -1.2719  2.6040
 7342SOL     OW33658   2.399   1.569   4.588  0.3966 -0.1797 -0.1303
 7342SOL    HW133659   2.389   1.479   4.558 -1.1874 -1.0136  2.9282
 7342SOL    HW233660   2.474   1.597   4.534 -1.7813 -1.2849 -3.6933
 7343SOL     OW33661   1.777   2.236  15.790 -0.1404 -0.5224  0.2587
 7343SOL    HW133662   1.860   2.251  15.745  0.2034 -2.2092  0.3396
 7343SOL    HW233663   1.736   2.161  15.748  0.5979 -0.0703 -1.2543
 7344SOL     OW33664   0.848   4.314  15.477  0.1752  0.2891  0.2753
 7344SOL    HW133665   0.841   4.270  15.562  1.9240 -1.2359 -0.3723
 7344SOL    HW233666   0.776   4.375  15.493 -1.1727 -1.0676 -0.6480
 7345SOL     OW33667   0.107   0.627  13.452 -0.3868  0.3871 -1.0376
 7345SOL    HW133668   0.197   0.630  13.418 -0.2124 -1.9947 -0.7994
 7345SOL    HW233669   0.069   0.540  13.438  0.8129 -0.1785 -0.8036
 7346SOL     OW33670   0.711   3.514   4.301  0.1015 -0.1163  0.2333
 7346SOL    HW133671   0.670   3.480   4.222  0.4586  1.0896 -0.4726
 7346SOL    HW233672   0.649   3.578   4.336 -1.5774 -0.5323 -2.0223
 7347SOL     OW33673   4.071   4.013   8.396  0.6356  0.1685  0.3430
 7347SOL    HW133674   4.067   4.102   8.431 -1.6468  0.0529  0.3863
 7347SOL    HW233675   4.072   3.962   8.477 -0.7221  0.3381  0.4773
 7348SOL     OW33676   0.587   1.587  11.696  0.4194 -0.0449  0.4010
 7348SOL    HW133677   0.494   1.563  11.699 -0.0096  1.7252  1.3519
 7348SOL    HW233678   0.609   1.572  11.604  0.8426 -0.3058  0.5426
 7349SOL     OW33679   4.219   0.607  12.382  0.2709 -0.4016 -0.7782
 7349SOL    HW133680   4.255   0.525  12.418 -0.5173 -1.3994 -2.2674
 7349SOL    HW233681   4.260   0.671  12.440  0.1293  0.0269 -1.1531
 7350SOL     OW33682   0.472   3.314   7.224  0.0731  0.3400 -0.1650
 7350SOL    HW133683   0.404   3.314   7.157 -0.0779 -1.5706 -0.0114
 7350SOL    HW233684   0.531   3.239   7.212 -2.3589 -1.5454 -0.4437
 7351SOL     OW33685   4.409   4.502   3.002 -0.2389  0.0299 -0.2548
 7351SOL    HW133686   4.401   4.444   2.926  2.8492  1.3848 -1.6123
 7351SOL    HW233687   4.469   4.452   3.058 -0.2153 -0.8422 -1.0628
 7352SOL     OW33688   1.073   2.440   8.434  0.8326  0.5563 -0.5589
 7352SOL    HW133689   1.141   2.465   8.497  1.6369 -0.3828 -1.0408
 7352SOL    HW233690   0.992   2.486   8.456 -0.5219 -0.8946 -2.5730
 7353SOL     OW33691   3.144   2.008   8.655  0.3208  0.1649  0.4544
 7353SOL    HW133692   3.179   2.096   8.673  0.2919 -0.0322  1.4791
 7353SOL    HW233693   3.193   1.966   8.585 -1.1491 -0.7407 -0.0257
 7354SOL     OW33694   3.980   1.487   3.726  0.1665 -0.2343 -0.0331
 7354SOL    HW133695   4.044   1.498   3.656 -0.9706 -0.8797 -1.1970
 7354SOL    HW233696   4.030   1.521   3.800 -1.4378  1.3691  0.3192
 7355SOL     OW33697   1.310   3.263   7.031  0.0176 -0.8192 -0.1795
 7355SOL    HW133698   1.329   3.356   7.023 -0.0006 -0.7420  0.7085
 7355SOL    HW233699   1.389   3.235   6.986 -1.0199 -0.5204 -2.2134
 7356SOL     OW33700   4.185   3.698   8.546 -0.0248  0.4877  0.3468
 7356SOL    HW133701   4.111   3.758   8.543  1.2111  1.9280 -1.2574
 7356SOL    HW233702   4.140   3.620   8.578  2.2476 -2.0131 -2.4774
 7357SOL     OW33703   2.261   3.530   7.123 -0.1532 -0.3188  0.2179
 7357SOL    HW133704   2.354   3.512   7.134 -0.2666 -0.2343  1.2862
 7357SOL    HW233705   2.208   3.489   7.191  0.6830  0.7487  1.5078
 7358SOL     OW33706   0.817   0.353  12.639 -0.0282  0.1601 -0.2648
 7358SOL    HW133707   0.885   0.285  12.632 -2.0791 -2.1035  1.5232
 7358SOL    HW233708   0.737   0.299  12.638 -0.3857  0.6631  1.5903
 7359SOL     OW33709   1.093   0.041  14.527 -0.1560 -0.0989  0.8776
 7359SOL    HW133710   1.142   4.702  14.496 -0.3555  0.0111  0.2877
 7359SOL    HW233711   1.012   0.033  14.476  0.6927 -1.4818 -0.2508
 7360SOL     OW33712   2.136   0.594   7.643  0.2838 -0.3888  0.8111
 7360SOL    HW133713   2.114   0.529   7.710  0.7420  0.6042  1.9325
 7360SOL    HW233714   2.179   0.663   7.694 -2.7017  3.0465 -1.2928
 7361SOL     OW33715   3.652   4.607   1.395  0.1187  0.2512 -0.0402
 7361SOL    HW133716   3.724   4.603   1.457 -0.9631 -0.0730  1.1761
 7361SOL    HW233717   3.600   4.530   1.416  2.4973 -1.3899 -0.1620
 7362SOL     OW33718   1.150   2.014   8.436 -0.2060 -0.1220  0.0707
 7362SOL    HW133719   1.122   2.072   8.507 -1.6982 -1.1298  0.3008
 7362SOL    HW233720   1.188   1.945   8.491 -1.6263  0.1555  1.3850
 7363SOL     OW33721   1.939   2.817   5.548  0.1915 -0.3491  0.3667
 7363SOL    HW133722   1.958   2.895   5.601  1.6485 -1.4297  1.4444
 7363SOL    HW233723   2.002   2.753   5.581 -0.3111 -0.0259  1.9657
 7364SOL     OW33724   0.097   1.893   8.484  0.0430  0.4020 -0.2187
 7364SOL    HW133725   0.112   1.957   8.554  0.1891  1.8595 -1.5749
 7364SOL    HW233726   0.005   1.870   8.498  0.5567 -0.9265  0.9756
 7365SOL     OW33727   3.218   2.430  11.060 -0.4287  0.0036  0.1142
 7365SOL    HW133728   3.221   2.359  11.124  1.2138 -1.1619 -1.2203
 7365SOL    HW233729   3.299   2.415  11.010  0.1802  2.9049  0.2498
 7366SOL     OW33730   4.178   2.362  16.582 -0.1097 -0.0804  0.2622
 7366SOL    HW133731   4.216   2.274  16.577 -1.7471 -0.8734  1.9687
 7366SOL    HW233732   4.137   2.361  16.495  0.5900  0.4028 -0.0771
 7367SOL     OW33733   3.880   1.611   9.955  0.2263  0.3261  0.2242
 7367SOL    HW133734   3.796   1.595   9.912  1.6753  0.7711 -2.8568
 7367SOL    HW233735   3.889   1.707   9.956  0.8725  0.2568  0.8039
 7368SOL     OW33736   3.095   4.221   8.172  0.0952  0.2062  0.0121
 7368SOL    HW133737   3.067   4.137   8.209  0.0721  1.1087  2.0484
 7368SOL    HW233738   3.187   4.198   8.155  0.1026 -0.4061  0.9162
 7369SOL     OW33739   2.639   1.769   0.585 -0.5320 -0.0009  0.7027
 7369SOL    HW133740   2.711   1.719   0.547 -0.0811 -0.1676  1.7869
 7369SOL    HW233741   2.578   1.697   0.602  1.1865 -1.6907 -0.3219
 7370SOL     OW33742   2.122   2.878   1.229 -0.1548  0.4819 -0.5574
 7370SOL    HW133743   2.083   2.791   1.240  0.7431 -0.3292 -3.7797
 7370SOL    HW233744   2.042   2.926   1.206 -1.1794 -2.1609 -2.4811
 7371SOL     OW33745   1.314   3.955   8.699 -0.0236 -0.1902  0.1740
 7371SOL    HW133746   1.346   3.978   8.786  1.1140 -0.5998 -0.1295
 7371SOL    HW233747   1.374   3.885   8.673 -0.9882 -0.1498 -2.1371
 7372SOL     OW33748   4.546   2.223  14.063  0.3924  0.3007  0.3524
 7372SOL    HW133749   4.594   2.298  14.029 -0.8525  0.6234 -0.6651
 7372SOL    HW233750   4.566   2.225  14.157  0.2613 -0.2459  0.3911
 7373SOL     OW33751   1.952   0.882   4.374  0.2609  0.8042 -0.6037
 7373SOL    HW133752   2.023   0.942   4.349 -0.0195  1.8650  1.1595
 7373SOL    HW233753   1.991   0.797   4.352 -1.0978 -0.0376  0.2801
 7374SOL     OW33754   2.576   2.222   7.869 -0.3017 -0.9652  0.3743
 7374SOL    HW133755   2.557   2.259   7.955  0.1953 -0.0367  0.0849
 7374SOL    HW233756   2.515   2.149   7.866 -1.2353 -0.1631 -0.2357
 7375SOL     OW33757   1.812   0.182   5.144 -0.7327 -0.3316 -0.4355
 7375SOL    HW133758   1.821   0.252   5.209  1.6198 -1.2415  0.2170
 7375SOL    HW233759   1.716   0.178   5.136 -0.8261  2.4175 -0.6667
 7376SOL     OW33760   2.158   3.510   4.198 -0.7057  0.2320 -0.2637
 7376SOL    HW133761   2.067   3.499   4.169 -1.1304  1.6975  0.5449
 7376SOL    HW233762   2.152   3.449   4.272 -2.0635  0.1732 -0.4127
 7377SOL     OW33763   0.661   0.270   9.864  0.0160  0.2217  0.2046
 7377SOL    HW133764   0.622   0.301   9.782  2.2520 -1.0836 -1.3772
 7377SOL    HW233765   0.597   0.300   9.929  0.4157  0.7194  0.3627
 7378SOL     OW33766   2.953   3.992   4.069 -0.5940  0.9332  0.7991
 7378SOL    HW133767   2.970   3.975   3.976 -0.2443  1.3448  0.7919
 7378SOL    HW233768   2.932   4.085   4.057  0.0898  0.8684 -0.8274
 7379SOL     OW33769   3.656   0.407   3.280  0.7110 -0.2744  0.5771
 7379SOL    HW133770   3.643   0.499   3.257  0.7759 -0.1035  1.2411
 7379SOL    HW233771   3.584   0.396   3.341  0.7806 -0.2054  0.6721
 7380SOL     OW33772   3.087   1.382   3.326  0.0947  0.2329 -0.1142
 7380SOL    HW133773   3.006   1.405   3.281 -0.4322 -0.1299  0.6581
 7380SOL    HW233774   3.153   1.406   3.260  0.5657  0.9192  0.6071
 7381SOL     OW33775   2.751   0.936   9.119  0.1648  0.3397 -0.2751
 7381SOL    HW133776   2.773   0.984   9.039 -0.0830  2.2371  0.7934
 7381SOL    HW233777   2.810   0.863   9.098 -1.2017 -0.3689 -1.6183
 7382SOL     OW33778   0.210   2.057  11.117 -0.3746 -0.2267 -0.1105
 7382SOL    HW133779   0.205   2.060  11.022  0.9180  0.2966 -0.1645
 7382SOL    HW233780   0.279   2.122  11.131 -0.3091 -0.2490 -0.3346
 7383SOL     OW33781   1.177   1.546   6.641 -0.1337 -0.2009 -0.0021
 7383SOL    HW133782   1.102   1.602   6.623  0.1218 -0.1264 -0.8331
 7383SOL    HW233783   1.223   1.588   6.714 -0.3010 -1.8991  1.1104
 7384SOL     OW33784   1.091   0.510   4.618 -0.1494 -0.8626 -0.1175
 7384SOL    HW133785   1.046   0.465   4.547 -0.9979  1.3314 -0.9881
 7384SOL    HW233786   1.075   0.444   4.686  0.9390 -0.0212  0.9729
 7385SOL     OW33787   2.154   1.949   2.982  0.1720  0.2268  0.9696
 7385SOL    HW133788   2.086   2.015   2.994  0.0150 -0.0751  1.7334
 7385SOL    HW233789   2.103   1.875   3.014  0.2425 -0.2681 -0.0814
 7386SOL     OW33790   0.621   3.263   0.857 -0.2381  0.0778  0.1243
 7386SOL    HW133791   0.600   3.249   0.765  1.3281  0.5018 -0.2809
 7386SOL    HW233792   0.712   3.293   0.860  0.5646 -2.5834  2.4345
 7387SOL     OW33793   2.732   2.652   4.052 -0.4915 -0.0526 -0.9413
 7387SOL    HW133794   2.759   2.741   4.033 -0.3447 -0.2297 -1.5629
 7387SOL    HW233795   2.636   2.658   4.049 -0.5962 -2.3472 -2.4155
 7388SOL     OW33796   0.161   0.574   4.202 -0.5259  0.0592  0.1494
 7388SOL    HW133797   0.227   0.615   4.146  1.6816 -0.9116  2.0374
 7388SOL    HW233798   0.179   0.619   4.284  0.4588  1.1379 -0.6549
 7389SOL     OW33799   0.163   1.914   3.254 -0.4021  0.0504 -0.8627
 7389SOL    HW133800   0.200   1.935   3.168 -0.1457 -4.2208 -1.7579
 7389SOL    HW233801   0.147   1.999   3.296  0.0529 -0.0477 -0.4922
 7390SOL     OW33802   2.084   3.419  16.945 -0.0348  1.1430  0.4762
 7390SOL    HW133803   2.177   3.403  16.963  0.8328  1.5065 -3.6737
 7390SOL    HW233804   2.074   3.397  16.852 -0.3540 -1.0624  1.0372
 7391SOL     OW33805   1.646   0.663  14.570  0.1223  0.3995  0.0062
 7391SOL    HW133806   1.647   0.726  14.642  0.0127 -0.2470  0.5753
 7391SOL    HW233807   1.621   0.577  14.605  1.0896 -0.3574 -1.1635
 7392SOL     OW33808   3.698   2.348  12.863  0.0406  0.5845 -0.7458
 7392SOL    HW133809   3.665   2.282  12.924  3.3362 -0.8261 -0.5179
 7392SOL    HW233810   3.759   2.305  12.803  2.5253  0.6333  1.7988
 7393SOL     OW33811   2.970   3.266   8.746 -0.1324 -0.1747 -0.0412
 7393SOL    HW133812   2.892   3.321   8.744 -0.9311 -1.2619  1.0409
 7393SOL    HW233813   2.946   3.182   8.786  1.0985 -0.8286 -0.6745
 7394SOL     OW33814   2.950   2.449   2.917  0.2761  0.3136 -0.1693
 7394SOL    HW133815   2.856   2.429   2.916  0.7745 -2.0688 -0.2047
 7394SOL    HW233816   2.987   2.369   2.955 -0.6259 -0.5215 -1.0592
 7395SOL     OW33817   2.990   2.557   8.323  0.7846 -0.4318  0.2239
 7395SOL    HW133818   3.079   2.534   8.296  1.6288  0.4525  2.2638
 7395SOL    HW233819   2.957   2.468   8.332 -0.8214  0.2851  1.4051
 7396SOL     OW33820   3.869   2.472   3.124 -0.3364  0.9468 -0.0101
 7396SOL    HW133821   3.835   2.561   3.124 -1.1572  0.6370 -2.2270
 7396SOL    HW233822   3.822   2.431   3.051  1.2285  0.4703 -0.7583
 7397SOL     OW33823   0.588   2.554   3.218 -0.3778  0.0742 -0.3073
 7397SOL    HW133824   0.661   2.594   3.263 -0.8181  0.7286 -0.1738
 7397SOL    HW233825   0.580   2.608   3.139  2.7968  0.4977 -0.3176
 7398SOL     OW33826   1.043   4.590  14.823 -0.0996  0.1475 -0.2771
 7398SOL    HW133827   0.959   4.610  14.781  0.8197  0.1733 -2.0985
 7398SOL    HW233828   1.083   4.671  14.790  0.9408 -0.1471  0.2985
 7399SOL     OW33829   4.386   1.340   6.860  0.6353  0.0477  0.5812
 7399SOL    HW133830   4.309   1.381   6.899  0.5785 -0.3864  0.9256
 7399SOL    HW233831   4.400   1.383   6.776 -1.2733  2.0331  1.2745
 7400SOL     OW33832   1.731   3.063  10.192  0.0883  0.3507 -0.4046
 7400SOL    HW133833   1.733   3.091  10.283  4.9187  0.6121 -0.5766
 7400SOL    HW233834   1.747   2.970  10.209 -3.0387 -0.3262 -1.1439
 7401SOL     OW33835   2.987   0.217   8.799  0.9262  0.4367 -0.1376
 7401SOL    HW133836   2.992   0.143   8.738  1.6457 -0.6480  1.2348
 7401SOL    HW233837   3.079   0.242   8.805  0.9081  0.6360 -0.6693
 7402SOL     OW33838   2.778   2.417   4.182  0.3392  0.3208 -0.1544
 7402SOL    HW133839   2.729   2.444   4.259  2.1210 -0.3688  1.2376
 7402SOL    HW233840   2.775   2.492   4.123 -2.7529  0.3421  0.0466
 7403SOL     OW33841   3.703   0.041   7.798 -0.2047 -0.5622 -0.4277
 7403SOL    HW133842   3.704   0.113   7.735  3.0539  1.8543  2.4557
 7403SOL    HW233843   3.630   4.734   7.754  0.2523 -0.2969 -1.4582
 7404SOL     OW33844   2.940   0.583   8.227  0.5254  0.0461 -0.2214
 7404SOL    HW133845   2.928   0.513   8.291  0.1807  0.5674  0.2828
 7404SOL    HW233846   3.031   0.606   8.247  0.8178 -0.0573 -1.3910
 7405SOL     OW33847   3.713   4.159  17.549  0.6511  0.0548 -0.3851
 7405SOL    HW133848   3.698   4.076  17.503  0.9171 -0.1615 -0.0797
 7405SOL    HW233849   3.782   4.136  17.612  0.3766 -0.9547 -0.4634
 7406SOL     OW33850   1.624   0.584  16.892  1.0509  0.5341 -0.6903
 7406SOL    HW133851   1.549   0.642  16.880  0.2951 -0.3729 -0.3498
 7406SOL    HW233852   1.599   0.539  16.973 -2.3011  3.5582 -0.0168
 7407SOL     OW33853   3.825   4.286   2.715 -0.2214 -0.2014  0.6931
 7407SOL    HW133854   3.761   4.214   2.708 -0.0451 -0.4047  1.2245
 7407SOL    HW233855   3.833   4.307   2.622  0.4053  0.7327  0.9621
 7408SOL     OW33856   2.029   0.813   9.888  0.7384 -0.2845  0.0342
 7408SOL    HW133857   2.004   0.803   9.796  0.7054  1.4922 -0.1434
 7408SOL    HW233858   1.946   0.835   9.930  0.4821 -0.7981 -0.2110
 7409SOL     OW33859   0.031   3.502  10.794 -0.2623  0.1612 -0.0794
 7409SOL    HW133860   0.092   3.522  10.724 -1.6324 -0.5416 -1.4613
 7409SOL    HW233861   0.018   3.408  10.781 -0.0426  0.2877 -1.1496
 7410SOL     OW33862   2.027   2.084   7.963  0.1400  0.8448 -0.5565
 7410SOL    HW133863   2.003   2.056   8.051  0.5667 -0.3921 -0.8306
 7410SOL    HW233864   2.103   2.142   7.967  0.7041 -0.1242  2.2371
 7411SOL     OW33865   1.506   2.475   7.791  0.2526 -0.5274 -0.1713
 7411SOL    HW133866   1.467   2.478   7.878 -1.8053  0.6437 -1.1457
 7411SOL    HW233867   1.593   2.510   7.811 -0.8804  1.6265  1.0670
 7412SOL     OW33868   3.711   3.970  12.536  0.2160  0.9853  0.0282
 7412SOL    HW133869   3.708   4.053  12.488 -0.6862  0.5913 -0.5861
 7412SOL    HW233870   3.666   3.988  12.618 -0.9801 -0.9386 -0.2114
 7413SOL     OW33871   3.424   3.395  14.450  0.0997  0.1858  0.0730
 7413SOL    HW133872   3.373   3.331  14.401 -2.4223  0.9204  1.7511
 7413SOL    HW233873   3.458   3.333  14.514  1.2381 -0.7372 -1.4098
 7414SOL     OW33874   3.028   1.997   6.768  0.7832  0.1676 -0.0597
 7414SOL    HW133875   3.014   1.940   6.693 -1.0743 -0.8525  1.0573
 7414SOL    HW233876   2.943   2.003   6.813  0.6328  1.1622 -0.4775
 7415SOL     OW33877   1.131   0.598   1.928 -0.8352 -0.4789  0.5107
 7415SOL    HW133878   1.187   0.545   1.872 -1.0974  2.1042 -2.2598
 7415SOL    HW233879   1.100   0.651   1.854 -0.5690  0.6683  1.2252
 7416SOL     OW33880   4.315   0.512   5.342  0.3418 -0.4325 -0.2247
 7416SOL    HW133881   4.243   0.536   5.283 -0.3941 -0.1353  0.7985
 7416SOL    HW233882   4.319   0.569   5.419 -1.2693 -1.4727  0.6424
 7417SOL     OW33883   3.603   0.378   4.542 -0.0383 -0.5650 -0.3802
 7417SOL    HW133884   3.647   0.370   4.457 -1.1553 -0.7938 -0.9499
 7417SOL    HW233885   3.623   0.468   4.564 -0.4257 -0.5092 -0.2512
 7418SOL     OW33886   1.149   4.527   7.800 -0.8656 -0.3606  0.1520
 7418SOL    HW133887   1.102   4.609   7.789 -0.9062 -0.5378 -1.0907
 7418SOL    HW233888   1.233   4.561   7.770 -1.3801 -1.1386 -2.1986
 7419SOL     OW33889   1.645   2.714   3.588  0.4787  0.1746  0.3079
 7419SOL    HW133890   1.692   2.710   3.504 -0.4880 -0.5366 -0.1990
 7419SOL    HW233891   1.576   2.650   3.572 -0.0610  0.7297  0.4583
 7420SOL     OW33892   2.218   1.102   3.544 -0.2291 -0.1190  0.0535
 7420SOL    HW133893   2.218   1.188   3.586 -1.9879 -1.2473  2.3459
 7420SOL    HW233894   2.307   1.072   3.564 -0.2522  0.0832  0.4678
 7421SOL     OW33895   3.351   4.075  17.242  0.0062 -0.8426  0.3053
 7421SOL    HW133896   3.435   4.031  17.255  0.1337 -0.5981  0.3078
 7421SOL    HW233897   3.327   4.034  17.159 -0.5890  0.2964 -0.0871
 7422SOL     OW33898   3.955   0.215   1.920 -0.0425  0.0013 -0.3762
 7422SOL    HW133899   3.932   0.149   1.985 -1.1555  2.2220  1.5198
 7422SOL    HW233900   3.871   0.262   1.921  0.0320  0.0867  2.4231
 7423SOL     OW33901   1.840   0.773   5.022 -0.8953  0.2069 -0.4959
 7423SOL    HW133902   1.868   0.864   5.022  0.7331 -0.2992  0.2230
 7423SOL    HW233903   1.925   0.738   4.998 -1.3216 -1.2187  0.0605
 7424SOL     OW33904   4.195   3.600  12.242 -0.2109  0.1417 -0.0182
 7424SOL    HW133905   4.222   3.546  12.168 -0.2895  1.7677 -1.2357
 7424SOL    HW233906   4.120   3.556  12.282 -0.3684 -0.4406 -0.9346
 7425SOL     OW33907   0.675   2.223  15.983  0.2054  0.6339 -0.1363
 7425SOL    HW133908   0.683   2.308  16.027  2.4151  0.3277  0.0573
 7425SOL    HW233909   0.746   2.223  15.919 -1.4087 -0.3991 -1.9125
 7426SOL     OW33910   4.630   3.990   7.857  0.6051  0.5334  0.4646
 7426SOL    HW133911   4.643   3.930   7.783  1.0420  1.1692  0.0264
 7426SOL    HW233912   4.652   3.927   7.926  2.3432 -2.7189 -3.0334
 7427SOL     OW33913   1.769   3.637   5.080  0.4642 -0.3338  0.4566
 7427SOL    HW133914   1.790   3.689   5.158 -0.4147 -0.1292  0.5605
 7427SOL    HW233915   1.833   3.659   5.013  0.5323 -0.9409  0.3180
 7428SOL     OW33916   3.173   0.515  13.824  0.7376 -0.8516 -0.0219
 7428SOL    HW133917   3.204   0.431  13.790 -1.0161 -0.7809 -1.7903
 7428SOL    HW233918   3.164   0.558  13.739 -1.8301  0.4993  0.9245
 7429SOL     OW33919   0.849   4.015   5.320 -0.1333  0.3638  0.0221
 7429SOL    HW133920   0.833   3.967   5.401  0.8656  0.1774  0.1128
 7429SOL    HW233921   0.943   4.002   5.304 -0.2811  3.3548 -3.5511
 7430SOL     OW33922   3.061   3.836   3.827  0.0013 -0.3121 -0.4358
 7430SOL    HW133923   3.061   3.931   3.816  3.1785 -0.0386  1.8194
 7430SOL    HW233924   3.058   3.812   3.734 -4.1476  1.7741 -0.8302
 7431SOL     OW33925   0.826   4.110   8.504  0.0246 -0.2443  0.5363
 7431SOL    HW133926   0.744   4.158   8.503 -0.3725 -0.9203  0.3847
 7431SOL    HW233927   0.879   4.187   8.486 -0.2929  0.1331  1.2470
 7432SOL     OW33928   4.460   4.650   3.350  0.4141 -0.1840 -0.8062
 7432SOL    HW133929   4.512   4.569   3.349  3.0220  1.4838 -1.6543
 7432SOL    HW233930   4.509   4.700   3.285 -0.2340  1.2190 -0.2237
 7433SOL     OW33931   0.686   1.816   8.584  0.3695  0.4714  0.4658
 7433SOL    HW133932   0.700   1.879   8.513 -0.2401  1.0309  0.8428
 7433SOL    HW233933   0.748   1.854   8.646 -1.4341  2.5223  0.9811
 7434SOL     OW33934   0.566   4.071   4.543  0.3938 -0.0787 -0.1857
 7434SOL    HW133935   0.612   4.023   4.611  2.6671 -0.9387 -2.3242
 7434SOL    HW233936   0.633   4.114   4.491  0.2634  0.2251 -0.1047
 7435SOL     OW33937   4.694   2.269   5.707  0.2174 -0.0653 -0.3766
 7435SOL    HW133938   4.730   2.265   5.618 -0.8680  1.8632 -0.8990
 7435SOL    HW233939   0.028   2.315   5.751 -1.7540 -1.4554  4.2493
 7436SOL     OW33940   0.331   0.349  14.108  0.0530 -0.3665 -0.4873
 7436SOL    HW133941   0.264   0.296  14.152  1.7762 -2.8451 -0.8096
 7436SOL    HW233942   0.285   0.431  14.124  1.9757  0.6170 -0.0410
 7437SOL     OW33943   1.366   0.908   6.951  0.4406 -0.1970  0.0772
 7437SOL    HW133944   1.283   0.941   6.985  2.1706 -0.7016  4.7315
 7437SOL    HW233945   1.356   0.822   6.992  1.4385  0.1492  1.0207
 7438SOL     OW33946   1.669   1.358  13.011  0.4742  0.4218  0.6269
 7438SOL    HW133947   1.710   1.272  12.999  2.5613  1.5200 -0.2202
 7438SOL    HW233948   1.704   1.390  13.095 -0.7579  1.9214  0.5594
 7439SOL     OW33949   0.500   3.102   7.812  0.0304  0.4008 -0.5782
 7439SOL    HW133950   0.554   3.085   7.735  1.8513  1.7208  0.4188
 7439SOL    HW233951   0.540   3.046   7.878 -1.2453  0.3630  0.1609
 7440SOL     OW33952   0.157   3.019   6.121  0.4236  0.2745 -0.1916
 7440SOL    HW133953   0.087   2.989   6.064  0.1961 -1.6822  1.1015
 7440SOL    HW233954   0.115   3.020   6.207 -2.4847 -0.3617 -1.6218
 7441SOL     OW33955   2.706   4.078   4.388 -0.0389 -0.4387 -0.2832
 7441SOL    HW133956   2.780   4.101   4.445  0.8106  0.3951 -1.7025
 7441SOL    HW233957   2.708   4.152   4.327  0.7590  0.2399  0.5691
 7442SOL     OW33958   1.831   3.009   2.022  0.1690  0.3551 -0.2133
 7442SOL    HW133959   1.852   3.000   1.929  1.9883  1.4460  0.0761
 7442SOL    HW233960   1.754   3.064   2.031  0.8424  1.2306  0.2252
 7443SOL     OW33961   4.673   1.681  16.586  0.1268 -0.0780 -0.2938
 7443SOL    HW133962   0.000   1.667  16.656 -1.0952  0.2569  0.9111
 7443SOL    HW233963   4.704   1.626  16.514  0.0207 -0.1898 -0.2544
 7444SOL     OW33964   0.572   3.327   3.039 -0.4536 -0.4227 -0.0591
 7444SOL    HW133965   0.586   3.240   3.075 -1.0000 -0.3936  0.2172
 7444SOL    HW233966   0.633   3.326   2.966  0.1703 -2.2680  0.4920
 7445SOL     OW33967   0.070   2.813   6.869 -0.4612 -0.3799 -0.5009
 7445SOL    HW133968   0.119   2.770   6.939 -0.3711 -0.4729 -0.6208
 7445SOL    HW233969   0.117   2.804   6.786 -2.6949  2.3343 -2.0513
 7446SOL     OW33970   0.526   2.900   1.905  0.0157 -0.7370 -0.2011
 7446SOL    HW133971   0.547   2.889   1.997 -1.5173  1.8866  0.4765
 7446SOL    HW233972   0.585   2.972   1.883  0.0968 -0.3340  1.3536
 7447SOL     OW33973   2.054   3.694  10.698 -0.2799 -0.1581  0.4348
 7447SOL    HW133974   2.128   3.738  10.741  0.2036  0.8594 -1.4233
 7447SOL    HW233975   1.992   3.701  10.771 -0.5093 -2.8042  0.5004
 7448SOL     OW33976   1.414   4.163   6.379 -0.2818 -0.4820 -0.6548
 7448SOL    HW133977   1.351   4.123   6.439 -1.2556  2.9469  0.6108
 7448SOL    HW233978   1.422   4.099   6.307  1.7180 -1.5120  0.4581
 7449SOL     OW33979   2.189   0.209   3.814 -0.2637  0.0853  0.6929
 7449SOL    HW133980   2.111   0.210   3.758  0.4745  0.6619 -0.3311
 7449SOL    HW233981   2.162   0.155   3.887  0.2224  2.7751  2.8583
 7450SOL     OW33982   0.471   1.708   1.179 -0.6085  0.2858 -0.0535
 7450SOL    HW133983   0.485   1.669   1.093 -0.6928  0.3488 -0.0958
 7450SOL    HW233984   0.505   1.797   1.172  0.5579  0.1115  3.2343
 7451SOL     OW33985   3.574   1.218   5.148 -0.7149 -0.0424 -0.4107
 7451SOL    HW133986   3.561   1.143   5.207  0.3998 -0.1514 -0.2962
 7451SOL    HW233987   3.535   1.283   5.206 -0.5311  2.0173 -2.6265
 7452SOL     OW33988   3.366   0.457   7.177 -0.2504  0.2468  0.2977
 7452SOL    HW133989   3.290   0.505   7.211 -0.5510  1.1414 -1.6453
 7452SOL    HW233990   3.319   0.396   7.120  0.5238 -0.7798  0.7567
 7453SOL     OW33991   0.477   0.987   9.675  0.8341 -0.6782  0.1266
 7453SOL    HW133992   0.487   0.904   9.628 -1.4546 -0.6758 -0.3442
 7453SOL    HW233993   0.560   0.988   9.722  0.0613  2.9277  1.4053
 7454SOL     OW33994   3.397   1.546   5.982  0.3854  0.1961  0.4157
 7454SOL    HW133995   3.385   1.623   5.926  0.7764  1.5090  2.1327
 7454SOL    HW233996   3.419   1.479   5.918  0.1971 -1.2835  1.9171
 7455SOL     OW33997   2.396   4.139   1.104 -0.0150  0.4457 -0.3583
 7455SOL    HW133998   2.437   4.093   1.177 -0.1076 -0.3063 -0.7704
 7455SOL    HW233999   2.448   4.219   1.109  0.7323 -0.1426  0.9900
 7456SOL     OW34000   1.138   2.804   5.805  0.2223  0.3345  0.5599
 7456SOL    HW134001   1.091   2.723   5.821 -2.1825  2.2079  3.0683
 7456SOL    HW234002   1.143   2.829   5.897 -1.4016  3.1517 -0.0976
 7457SOL     OW34003   3.077   2.093  17.164 -0.4369  0.8342  0.5219
 7457SOL    HW134004   3.102   2.002  17.147  0.2728  1.0545  0.3581
 7457SOL    HW234005   3.043   2.122  17.079 -0.0158 -0.1855 -0.0022
 7458SOL     OW34006   0.586   1.202   5.985  0.1981  0.4313 -0.0752
 7458SOL    HW134007   0.648   1.193   6.057 -1.7768 -4.1080  1.0060
 7458SOL    HW234008   0.513   1.243   6.031 -0.8829 -1.3063 -0.2558
 7459SOL     OW34009   3.105   3.958   7.747  0.6866  0.0029  0.6780
 7459SOL    HW134010   3.095   3.869   7.780  0.4367 -0.3012 -0.2182
 7459SOL    HW234011   3.026   3.999   7.782  1.5589  1.8841  0.4674
 7460SOL     OW34012   2.310   4.411   5.859 -0.2061  0.2269 -0.0120
 7460SOL    HW134013   2.302   4.385   5.767 -1.8967 -0.7861  0.4186
 7460SOL    HW234014   2.374   4.343   5.877  0.3380  0.1089 -2.4760
 7461SOL     OW34015   3.108   3.192   2.759 -0.1779 -0.4732 -0.1564
 7461SOL    HW134016   3.191   3.159   2.725  0.2633  0.5015 -0.0412
 7461SOL    HW234017   3.046   3.177   2.688 -0.0171 -0.5764 -0.2752
 7462SOL     OW34018   2.277   1.109   6.140  0.0576  0.7005 -0.1068
 7462SOL    HW134019   2.245   1.097   6.230 -0.7617  1.4587 -0.2987
 7462SOL    HW234020   2.244   1.029   6.099 -0.4598  1.6031 -1.4506
 7463SOL     OW34021   1.888   4.069   5.946 -0.1515 -0.2839  0.2438
 7463SOL    HW134022   1.811   4.070   5.889  0.7751  1.0602 -1.0029
 7463SOL    HW234023   1.949   4.091   5.875 -2.2352 -0.0117 -1.4582
 7464SOL     OW34024   1.093   2.196   7.959  0.1157 -0.2369 -0.4247
 7464SOL    HW134025   1.088   2.289   7.982 -2.2029 -1.2191  2.9146
 7464SOL    HW234026   1.187   2.177   7.966  0.2772  1.8127  3.3054
 7465SOL     OW34027   3.994   0.482   7.045  0.1583  0.0731 -0.6571
 7465SOL    HW134028   4.048   0.462   6.969  0.5906  0.3522 -0.4213
 7465SOL    HW234029   3.916   0.512   7.000  0.2950  0.6869 -0.4817
 7466SOL     OW34030   2.195   2.739   4.051 -0.5677  0.3825  0.7489
 7466SOL    HW134031   2.120   2.794   4.031 -0.7965 -0.3973 -0.6042
 7466SOL    HW234032   2.224   2.747   3.960 -0.9813 -0.3851  0.5429
 7467SOL     OW34033   3.270   1.377   1.446 -0.2632 -0.0435 -0.0277
 7467SOL    HW134034   3.314   1.292   1.441 -0.2849 -0.0465 -0.1610
 7467SOL    HW234035   3.244   1.374   1.538  0.4252 -1.3113  0.1285
 7468SOL     OW34036   3.790   2.802   4.664  0.0516  0.3210  0.0494
 7468SOL    HW134037   3.698   2.789   4.688 -0.0036  1.9610  0.7423
 7468SOL    HW234038   3.831   2.777   4.747  3.0104  2.0741 -0.9016
 7469SOL     OW34039   2.573   1.949  17.550  0.1297  0.1863 -0.2934
 7469SOL    HW134040   2.539   1.946  17.639  1.3642  0.5739  0.1938
 7469SOL    HW234041   2.663   1.975  17.570  0.0227  1.8770 -1.9552
 7470SOL     OW34042   1.782   2.656  12.537  0.2156  1.0517  0.2257
 7470SOL    HW134043   1.710   2.682  12.479  0.5190  0.1161 -0.5640
 7470SOL    HW234044   1.746   2.586  12.592 -0.5505 -0.7328 -2.5686
 7471SOL     OW34045   3.407   2.288   2.010 -0.4372 -0.3572 -0.4956
 7471SOL    HW134046   3.472   2.343   1.966 -0.0797 -0.3338  0.0689
 7471SOL    HW234047   3.349   2.356   2.045  0.9302 -0.0686  1.2067
 7472SOL     OW34048   1.541   1.112   4.825  0.5664 -0.3098 -0.1445
 7472SOL    HW134049   1.560   1.193   4.872 -1.8591  1.2547 -1.8190
 7472SOL    HW234050   1.626   1.079   4.796 -0.4594 -3.2742  0.2693
 7473SOL     OW34051   0.930   0.881   8.371  0.1251  0.1102 -0.3408
 7473SOL    HW134052   0.994   0.812   8.391  1.2152  0.8360 -1.3351
 7473SOL    HW234053   0.862   0.831   8.326 -0.4038 -0.2877  0.9091
 7474SOL     OW34054   0.728   2.732   1.601 -0.3747  0.5499 -0.0814
 7474SOL    HW134055   0.655   2.693   1.649 -0.7047  0.4174 -0.6930
 7474SOL    HW234056   0.683   2.804   1.557  0.0079  1.0679  0.3585
 7475SOL     OW34057   4.059   0.777   6.255 -0.2541 -0.1765  0.1037
 7475SOL    HW134058   4.151   0.801   6.239 -0.7488  1.5456 -0.1882
 7475SOL    HW234059   4.037   0.863   6.291 -0.3562  0.4812 -1.5035
 7476SOL     OW34060   1.321   1.255   3.417 -0.1689  0.7369  0.6150
 7476SOL    HW134061   1.271   1.227   3.341 -0.8284  1.5233  0.7588
 7476SOL    HW234062   1.380   1.321   3.380 -1.1036 -0.3594 -2.7902
 7477SOL     OW34063   1.061   3.295  16.753  0.5254 -0.1774 -0.1618
 7477SOL    HW134064   1.029   3.244  16.827  1.0762  0.3752  0.4556
 7477SOL    HW234065   1.065   3.382  16.792  1.7955 -0.0180 -0.6272
 7478SOL     OW34066   2.906   2.601   6.279 -0.3975 -0.8576  0.2915
 7478SOL    HW134067   2.871   2.512   6.277 -0.8903 -0.6875  1.4519
 7478SOL    HW234068   2.985   2.600   6.333  1.0009 -2.5438 -1.7732
 7479SOL     OW34069   1.149   2.838  12.734 -0.0058  0.3172 -0.1538
 7479SOL    HW134070   1.179   2.892  12.660  0.5602  2.2036  1.4631
 7479SOL    HW234071   1.178   2.752  12.702 -1.4536  0.6547 -2.4151
 7480SOL     OW34072   2.380   0.140  11.540 -0.2848 -0.0499  0.2316
 7480SOL    HW134073   2.475   0.131  11.539 -0.4082 -1.3391 -0.2523
 7480SOL    HW234074   2.360   0.141  11.633 -0.6635  0.4995  0.1466
 7481SOL     OW34075   3.758   1.807   6.137 -0.4031  0.6106  0.1273
 7481SOL    HW134076   3.831   1.746   6.144 -1.6923 -0.9820 -0.2282
 7481SOL    HW234077   3.729   1.803   6.229 -1.0186  0.3598 -0.0742
 7482SOL     OW34078   3.089   2.032   3.259  0.1237  0.4211  0.8991
 7482SOL    HW134079   3.081   1.937   3.253  0.6863  0.4901 -1.1695
 7482SOL    HW234080   3.164   2.035   3.319  1.1776  0.6682 -0.4082
 7483SOL     OW34081   3.855   3.298   4.180  0.0932 -0.0143  0.4852
 7483SOL    HW134082   3.832   3.380   4.224  1.6801  1.2334 -1.0117
 7483SOL    HW234083   3.772   3.251   4.177 -1.0197  1.9280  0.8024
 7484SOL     OW34084   3.514   2.747   4.687 -0.5024 -0.2209 -0.5863
 7484SOL    HW134085   3.520   2.708   4.599  2.5928 -1.0469 -0.0040
 7484SOL    HW234086   3.419   2.756   4.698 -0.0921  1.8295  1.1798
 7485SOL     OW34087   0.345   1.635   8.269  0.1235 -0.9240  0.0114
 7485SOL    HW134088   0.385   1.575   8.332  0.3450 -0.9379 -0.1416
 7485SOL    HW234089   0.419   1.696   8.271 -2.3912  2.0876  1.3320
 7486SOL     OW34090   1.674   3.851   4.643  0.1542 -0.0673  0.3213
 7486SOL    HW134091   1.599   3.817   4.594 -0.8844  2.0823  0.4310
 7486SOL    HW234092   1.685   3.940   4.611  0.4546 -0.9121 -1.8937
 7487SOL     OW34093   1.021   4.117   8.873  0.0729 -0.4124  0.6374
 7487SOL    HW134094   1.064   4.037   8.904  1.2682 -0.7706 -1.9427
 7487SOL    HW234095   0.956   4.070   8.819 -1.4414  3.0979 -0.5611
 7488SOL     OW34096   1.029   2.359  17.622 -0.2344 -0.0431 -0.0327
 7488SOL    HW134097   0.970   2.351  17.546 -1.5518 -0.7035  1.0537
 7488SOL    HW234098   1.109   2.392  17.581 -0.6852  0.6817 -0.3442
 7489SOL     OW34099   3.524   3.672  12.742  0.0482 -0.0083  1.0351
 7489SOL    HW134100   3.523   3.643  12.650  0.4859  1.3974  0.5826
 7489SOL    HW234101   3.434   3.700  12.753  1.0968  3.2626  1.4522
 7490SOL     OW34102   1.659   2.075   7.533 -0.1244 -0.4721  0.0066
 7490SOL    HW134103   1.720   2.070   7.606 -1.6816 -0.8579  1.2734
 7490SOL    HW234104   1.572   2.062   7.571 -0.9102 -0.8316 -1.9013
 7491SOL     OW34105   2.560   3.465   1.123 -0.4795  0.0780 -0.4206
 7491SOL    HW134106   2.621   3.399   1.157 -0.6288 -0.4345 -1.1615
 7491SOL    HW234107   2.480   3.417   1.103 -0.8543  1.4019 -2.0694
 7492SOL     OW34108   0.604   3.759   3.336 -0.0450 -0.2938 -0.2597
 7492SOL    HW134109   0.667   3.764   3.408  0.3140 -0.0241 -0.5933
 7492SOL    HW234110   0.553   3.681   3.360 -1.0602  0.1816 -0.8974
 7493SOL     OW34111   4.064   2.029  17.468  0.1488  0.1044 -0.4532
 7493SOL    HW134112   4.005   2.104  17.469  1.0521  0.8145 -0.1246
 7493SOL    HW234113   4.050   1.991  17.381 -1.6008  0.6260 -0.4036
 7494SOL     OW34114   4.168   3.985   5.000  0.2400  0.2848  0.3336
 7494SOL    HW134115   4.237   3.960   4.939  0.7276 -0.5277  1.2135
 7494SOL    HW234116   4.092   3.957   4.949  0.8958  0.5754 -0.7924
 7495SOL     OW34117   2.054   1.515   9.553  0.1815 -0.5067  0.2621
 7495SOL    HW134118   2.134   1.475   9.589  0.7953  0.2147 -0.2973
 7495SOL    HW234119   2.101   1.593   9.524 -1.0466  0.4100  0.7661
 7496SOL     OW34120   4.556   3.745   6.449  0.1384  0.0403 -0.1586
 7496SOL    HW134121   4.558   3.827   6.499 -2.1125 -0.3568  0.5914
 7496SOL    HW234122   4.633   3.765   6.396 -2.0563  0.0174 -3.3404
 7497SOL     OW34123   3.868   3.751  17.697 -0.1018 -0.3211 -0.3268
 7497SOL    HW134124   3.919   3.779   0.025  0.8512 -0.0042 -1.0657
 7497SOL    HW234125   3.789   3.724  17.742  0.3389 -0.3852  0.3981
 7498SOL     OW34126   0.247   2.118   2.429 -0.1633  0.2677  0.2637
 7498SOL    HW134127   0.254   2.035   2.382  0.3280  0.4557  0.0038
 7498SOL    HW234128   0.342   2.124   2.437 -0.4800  2.1767  2.4572
 7499SOL     OW34129   2.213   4.627   9.453 -0.3238  0.1807  0.4702
 7499SOL    HW134130   2.296   4.582   9.466 -0.3514  0.2759  0.9847
 7499SOL    HW234131   2.204   4.669   9.539  0.3734  0.5123  0.3813
 7500SOL     OW34132   1.073   0.840   6.594  0.2099  0.2407  0.3236
 7500SOL    HW134133   1.159   0.799   6.590 -0.5070 -1.7179  4.4812
 7500SOL    HW234134   1.063   0.841   6.499 -1.9763 -2.7368  0.5065
 7501SOL     OW34135   0.853   0.767   2.491  0.0533  0.1548 -0.3149
 7501SOL    HW134136   0.761   0.748   2.511  0.2784  0.2340  0.8014
 7501SOL    HW234137   0.901   0.689   2.519 -0.0088 -0.1753 -1.1107
 7502SOL     OW34138   3.166   0.344   7.987 -0.2336 -0.4216 -0.0142
 7502SOL    HW134139   3.183   0.303   7.902  0.1724 -1.6753  0.6655
 7502SOL    HW234140   3.256   0.350   8.018 -0.5505  0.2237  0.7596
 7503SOL     OW34141   1.427   3.099  16.655 -0.1441  0.2288  0.0581
 7503SOL    HW134142   1.381   3.084  16.738  1.1091 -0.1013  0.6874
 7503SOL    HW234143   1.403   3.019  16.608  0.3282  0.3175 -0.3387
 7504SOL     OW34144   1.799   3.910  12.511  0.3350  0.3188 -0.2474
 7504SOL    HW134145   1.777   3.827  12.552  0.5943  0.1362 -0.4842
 7504SOL    HW234146   1.772   3.900  12.419 -0.7055  3.0764 -0.2536
 7505SOL     OW34147   0.266   3.332   4.794 -0.0327 -0.0718  0.9206
 7505SOL    HW134148   0.358   3.321   4.819  0.4336 -0.8819 -1.0799
 7505SOL    HW234149   0.220   3.368   4.870  1.9885  4.5847 -0.0215
 7506SOL     OW34150   4.409   3.123   6.911 -0.0962 -0.0166  0.2868
 7506SOL    HW134151   4.426   3.209   6.872  3.3002 -0.0260  1.7985
 7506SOL    HW234152   4.380   3.151   6.997 -1.1175  0.6053 -0.2582
 7507SOL     OW34153   2.626   3.750   5.754 -0.3250  0.1501 -0.3232
 7507SOL    HW134154   2.673   3.702   5.686 -1.9198 -1.1260 -0.5154
 7507SOL    HW234155   2.600   3.819   5.694  0.2812  0.5181 -0.1684
 7508SOL     OW34156   1.934   1.398   4.857 -0.1751  0.2653  0.3227
 7508SOL    HW134157   1.944   1.400   4.952 -0.0062 -0.2468  0.3177
 7508SOL    HW234158   1.855   1.348   4.835  0.4403 -0.5270 -0.1062
 7509SOL     OW34159   4.695   4.501  10.211  0.1909 -0.0910 -0.3231
 7509SOL    HW134160   4.639   4.559  10.263  1.2346  1.3108 -0.7693
 7509SOL    HW234161   0.024   4.478  10.275  1.6239  1.1229 -1.3857
 7510SOL     OW34162   2.033   3.762   6.286  0.2108 -0.0704  0.5272
 7510SOL    HW134163   2.014   3.811   6.366 -1.4324 -0.0075  0.0948
 7510SOL    HW234164   2.061   3.682   6.329 -0.1813 -0.0148  0.8845
 7511SOL     OW34165   2.416   0.074  15.981 -0.0666  1.2093 -0.4581
 7511SOL    HW134166   2.472   0.009  16.023  0.0095  0.6842 -1.3854
 7511SOL    HW234167   2.418   0.137  16.054  2.2439  0.9845 -0.3473
 7512SOL     OW34168   2.043   1.892   2.359 -0.3029  0.3235 -0.1465
 7512SOL    HW134169   2.081   1.974   2.329  1.1075  0.3325  1.7052
 7512SOL    HW234170   1.979   1.927   2.421 -1.7365  0.5183 -1.7371
 7513SOL     OW34171   4.616   3.051  12.088  0.5070 -0.1518 -0.2753
 7513SOL    HW134172   4.632   3.038  11.994  1.0800  1.0329 -0.3435
 7513SOL    HW234173   4.540   3.000  12.115 -0.2256  0.8128 -0.5375
 7514SOL     OW34174   3.462   1.277   9.486 -0.8686 -0.5827 -0.2269
 7514SOL    HW134175   3.479   1.182   9.483  0.4911 -0.3667  0.6534
 7514SOL    HW234176   3.543   1.306   9.529 -1.0309  0.0178 -0.3301
 7515SOL     OW34177   0.374   2.440   2.255  0.6548  0.0091  0.2311
 7515SOL    HW134178   0.336   2.357   2.228  2.1617 -0.3503 -0.8099
 7515SOL    HW234179   0.362   2.491   2.175  0.9557  0.2291  0.3244
 7516SOL     OW34180   2.586   1.630  16.587 -0.6699 -0.2787  0.1558
 7516SOL    HW134181   2.524   1.636  16.660 -0.5775 -0.0036  0.2099
 7516SOL    HW234182   2.550   1.705  16.541 -1.3822 -0.3293  0.6205
 7517SOL     OW34183   1.614   0.176   4.103  0.0460  0.3137 -0.1927
 7517SOL    HW134184   1.612   0.195   4.197 -0.3706  2.8123 -0.7060
 7517SOL    HW234185   1.591   0.083   4.094  2.1803 -0.1772 -0.4182
 7518SOL     OW34186   3.043   4.095   2.321 -0.3377 -0.2612  0.1611
 7518SOL    HW134187   3.070   4.187   2.313  0.6991 -0.4738  1.1307
 7518SOL    HW234188   2.997   4.081   2.239 -1.3008  2.0514  0.2854
 7519SOL     OW34189   2.112   3.608   1.240  0.5759 -0.1867 -0.6241
 7519SOL    HW134190   2.057   3.555   1.298  0.7609  1.2202  0.8130
 7519SOL    HW234191   2.198   3.566   1.247 -0.3225 -1.8409  0.5121
 7520SOL     OW34192   1.155   3.556   3.777 -0.2225  0.0247  0.0913
 7520SOL    HW134193   1.123   3.601   3.699  0.9994  1.9152  0.6663
 7520SOL    HW234194   1.134   3.464   3.760 -0.4504  0.0014  0.5100
 7521SOL     OW34195   3.395   0.683   5.269  0.5208 -0.1377 -0.3134
 7521SOL    HW134196   3.379   0.597   5.230  0.6706 -0.5864  0.6093
 7521SOL    HW234197   3.457   0.712   5.202 -1.2895  3.5703 -0.3731
 7522SOL     OW34198   1.235   2.664   2.316 -0.0408  0.9376 -0.2806
 7522SOL    HW134199   1.271   2.641   2.401  0.0537 -3.0443 -1.3751
 7522SOL    HW234200   1.145   2.636   2.333  0.4256  0.4156  1.3403
 7523SOL     OW34201   3.336   1.557   4.098  0.5427  0.3437 -0.1951
 7523SOL    HW134202   3.279   1.615   4.047  0.8838  0.5809 -0.3050
 7523SOL    HW234203   3.317   1.594   4.184  1.8372 -0.0530  0.2648
 7524SOL     OW34204   4.225   3.164  13.511 -0.3372  0.3046 -0.3607
 7524SOL    HW134205   4.200   3.169  13.419  1.3132 -0.6022 -0.8457
 7524SOL    HW234206   4.235   3.070  13.526 -1.6883 -0.2145 -2.7401
 7525SOL     OW34207   0.257   0.787  13.706 -0.2461 -0.5497 -0.0704
 7525SOL    HW134208   0.273   0.879  13.725 -1.4139 -0.4394  0.4091
 7525SOL    HW234209   0.325   0.769  13.642 -2.0840 -0.7488 -1.9541
 7526SOL     OW34210   4.303   3.356   0.179  0.3395  0.5354  0.0119
 7526SOL    HW134211   4.342   3.433   0.136  0.8409  0.7550  0.8733
 7526SOL    HW234212   4.313   3.386   0.269  1.2328 -0.3072  0.1847
 7527SOL     OW34213   3.894   2.368   7.131 -0.2138  0.6465 -0.4469
 7527SOL    HW134214   3.895   2.348   7.038 -3.7348  1.3202 -0.6065
 7527SOL    HW234215   3.841   2.447   7.129 -2.2217 -0.7051  0.0461
 7528SOL     OW34216   2.064   1.265   5.539  0.0957  0.4169 -0.0443
 7528SOL    HW134217   2.072   1.264   5.634  0.0222 -2.4223 -0.0698
 7528SOL    HW234218   2.122   1.337   5.512  0.9505 -0.1825  0.1890
 7529SOL     OW34219   2.232   3.799  10.872  0.3376 -0.5516  0.2110
 7529SOL    HW134220   2.221   3.890  10.899 -2.1309 -0.9383  0.5699
 7529SOL    HW234221   2.327   3.787  10.870  0.4834  0.5976  0.6640
 7530SOL     OW34222   4.178   1.955   5.854  0.4709  0.5007  0.8248
 7530SOL    HW134223   4.130   1.888   5.902 -0.1388  0.9761  0.8772
 7530SOL    HW234224   4.253   1.954   5.914  0.3406 -1.4911  0.9278
 7531SOL     OW34225   0.317   1.239   9.448  0.1306 -0.0000  0.4126
 7531SOL    HW134226   0.370   1.159   9.437 -1.2326 -0.7968 -0.3855
 7531SOL    HW234227   0.296   1.224   9.540  1.5346 -0.6947  0.6159
 7532SOL     OW34228   2.729   2.379   1.840  0.6199  0.1684  0.1701
 7532SOL    HW134229   2.699   2.413   1.924 -1.1353 -0.9023 -0.0161
 7532SOL    HW234230   2.647   2.390   1.793  1.5154  1.7998 -0.9866
 7533SOL     OW34231   3.441   2.672   3.484  0.4593 -0.6676  0.2193
 7533SOL    HW134232   3.424   2.606   3.417 -0.6042  0.5338 -0.6924
 7533SOL    HW234233   3.510   2.726   3.444  0.2175  0.5882  1.5008
 7534SOL     OW34234   4.382   1.637   2.500  0.6577  0.3592 -0.1413
 7534SOL    HW134235   4.406   1.680   2.582  1.6714 -0.9871  0.2636
 7534SOL    HW234236   4.411   1.703   2.437 -0.4279 -0.8597 -1.9086
 7535SOL     OW34237   4.726   4.511   4.131  0.1286  0.6402  0.1987
 7535SOL    HW134238   0.045   4.584   4.107  0.6420  0.1850  0.0514
 7535SOL    HW234239   0.042   4.463   4.194 -0.1978  1.2451  0.9418
 7536SOL     OW34240   3.301   3.906   8.358 -0.0049  0.0039  0.1118
 7536SOL    HW134241   3.365   3.937   8.422  1.3825 -1.4246 -0.5962
 7536SOL    HW234242   3.265   3.836   8.413 -0.7980  0.3115 -0.0100
 7537SOL     OW34243   1.203   1.434  10.532  0.8848  0.2935  0.2881
 7537SOL    HW134244   1.286   1.394  10.555 -0.3428 -2.3758  0.0908
 7537SOL    HW234245   1.148   1.415  10.609 -1.6177  1.0176 -1.3040
 7538SOL     OW34246   0.821   3.280   4.460 -0.0380  0.1910  0.3582
 7538SOL    HW134247   0.778   3.217   4.518  1.2098 -1.2964 -0.2994
 7538SOL    HW234248   0.749   3.327   4.419  0.5777 -0.5721 -1.6243
 7539SOL     OW34249   0.280   3.210   6.491 -0.1229  0.3875 -0.5202
 7539SOL    HW134250   0.251   3.119   6.493 -0.0432  0.4363  3.3373
 7539SOL    HW234251   0.322   3.214   6.577 -3.7630 -1.1329  1.3526
 7540SOL     OW34252   4.152   0.815  13.134  0.0933 -0.4003 -0.3207
 7540SOL    HW134253   4.133   0.866  13.212  0.7310  0.2615 -0.5962
 7540SOL    HW234254   4.233   0.846  13.094  0.0524  0.6732  0.4255
 7541SOL     OW34255   3.546   2.871   8.377 -0.0237 -0.3159 -0.1540
 7541SOL    HW134256   3.495   2.952   8.381 -0.5803 -0.6708 -0.0484
 7541SOL    HW234257   3.609   2.908   8.315 -0.5646  2.1593  0.7677
 7542SOL     OW34258   4.492   2.039  12.705 -0.4652  0.1058  0.0538
 7542SOL    HW134259   4.442   2.000  12.777  0.4037 -1.5705 -0.2533
 7542SOL    HW234260   4.500   2.126  12.742  0.2282 -0.5606  1.4701
 7543SOL     OW34261   4.388   3.140   1.190  0.0972 -0.1561  0.3406
 7543SOL    HW134262   4.305   3.096   1.171  0.3424 -0.8132  0.8029
 7543SOL    HW234263   4.413   3.115   1.279  0.0725 -1.7709 -0.1016
 7544SOL     OW34264   2.912   4.331   3.160  0.4379  0.2669 -1.0412
 7544SOL    HW134265   2.924   4.380   3.078 -1.5490  0.2069 -1.3674
 7544SOL    HW234266   2.989   4.275   3.168  0.6383  0.5220 -1.2012
 7545SOL     OW34267   2.173   0.758   8.307  0.0173 -0.1540  0.4063
 7545SOL    HW134268   2.174   0.772   8.401  1.3907 -0.8751  0.5049
 7545SOL    HW234269   2.124   0.832   8.272  1.4188  1.0878  1.0903
 7546SOL     OW34270   1.858   0.526   3.262 -0.2290  0.1898 -0.6854
 7546SOL    HW134271   1.779   0.501   3.213  0.0970 -1.5068 -0.3672
 7546SOL    HW234272   1.926   0.524   3.195  0.3988 -2.9710  0.0236
 7547SOL     OW34273   0.314   1.351   2.131  0.0181  0.3880  0.1338
 7547SOL    HW134274   0.398   1.308   2.114 -0.1110  1.0248 -2.0513
 7547SOL    HW234275   0.320   1.379   2.222 -0.8350 -1.1974  0.6812
 7548SOL     OW34276   4.382   1.069  12.348 -0.6603 -0.3787 -0.6572
 7548SOL    HW134277   4.413   1.129  12.280 -1.5040  1.4611  0.5832
 7548SOL    HW234278   4.459   1.011  12.348 -0.7738 -0.5309  0.0978
 7549SOL     OW34279   2.373   2.402  11.488 -0.6798 -0.5111  0.1467
 7549SOL    HW134280   2.338   2.326  11.442 -1.0682 -0.2896  0.0749
 7549SOL    HW234281   2.386   2.363  11.574 -1.1900 -1.3043 -0.1424
 7550SOL     OW34282   0.872   3.918   8.717  0.0436  0.0080 -0.5774
 7550SOL    HW134283   0.924   3.851   8.672 -0.8668 -1.4504  0.5554
 7550SOL    HW234284   0.843   3.969   8.642 -0.4616  2.0667  0.9966
 7551SOL     OW34285   2.717   4.715   4.844 -0.2685 -0.7558  0.0496
 7551SOL    HW134286   2.668   0.035   4.786  1.3036  1.1772  0.6483
 7551SOL    HW234287   2.803   0.019   4.850 -1.1537  1.0650 -0.0908
 7552SOL     OW34288   2.630   1.541  10.382  0.7305 -0.9966 -0.0048
 7552SOL    HW134289   2.557   1.497  10.427  1.6465 -0.3643  2.1291
 7552SOL    HW234290   2.642   1.484  10.306 -0.7429  0.0325 -1.0064
 7553SOL     OW34291   0.040   0.256   0.200 -0.5633 -0.5558  0.1861
 7553SOL    HW134292   0.023   0.162   0.201  0.5124 -0.7548 -0.0219
 7553SOL    HW234293   0.100   0.254   0.125 -0.6684 -1.9298  0.1439
 7554SOL     OW34294   2.694   2.001   1.368 -0.5479  0.0620  0.5722
 7554SOL    HW134295   2.729   1.965   1.287 -1.6666  0.4395 -0.0788
 7554SOL    HW234296   2.698   2.096   1.359 -0.9008 -0.3420 -4.0197
 7555SOL     OW34297   2.484   2.293   9.396  0.1588 -0.3652 -0.0274
 7555SOL    HW134298   2.544   2.348   9.446 -2.0794  1.2339  0.8710
 7555SOL    HW234299   2.406   2.313   9.448  0.4911 -1.4723  0.9141
 7556SOL     OW34300   2.062   4.359   6.569 -0.0661  0.3284 -0.1677
 7556SOL    HW134301   2.156   4.354   6.590  0.0144 -2.9697 -1.2326
 7556SOL    HW234302   2.066   4.407   6.487  2.5414  2.5776  1.2730
 7557SOL     OW34303   1.685   1.644   5.007 -0.1344  0.2829  0.6748
 7557SOL    HW134304   1.704   1.605   5.093  2.5233  1.5895  0.6527
 7557SOL    HW234305   1.771   1.656   4.968 -0.6664  1.8652 -0.0287
 7558SOL     OW34306   3.216   4.646   4.364  0.2491 -0.2496 -0.3924
 7558SOL    HW134307   3.295   4.691   4.334 -0.7689  1.6384 -0.2477
 7558SOL    HW234308   3.156   4.716   4.391  0.7196 -0.0384  0.0941
 7559SOL     OW34309   3.492   4.359   4.329  0.5588 -0.1515 -0.5325
 7559SOL    HW134310   3.456   4.314   4.253 -0.5887  0.4101 -0.3165
 7559SOL    HW234311   3.435   4.322   4.397  0.1835 -1.6675 -1.6891
 7560SOL     OW34312   2.795   1.467   2.845 -0.1402  0.0608  1.1296
 7560SOL    HW134313   2.758   1.547   2.809 -0.0533 -1.0201 -1.3956
 7560SOL    HW234314   2.718   1.427   2.884 -2.1884  2.3981 -0.5494
 7561SOL     OW34315   4.458   0.083   5.489 -0.4008  0.3252 -0.5969
 7561SOL    HW134316   4.528   0.057   5.429  0.9569  0.7390  0.8198
 7561SOL    HW234317   4.497   0.166   5.515  0.3661  0.2104 -1.3495
 7562SOL     OW34318   1.310   0.628   5.546 -0.5005  0.5397 -0.1390
 7562SOL    HW134319   1.230   0.678   5.530 -0.9150 -0.3110 -0.7250
 7562SOL    HW234320   1.281   0.539   5.527 -1.7460  0.8866  0.1312
 7563SOL     OW34321   3.576   3.686   1.959 -0.0923  0.0877 -0.2909
 7563SOL    HW134322   3.640   3.669   2.028 -0.1947  0.6973 -0.0521
 7563SOL    HW234323   3.503   3.717   2.013 -1.9607 -1.2580 -2.0497
 7564SOL     OW34324   3.695   0.285  15.129 -0.2244 -0.1225 -0.3217
 7564SOL    HW134325   3.666   0.278  15.037 -0.0643 -0.4417 -0.3468
 7564SOL    HW234326   3.713   0.379  15.128  0.1492 -0.2148 -2.8465
 7565SOL     OW34327   1.990   2.020   9.604 -0.4312  0.1065  0.2042
 7565SOL    HW134328   2.045   2.020   9.526 -1.9630 -2.6382 -0.8508
 7565SOL    HW234329   2.056   2.040   9.670  0.5630  0.8587 -0.9988
 7566SOL     OW34330   0.156   2.297  15.655 -0.0606 -0.5264 -0.7562
 7566SOL    HW134331   0.190   2.272  15.741  1.8799  2.3112 -0.7328
 7566SOL    HW234332   0.064   2.325  15.656  0.9560  2.7430  0.8002
 7567SOL     OW34333   0.642   3.584   2.623 -0.0329 -0.3223  0.0080
 7567SOL    HW134334   0.607   3.586   2.713 -0.8567  0.8809 -0.3410
 7567SOL    HW234335   0.693   3.665   2.627  0.5448 -0.6554 -0.6235
 7568SOL     OW34336   0.013   1.741   9.488 -0.7086 -0.1542 -0.0162
 7568SOL    HW134337   0.031   1.826   9.449  1.0487 -0.5668 -0.0993
 7568SOL    HW234338   0.084   1.695   9.445 -2.0968  0.2475 -2.7393
 7569SOL     OW34339   3.901   3.224   1.394  0.4799 -0.1076  0.0810
 7569SOL    HW134340   3.830   3.205   1.456  1.8767 -0.3619  1.5805
 7569SOL    HW234341   3.917   3.136   1.359  2.4677  0.7043 -1.0541
 7570SOL     OW34342   4.245   0.002   8.398 -0.7161 -0.2383  0.0548
 7570SOL    HW134343   4.284   4.655   8.374  0.7562  0.4048  0.1889
 7570SOL    HW234344   4.197   4.707   8.475  2.7998 -3.6597  0.8075
 7571SOL     OW34345   4.667   0.368   5.720  0.0633 -0.0707  0.0979
 7571SOL    HW134346   4.609   0.319   5.661 -1.4803  3.0287 -0.9339
 7571SOL    HW234347   4.670   0.306   5.793  0.0171  0.2461  0.3673
 7572SOL     OW34348   2.946   2.804  10.361 -0.1507 -0.2819  0.1824
 7572SOL    HW134349   2.878   2.830  10.423  0.9627  1.5328  0.6380
 7572SOL    HW234350   2.969   2.718  10.399 -1.2899 -0.4675  0.4691
 7573SOL     OW34351   0.897   3.588   6.474 -0.0415 -1.0444 -0.2824
 7573SOL    HW134352   0.930   3.567   6.561 -0.9814 -0.0916  0.3065
 7573SOL    HW234353   0.911   3.515   6.413 -0.5631 -0.2739 -1.3304
 7574SOL     OW34354   4.171   3.211   2.465  0.2973  0.6297 -0.2466
 7574SOL    HW134355   4.096   3.259   2.501 -0.6122 -0.8926 -0.1047
 7574SOL    HW234356   4.162   3.124   2.505  0.5035  0.2420 -1.0361
 7575SOL     OW34357   2.142   4.371   0.543  0.5620 -0.0450  0.2306
 7575SOL    HW134358   2.133   4.382   0.637  0.4559  1.0929  0.0933
 7575SOL    HW234359   2.101   4.285   0.538 -0.2087  0.2308  2.0010
 7576SOL     OW34360   1.651   3.024   6.693  0.1897  0.4880 -0.4628
 7576SOL    HW134361   1.647   2.987   6.605 -2.0721 -0.0112 -0.1332
 7576SOL    HW234362   1.667   2.946   6.745  1.0912  1.6532  1.0147
 7577SOL     OW34363   1.161   4.392   3.088 -0.1774  0.4889  0.4492
 7577SOL    HW134364   1.114   4.364   3.166 -1.8858  4.1168  0.7246
 7577SOL    HW234365   1.145   4.486   3.084 -0.7090  0.2467 -2.8587
 7578SOL     OW34366   2.167   2.462   1.437 -0.5813  0.3504  0.1185
 7578SOL    HW134367   2.116   2.494   1.362  0.2886  0.5122 -0.4033
 7578SOL    HW234368   2.253   2.484   1.403 -0.9184  0.1708 -0.8674
 7579SOL     OW34369   0.251   1.196   6.273 -0.1084  0.5442  0.0377
 7579SOL    HW134370   0.314   1.256   6.234  1.0417 -0.3883  0.4515
 7579SOL    HW234371   0.266   1.128   6.207 -0.5809 -0.8575  1.3559
 7580SOL     OW34372   1.958   3.440   9.026 -0.0347  0.3469  0.3089
 7580SOL    HW134373   1.872   3.408   9.052 -0.0346  0.4035  0.3804
 7580SOL    HW234374   1.969   3.520   9.077 -0.9256 -0.5721  1.9385
 7581SOL     OW34375   0.841   3.357   8.490  0.2262 -0.0478 -0.3899
 7581SOL    HW134376   0.915   3.402   8.449  2.1030 -2.0407  0.8281
 7581SOL    HW234377   0.786   3.332   8.415  1.5541 -0.8127 -1.0905
 7582SOL     OW34378   0.225   2.215  17.555 -0.7540 -0.4388 -0.3470
 7582SOL    HW134379   0.207   2.156  17.482 -0.3497  0.3694 -1.0944
 7582SOL    HW234380   0.165   2.189  17.625  0.9152 -2.2753  0.4246
 7583SOL     OW34381   2.415   2.158   2.437  0.1965 -0.1264 -0.6325
 7583SOL    HW134382   2.473   2.198   2.372  2.1164 -0.3076  0.9660
 7583SOL    HW234383   2.466   2.158   2.518 -0.6684 -0.1343 -0.0843
 7584SOL     OW34384   4.684   2.631  10.935  0.6928 -0.3164 -0.0020
 7584SOL    HW134385   4.705   2.683  11.012  1.0096 -0.1281 -0.2178
 7584SOL    HW234386   4.662   2.700  10.873 -1.7872  0.7329  2.0397
 7585SOL     OW34387   3.389   1.741   1.676 -0.1418 -0.1605 -0.4177
 7585SOL    HW134388   3.376   1.807   1.744  1.9766  0.3208 -0.4840
 7585SOL    HW234389   3.477   1.768   1.650 -0.8659  1.5205 -1.0454
 7586SOL     OW34390   4.672   0.358   0.556 -0.4016 -0.1983  0.2684
 7586SOL    HW134391   4.619   0.278   0.552  2.2849 -2.0187  0.8299
 7586SOL    HW234392   4.672   0.370   0.651 -1.6604  2.0529 -0.0161
 7587SOL     OW34393   3.094   3.377   9.536 -0.2328 -0.6371 -0.2006
 7587SOL    HW134394   3.005   3.352   9.513 -0.8714  2.1088 -0.7920
 7587SOL    HW234395   3.108   3.314   9.607 -1.3515 -2.2884 -1.4392
 7588SOL     OW34396   1.077   1.378   9.703 -0.3422 -0.4676  0.0163
 7588SOL    HW134397   1.137   1.423   9.762 -0.7140  1.7266 -1.2834
 7588SOL    HW234398   1.057   1.314   9.771 -0.2225 -3.1534 -2.4562
 7589SOL     OW34399   4.572   3.325   9.083 -0.0741 -0.4298 -0.0435
 7589SOL    HW134400   4.542   3.400   9.133  0.6893 -1.0899  1.4000
 7589SOL    HW234401   4.664   3.352   9.084 -0.5611  1.2092 -0.5965
 7590SOL     OW34402   2.428   1.826   5.766  0.3363  0.4892  0.0252
 7590SOL    HW134403   2.360   1.803   5.703  1.1584  0.1606 -0.7468
 7590SOL    HW234404   2.497   1.773   5.725 -0.2898 -0.0748 -0.3051
 7591SOL     OW34405   2.972   2.894  10.708  0.5374  0.4778  0.2895
 7591SOL    HW134406   2.896   2.890  10.650  0.2404  1.8190  0.5782
 7591SOL    HW234407   3.009   2.975  10.673  0.9009  0.4108  0.5215
 7592SOL     OW34408   3.829   4.732   6.098  0.1236  0.2655 -0.3250
 7592SOL    HW134409   3.825   4.719   6.192  1.0050 -1.0554 -0.4801
 7592SOL    HW234410   3.812   0.088   6.086  2.1871  0.6417 -0.2844
 7593SOL     OW34411   2.536   1.536  13.283 -0.4881 -0.3440 -0.3682
 7593SOL    HW134412   2.531   1.625  13.319 -0.6836  0.3339 -2.1082
 7593SOL    HW234413   2.452   1.534  13.239 -0.6067  1.3215 -0.2390
 7594SOL     OW34414   4.110   2.206   1.829  0.0989  0.1448 -0.0683
 7594SOL    HW134415   4.036   2.228   1.887 -0.5282 -0.3829 -0.6747
 7594SOL    HW234416   4.089   2.264   1.756 -0.8436 -1.6902 -1.2524
 7595SOL     OW34417   0.589   0.055   7.119  0.2229 -0.1338  0.4015
 7595SOL    HW134418   0.549   4.706   7.123 -0.3116  0.0326 -1.2747
 7595SOL    HW234419   0.558   0.094   7.037  0.5047 -1.6987 -0.4395
 7596SOL     OW34420   2.107   0.949  13.551 -0.0467  0.3848 -0.4472
 7596SOL    HW134421   2.037   0.970  13.489 -0.8193 -0.7617  0.0283
 7596SOL    HW234422   2.181   0.977  13.497  0.1317  0.8652  0.0380
 7597SOL     OW34423   3.861   3.196  11.968 -0.3596 -0.4062  0.1041
 7597SOL    HW134424   3.766   3.196  11.981  0.1019 -2.8211  3.5236
 7597SOL    HW234425   3.874   3.280  11.924 -1.9284  0.3566  1.0913
 7598SOL     OW34426   0.563   0.919  15.417 -0.3035 -0.1322 -0.0398
 7598SOL    HW134427   0.549   0.940  15.325  0.5663  0.2117 -0.0876
 7598SOL    HW234428   0.500   0.976  15.460  2.0381  1.8449  0.7598
 7599SOL     OW34429   0.759   3.043   2.145 -0.2146 -0.0098 -0.2984
 7599SOL    HW134430   0.726   2.954   2.154  0.3056 -0.1187  0.5278
 7599SOL    HW234431   0.728   3.080   2.228  0.1626  1.8389 -0.9830
 7600SOL     OW34432   3.086   2.461   1.186 -0.1868  0.4697 -0.2326
 7600SOL    HW134433   3.144   2.521   1.233 -0.5968 -0.2435  1.1915
 7600SOL    HW234434   3.023   2.515   1.138 -0.1136  1.0408  0.3106
 7601SOL     OW34435   0.700   2.271  14.292  0.1689 -0.0074  0.0099
 7601SOL    HW134436   0.665   2.356  14.320 -2.1559 -1.2653  0.9696
 7601SOL    HW234437   0.728   2.242  14.379  2.1184  1.3241 -0.1978
 7602SOL     OW34438   1.460   4.033   5.560 -0.5824 -0.2119  0.1544
 7602SOL    HW134439   1.364   4.029   5.562 -0.5863  1.3283  2.6331
 7602SOL    HW234440   1.473   4.055   5.652  1.3682 -1.5397  0.1786
 7603SOL     OW34441   1.203   3.663   2.250 -0.3097 -0.4811 -0.0943
 7603SOL    HW134442   1.148   3.644   2.326 -2.6022  0.0416 -1.6381
 7603SOL    HW234443   1.223   3.755   2.262  0.2459 -0.3865 -1.7075
 7604SOL     OW34444   1.513   0.552   1.647  0.5499  0.0765 -0.2054
 7604SOL    HW134445   1.424   0.554   1.685  1.0036 -1.6321  0.9374
 7604SOL    HW234446   1.528   0.463   1.680  0.6474 -0.0997 -0.7300
 7605SOL     OW34447   0.915   1.725   3.018 -0.0690  0.3393  1.2691
 7605SOL    HW134448   0.836   1.675   2.996  0.5460  0.2219 -0.7259
 7605SOL    HW234449   0.889   1.808   2.977 -0.4469 -1.1367 -1.4912
 7606SOL     OW34450   0.922   3.984   3.241 -0.4188 -0.2521  0.0238
 7606SOL    HW134451   0.861   3.937   3.184 -0.6570 -2.5878  2.2099
 7606SOL    HW234452   0.866   4.060   3.258  0.6764  0.2495  1.3890
 7607SOL     OW34453   2.425   0.675   4.444  0.3113  0.3956  0.0884
 7607SOL    HW134454   2.517   0.660   4.463  0.3727  0.5114 -0.1274
 7607SOL    HW234455   2.424   0.765   4.412  0.4651  0.3721  0.0211
 7608SOL     OW34456   1.437   2.922   2.416 -0.1076 -0.0933 -0.0304
 7608SOL    HW134457   1.428   3.009   2.376  0.9627 -0.2013 -0.5088
 7608SOL    HW234458   1.465   2.880   2.334 -0.7020  0.3559 -0.4669
 7609SOL     OW34459   1.525   4.138   7.534  0.4554 -0.6628 -0.3836
 7609SOL    HW134460   1.509   4.075   7.464 -1.9052 -0.0052 -0.4283
 7609SOL    HW234461   1.601   4.103   7.581  0.8854  0.4922 -0.2254
 7610SOL     OW34462   3.139   1.211   0.266  0.1996 -0.2125  0.3075
 7610SOL    HW134463   3.234   1.205   0.274  0.2164 -0.7449 -0.3259
 7610SOL    HW234464   3.124   1.254   0.182 -1.4121 -0.8081  0.2903
 7611SOL     OW34465   4.152   2.301   9.110  0.1623  0.0180 -0.3532
 7611SOL    HW134466   4.089   2.244   9.066  0.0512  1.1621 -1.6901
 7611SOL    HW234467   4.178   2.244   9.182  2.9656  2.8677  0.9208
 7612SOL     OW34468   0.447   3.468   9.946 -0.0070  0.5328  0.0674
 7612SOL    HW134469   0.475   3.426   9.865 -0.4241 -2.9035  1.6822
 7612SOL    HW234470   0.461   3.394  10.005 -2.3594 -1.1883 -1.5360
 7613SOL     OW34471   3.026   0.411  10.558 -0.3439  0.5420 -0.5039
 7613SOL    HW134472   2.951   0.369  10.515  0.1373  0.0720 -0.8943
 7613SOL    HW234473   3.071   0.347  10.613  2.5973  2.5657 -0.5313
 7614SOL     OW34474   1.257   2.263   8.814  0.0564 -0.5247  0.1277
 7614SOL    HW134475   1.273   2.185   8.867  2.4425  0.2596  0.5788
 7614SOL    HW234476   1.206   2.321   8.869  0.7798 -1.5986  1.9148
 7615SOL     OW34477   3.317   0.890   5.726 -0.2061  0.2527  0.3812
 7615SOL    HW134478   3.224   0.868   5.715  0.7069 -2.6144 -1.3373
 7615SOL    HW234479   3.315   0.977   5.766  0.2237  0.1855  0.5442
 7616SOL     OW34480   2.972   0.089   9.456  0.0937 -0.0345 -0.4618
 7616SOL    HW134481   2.940   0.011   9.502  1.3963  0.5481  1.4184
 7616SOL    HW234482   3.040   0.049   9.402 -0.8555 -1.9859 -0.2352
 7617SOL     OW34483   4.010   3.110  16.012  0.5689 -0.3948  0.0577
 7617SOL    HW134484   3.938   3.104  15.949  0.7974  0.6189 -0.3012
 7617SOL    HW234485   4.005   3.200  16.044  0.7768 -0.5802  0.6279
 7618SOL     OW34486   3.079   0.930   2.745 -0.1326 -0.0348 -0.3811
 7618SOL    HW134487   3.008   0.924   2.681  2.3241 -1.6815 -2.9280
 7618SOL    HW234488   3.136   0.862   2.712 -2.0284 -1.5010 -0.6475
 7619SOL     OW34489   3.818   4.210   7.736  0.1378  0.3566 -0.4768
 7619SOL    HW134490   3.843   4.302   7.751 -0.4111  0.5369 -0.6748
 7619SOL    HW234491   3.900   4.165   7.756  0.0390  0.3413 -0.1034
 7620SOL     OW34492   2.195   0.854  13.914  0.0038  0.1875 -0.2577
 7620SOL    HW134493   2.128   0.826  13.976  0.5244 -0.4728  0.0146
 7620SOL    HW234494   2.246   0.913  13.969  3.7963 -1.9532 -1.4736
 7621SOL     OW34495   3.115   1.922   4.436 -0.4496  0.4225 -0.0788
 7621SOL    HW134496   3.072   1.871   4.505 -0.9160 -0.4377 -0.9999
 7621SOL    HW234497   3.148   1.996   4.487 -0.2442  0.0637  0.3048
 7622SOL     OW34498   3.797   1.665  15.593  0.6609 -0.0188  0.2545
 7622SOL    HW134499   3.879   1.619  15.610  0.3859  0.6068  3.2533
 7622SOL    HW234500   3.787   1.650  15.499  1.5951 -0.5469  0.2404
 7623SOL     OW34501   4.521   3.023   6.463 -0.6352  0.0920 -0.0577
 7623SOL    HW134502   4.447   3.004   6.520 -0.8791  0.6917 -0.1775
 7623SOL    HW234503   4.562   2.936   6.461  0.8327  0.7236  2.1513
 7624SOL     OW34504   1.854   0.589   2.223 -0.1845 -0.0754  0.1967
 7624SOL    HW134505   1.945   0.615   2.240  0.5873 -0.7958 -2.9418
 7624SOL    HW234506   1.825   0.669   2.180 -4.2517  0.3077  3.6328
 7625SOL     OW34507   1.164   4.639   5.327 -0.2392 -0.8788  0.1102
 7625SOL    HW134508   1.242   4.671   5.282  0.1750 -0.8838  0.8190
 7625SOL    HW234509   1.099   4.688   5.278 -0.2477  1.2787  2.2849
 7626SOL     OW34510   1.400   4.513  17.513  0.2539  0.3831 -0.0424
 7626SOL    HW134511   1.315   4.556  17.520  1.0207  1.9986 -0.7098
 7626SOL    HW234512   1.451   4.576  17.462  0.1676  0.8925  0.4925
 7627SOL     OW34513   0.479   2.310  12.104 -0.0195 -0.5091  0.2588
 7627SOL    HW134514   0.455   2.375  12.038 -2.8637 -0.3831  1.4130
 7627SOL    HW234515   0.565   2.281  12.073 -0.0122 -0.1925 -0.0194
 7628SOL     OW34516   1.793   2.376  17.214 -0.6590 -0.1293  0.4856
 7628SOL    HW134517   1.884   2.408  17.208 -0.6410 -0.2565  0.0960
 7628SOL    HW234518   1.775   2.378  17.308 -0.3026 -0.6372  0.5605
 7629SOL     OW34519   4.462   1.832   1.874 -0.1936  0.3326 -0.4545
 7629SOL    HW134520   4.496   1.883   1.947 -0.7058 -0.3594  0.2674
 7629SOL    HW234521   4.520   1.757   1.868  0.5798  0.8308  0.8866
 7630SOL     OW34522   4.176   0.834   1.812  0.3191 -0.9276  0.1824
 7630SOL    HW134523   4.219   0.888   1.745  1.7904  0.5222  2.2859
 7630SOL    HW234524   4.205   0.884   1.888 -2.4201  1.0339 -0.0198
 7631SOL     OW34525   2.510   1.837   3.646 -0.0123 -0.0681 -0.0197
 7631SOL    HW134526   2.552   1.833   3.732 -1.9502  0.7662  0.9452
 7631SOL    HW234527   2.579   1.855   3.582 -0.5011 -0.4891 -0.6644
 7632SOL     OW34528   1.097   4.416   9.546  0.1558  0.4203 -0.0324
 7632SOL    HW134529   1.075   4.396   9.455 -0.2091 -0.8200  0.3315
 7632SOL    HW234530   1.008   4.439   9.572 -0.0702  0.9136 -1.2481
 7633SOL     OW34531   4.588   0.181  15.997  0.1432  0.7826 -0.4966
 7633SOL    HW134532   4.671   0.139  15.973 -1.4194 -0.8900 -2.9106
 7633SOL    HW234533   4.587   0.257  15.940 -1.0378 -0.0922 -1.6322
 7634SOL     OW34534   1.542   2.942   9.288  0.1901  0.3681 -0.3999
 7634SOL    HW134535   1.568   2.976   9.375 -3.4427 -0.9639  1.1746
 7634SOL    HW234536   1.589   3.005   9.233 -1.9523  0.9806 -1.5092
 7635SOL     OW34537   2.960   0.695  10.728 -0.3309  0.2580 -0.3172
 7635SOL    HW134538   2.977   0.718  10.820  0.5967  0.9251 -0.6569
 7635SOL    HW234539   2.977   0.602  10.737 -0.4503  0.2892  0.2344
 7636SOL     OW34540   3.792   1.836   7.999  0.0236  0.2501 -0.0260
 7636SOL    HW134541   3.717   1.776   7.994  0.6973 -0.5806 -0.2465
 7636SOL    HW234542   3.788   1.872   7.910 -1.1741 -2.3769 -1.0597
 7637SOL     OW34543   2.456   3.162   2.227  0.2940  0.1407 -0.2105
 7637SOL    HW134544   2.402   3.084   2.212 -0.0135  0.8443 -2.7351
 7637SOL    HW234545   2.458   3.173   2.322  1.9539  1.5656 -0.4087
 7638SOL     OW34546   3.189   0.842  13.870  0.3475 -0.0566 -0.2471
 7638SOL    HW134547   3.193   0.771  13.806  2.5501  0.4877 -0.7235
 7638SOL    HW234548   3.282   0.845  13.895 -0.0214 -1.0604  1.2888
 7639SOL     OW34549   2.187   2.158   5.324 -0.6415 -0.3933  0.2692
 7639SOL    HW134550   2.110   2.101   5.325 -0.8590 -0.1010  0.0669
 7639SOL    HW234551   2.199   2.155   5.229  2.1412  0.4415  0.5858
 7640SOL     OW34552   1.651   2.618  14.375 -0.1889 -0.1040  0.2578
 7640SOL    HW134553   1.726   2.675  14.363  0.0389 -0.4027  0.2644
 7640SOL    HW234554   1.649   2.600  14.469  2.1895 -2.0154 -0.0588
 7641SOL     OW34555   1.327   1.579  11.397 -0.2260 -0.8250 -0.5959
 7641SOL    HW134556   1.288   1.659  11.362 -1.2498 -0.1323  2.1077
 7641SOL    HW234557   1.334   1.533  11.313 -0.3982 -1.4490 -0.2690
 7642SOL     OW34558   1.038   3.403  11.795 -0.2683 -0.2337 -0.0416
 7642SOL    HW134559   1.031   3.489  11.754  2.5421  1.3696  2.7936
 7642SOL    HW234560   0.999   3.336  11.739  0.1652 -0.5150 -0.0105
 7643SOL     OW34561   2.968   3.008   8.530 -0.1122 -0.2610  0.2918
 7643SOL    HW134562   3.023   3.026   8.606 -3.2629  1.3644  2.2244
 7643SOL    HW234563   2.957   2.914   8.541  1.3311 -0.3342  1.1151
 7644SOL     OW34564   4.487   0.033   7.921 -0.2813  0.6039  0.2081
 7644SOL    HW134565   4.436   0.099   7.968 -1.0601 -0.1996  0.4938
 7644SOL    HW234566   4.464   4.692   7.971 -0.6336 -0.8867 -2.2457
 7645SOL     OW34567   4.022   0.684  13.636  0.0329  0.1728  0.2324
 7645SOL    HW134568   4.113   0.666  13.662  0.4414 -0.0620 -1.3830
 7645SOL    HW234569   3.969   0.632  13.696  0.7795 -0.7809  0.0578
 7646SOL     OW34570   2.429   0.877  11.661 -0.5859 -0.0719 -0.0070
 7646SOL    HW134571   2.429   0.971  11.679 -0.7479 -0.1849  0.5720
 7646SOL    HW234572   2.471   0.885  11.575 -1.8921  0.7918 -0.5655
 7647SOL     OW34573   0.100   1.419   9.581  0.0232 -0.6279 -0.5258
 7647SOL    HW134574   0.129   1.459   9.499  2.2515  0.5084  0.8191
 7647SOL    HW234575   0.165   1.349   9.590  0.6465 -0.1296 -1.1275
 7648SOL     OW34576   3.141   0.357   1.671  0.0501  0.1484  0.4217
 7648SOL    HW134577   3.120   0.266   1.693 -0.5172  0.0127 -0.6782
 7648SOL    HW234578   3.125   0.354   1.576  1.5282 -0.3784  0.1949
 7649SOL     OW34579   1.347   1.417   2.667  0.1207  0.6754 -0.4376
 7649SOL    HW134580   1.404   1.345   2.642 -1.6461 -1.2507  1.1351
 7649SOL    HW234581   1.275   1.413   2.605  0.3839 -2.5830 -0.5326
 7650SOL     OW34582   3.522   4.138   3.488  0.6566 -0.2617  0.1820
 7650SOL    HW134583   3.551   4.082   3.416  0.7090 -0.5700  0.4443
 7650SOL    HW234584   3.441   4.092   3.512  1.3569 -1.8717 -0.5575
 7651SOL     OW34585   0.311   0.320   8.795 -0.0809 -0.4611 -0.3305
 7651SOL    HW134586   0.273   0.251   8.850 -2.3468  2.2528  1.5311
 7651SOL    HW234587   0.286   0.389   8.857  2.0240  0.4117 -0.4416
 7652SOL     OW34588   3.017   0.437  12.487  0.1614  0.3364  0.3450
 7652SOL    HW134589   3.087   0.489  12.448  0.8316 -0.0360  1.0396
 7652SOL    HW234590   3.000   0.486  12.567  0.1213 -0.1626  0.6476
 7653SOL     OW34591   2.852   3.381   5.161  0.5662  0.0236 -0.6236
 7653SOL    HW134592   2.910   3.455   5.180 -0.7952 -0.0664  3.7826
 7653SOL    HW234593   2.787   3.425   5.107  0.5459  1.9166  0.9739
 7654SOL     OW34594   1.494   0.829   8.455  0.9987 -0.3473  0.0932
 7654SOL    HW134595   1.405   0.834   8.418  1.2568  1.1294 -0.3642
 7654SOL    HW234596   1.539   0.763   8.403  0.8444  0.6300 -1.3015
 7655SOL     OW34597   2.932   2.306   4.515  0.2825 -0.0577  0.1373
 7655SOL    HW134598   2.949   2.352   4.433  0.3146 -2.5394 -1.2412
 7655SOL    HW234599   2.838   2.328   4.517  0.2907 -0.3308  2.6883
 7656SOL     OW34600   4.199   3.277  11.344  0.2762  0.0364 -0.3886
 7656SOL    HW134601   4.182   3.195  11.389  2.6267  0.0700  0.5617
 7656SOL    HW234602   4.124   3.330  11.373 -0.8699  0.1215 -3.4893
 7657SOL     OW34603   0.546   2.820   7.612 -0.1530 -0.5919 -0.3060
 7657SOL    HW134604   0.620   2.768   7.582  0.5804  0.1155  0.2813
 7657SOL    HW234605   0.573   2.832   7.703 -1.4868 -0.4093  0.0636
 7658SOL     OW34606   0.632   3.042   6.670 -0.4838  0.5543  0.4247
 7658SOL    HW134607   0.559   3.088   6.711  1.0676  1.1167  2.5588
 7658SOL    HW234608   0.664   3.112   6.613 -0.7523  0.0523 -0.3399
 7659SOL     OW34609   2.631   2.166   2.278 -0.0600  0.3262 -0.0205
 7659SOL    HW134610   2.686   2.098   2.318 -1.5103 -1.1686 -0.5927
 7659SOL    HW234611   2.695   2.207   2.220 -1.2061  0.3662 -1.2543
 7660SOL     OW34612   1.777   0.400   2.863 -0.3058  0.4119 -0.0926
 7660SOL    HW134613   1.859   0.422   2.908 -0.9558  0.2029  1.1933
 7660SOL    HW234614   1.784   0.307   2.841  0.7476  0.8434 -1.5930
 7661SOL     OW34615   3.600   0.337   1.025  0.3880 -0.5886  0.0444
 7661SOL    HW134616   3.517   0.324   0.979  0.5133 -2.3554  0.3163
 7661SOL    HW234617   3.587   0.272   1.094  2.3768 -1.0958 -0.0480
 7662SOL     OW34618   0.971   2.244   1.871 -0.3985  0.1190 -0.2190
 7662SOL    HW134619   0.889   2.198   1.850 -1.9246  2.5486  0.4470
 7662SOL    HW234620   1.026   2.214   1.799 -3.8515 -1.8090 -2.1015
 7663SOL     OW34621   1.304   4.432  11.462 -0.3419  0.6125 -0.1991
 7663SOL    HW134622   1.346   4.395  11.385 -1.9323  0.5981 -1.0607
 7663SOL    HW234623   1.226   4.377  11.472  0.1706 -0.1863 -0.6423
 7664SOL     OW34624   2.211   3.500   8.902  0.1318 -0.9141  0.1667
 7664SOL    HW134625   2.194   3.436   8.833 -1.8481  1.5499 -1.6233
 7664SOL    HW234626   2.129   3.478   8.948 -0.0139  3.4583  1.9949
 7665SOL     OW34627   1.162   2.855  13.379  0.8897  0.2470 -0.1348
 7665SOL    HW134628   1.082   2.850  13.327 -0.4104 -1.5535  2.0818
 7665SOL    HW234629   1.142   2.781  13.435 -1.4996  0.9761 -0.0220
 7666SOL     OW34630   4.004   2.529   4.551 -0.1457  0.1261  0.7383
 7666SOL    HW134631   3.957   2.465   4.605  1.2773 -1.0023  0.6473
 7666SOL    HW234632   4.091   2.492   4.568  0.0899 -0.5439 -1.9743
 7667SOL     OW34633   0.380   0.004   1.967  0.1649  0.1200  0.3085
 7667SOL    HW134634   0.314   0.044   2.024  0.3743 -0.3699  0.8926
 7667SOL    HW234635   0.346   4.653   1.971 -0.6896  0.4568  0.6077
 7668SOL     OW34636   2.109   3.582   1.673  0.0169 -0.3129 -0.4660
 7668SOL    HW134637   2.096   3.656   1.614 -1.2735 -1.3695 -1.5101
 7668SOL    HW234638   2.019   3.552   1.684  0.3017 -0.6993  0.8958
 7669SOL     OW34639   1.715   4.400  15.742 -0.2556 -0.1776 -0.2234
 7669SOL    HW134640   1.742   4.482  15.701  1.6434  0.5308  2.5240
 7669SOL    HW234641   1.725   4.337  15.670  0.1094  0.6197 -0.8705
 7670SOL     OW34642   3.307   3.785  14.114 -0.5467 -0.1638  0.3939
 7670SOL    HW134643   3.263   3.842  14.177 -3.1810 -0.6406 -1.0085
 7670SOL    HW234644   3.237   3.721  14.100  1.9392 -2.8179  0.0691
 7671SOL     OW34645   4.343   3.658   6.232  0.4290  0.0449 -0.0246
 7671SOL    HW134646   4.424   3.703   6.260  1.3072 -1.2350 -0.5400
 7671SOL    HW234647   4.288   3.676   6.308 -1.0392  1.9168 -1.5134
 7672SOL     OW34648   0.223   3.627   4.696  0.1220  0.5033 -0.1878
 7672SOL    HW134649   0.263   3.542   4.710 -0.1446  0.2617 -0.8827
 7672SOL    HW234650   0.148   3.609   4.752  1.9570 -0.6759  1.8384
 7673SOL     OW34651   1.357   0.716  17.488  0.2151 -0.1967  0.8503
 7673SOL    HW134652   1.300   0.792  17.478  0.5349 -0.2259 -1.1265
 7673SOL    HW234653   1.421   0.718  17.417  2.8880 -0.8792  3.2606
 7674SOL     OW34654   1.402   3.925   0.396 -0.2649  0.4702 -0.0684
 7674SOL    HW134655   1.399   3.830   0.388  2.6252  0.5555 -2.3126
 7674SOL    HW234656   1.317   3.955   0.364  0.3305  0.1326 -1.9477
 7675SOL     OW34657   1.623   1.918   2.328  0.8332 -0.4511 -0.2823
 7675SOL    HW134658   1.544   1.875   2.360  1.9548 -1.2149  1.4444
 7675SOL    HW234659   1.642   1.982   2.397  0.1184  0.5797 -1.0449
 7676SOL     OW34660   0.722   2.504   4.201  0.5840 -0.0412 -0.0014
 7676SOL    HW134661   0.801   2.555   4.185  0.6603 -0.4490 -0.9188
 7676SOL    HW234662   0.684   2.569   4.261 -2.0206 -1.7514  0.1934
 7677SOL     OW34663   4.164   0.488  10.037 -0.6057 -0.4801 -0.1123
 7677SOL    HW134664   4.132   0.481   9.947 -1.4767 -1.1839  0.2631
 7677SOL    HW234665   4.246   0.537  10.024 -1.1298  0.8933  1.8249
 7678SOL     OW34666   3.857   3.080   7.642 -0.5107 -0.4627 -0.2337
 7678SOL    HW134667   3.772   3.119   7.664 -0.1694 -0.5521  1.2536
 7678SOL    HW234668   3.860   3.086   7.547  2.5125  0.7792 -0.0679
 7679SOL     OW34669   1.548   4.301  17.407 -0.3444 -0.0484 -0.0934
 7679SOL    HW134670   1.562   4.274  17.497  0.1979  0.5731  0.0077
 7679SOL    HW234671   1.496   4.376  17.433  0.1166 -0.4070  1.8278
 7680SOL     OW34672   3.819   2.233   1.585  0.3391  0.0134  0.0539
 7680SOL    HW134673   3.885   2.247   1.517  1.2341  1.3271  1.1777
 7680SOL    HW234674   3.776   2.154   1.553  0.2853  0.9003 -2.0738
 7681SOL     OW34675   1.120   0.907   3.843 -0.2018 -0.5405  0.4289
 7681SOL    HW134676   1.072   0.912   3.761  0.8127  1.6750 -0.0123
 7681SOL    HW234677   1.070   0.960   3.905 -1.5596 -1.2356 -0.0562
 7682SOL     OW34678   0.262   2.845  16.617  0.5113 -0.5127 -0.0195
 7682SOL    HW134679   0.181   2.831  16.568 -0.6012 -1.1342  1.9830
 7682SOL    HW234680   0.231   2.848  16.708  0.0455  3.4345 -0.2929
 7683SOL     OW34681   1.992   1.792  12.441 -0.7614 -0.6159 -0.4275
 7683SOL    HW134682   2.010   1.824  12.352  0.5953 -0.5242 -0.1240
 7683SOL    HW234683   2.073   1.747  12.466 -1.8912 -0.9667  2.5522
 7684SOL     OW34684   1.630   4.156   1.133  0.0476 -0.0537 -0.1205
 7684SOL    HW134685   1.536   4.149   1.119  0.3646 -2.4800 -1.0147
 7684SOL    HW234686   1.645   4.105   1.212 -0.1452  1.2244  0.7439
 7685SOL     OW34687   0.152   1.930  16.550 -0.3885 -0.7699 -0.7536
 7685SOL    HW134688   0.149   1.927  16.646 -1.1571 -2.9311 -0.8289
 7685SOL    HW234689   0.225   1.871  16.530 -0.1400 -1.6988  2.9113
 7686SOL     OW34690   1.459   4.623   2.640  0.2846  0.2237 -0.4087
 7686SOL    HW134691   1.388   4.560   2.654 -0.1735  0.9019  0.3850
 7686SOL    HW234692   1.400   4.697   2.657  0.8934  0.7514 -0.6131
 7687SOL     OW34693   0.836   4.484   9.617 -0.5283 -0.2303 -0.1668
 7687SOL    HW134694   0.851   4.519   9.705 -1.1254  0.1551 -0.2218
 7687SOL    HW234695   0.748   4.517   9.601 -0.7899 -1.1107 -0.5534
 7688SOL     OW34696   3.774   1.207   9.225 -0.6700 -0.0211 -0.1470
 7688SOL    HW134697   3.848   1.171   9.273 -0.6149  0.1350 -0.1131
 7688SOL    HW234698   3.721   1.128   9.219 -0.1593 -0.2177 -2.4155
 7689SOL     OW34699   0.611   2.551   6.928 -0.0413  0.4984  0.5297
 7689SOL    HW134700   0.690   2.577   6.977  0.1353  2.0994 -0.5816
 7689SOL    HW234701   0.591   2.637   6.891 -1.8342  0.1922  0.8304
 7690SOL     OW34702   0.907   4.443   6.765 -0.5245  0.0261 -0.8177
 7690SOL    HW134703   0.834   4.433   6.827  1.0443 -0.5325  0.9160
 7690SOL    HW234704   0.851   4.490   6.702  1.6937  0.6650 -2.2822
 7691SOL     OW34705   4.686   2.323  12.141 -0.3341 -0.5114 -0.1412
 7691SOL    HW134706   4.714   2.344  12.052 -0.9803 -0.4104 -0.3211
 7691SOL    HW234707   0.009   2.255  12.170 -0.0184  0.2129  0.9313
 7692SOL     OW34708   1.341   1.125   1.400  0.2948 -0.5392  0.3124
 7692SOL    HW134709   1.409   1.191   1.389  0.0893  0.0815  2.7578
 7692SOL    HW234710   1.374   1.065   1.467  2.1568  0.6653  0.4699
 7693SOL     OW34711   1.603   4.173   2.998 -0.7444 -0.0102 -0.4168
 7693SOL    HW134712   1.569   4.094   2.956 -0.6017 -0.8038  0.9669
 7693SOL    HW234713   1.533   4.208   3.053 -0.0253 -1.6581  1.5044
 7694SOL     OW34714   2.800   0.115   5.230 -0.2595 -0.1427  0.0644
 7694SOL    HW134715   2.800   0.177   5.157  0.9946 -1.2262 -0.8608
 7694SOL    HW234716   2.736   0.156   5.288 -0.2491 -2.7999  1.9676
 7695SOL     OW34717   3.701   1.524   1.417  0.2528 -0.8723  0.1786
 7695SOL    HW134718   3.711   1.430   1.434  0.1147 -0.9414 -0.1157
 7695SOL    HW234719   3.612   1.536   1.383  0.0376  0.2803  1.1173
 7696SOL     OW34720   4.530   4.370   4.009  0.2594 -0.4347 -0.3216
 7696SOL    HW134721   4.604   4.419   4.046 -0.4675  2.1795 -2.3041
 7696SOL    HW234722   4.497   4.432   3.944 -0.9260 -1.1054 -0.3640
 7697SOL     OW34723   2.799   2.126   8.462 -0.1646  0.2029  0.0489
 7697SOL    HW134724   2.752   2.163   8.536 -0.9274  2.3147 -1.4832
 7697SOL    HW234725   2.809   2.035   8.490  1.6940  0.7808  1.2607
 7698SOL     OW34726   0.600   4.290   4.959  0.1990 -0.0137 -0.1213
 7698SOL    HW134727   0.553   4.207   4.960  1.2643 -0.5958  1.1649
 7698SOL    HW234728   0.664   4.250   4.900  0.9234  0.4983  0.3176
 7699SOL     OW34729   0.256   3.564   2.554 -0.2280  0.0973 -0.0254
 7699SOL    HW134730   0.204   3.530   2.481 -0.5461 -1.2669  0.8369
 7699SOL    HW234731   0.293   3.482   2.588  1.5536  0.2973 -1.4843
 7700SOL     OW34732   0.594   1.253   2.556 -0.0174 -0.4133  0.1616
 7700SOL    HW134733   0.601   1.316   2.484  1.7192 -0.8198 -0.0272
 7700SOL    HW234734   0.644   1.178   2.524 -1.6380 -2.2891  2.0371
 7701SOL     OW34735   3.323   1.494   9.031 -0.4467  0.4115 -0.3789
 7701SOL    HW134736   3.395   1.432   9.022 -0.2657  0.6620 -0.6829
 7701SOL    HW234737   3.269   1.471   8.955 -1.4105 -0.1677  0.4957
 7702SOL     OW34738   2.133   4.459  14.923  0.3214  0.2994 -0.0485
 7702SOL    HW134739   2.178   4.542  14.909 -1.0424  1.5677  3.1289
 7702SOL    HW234740   2.160   4.412  14.844  2.2912  1.2823  0.0207
 7703SOL     OW34741   1.400   3.501   2.357 -0.3503  0.2204 -0.0247
 7703SOL    HW134742   1.368   3.497   2.447 -1.1816 -1.1633 -0.3738
 7703SOL    HW234743   1.358   3.582   2.329  0.1616  0.3784 -0.3512
 7704SOL     OW34744   3.323   2.297   7.645  0.1445  0.3207 -0.4864
 7704SOL    HW134745   3.339   2.351   7.722  0.3453  0.2564 -0.4834
 7704SOL    HW234746   3.296   2.212   7.681  0.1436 -0.2099 -1.7561
 7705SOL     OW34747   2.163   2.818   7.314 -0.0866  0.5503 -0.3245
 7705SOL    HW134748   2.199   2.799   7.227 -0.8913  0.6238 -0.6772
 7705SOL    HW234749   2.093   2.875   7.281 -1.6485 -0.1645  1.7457
 7706SOL     OW34750   3.079   0.696   0.595  0.3336 -0.6147  0.5567
 7706SOL    HW134751   3.143   0.755   0.556 -1.3995  2.1114  1.8878
 7706SOL    HW234752   3.027   0.746   0.657  2.0777  1.7912  0.0746
 7707SOL     OW34753   3.388   0.484   6.279  0.0247  0.5070  0.0436
 7707SOL    HW134754   3.306   0.518   6.244  0.3517  1.4942  0.2506
 7707SOL    HW234755   3.404   0.414   6.215 -0.7047 -1.5354  2.0795
 7708SOL     OW34756   0.497   4.670   4.612 -0.3808 -0.3388 -0.2712
 7708SOL    HW134757   0.518   4.712   4.695 -0.8342 -0.7722  0.0619
 7708SOL    HW234758   0.556   4.723   4.557 -0.8414 -0.3568 -0.7807
 7709SOL     OW34759   3.251   2.933  10.819  0.0343  0.4432 -0.3437
 7709SOL    HW134760   3.284   3.000  10.760  0.9232  1.9357  1.8723
 7709SOL    HW234761   3.318   2.931  10.887  0.9748  0.6527 -1.2629
 7710SOL     OW34762   2.365   3.499   4.015  0.1291 -0.5136  0.2276
 7710SOL    HW134763   2.451   3.535   4.037  0.1789  0.4541 -1.5134
 7710SOL    HW234764   2.308   3.540   4.080  2.3377  0.8881  1.2915
 7711SOL     OW34765   0.289   0.046  11.731 -0.2554 -0.3289  0.0357
 7711SOL    HW134766   0.304   0.002  11.814 -0.2701 -2.9200 -1.3290
 7711SOL    HW234767   0.220   0.110  11.750  1.3113  1.8667 -1.6411
 7712SOL     OW34768   4.051   3.498  11.986 -0.0449 -0.3379  0.2209
 7712SOL    HW134769   4.076   3.588  11.966 -0.9557 -0.2871 -0.6704
 7712SOL    HW234770   3.978   3.486  11.925 -1.5890  0.0221  1.9664
 7713SOL     OW34771   3.405   3.239   5.268  0.1781  0.2489  0.2429
 7713SOL    HW134772   3.334   3.285   5.224 -0.7838 -1.1765  0.2945
 7713SOL    HW234773   3.475   3.302   5.252  0.6945  0.2177  2.3234
 7714SOL     OW34774   0.504   2.041  11.076  0.2803  0.2291 -0.0294
 7714SOL    HW134775   0.593   2.045  11.112 -0.3193 -2.8989  1.8328
 7714SOL    HW234776   0.522   2.065  10.985  0.3126 -0.7076 -0.2748
 7715SOL     OW34777   2.857   0.590   1.178  0.1345 -0.2579 -0.3159
 7715SOL    HW134778   2.849   0.567   1.086  2.9861  1.1252 -0.9146
 7715SOL    HW234779   2.847   0.686   1.177  0.4350 -0.1871  2.4714
 7716SOL     OW34780   2.407   2.318  17.733 -0.2372 -0.1923 -0.7707
 7716SOL    HW134781   2.378   2.250  17.673  0.3067  0.7937 -2.1479
 7716SOL    HW234782   2.418   2.270   0.067 -1.5716 -0.3389 -0.6895
 7717SOL     OW34783   0.343   4.245   3.969 -0.2076  1.0305 -1.1724
 7717SOL    HW134784   0.417   4.189   3.948 -1.4647 -1.6508  1.5648
 7717SOL    HW234785   0.360   4.282   4.055 -0.3633 -2.2006  0.2300
 7718SOL     OW34786   0.538   3.548  10.856 -0.5265  0.4536  0.3972
 7718SOL    HW134787   0.507   3.579  10.940 -0.0022 -2.4394  1.6716
 7718SOL    HW234788   0.467   3.581  10.801  0.2638  0.7350 -0.4572
 7719SOL     OW34789   3.940   4.078   9.262  0.4383 -0.7091 -0.2665
 7719SOL    HW134790   3.924   4.135   9.187  1.0722 -0.0446  0.1003
 7719SOL    HW234791   3.976   4.000   9.220  0.4913 -0.9733  0.2595
 7720SOL     OW34792   4.256   1.132   9.765  0.3420  0.2337 -0.1054
 7720SOL    HW134793   4.230   1.205   9.822 -0.8633  1.1525 -1.8667
 7720SOL    HW234794   4.273   1.059   9.826  2.6119  1.3090  0.5449
 7721SOL     OW34795   2.122   2.205  10.151 -0.0424 -0.4011  0.1800
 7721SOL    HW134796   2.208   2.245  10.164 -0.3866 -0.4543  2.5644
 7721SOL    HW234797   2.071   2.282  10.176  1.0043 -0.0936  1.3951
 7722SOL     OW34798   4.427   2.392  12.113 -0.1894  0.0252  0.5982
 7722SOL    HW134799   4.511   2.348  12.104 -0.7477 -0.4894 -2.1074
 7722SOL    HW234800   4.363   2.322  12.123  0.8892 -0.9202  0.7885
 7723SOL     OW34801   1.852   4.591   1.033 -0.0471 -0.1260 -0.3099
 7723SOL    HW134802   1.875   4.504   1.066  0.8004  0.7016  1.2681
 7723SOL    HW234803   1.759   4.596   1.056  0.2902  2.2029  0.5695
 7724SOL     OW34804   3.625   3.941   5.717  0.4982  0.3717 -1.0172
 7724SOL    HW134805   3.703   3.893   5.689  2.1562  0.6413  3.0407
 7724SOL    HW234806   3.663   3.999   5.784 -0.4521 -1.3827  1.0366
 7725SOL     OW34807   0.632   4.155   5.518  0.2768 -0.0286  0.2726
 7725SOL    HW134808   0.642   4.060   5.514 -1.7245 -0.2424  0.2342
 7725SOL    HW234809   0.707   4.180   5.572  1.2894 -0.9188 -0.7320
 7726SOL     OW34810   3.432   0.582   3.117  0.1461  0.1323  0.4718
 7726SOL    HW134811   3.340   0.602   3.098 -0.3949 -1.9136  0.9980
 7726SOL    HW234812   3.424   0.502   3.169  1.5992 -0.7383 -0.6581
 7727SOL     OW34813   0.188   2.190   4.924 -0.2630  0.5220  0.1479
 7727SOL    HW134814   0.253   2.197   4.854  1.1230 -1.2581  1.2504
 7727SOL    HW234815   0.195   2.277   4.962 -0.6189  0.3930  0.5081
 7728SOL     OW34816   0.725   1.453  11.061 -0.1900 -0.3435  0.6327
 7728SOL    HW134817   0.709   1.540  11.097  2.0712  0.7763 -1.0989
 7728SOL    HW234818   0.729   1.387  11.130  1.4459 -0.0751  0.7811
 7729SOL     OW34819   0.915   4.480   2.632 -0.1812 -0.2758 -0.5152
 7729SOL    HW134820   0.831   4.526   2.629 -1.2027 -2.0980  0.7755
 7729SOL    HW234821   0.877   4.393   2.627 -0.9771  0.1674 -2.2363
 7730SOL     OW34822   3.772   1.380   5.007  0.0932 -0.3466  0.2610
 7730SOL    HW134823   3.719   1.341   5.076  1.8251 -2.4162  0.4048
 7730SOL    HW234824   3.822   1.445   5.058  2.2692 -2.1017  0.3623
 7731SOL     OW34825   4.228   2.598   2.244  0.1196 -0.2740  0.7439
 7731SOL    HW134826   4.175   2.534   2.196  1.4119  0.5521 -1.7558
 7731SOL    HW234827   4.189   2.675   2.203  3.8476  0.6150 -1.0719
 7732SOL     OW34828   4.323   4.525  16.708 -0.1562  0.2952 -0.7469
 7732SOL    HW134829   4.246   4.565  16.667 -0.8880 -1.0130 -0.6487
 7732SOL    HW234830   4.376   4.603  16.724  0.9760 -0.1150 -2.4884
 7733SOL     OW34831   1.928   0.630   8.870 -0.5483  0.0499  0.1138
 7733SOL    HW134832   2.005   0.578   8.846 -1.1909 -0.9610  0.2643
 7733SOL    HW234833   1.909   0.592   8.956  0.1937  1.0921  0.7421
 7734SOL     OW34834   1.556   1.232  11.296 -0.2835 -0.3003  0.3683
 7734SOL    HW134835   1.598   1.288  11.361  3.0764  0.1852 -2.1884
 7734SOL    HW234836   1.630   1.190  11.250 -0.5285  0.9279 -1.1659
 7735SOL     OW34837   2.117   2.141   2.284  0.3328  0.1539  0.1744
 7735SOL    HW134838   2.206   2.169   2.306 -0.2767  0.2016  2.5938
 7735SOL    HW234839   2.062   2.211   2.321  0.1731  0.1725 -0.1021
 7736SOL     OW34840   2.439   0.187   6.878  0.7197 -0.2087  0.5728
 7736SOL    HW134841   2.511   0.250   6.872  0.1583  0.3981  0.2591
 7736SOL    HW234842   2.450   0.145   6.793 -1.0810 -2.3467  1.3995
 7737SOL     OW34843   1.714   2.161   5.597 -0.2633 -0.2928  0.1784
 7737SOL    HW134844   1.662   2.241   5.585 -0.3735 -0.4225 -0.2039
 7737SOL    HW234845   1.752   2.178   5.683  0.1212 -3.3585  0.5957
 7738SOL     OW34846   1.765   0.441   7.305  0.0904 -0.6941  0.2230
 7738SOL    HW134847   1.843   0.391   7.331 -1.3160 -2.4738  1.0057
 7738SOL    HW234848   1.817   0.520   7.293  0.0621 -0.9725 -1.8968
 7739SOL     OW34849   1.270   2.444   2.827  0.2700 -0.3373 -0.0661
 7739SOL    HW134850   1.182   2.415   2.805  0.5720 -0.6238 -0.8967
 7739SOL    HW234851   1.276   2.540   2.826  1.0419 -0.3762  0.2381
 7740SOL     OW34852   1.280   1.636   3.452 -0.0985 -0.3641 -0.6069
 7740SOL    HW134853   1.241   1.582   3.521 -1.2368 -1.7905 -2.3586
 7740SOL    HW234854   1.216   1.631   3.382 -1.4603 -0.5638  0.6573
 7741SOL     OW34855   0.314   2.309   1.523  0.2685  0.1452  0.3324
 7741SOL    HW134856   0.403   2.325   1.554  0.0053  1.1837  0.5322
 7741SOL    HW234857   0.302   2.391   1.475 -1.9636 -0.4281 -0.1139
 7742SOL     OW34858   3.093   0.913   5.289  0.2337  0.2668  0.8278
 7742SOL    HW134859   3.013   0.904   5.341 -1.6585 -1.2528 -2.3551
 7742SOL    HW234860   3.123   0.824   5.310  1.7986  0.8309  0.9391
 7743SOL     OW34861   0.414   3.905  10.364  0.2526  0.1318  0.3146
 7743SOL    HW134862   0.485   3.860  10.409 -1.4062  0.1834  2.9626
 7743SOL    HW234863   0.356   3.946  10.428  0.9300  0.1953  0.8925
 7744SOL     OW34864   2.991   2.344  16.104 -0.1621 -0.1735  0.1971
 7744SOL    HW134865   2.996   2.255  16.138  1.5766 -0.0708  0.1812
 7744SOL    HW234866   2.957   2.399  16.175  0.2732 -1.4796  1.4263
 7745SOL     OW34867   2.717   0.674   5.796 -0.4223  0.1521 -0.1750
 7745SOL    HW134868   2.704   0.769   5.799 -0.6575  0.0835  1.3227
 7745SOL    HW234869   2.710   0.659   5.891  4.0510  0.5312  0.2411
 7746SOL     OW34870   3.510   4.704   8.589  0.1721 -0.2566  0.5293
 7746SOL    HW134871   3.528   0.022   8.513 -0.8172 -0.8203 -0.1189
 7746SOL    HW234872   3.552   0.020   8.656 -1.5386  2.4548 -0.5770
 7747SOL     OW34873   0.783   0.617   3.961  0.0903 -0.2604  0.4283
 7747SOL    HW134874   0.870   0.626   4.000  0.0722 -2.6940  1.0295
 7747SOL    HW234875   0.800   0.594   3.870  0.4584 -0.4319  0.5404
 7748SOL     OW34876   0.412   3.773  11.856  0.1956 -0.4709  0.6354
 7748SOL    HW134877   0.367   3.730  11.929  0.6276 -1.7838  0.1230
 7748SOL    HW234878   0.429   3.860  11.892 -0.3111 -0.4728  0.8819
 7749SOL     OW34879   0.801   1.088   2.123  1.1805  0.0235  0.3519
 7749SOL    HW134880   0.893   1.091   2.151  1.1416  1.8982  0.3209
 7749SOL    HW234881   0.777   0.995   2.124 -1.3649  0.6715  0.2172
 7750SOL     OW34882   3.182   1.318   7.328  0.3974 -0.1767  0.5163
 7750SOL    HW134883   3.242   1.358   7.265  1.0968 -0.7269  0.8308
 7750SOL    HW234884   3.241   1.291   7.398  2.2527  2.5259 -0.0112
 7751SOL     OW34885   2.669   1.461   3.967 -0.4584 -0.2173 -0.0837
 7751SOL    HW134886   2.735   1.393   3.958 -0.4164 -0.0358 -1.1607
 7751SOL    HW234887   2.685   1.473   4.061  0.4201  1.0228 -0.3922
 7752SOL     OW34888   2.677   4.558  12.960 -0.3273 -0.1769  0.6343
 7752SOL    HW134889   2.584   4.537  12.956  0.1267 -1.5665 -2.4146
 7752SOL    HW234890   2.676   4.649  12.929  3.1307 -1.6979 -3.8352
 7753SOL     OW34891   2.440   4.329   6.272 -0.0709  0.5357  0.0311
 7753SOL    HW134892   2.346   4.317   6.281  0.0825 -0.4501  0.3050
 7753SOL    HW234893   2.477   4.263   6.330  2.9850  0.1221 -2.3488
 7754SOL     OW34894   1.953   1.412   7.795 -0.2136  0.6387 -0.2953
 7754SOL    HW134895   2.018   1.469   7.754  0.8882  0.7647  1.6206
 7754SOL    HW234896   1.888   1.476   7.825 -0.0259  0.3699  0.6975
 7755SOL     OW34897   1.079   3.933   5.189 -0.1985 -0.2641 -0.3974
 7755SOL    HW134898   1.136   3.862   5.218 -0.4389 -0.8533 -1.3712
 7755SOL    HW234899   1.065   3.911   5.097 -1.3331  0.3345 -0.3655
 7756SOL     OW34900   2.151   3.319   9.236 -0.0197 -0.1995  0.3975
 7756SOL    HW134901   2.165   3.351   9.147 -0.5000  1.3709  0.8782
 7756SOL    HW234902   2.122   3.228   9.225  0.6604 -0.3848  0.1760
 7757SOL     OW34903   2.974   1.722   2.954 -0.0662 -0.3766  0.3787
 7757SOL    HW134904   2.882   1.742   2.935  0.4401  0.6411 -0.9922
 7757SOL    HW234905   2.974   1.665   3.031  0.8784  1.9395  2.0927
 7758SOL     OW34906   1.827   2.682   1.845 -0.1087  0.6022  0.7639
 7758SOL    HW134907   1.764   2.656   1.913 -0.4915 -1.3936 -0.3371
 7758SOL    HW234908   1.878   2.601   1.845 -0.7822  0.1743 -0.3318
 7759SOL     OW34909   1.905   0.917  15.552 -0.3694 -0.1505 -0.3815
 7759SOL    HW134910   2.001   0.917  15.541 -0.0956 -0.3267  1.9507
 7759SOL    HW234911   1.898   0.827  15.585  1.1845  0.2478  1.0736
 7760SOL     OW34912   4.534   0.459   7.714  0.4161  0.3909  0.0828
 7760SOL    HW134913   4.585   0.426   7.640  1.7280  1.6451  0.4255
 7760SOL    HW234914   4.487   0.379   7.738 -2.6267  1.7862 -1.2221
 7761SOL     OW34915   0.048   2.262   2.953  0.0753 -0.5943  0.5208
 7761SOL    HW134916   0.138   2.247   2.983  0.1142 -0.6260  0.3858
 7761SOL    HW234917   0.084   2.266   2.865  1.5305 -2.9987  0.9947
 7762SOL     OW34918   2.961   3.329  12.309 -0.4157 -0.5082 -0.9502
 7762SOL    HW134919   3.020   3.258  12.282  1.2128  1.2120 -1.8458
 7762SOL    HW234920   2.888   3.325  12.247 -0.5425 -0.2588 -0.8143
 7763SOL     OW34921   3.833   3.561   6.998  0.1439 -0.1351  0.2480
 7763SOL    HW134922   3.790   3.553   6.913 -2.7440 -1.1748  1.8047
 7763SOL    HW234923   3.761   3.584   7.057  0.8513  1.9053  0.3135
 7764SOL     OW34924   1.605   1.734   7.886  0.0929  0.2404 -0.7337
 7764SOL    HW134925   1.630   1.825   7.873 -1.2666  1.0091  2.1004
 7764SOL    HW234926   1.691   1.693   7.894  0.3364  0.7888 -0.5667
 7765SOL     OW34927   0.695   4.503   6.627 -0.1541 -0.1426  0.1632
 7765SOL    HW134928   0.637   4.428   6.641 -1.2499  0.4625 -1.1539
 7765SOL    HW234929   0.635   4.577   6.636  1.4102  1.1645 -0.2301
 7766SOL     OW34930   2.937   3.333   7.526  0.3420 -0.3062 -0.7973
 7766SOL    HW134931   2.902   3.317   7.614  0.1622 -1.5577 -1.0998
 7766SOL    HW234932   2.952   3.428   7.520 -2.2614  0.0549 -1.5692
 7767SOL     OW34933   1.929   2.434   1.799  0.2673  0.4124  0.6190
 7767SOL    HW134934   2.000   2.377   1.830 -1.1228 -0.8687  1.4679
 7767SOL    HW234935   1.854   2.389   1.837 -0.1053 -1.6556 -2.5593
 7768SOL     OW34936   2.329   1.515  13.805 -0.7619 -0.2860  0.2718
 7768SOL    HW134937   2.368   1.523  13.892 -0.0149 -0.1306 -0.0823
 7768SOL    HW234938   2.305   1.424  13.790 -0.7083 -0.6435  2.4403
 7769SOL     OW34939   2.804   3.823  17.471 -0.3694 -0.3105  0.2023
 7769SOL    HW134940   2.739   3.826  17.542 -1.1705 -1.3270 -0.4880
 7769SOL    HW234941   2.850   3.742  17.489  0.7780  0.4371  0.6705
 7770SOL     OW34942   0.884   1.736   6.077 -0.3230  0.1003  0.3196
 7770SOL    HW134943   0.879   1.640   6.068 -1.4761  0.2048 -0.1620
 7770SOL    HW234944   0.977   1.743   6.057 -0.0573 -0.5171  1.3305
 7771SOL     OW34945   1.073   2.030  15.775  0.4241 -0.4034 -0.4982
 7771SOL    HW134946   1.162   2.057  15.751  0.5287 -0.6698 -0.4116
 7771SOL    HW234947   1.086   1.935  15.780  0.0571 -0.3728  0.9932
 7772SOL     OW34948   1.694   1.847  11.764  0.3881  0.0570 -0.3456
 7772SOL    HW134949   1.730   1.896  11.690  0.7854 -1.7480 -1.3416
 7772SOL    HW234950   1.616   1.899  11.785  1.5580  2.1019 -1.0852
 7773SOL     OW34951   1.375   3.166   2.212  0.0569 -0.0687 -0.4184
 7773SOL    HW134952   1.293   3.178   2.260 -0.3808 -2.3593 -0.6188
 7773SOL    HW234953   1.420   3.249   2.230  1.1858 -1.0827  1.4561
 7774SOL     OW34954   2.191   2.035   9.782 -0.3863 -0.2988  0.3083
 7774SOL    HW134955   2.190   2.049   9.876  2.0000 -0.2248  0.3055
 7774SOL    HW234956   2.282   2.009   9.771  0.9581  4.6570 -0.0602
 7775SOL     OW34957   4.726   0.428  14.012 -0.5387  0.2260 -0.6367
 7775SOL    HW134958   0.036   0.362  14.063 -0.9453  1.9533  1.9808
 7775SOL    HW234959   4.704   0.392  13.926  0.3440 -2.4556  0.2616
 7776SOL     OW34960   2.718   3.671   1.046  0.9449  0.2766  0.0211
 7776SOL    HW134961   2.776   3.667   1.123 -0.8308  2.8120  1.5111
 7776SOL    HW234962   2.674   3.592   1.076  0.9027  0.2092 -0.2244
 7777SOL     OW34963   1.040   3.957   9.641  0.1218  0.2890 -0.3350
 7777SOL    HW134964   1.038   4.000   9.727 -1.5725  0.1661 -0.2974
 7777SOL    HW234965   0.977   3.887   9.660  0.7622 -0.8549 -2.4325
 7778SOL     OW34966   4.409   0.602   8.811  0.3795 -0.4518  0.6950
 7778SOL    HW134967   4.346   0.576   8.878  1.0871  2.6660  2.5492
 7778SOL    HW234968   4.373   0.554   8.736  5.1860 -1.0972 -1.1846
 7779SOL     OW34969   2.314   3.112  17.348 -0.3058  0.5889 -0.2358
 7779SOL    HW134970   2.375   3.104  17.422  2.1255 -0.7562 -2.4024
 7779SOL    HW234971   2.344   3.034  17.301  1.5472  0.6914  0.7829
 7780SOL     OW34972   1.337   2.759   6.531  0.0306  0.5092 -0.2588
 7780SOL    HW134973   1.249   2.723   6.518 -0.0701  0.8399 -0.4827
 7780SOL    HW234974   1.382   2.682   6.568  0.4870  0.8678 -0.0686
 7781SOL     OW34975   0.342   1.020  11.312 -0.0109 -0.5788 -0.2503
 7781SOL    HW134976   0.363   0.940  11.360 -0.8433 -0.5713  0.1377
 7781SOL    HW234977   0.395   1.087  11.356  0.0088 -1.6145  1.3000
 7782SOL     OW34978   4.409   1.672   4.471  0.1312  0.6894 -0.0166
 7782SOL    HW134979   4.358   1.753   4.465  0.4308  0.9627  1.0721
 7782SOL    HW234980   4.452   1.684   4.556 -1.8803 -0.3304  1.1482
 7783SOL     OW34981   4.715   0.903   8.271 -0.7000 -0.3153 -0.3960
 7783SOL    HW134982   4.715   0.959   8.349  3.8178 -0.9089  0.0547
 7783SOL    HW234983   0.064   0.930   8.240 -0.5941 -0.4545 -0.2187
 7784SOL     OW34984   1.954   4.375   4.037 -0.2710  0.0634 -0.0299
 7784SOL    HW134985   2.028   4.379   3.976  0.7775 -0.4022  1.2040
 7784SOL    HW234986   1.926   4.466   4.043  0.2582  0.1728  0.7820
 7785SOL     OW34987   4.421   3.357   3.119 -0.0601  0.1595  0.3975
 7785SOL    HW134988   4.511   3.351   3.086 -0.0821 -1.7379  0.6929
 7785SOL    HW234989   4.435   3.340   3.212  1.9291  3.3953  0.6923
 7786SOL     OW34990   0.225   3.775   8.489  0.7885  0.4991 -0.1469
 7786SOL    HW134991   0.277   3.829   8.549 -0.7565  0.4111  1.2695
 7786SOL    HW234992   0.232   3.695   8.542 -0.9988 -0.6398 -1.6156
 7787SOL     OW34993   2.283   4.104  12.798 -0.2584 -0.5876  0.1058
 7787SOL    HW134994   2.339   4.052  12.856 -2.2056 -0.7632  1.8164
 7787SOL    HW234995   2.261   4.042  12.728  1.0868 -0.2624 -0.6105
 7788SOL     OW34996   2.537   1.131  11.661  0.4716 -0.2213  0.4576
 7788SOL    HW134997   2.559   1.146  11.569  2.5072 -1.3357  0.7677
 7788SOL    HW234998   2.603   1.187  11.701  0.8281 -0.3703  0.0728
 7789SOL     OW34999   3.938   3.212   2.071 -0.1436 -0.9865  0.2781
 7789SOL    HW135000   3.983   3.172   1.996  0.4234  0.5065 -0.1714
 7789SOL    HW235001   3.992   3.175   2.141 -1.6157 -1.6930  1.0474
 7790SOL     OW35002   4.131   2.597  13.423 -0.2469  0.9674  0.1832
 7790SOL    HW135003   4.178   2.540  13.484  0.0722 -0.1998 -1.1607
 7790SOL    HW235004   4.096   2.524  13.372  3.2257 -1.3794  1.2229
 7791SOL     OW35005   2.627   0.837   8.560  0.3682  0.5632  0.2683
 7791SOL    HW135006   2.558   0.772   8.543 -0.2035  1.6224 -1.4930
 7791SOL    HW235007   2.641   0.829   8.654 -0.4804 -2.0366  0.2008
 7792SOL     OW35008   4.640   1.659   2.123  0.1928 -0.2530  0.6202
 7792SOL    HW135009   4.721   1.693   2.086 -0.0028 -2.0807 -1.4988
 7792SOL    HW235010   4.667   1.603   2.196  1.9330 -0.3774 -0.1391
 7793SOL     OW35011   0.546   0.214   1.157 -0.1022 -0.1707 -0.4238
 7793SOL    HW135012   0.555   0.144   1.222  0.0570 -0.3054 -0.5910
 7793SOL    HW235013   0.540   0.291   1.214  0.5644  0.7805 -1.6291
 7794SOL     OW35014   3.436   1.208  10.368 -0.0427  0.1256  0.5222
 7794SOL    HW135015   3.468   1.159  10.292 -2.2501 -1.4621  0.6057
 7794SOL    HW235016   3.350   1.176  10.396  1.1124 -0.6367  3.1535
 7795SOL     OW35017   2.584   1.376   6.606 -0.3850  0.0443  0.1622
 7795SOL    HW135018   2.649   1.307   6.619 -1.1729 -0.8467 -0.6384
 7795SOL    HW235019   2.573   1.351   6.515 -1.5653 -1.0194  0.5996
 7796SOL     OW35020   3.701   0.919   0.334 -0.4277 -0.1891 -0.0366
 7796SOL    HW135021   3.722   0.877   0.250  1.1848 -1.6841  1.1224
 7796SOL    HW235022   3.776   0.977   0.349  1.3796 -3.0542  1.9989
 7797SOL     OW35023   2.074   4.692   5.595 -0.4992 -0.5748 -0.1193
 7797SOL    HW135024   2.104   4.728   5.511  0.3708  2.6402  1.5545
 7797SOL    HW235025   1.986   4.728   5.601 -0.8613 -1.5587  0.4269
 7798SOL     OW35026   4.037   3.534  13.459  0.1402  0.2830  0.1366
 7798SOL    HW135027   3.979   3.458  13.450 -1.7372  1.8801 -1.1135
 7798SOL    HW235028   4.120   3.509  13.419  1.0373  0.0265  2.1421
 7799SOL     OW35029   3.361   2.604   8.642 -0.1183 -0.0274  0.3990
 7799SOL    HW135030   3.416   2.593   8.720  1.5455  1.0144 -0.6349
 7799SOL    HW235031   3.425   2.575   8.578 -2.1894 -0.2633 -1.5582
 7800SOL     OW35032   0.445   2.344  13.451 -0.2267 -0.1519  0.1808
 7800SOL    HW135033   0.502   2.396  13.394  1.7565 -0.7140  1.6703
 7800SOL    HW235034   0.360   2.380  13.426 -0.0560 -1.1845 -1.8913
 7801SOL     OW35035   4.244   4.146   5.211  0.3018  0.1345  0.1161
 7801SOL    HW135036   4.226   4.102   5.127 -1.4809  0.9514  0.0731
 7801SOL    HW235037   4.312   4.095   5.255 -1.3407 -1.1266  1.2020
 7802SOL     OW35038   0.056   2.696   6.520  0.0819  0.3836 -0.1689
 7802SOL    HW135039   4.705   2.727   6.503 -0.7947 -3.7374 -3.1929
 7802SOL    HW235040   0.109   2.772   6.543  1.4074 -0.6857  0.3464
 7803SOL     OW35041   1.174   3.632   6.315  0.1499  0.1190  0.3519
 7803SOL    HW135042   1.210   3.720   6.304 -0.5449  0.2874 -0.5011
 7803SOL    HW235043   1.101   3.654   6.372  1.3310  0.8361  1.6087
 7804SOL     OW35044   0.574   3.205   8.356  0.2370 -0.4366 -0.0142
 7804SOL    HW135045   0.595   3.240   8.269 -1.5597  1.3851  0.2896
 7804SOL    HW235046   0.645   3.144   8.373  1.0402  0.8539  1.1785
 7805SOL     OW35047   3.773   3.676   8.385  0.1441  0.0576 -0.1012
 7805SOL    HW135048   3.865   3.653   8.384 -0.0985 -0.9448  0.8262
 7805SOL    HW235049   3.742   3.603   8.439  1.3965 -0.4027 -0.0127
 7806SOL     OW35050   2.260   3.420  11.958 -0.0184 -0.5955  0.1604
 7806SOL    HW135051   2.209   3.444  12.035 -0.9034  0.0898 -0.6359
 7806SOL    HW235052   2.336   3.381  12.001  0.4869  1.2115  0.8674
 7807SOL     OW35053   0.574   2.688  16.204  0.1482 -0.5364 -0.2577
 7807SOL    HW135054   0.632   2.718  16.275  0.2206 -0.1392 -0.4880
 7807SOL    HW235055   0.551   2.772  16.165  0.5606 -0.1380  0.3515
 7808SOL     OW35056   3.971   3.013   4.868 -0.2486 -0.1399 -0.1258
 7808SOL    HW135057   4.036   2.973   4.925  0.1576 -0.6455 -0.9367
 7808SOL    HW235058   3.901   3.047   4.923 -0.7647  1.6365 -1.8535
 7809SOL     OW35059   3.690   3.520  14.794 -0.1049  0.4703 -0.0142
 7809SOL    HW135060   3.719   3.604  14.830 -0.6192  0.3743  0.6303
 7809SOL    HW235061   3.604   3.517  14.836 -0.4376  1.6342 -0.6126
 7810SOL     OW35062   2.245   1.946   0.500  0.3133 -0.5999 -0.2605
 7810SOL    HW135063   2.176   1.962   0.564 -0.3938  1.1431 -1.4323
 7810SOL    HW235064   2.244   2.026   0.447 -0.9136 -0.5861 -0.2212
 7811SOL     OW35065   4.431   4.507  14.488 -0.3235  0.2287  0.1250
 7811SOL    HW135066   4.368   4.554  14.434  0.5260  1.3567  0.1338
 7811SOL    HW235067   4.513   4.556  14.487 -0.6775  0.8332  0.3089
 7812SOL     OW35068   3.486   3.738   5.509  0.1672  0.2114 -0.2546
 7812SOL    HW135069   3.508   3.830   5.523  0.2745  0.1694 -0.1545
 7812SOL    HW235070   3.516   3.728   5.419 -3.7605  2.2662 -1.8266
 7813SOL     OW35071   0.544   0.658   9.019  0.0213 -0.7981  0.0336
 7813SOL    HW135072   0.583   0.744   9.032 -1.5073 -0.1481  0.3231
 7813SOL    HW235073   0.535   0.631   9.110  0.0514  2.4919  1.0072
 7814SOL     OW35074   1.476   3.265   3.827 -0.5012  0.1293  0.5707
 7814SOL    HW135075   1.467   3.357   3.803 -1.4064 -0.7407 -2.3894
 7814SOL    HW235076   1.566   3.262   3.861 -0.6583 -1.1116  0.8636
 7815SOL     OW35077   3.697   2.990   3.688 -0.5110 -0.5487  0.1946
 7815SOL    HW135078   3.603   2.973   3.684 -0.2896 -1.6693 -0.2807
 7815SOL    HW235079   3.705   3.084   3.704  0.8921 -0.3546 -1.6568
 7816SOL     OW35080   0.804   0.498   8.885  0.1998 -0.3049 -0.7949
 7816SOL    HW135081   0.867   0.451   8.939  0.9516  1.4345 -0.1469
 7816SOL    HW235082   0.749   0.543   8.950 -0.5045  0.6166 -2.0364
 7817SOL     OW35083   4.122   0.223   8.921 -0.7121  0.5094  0.1971
 7817SOL    HW135084   4.033   0.214   8.957 -0.0310 -2.4767  1.1409
 7817SOL    HW235085   4.095   0.197   8.832 -0.4235 -1.1466  0.5888
 7818SOL     OW35086   2.516   4.533   4.790  0.2406  0.0813  0.1783
 7818SOL    HW135087   2.578   4.605   4.800 -0.0664  0.3724 -0.0482
 7818SOL    HW235088   2.579   4.470   4.824  0.0504 -1.5821 -2.5716
 7819SOL     OW35089   1.755   1.667   5.663 -0.3506  0.5218 -0.1315
 7819SOL    HW135090   1.762   1.573   5.679 -0.1291  0.8771  1.7784
 7819SOL    HW235091   1.672   1.690   5.704  0.9423  0.3442  2.5749
 7820SOL     OW35092   4.062   3.186   7.813 -0.2677  0.0788  0.2099
 7820SOL    HW135093   3.997   3.155   7.751 -0.4489 -0.4837  0.6838
 7820SOL    HW235094   4.062   3.117   7.880  2.2911 -0.9488 -0.8612
 7821SOL     OW35095   1.201   1.263  15.457 -0.0249  0.0676 -0.1486
 7821SOL    HW135096   1.271   1.217  15.412  1.8979  3.7371 -0.8596
 7821SOL    HW235097   1.125   1.241  15.402  0.4329 -0.1332 -0.6976
 7822SOL     OW35098   1.556   1.520   6.639 -0.3167 -0.0759  0.0724
 7822SOL    HW135099   1.537   1.604   6.681 -1.7049  0.1949 -1.1174
 7822SOL    HW235100   1.559   1.460   6.714 -1.7399 -2.5251 -1.8153
 7823SOL     OW35101   1.497   0.399   7.381 -0.0733  0.3066  0.2464
 7823SOL    HW135102   1.492   0.306   7.359 -2.2754  0.0432  1.8931
 7823SOL    HW235103   1.582   0.413   7.338  0.4726 -0.9675  0.9000
 7824SOL     OW35104   0.250   1.486   0.609  0.0618  0.5662 -0.2566
 7824SOL    HW135105   0.169   1.434   0.602  1.0311 -0.9184 -0.3585
 7824SOL    HW235106   0.246   1.519   0.699  0.9729  1.2474 -0.4700
 7825SOL     OW35107   0.541   1.029   0.467 -0.3883  0.2301 -0.0643
 7825SOL    HW135108   0.480   1.093   0.504 -0.1743  0.4239 -0.0390
 7825SOL    HW235109   0.470   0.976   0.431  0.6770 -0.8438 -0.5798
 7826SOL     OW35110   3.011   2.599  15.222  0.1040 -0.2553  0.2770
 7826SOL    HW135111   2.971   2.685  15.208  1.4095  0.6900  2.3320
 7826SOL    HW235112   2.955   2.571  15.294 -0.1882  0.4597  0.3354
 7827SOL     OW35113   2.164   3.920  12.601  0.4013  0.7234 -0.0897
 7827SOL    HW135114   2.210   3.941  12.520  2.7734  1.2235  1.3867
 7827SOL    HW235115   2.090   3.980  12.599  0.3172  0.6139 -0.2892
 7828SOL     OW35116   1.138   2.279  12.507  0.1896  0.0194 -0.3238
 7828SOL    HW135117   1.210   2.342  12.502 -0.4964  0.8000 -0.2590
 7828SOL    HW235118   1.163   2.222  12.434 -0.3785 -0.3182 -0.2538
 7829SOL     OW35119   3.628   1.034   6.790  0.3571  0.2318 -0.4634
 7829SOL    HW135120   3.687   0.963   6.814 -1.1547 -0.3592  1.5224
 7829SOL    HW235121   3.679   1.088   6.728 -0.9269 -0.8903 -2.5098
 7830SOL     OW35122   0.073   4.421   9.101 -0.1435  0.2808 -0.3325
 7830SOL    HW135123   0.164   4.427   9.131 -0.8396  0.6906  1.7014
 7830SOL    HW235124   0.068   4.325   9.107  0.7789  0.3459  1.5316
 7831SOL     OW35125   3.881   2.555   0.841  0.3219  0.2615 -0.3173
 7831SOL    HW135126   3.817   2.588   0.904 -1.2908 -3.0671 -0.2534
 7831SOL    HW235127   3.865   2.614   0.767  2.1923 -2.0967 -2.5789
 7832SOL     OW35128   3.496   4.283   6.484  0.4494  0.1098 -0.0809
 7832SOL    HW135129   3.484   4.191   6.508 -2.0408 -0.0709 -1.9485
 7832SOL    HW235130   3.483   4.330   6.566  0.3585  3.3219 -1.9197
 7833SOL     OW35131   0.236   2.591   0.074  0.5269  0.4536  0.1238
 7833SOL    HW135132   0.162   2.538   0.103  0.4390  0.8464  0.6225
 7833SOL    HW235133   0.195   2.677   0.075  0.6180  0.4770  1.8434
 7834SOL     OW35134   1.236   3.888   7.044  0.5437  0.4691 -0.0490
 7834SOL    HW135135   1.169   3.821   7.055  0.6198  0.2394 -0.9116
 7834SOL    HW235136   1.241   3.926   7.131  1.5044 -0.3792  0.2634
 7835SOL     OW35137   4.618   0.667  10.011  0.0837 -0.1527  0.0368
 7835SOL    HW135138   4.687   0.726   9.980 -0.0506 -0.2403 -0.4349
 7835SOL    HW235139   4.675   0.612  10.065  1.2447  0.7909 -0.2154
 7836SOL     OW35140   1.380   2.160   6.822 -0.3695  0.7618  0.1002
 7836SOL    HW135141   1.447   2.113   6.773 -2.0296 -0.1383 -1.3180
 7836SOL    HW235142   1.311   2.093   6.822 -0.7512  1.1476  1.2808
 7837SOL     OW35143   1.609   3.542   1.298 -0.0979 -0.0576  0.2764
 7837SOL    HW135144   1.672   3.484   1.256 -2.4888 -0.9617 -2.0484
 7837SOL    HW235145   1.529   3.490   1.288  0.3243 -0.5347 -0.5884
 7838SOL     OW35146   2.161   0.188   2.429 -0.6764 -0.0190 -0.2137
 7838SOL    HW135147   2.088   0.154   2.480  0.3373 -0.3642  1.0049
 7838SOL    HW235148   2.151   0.156   2.339  1.4667 -0.9683 -0.1237
 7839SOL     OW35149   1.126   3.753   8.656  0.0497 -0.1094  0.4051
 7839SOL    HW135150   1.172   3.837   8.662  0.6859 -0.3851 -0.7845
 7839SOL    HW235151   1.145   3.732   8.747 -1.8513 -0.2905  0.7746
 7840SOL     OW35152   1.292   4.198   0.452 -0.9896 -0.2972  0.3001
 7840SOL    HW135153   1.364   4.231   0.397 -0.7098  0.3474  1.0536
 7840SOL    HW235154   1.336   4.123   0.492  0.1858  0.0212 -0.4027
 7841SOL     OW35155   3.595   3.953   3.303 -0.2290 -0.6533  0.3646
 7841SOL    HW135156   3.544   3.912   3.233  0.7362 -0.4382 -0.4748
 7841SOL    HW235157   3.687   3.938   3.281 -0.3150 -0.7544  0.0686
 7842SOL     OW35158   3.980   0.145   7.658  0.5088  0.0847 -0.1459
 7842SOL    HW135159   4.055   0.091   7.630  2.6350  2.0647  1.7444
 7842SOL    HW235160   3.976   0.112   7.747 -0.2945  0.5610 -0.0099
 7843SOL     OW35161   3.374   4.133   0.568 -0.1903 -0.1212  0.4215
 7843SOL    HW135162   3.401   4.041   0.567 -1.1303 -0.3905 -0.4372
 7843SOL    HW235163   3.414   4.163   0.649  0.6762  0.2486 -0.1460
 7844SOL     OW35164   1.276   1.069  15.077  0.2464 -0.0799  0.6259
 7844SOL    HW135165   1.193   1.033  15.110 -0.5793  0.4058 -0.9568
 7844SOL    HW235166   1.331   1.074  15.156 -0.0638  0.4641  0.8085
 7845SOL     OW35167   3.888   1.107   5.211 -0.5109  0.6652  0.3869
 7845SOL    HW135168   3.805   1.073   5.244 -0.6543  1.3132  0.6888
 7845SOL    HW235169   3.862   1.197   5.191  1.3960  1.1301 -0.0436
 7846SOL     OW35170   0.967   0.037   4.122 -0.1360  0.5562 -0.1718
 7846SOL    HW135171   0.903   0.047   4.051  0.7687  1.2283 -0.8828
 7846SOL    HW235172   1.041   0.010   4.067 -1.3847  1.1325 -2.1366
 7847SOL     OW35173   1.577   3.865   6.154  0.7077  0.2980  0.1784
 7847SOL    HW135174   1.620   3.838   6.073  1.5369 -0.5790  0.9058
 7847SOL    HW235175   1.647   3.913   6.200  0.8673  1.0769 -0.8796
 7848SOL     OW35176   0.953   1.772   2.183  0.4300  0.3342 -0.2490
 7848SOL    HW135177   0.973   1.762   2.276 -0.1308 -1.5541 -0.3431
 7848SOL    HW235178   0.938   1.866   2.181 -2.2561 -0.1547 -2.2103
 7849SOL     OW35179   3.463   2.258   0.516  0.3565 -0.2562 -0.3394
 7849SOL    HW135180   3.468   2.349   0.546  0.1059 -1.0205  2.0440
 7849SOL    HW235181   3.498   2.262   0.428  1.8019  2.8662  0.3980
 7850SOL     OW35182   0.456   2.755  11.439  0.1382 -0.2988 -0.1618
 7850SOL    HW135183   0.521   2.794  11.382 -1.5458 -0.4208 -2.1559
 7850SOL    HW235184   0.403   2.831  11.463  0.6119  0.0109 -0.0866
 7851SOL     OW35185   4.490   3.221   7.663 -0.2343  0.4750  1.1004
 7851SOL    HW135186   4.566   3.277   7.645  0.7402 -0.9195  0.9167
 7851SOL    HW235187   4.448   3.260   7.586 -1.4765  0.4634  1.7719
 7852SOL     OW35188   4.654   4.031   2.969 -0.1568 -0.3670  0.1187
 7852SOL    HW135189   4.685   4.062   3.054 -1.2142 -0.3645  0.5021
 7852SOL    HW235190   4.625   3.947   3.003 -0.4560 -0.0557  0.6363
 7853SOL     OW35191   2.199   2.539   9.860 -0.2212 -0.1533 -0.4756
 7853SOL    HW135192   2.269   2.584   9.813  0.9047 -3.1264 -1.6176
 7853SOL    HW235193   2.226   2.451   9.836  1.0987 -0.0035  0.4767
 7854SOL     OW35194   0.562   3.282   1.203  0.7184 -0.2898  0.4637
 7854SOL    HW135195   0.654   3.258   1.218  1.6811  3.0388 -0.0381
 7854SOL    HW235196   0.521   3.210   1.252 -0.2302  0.2056  0.3855
 7855SOL     OW35197   3.849   3.776   8.944  0.3773 -0.3657  0.5668
 7855SOL    HW135198   3.938   3.811   8.940 -0.1197  0.8330 -0.0333
 7855SOL    HW235199   3.826   3.811   9.031  2.2102  1.6771  0.2149
 7856SOL     OW35200   4.265   3.850  12.152 -0.3386  0.3066 -0.1111
 7856SOL    HW135201   4.177   3.872  12.121 -0.7148 -1.3361 -0.1811
 7856SOL    HW235202   4.248   3.760  12.180  1.8646  0.8485  3.0316
 7857SOL     OW35203   0.882   3.740   8.475 -0.6618  0.3539 -0.2215
 7857SOL    HW135204   0.835   3.688   8.540 -1.6759  0.6137 -0.7540
 7857SOL    HW235205   0.970   3.739   8.513  0.4520  0.0028 -2.8133
 7858SOL     OW35206   0.450   2.206   7.644 -0.1986  0.1136 -0.0998
 7858SOL    HW135207   0.412   2.219   7.731  0.6519  1.2061  0.1015
 7858SOL    HW235208   0.388   2.140   7.611  0.6575 -1.3234  1.1408
 7859SOL     OW35209   0.035   1.077  12.991  0.7319 -0.0737  0.5073
 7859SOL    HW135210   0.076   0.991  12.993  0.5692 -0.1216  2.2990
 7859SOL    HW235211   0.049   1.099  12.899  0.0511  0.6796  0.5802
 7860SOL     OW35212   2.764   1.925   5.446  0.1804 -0.2812  0.1902
 7860SOL    HW135213   2.693   1.988   5.447 -0.4585 -0.9911 -0.5425
 7860SOL    HW235214   2.808   1.953   5.366 -1.0399 -0.0806 -0.4078
 7861SOL     OW35215   3.077   1.154   8.081 -0.4690 -0.1708 -0.5479
 7861SOL    HW135216   3.045   1.242   8.103  1.1733  0.6576 -1.4857
 7861SOL    HW235217   3.002   1.105   8.047 -1.2918 -1.2619  2.8497
 7862SOL     OW35218   3.811   0.030   3.378 -0.2722  0.1790 -0.3705
 7862SOL    HW135219   3.853   0.003   3.460 -0.0144 -2.2985 -1.3093
 7862SOL    HW235220   3.848   4.700   3.321 -0.6433 -1.5490  1.4345
 7863SOL     OW35221   1.028   2.290   5.671 -0.3903 -0.0912  0.3131
 7863SOL    HW135222   1.099   2.351   5.691 -1.0059  0.7108  0.0590
 7863SOL    HW235223   0.973   2.349   5.619 -0.4273 -0.6843 -0.3196
 7864SOL     OW35224   3.397   2.831   1.103 -0.3036 -0.0428 -0.0015
 7864SOL    HW135225   3.367   2.911   1.145  2.5225 -0.0915  2.0788
 7864SOL    HW235226   3.372   2.768   1.171 -1.3658  0.8796  0.4566
 7865SOL     OW35227   2.566   3.445  12.592  0.2849 -0.6768 -0.5981
 7865SOL    HW135228   2.572   3.513  12.660  1.8999 -0.9441 -0.4910
 7865SOL    HW235229   2.649   3.461  12.547 -1.3371  2.2153 -2.5687
 7866SOL     OW35230   0.135   1.830   2.858 -0.0285 -0.5533 -0.0074
 7866SOL    HW135231   0.048   1.808   2.892 -1.1145  0.7427 -1.9160
 7866SOL    HW235232   0.104   1.855   2.771 -0.3603 -0.4031  0.1553
 7867SOL     OW35233   4.342   4.508  16.994 -0.3579  0.3141  0.1076
 7867SOL    HW135234   4.409   4.439  16.984  0.0454  0.9685 -1.7258
 7867SOL    HW235235   4.279   4.469  16.933  0.7286 -3.3011  1.2483
 7868SOL     OW35236   2.484   1.702   7.530  0.5206  0.4242  0.5022
 7868SOL    HW135237   2.492   1.736   7.441  2.5710 -2.8003 -0.5517
 7868SOL    HW235238   2.485   1.780   7.585  2.1197  1.7877 -1.5009
 7869SOL     OW35239   3.870   3.601   5.484 -0.4998  0.4646 -0.6274
 7869SOL    HW135240   3.845   3.553   5.405  0.4711 -1.7307  0.3979
 7869SOL    HW235241   3.940   3.658   5.454  1.8261 -3.1068 -2.0112
 7870SOL     OW35242   0.982   4.103   2.892  0.6521  0.1067  0.3957
 7870SOL    HW135243   0.912   4.157   2.927  1.2713  1.3202 -0.2591
 7870SOL    HW235244   0.941   4.018   2.909 -0.8737  1.1475  1.9379
 7871SOL     OW35245   2.526   3.045   1.202  0.2487 -0.7141 -0.1580
 7871SOL    HW135246   2.561   2.962   1.234  0.6075 -1.4979 -2.5446
 7871SOL    HW235247   2.443   3.041   1.248  1.8229 -0.8859  2.6415
 7872SOL     OW35248   0.148   0.026  14.739  0.0722  0.0420  0.1794
 7872SOL    HW135249   0.206   4.721  14.802  1.1900  1.6985  0.2721
 7872SOL    HW235250   0.188   0.113  14.740  0.1694  0.0000 -0.6696
 7873SOL     OW35251   2.064   4.295  12.963 -0.1186  1.0097  0.1603
 7873SOL    HW135252   2.080   4.210  12.924 -1.8365 -0.1010  1.8625
 7873SOL    HW235253   1.971   4.297  12.945  0.0017  0.6249 -0.4921
 7874SOL     OW35254   3.071   4.568   0.012  0.1013 -0.3231 -0.0129
 7874SOL    HW135255   3.009   4.500   0.038  0.8275 -0.7502  0.6394
 7874SOL    HW235256   3.071   4.552  17.666  0.5157  1.3452 -0.3028
 7875SOL     OW35257   1.527   2.432  13.060 -0.4215  0.3465  0.0277
 7875SOL    HW135258   1.478   2.505  13.024  0.2313 -0.0271 -1.6061
 7875SOL    HW235259   1.571   2.408  12.979  1.1509 -0.4742  1.1130
 7876SOL     OW35260   0.081   1.168   1.033  0.0974  0.0322 -0.2388
 7876SOL    HW135261   0.047   1.214   0.957 -1.2008 -0.5800 -0.0172
 7876SOL    HW235262   0.170   1.205   1.035  0.0809 -0.0252  1.6419
 7877SOL     OW35263   3.325   3.880   1.974  0.5605 -0.0552  0.1267
 7877SOL    HW135264   3.321   3.885   1.879 -0.3201  0.5866  0.1959
 7877SOL    HW235265   3.320   3.972   2.000 -0.6040  0.2123 -1.0620
 7878SOL     OW35266   0.094   4.177   7.885 -0.0200  0.2087  0.0079
 7878SOL    HW135267   0.067   4.087   7.870  0.5524  0.2936 -1.5688
 7878SOL    HW235268   0.039   4.201   7.959 -0.1709  0.1799 -0.0956
 7879SOL     OW35269   2.370   3.174   8.336 -0.3702 -0.1976 -0.3219
 7879SOL    HW135270   2.417   3.214   8.263  1.1133  0.6266  1.0652
 7879SOL    HW235271   2.412   3.089   8.350 -0.3125  0.1824  1.8347
 7880SOL     OW35272   1.956   2.687  15.153 -0.0123  0.2628  0.0089
 7880SOL    HW135273   1.998   2.608  15.120 -1.5068 -0.2163 -0.7131
 7880SOL    HW235274   1.973   2.679  15.247 -1.2482  1.5794  0.3445
 7881SOL     OW35275   4.126   4.711  17.493 -0.2156  0.2603 -0.7450
 7881SOL    HW135276   4.040   4.689  17.528  0.9430 -1.0169  1.3471
 7881SOL    HW235277   4.098   0.039  17.430 -1.0637  1.2998  0.7352
 7882SOL     OW35278   1.619   4.366   6.818 -0.2555  1.2240 -0.5505
 7882SOL    HW135279   1.560   4.379   6.892 -1.7801  2.0114 -1.8897
 7882SOL    HW235280   1.700   4.411   6.844 -0.1713  0.4111  0.5538
 7883SOL     OW35281   2.323   3.629   5.601 -0.8784  0.3664  0.4872
 7883SOL    HW135282   2.330   3.536   5.623  1.7231  0.1708 -1.2279
 7883SOL    HW235283   2.321   3.674   5.686  1.5408 -0.0195  0.7312
 7884SOL     OW35284   1.863   3.787   4.088  0.1787 -0.0263  0.0344
 7884SOL    HW135285   1.789   3.847   4.095 -0.1716 -0.2211 -2.0987
 7884SOL    HW235286   1.844   3.740   4.007 -3.0388  0.5251  0.4395
 7885SOL     OW35287   4.503   0.802   5.071 -0.3193  0.4377  0.3626
 7885SOL    HW135288   4.482   0.873   5.011  2.2161  0.0800 -0.9627
 7885SOL    HW235289   4.478   0.839   5.155 -2.2592 -0.5479  0.2187
 7886SOL     OW35290   2.436   1.214  11.382 -0.3549 -0.4100  0.4414
 7886SOL    HW135291   2.480   1.294  11.353 -0.2821 -0.6777 -0.1960
 7886SOL    HW235292   2.417   1.167  11.301  3.6746  0.7630 -1.2143
 7887SOL     OW35293   0.216   0.493   1.132  0.3655 -0.3456 -0.2243
 7887SOL    HW135294   0.262   0.574   1.151  2.0092 -0.9570 -1.5761
 7887SOL    HW235295   0.210   0.451   1.218 -0.6431 -1.0422 -0.6321
 7888SOL     OW35296   4.085   3.226   5.400  0.4764  0.0743 -0.7997
 7888SOL    HW135297   4.117   3.152   5.452  0.3951  2.7263  3.0075
 7888SOL    HW235298   4.163   3.281   5.407  1.4785 -1.6418  1.6478
 7889SOL     OW35299   3.115   3.152   3.077 -0.0590  0.2512 -0.1541
 7889SOL    HW135300   3.119   3.151   2.982 -2.3856 -1.3614 -0.2527
 7889SOL    HW235301   3.020   3.142   3.088 -0.0388 -0.5814 -0.7071
 7890SOL     OW35302   3.490   1.169  15.463 -0.1090 -0.2867 -0.3664
 7890SOL    HW135303   3.552   1.156  15.391 -0.7423 -0.2887 -0.9125
 7890SOL    HW235304   3.488   1.264  15.468  1.4941 -0.1706 -2.0359
 7891SOL     OW35305   1.614   3.120   4.936  0.1789  0.5954 -0.3713
 7891SOL    HW135306   1.679   3.190   4.951  0.3776  0.0532  1.3227
 7891SOL    HW235307   1.565   3.138   5.016  0.0658  1.1490 -0.5656
 7892SOL     OW35308   1.199   4.663   6.625  0.3968  0.1341 -0.2915
 7892SOL    HW135309   1.263   4.733   6.638 -1.3594  1.5765  0.5448
 7892SOL    HW235310   1.226   4.623   6.543 -0.4657 -1.1832  0.0501
 7893SOL     OW35311   3.434   1.643  17.390  1.0172  0.0266 -0.6032
 7893SOL    HW135312   3.449   1.726  17.344 -0.1786  0.0275 -0.9850
 7893SOL    HW235313   3.498   1.642  17.461 -0.3433 -3.5593  0.5429
 7894SOL     OW35314   4.219   0.203   5.470 -0.0772  0.3128 -0.1597
 7894SOL    HW135315   4.244   0.290   5.439 -0.3868  0.2215 -0.6611
 7894SOL    HW235316   4.294   0.146   5.453  0.6779  1.4008 -0.4824
 7895SOL     OW35317   4.289   0.815   0.126  0.3254 -0.0427  0.0975
 7895SOL    HW135318   4.302   0.727   0.161  0.1810  0.6821  1.9526
 7895SOL    HW235319   4.298   0.798   0.032 -0.5511  0.0411  0.0022
 7896SOL     OW35320   2.694   1.829   7.755  0.4666  0.0805  0.5479
 7896SOL    HW135321   2.701   1.793   7.843 -0.4093 -1.5209 -0.0510
 7896SOL    HW235322   2.773   1.791   7.717  0.6285 -0.0902  1.0554
 7897SOL     OW35323   1.443   4.426   8.493 -0.4782 -0.6709  0.2295
 7897SOL    HW135324   1.440   4.499   8.556 -1.5786 -1.8491  1.5437
 7897SOL    HW235325   1.430   4.354   8.555 -2.8647 -0.1565  0.3107
 7898SOL     OW35326   1.127   3.703   2.535 -0.0075 -0.1105 -0.7540
 7898SOL    HW135327   1.116   3.645   2.611 -1.8124 -0.0846 -0.9854
 7898SOL    HW235328   1.041   3.698   2.493 -1.0614  3.0355  1.0289
 7899SOL     OW35329   3.291   3.982   2.313  0.1014  0.3467 -0.2935
 7899SOL    HW135330   3.204   4.019   2.324  0.1222  0.8638 -1.8443
 7899SOL    HW235331   3.282   3.889   2.333 -0.4676  0.7386  1.2728
 7900SOL     OW35332   1.255   0.863  12.841 -0.0369 -0.1626 -0.1876
 7900SOL    HW135333   1.323   0.796  12.827 -0.9127 -1.2178  0.6445
 7900SOL    HW235334   1.236   0.880  12.748 -0.8731  0.9256  0.1921
 7901SOL     OW35335   4.410   3.338   5.536 -0.3954 -0.0020  0.4798
 7901SOL    HW135336   4.368   3.401   5.478 -0.4715  0.8920  1.4991
 7901SOL    HW235337   4.472   3.406   5.563 -0.2498  0.5220 -1.2326
 7902SOL     OW35338   3.450   3.503  14.898  0.2328  0.0904 -0.4785
 7902SOL    HW135339   3.423   3.411  14.905 -0.6394  0.3544 -0.3168
 7902SOL    HW235340   3.383   3.540  14.841 -1.3592  2.9686  3.2032
 7903SOL     OW35341   2.037   1.073   8.703 -0.2393  0.0630  0.1254
 7903SOL    HW135342   2.098   1.137   8.740  0.2769  0.4069 -1.3399
 7903SOL    HW235343   1.966   1.092   8.765 -0.2307 -1.5321  0.6170
 7904SOL     OW35344   0.364   2.299  11.199 -0.2248 -0.0317  0.0618
 7904SOL    HW135345   0.366   2.387  11.163  2.0109 -0.2051 -0.2223
 7904SOL    HW235346   0.456   2.275  11.213  0.6346  1.1900 -3.4262
 7905SOL     OW35347   2.097   3.972   6.117  0.2543  0.9210  0.0324
 7905SOL    HW135348   2.022   3.994   6.062 -0.5449  2.3918  1.7058
 7905SOL    HW235349   2.060   3.897   6.165  0.1074  2.5436  2.4361
 7906SOL     OW35350   3.569   0.539   2.042 -0.1327  0.2051 -0.0372
 7906SOL    HW135351   3.539   0.555   2.132 -2.0829  0.1052 -0.6789
 7906SOL    HW235352   3.633   0.607   2.021 -0.7479  1.3459  1.7466
 7907SOL     OW35353   0.683   4.013   6.430  0.5780 -0.0880  0.2538
 7907SOL    HW135354   0.747   3.949   6.463  3.4528  2.4661 -0.3750
 7907SOL    HW235355   0.612   3.955   6.404  0.3225 -0.1501  1.1032
 7908SOL     OW35356   2.054   3.124   5.456 -0.0137 -0.1477  0.1063
 7908SOL    HW135357   2.142   3.160   5.442  0.2578 -1.0966 -0.5923
 7908SOL    HW235358   2.056   3.082   5.542 -0.8747  0.0676  0.2289
 7909SOL     OW35359   2.691   3.198   5.577  0.7174  0.6271  0.4893
 7909SOL    HW135360   2.659   3.191   5.667  0.1190  2.6367  0.4281
 7909SOL    HW235361   2.783   3.177   5.593  0.5526 -1.5951 -1.3884
 7910SOL     OW35362   2.377   4.359  16.098  0.4254  0.3497 -0.1366
 7910SOL    HW135363   2.451   4.302  16.121 -0.3655 -0.8429 -0.5406
 7910SOL    HW235364   2.322   4.283  16.081  0.9525  0.3525 -1.7776
 7911SOL     OW35365   3.500   1.725   1.010 -0.2383 -0.3367 -0.1543
 7911SOL    HW135366   3.592   1.747   0.997 -0.6553 -0.0513 -2.4819
 7911SOL    HW235367   3.515   1.637   1.044  0.1232  0.0891  0.8233
 7912SOL     OW35368   1.389   4.405  11.805  0.4248 -0.1859  0.0255
 7912SOL    HW135369   1.411   4.392  11.897 -0.1808 -0.9233  0.0689
 7912SOL    HW235370   1.343   4.489  11.812 -0.0742 -0.5186  0.8466
 7913SOL     OW35371   3.682   3.598  14.340  0.1035 -0.3761  0.0071
 7913SOL    HW135372   3.703   3.513  14.379 -0.1890 -0.4077  0.0927
 7913SOL    HW235373   3.591   3.604  14.366 -0.6868  2.2511 -3.3862
 7914SOL     OW35374   4.627   3.343   0.356 -0.2978  0.1401  0.0560
 7914SOL    HW135375   4.600   3.255   0.332 -3.5057  1.5722 -1.5331
 7914SOL    HW235376   4.673   3.356   0.273  1.2166  0.5915  0.9524
 7915SOL     OW35377   2.735   0.272   4.127 -0.0315  0.2818  0.1210
 7915SOL    HW135378   2.676   0.313   4.189 -0.8159  1.2905 -1.3112
 7915SOL    HW235379   2.674   0.260   4.055  0.3824  2.6276 -0.6298
 7916SOL     OW35380   0.254   1.660  16.484 -0.0312 -0.2328  0.7953
 7916SOL    HW135381   0.177   1.642  16.431 -0.2724 -0.4132  1.2128
 7916SOL    HW235382   0.213   1.652  16.570  0.9743 -1.2353  1.1932
 7917SOL     OW35383   0.222   1.078   8.538 -0.0541 -0.3717  0.1841
 7917SOL    HW135384   0.298   1.116   8.582 -0.9925  1.1363  0.5085
 7917SOL    HW235385   0.159   1.148   8.520  0.2539 -0.2825 -0.5812
 7918SOL     OW35386   3.771   0.729   8.057 -0.1889 -0.7956 -0.3396
 7918SOL    HW135387   3.842   0.743   7.994 -0.4534 -1.8047 -0.8505
 7918SOL    HW235388   3.714   0.798   8.025 -0.6534 -1.9481 -2.0046
 7919SOL     OW35389   0.499   0.910   6.627  0.1303  0.1749  0.4841
 7919SOL    HW135390   0.526   0.849   6.558  0.5213 -0.3202  1.0729
 7919SOL    HW235391   0.455   0.977   6.575 -2.3035 -1.6660  0.1515
 7920SOL     OW35392   2.402   1.489  14.067  0.5709  0.1347  0.3944
 7920SOL    HW135393   2.315   1.503  14.106 -0.3263 -0.7981 -1.2649
 7920SOL    HW235394   2.445   1.561  14.113 -1.1778  0.9881  0.6930
 7921SOL     OW35395   3.244   0.288   8.765  0.4094 -0.0134 -0.3336
 7921SOL    HW135396   3.305   0.304   8.693  0.0827 -1.2565 -0.8824
 7921SOL    HW235397   3.303   0.284   8.840  2.0700 -1.7302 -1.7407
 7922SOL     OW35398   3.374   0.082   7.907 -0.1362  0.2030  0.0437
 7922SOL    HW135399   3.442   0.022   7.878 -0.6733 -0.2575 -0.2812
 7922SOL    HW235400   3.305   0.017   7.921  0.8774 -0.9328 -0.3302
 7923SOL     OW35401   1.248   3.984   8.026  0.0045  0.2790  0.5363
 7923SOL    HW135402   1.232   4.071   7.989 -0.6681  0.0851  0.3738
 7923SOL    HW235403   1.162   3.944   8.032  1.2935 -2.0544  3.5720
 7924SOL     OW35404   4.080   2.989   8.461  0.0792  0.2464  0.0174
 7924SOL    HW135405   4.094   2.917   8.522 -0.3281 -0.4846 -0.7423
 7924SOL    HW235406   4.019   2.951   8.398  1.0895 -1.3850  0.0250
 7925SOL     OW35407   4.556   1.339   9.597 -0.1030 -0.1191 -0.7404
 7925SOL    HW135408   4.529   1.401   9.664 -0.9546  0.9494 -2.0692
 7925SOL    HW235409   4.645   1.370   9.577 -0.3574  1.2203  0.2240
 7926SOL     OW35410   4.527   2.193   6.304  0.4919 -0.1323  0.9539
 7926SOL    HW135411   4.617   2.206   6.333  0.4296 -1.3882  1.7246
 7926SOL    HW235412   4.526   2.234   6.218  1.7336 -0.1089  0.9601
 7927SOL     OW35413   4.662   4.291  11.717 -0.1574  0.7648  0.1033
 7927SOL    HW135414   4.716   4.306  11.794 -0.6561 -0.6492  0.7144
 7927SOL    HW235415   4.713   4.216  11.688  1.3831  2.0719 -0.6138
 7928SOL     OW35416   2.035   3.659   9.182 -0.4758  0.2326  0.2389
 7928SOL    HW135417   2.072   3.661   9.270 -0.9036  0.3671  0.4180
 7928SOL    HW235418   1.959   3.715   9.198 -0.6374  0.5790 -1.7384
 7929SOL     OW35419   1.391   1.504   6.377  0.5105  0.1426 -0.2544
 7929SOL    HW135420   1.453   1.498   6.304  1.9463  0.1138  0.9667
 7929SOL    HW235421   1.444   1.527   6.454 -1.0284 -0.6514  1.0316
 7930SOL     OW35422   4.297   2.319   0.238 -0.6155  0.1125 -0.2028
 7930SOL    HW135423   4.299   2.246   0.301 -2.5087 -0.6908 -1.0793
 7930SOL    HW235424   4.203   2.311   0.219 -0.4926 -1.8293  0.0065
 7931SOL     OW35425   0.087   4.617   1.796  0.2967 -0.3186  0.1482
 7931SOL    HW135426   0.144   4.552   1.836 -0.1421 -1.0818 -0.4550
 7931SOL    HW235427   0.158   4.660   1.749 -2.1252  1.3122 -2.0553
 7932SOL     OW35428   0.049   1.267  15.281  0.0014  0.3415 -0.0878
 7932SOL    HW135429   0.055   1.271  15.186 -2.9578 -1.3684 -0.3470
 7932SOL    HW235430   0.091   1.345  15.317  0.9539  0.7377 -2.0882
 7933SOL     OW35431   4.246   2.437   6.655  0.2465 -0.2276  0.3270
 7933SOL    HW135432   4.296   2.503   6.608 -2.0565  0.8015 -0.6626
 7933SOL    HW235433   4.279   2.456   6.742  0.4339  0.2975  0.1418
 7934SOL     OW35434   3.908   0.174  12.518 -0.5723 -0.2469 -0.0097
 7934SOL    HW135435   3.821   0.213  12.522 -1.6828 -2.5112 -2.7537
 7934SOL    HW235436   3.889   0.090  12.562 -1.5115  0.6369  1.2723
 7935SOL     OW35437   4.569   1.801   8.539  0.2849 -0.7233 -0.0175
 7935SOL    HW135438   4.500   1.736   8.555 -0.5467  0.1093 -0.1895
 7935SOL    HW235439   4.539   1.818   8.450 -1.7724  0.9800  0.9944
 7936SOL     OW35440   3.336   2.205   8.665  0.0592  0.2874  0.2463
 7936SOL    HW135441   3.409   2.150   8.635  0.1773  1.5139 -1.6873
 7936SOL    HW235442   3.375   2.256   8.736 -0.0209  0.9956 -0.2207
 7937SOL     OW35443   2.768   4.418   0.671  0.5197  0.2452 -0.4740
 7937SOL    HW135444   2.816   4.376   0.743  0.2402 -0.5879 -0.7698
 7937SOL    HW235445   2.686   4.453   0.706  0.0195 -0.9445 -0.4579
 7938SOL     OW35446   4.360   4.352  10.959 -0.2732  0.2212  0.0076
 7938SOL    HW135447   4.328   4.372  11.046 -0.3878  0.6397 -0.1300
 7938SOL    HW235448   4.428   4.420  10.952  0.3078 -0.4082 -0.5586
 7939SOL     OW35449   4.367   3.642   2.468 -0.0842  0.3199 -0.1135
 7939SOL    HW135450   4.439   3.602   2.518  0.6423  1.4511 -0.2406
 7939SOL    HW235451   4.314   3.642   2.548  0.0805 -2.0526 -0.0033
 7940SOL     OW35452   0.424   4.462   9.763  0.0365  0.2365  0.3519
 7940SOL    HW135453   0.332   4.486   9.764  0.4433  1.8137 -0.6005
 7940SOL    HW235454   0.433   4.415   9.846  1.8517 -2.0813 -1.1305
 7941SOL     OW35455   2.557   4.554   4.078 -0.2702 -0.3408  0.2109
 7941SOL    HW135456   2.472   4.509   4.070 -0.7829  0.8006 -0.7032
 7941SOL    HW235457   2.539   4.605   4.157 -0.0598 -0.3337  0.2541
 7942SOL     OW35458   0.760   0.475   6.499 -0.2165  0.2680 -0.6156
 7942SOL    HW135459   0.788   0.563   6.471 -2.7293  0.6885 -1.8553
 7942SOL    HW235460   0.734   0.439   6.414 -1.0878  0.6910 -0.5262
 7943SOL     OW35461   4.432   0.134   9.515 -0.2157 -0.5811 -0.6629
 7943SOL    HW135462   4.501   0.196   9.537 -1.5268 -0.0645  1.9804
 7943SOL    HW235463   4.475   0.049   9.526 -1.6277 -1.4389 -1.7832
 7944SOL     OW35464   0.502   2.446   1.888 -0.3191 -0.3887 -0.2501
 7944SOL    HW135465   0.475   2.405   1.970  0.8105 -0.4310  0.0945
 7944SOL    HW235466   0.540   2.371   1.842 -3.4460 -1.6105 -0.8095
 7945SOL     OW35467   3.551   4.161   7.863 -0.6206 -0.1238 -0.5979
 7945SOL    HW135468   3.628   4.114   7.832 -0.9274 -1.2531  0.3620
 7945SOL    HW235469   3.493   4.085   7.859 -2.1636  1.1475 -2.3802
 7946SOL     OW35470   2.413   3.573   8.097 -0.7751 -0.1629  0.3077
 7946SOL    HW135471   2.337   3.571   8.038 -1.5791  0.7657  1.3093
 7946SOL    HW235472   2.442   3.664   8.109  1.8283 -0.6383 -2.3105
 7947SOL     OW35473   4.039   2.410   5.670  0.1450  0.1007 -0.2095
 7947SOL    HW135474   4.086   2.465   5.732 -3.2027  0.4772  2.0045
 7947SOL    HW235475   4.004   2.339   5.724  1.5952 -0.1536  0.3779
 7948SOL     OW35476   0.204   1.944   0.721 -0.0956  0.2829  0.6505
 7948SOL    HW135477   0.282   1.999   0.723  0.4265 -0.3666 -1.6251
 7948SOL    HW235478   0.200   1.911   0.631 -0.5261  1.4191  0.2547
 7949SOL     OW35479   0.591   1.257   2.120  0.1389 -0.2975  0.0661
 7949SOL    HW135480   0.663   1.194   2.128  1.7191  1.2893 -1.8186
 7949SOL    HW235481   0.612   1.287   2.032 -1.2650 -1.2470 -0.5962
 7950SOL     OW35482   3.774   4.040   0.538 -0.0398  0.3820  0.0589
 7950SOL    HW135483   3.723   3.989   0.601  1.0159 -0.6555  0.0573
 7950SOL    HW235484   3.764   3.987   0.459  0.1839  1.7899 -0.9248
 7951SOL     OW35485   0.419   3.509   3.678  0.2058  0.0086  0.2805
 7951SOL    HW135486   0.390   3.518   3.768 -1.4836 -0.2881 -0.2400
 7951SOL    HW235487   0.458   3.422   3.669 -0.4803 -0.3394  0.7126
 7952SOL     OW35488   3.601   2.961   2.463 -0.3135 -0.0943  0.5886
 7952SOL    HW135489   3.610   2.945   2.557  0.1799  0.4868  0.6399
 7952SOL    HW235490   3.687   2.938   2.431  0.0840  1.5985  0.4010
 7953SOL     OW35491   0.923   0.839  12.231  0.4513 -0.5079 -0.1099
 7953SOL    HW135492   0.967   0.923  12.243  1.5330 -1.4002  2.0463
 7953SOL    HW235493   0.869   0.847  12.310  0.4943 -0.7387 -0.0570
 7954SOL     OW35494   0.868   0.774   4.290 -0.3810  0.2074  0.9843
 7954SOL    HW135495   0.925   0.844   4.323  0.0546  0.5362 -0.4678
 7954SOL    HW235496   0.816   0.812   4.219 -1.2800 -0.8811  1.0534
 7955SOL     OW35497   1.274   2.650   2.029 -0.3952 -0.3269 -0.3579
 7955SOL    HW135498   1.288   2.681   2.118  2.4725 -0.5234 -0.7480
 7955SOL    HW235499   1.191   2.607   2.049 -0.4355  0.8738  2.0933
 7956SOL     OW35500   4.356   1.556   4.085  0.1552 -0.6732 -0.5287
 7956SOL    HW135501   4.430   1.524   4.032 -1.1698 -0.2408 -2.6488
 7956SOL    HW235502   4.288   1.490   4.069 -1.5826  0.7721  1.0073
 7957SOL     OW35503   0.845   4.623   6.153  0.8357 -0.3992  0.2615
 7957SOL    HW135504   0.808   4.575   6.079 -0.9289  1.0712  0.2113
 7957SOL    HW235505   0.896   4.690   6.108  0.8068 -0.9871 -0.6431
 7958SOL     OW35506   0.232   1.661   8.532 -0.5644 -0.2468 -0.1408
 7958SOL    HW135507   0.210   1.691   8.444 -0.0009 -1.3726 -0.6581
 7958SOL    HW235508   0.224   1.740   8.585 -3.0461  0.2189 -1.2069
 7959SOL     OW35509   0.034   3.146   4.360  0.4107  0.3433 -0.0162
 7959SOL    HW135510   0.003   3.082   4.296  1.1346 -0.2820  0.2546
 7959SOL    HW235511   0.128   3.129   4.350  0.4550  0.5432  0.0575
 7960SOL     OW35512   4.479   1.748   5.713  0.0030  0.0508 -0.2362
 7960SOL    HW135513   4.549   1.757   5.777 -0.8832  0.3860  0.6896
 7960SOL    HW235514   4.414   1.711   5.772 -0.8150 -0.3285 -1.3758
 7961SOL     OW35515   1.380   4.693  11.777 -0.8147 -0.4995 -0.0014
 7961SOL    HW135516   1.334   0.038  11.762 -1.9213 -1.1984 -0.4330
 7961SOL    HW235517   1.401   4.696  11.870 -0.9883  0.9718 -0.0038
 7962SOL     OW35518   2.408   1.819   1.237  0.3916  0.0181 -0.1903
 7962SOL    HW135519   2.398   1.850   1.147 -2.1055 -0.6012 -0.1224
 7962SOL    HW235520   2.407   1.896   1.294  0.9495 -0.2507  0.1827
 7963SOL     OW35521   3.704   4.694   1.145 -0.1369 -0.3570  0.3112
 7963SOL    HW135522   3.636   0.023   1.157 -0.6223 -0.8196  0.1417
 7963SOL    HW235523   3.691   4.647   1.227 -3.4843 -0.7915 -0.4485
 7964SOL     OW35524   4.339   2.880  12.656 -0.1958 -0.6871  0.5770
 7964SOL    HW135525   4.329   2.798  12.705  0.9554 -1.8147 -1.0730
 7964SOL    HW235526   4.271   2.930  12.701  0.4831  0.4988  0.2709
 7965SOL     OW35527   2.437   3.978   7.478  0.1200  0.0211  0.2455
 7965SOL    HW135528   2.431   4.019   7.564 -0.6198  0.4020  0.0083
 7965SOL    HW235529   2.532   3.978   7.471  0.1750 -1.1140  0.9819
 7966SOL     OW35530   3.613   0.791   2.544  0.0501 -0.0379 -0.2106
 7966SOL    HW135531   3.706   0.769   2.542  0.1278  0.2449  0.3410
 7966SOL    HW235532   3.580   0.751   2.624  4.2600 -2.8328  0.1303
 7967SOL     OW35533   2.826   2.771   2.450  0.1150 -0.1368  0.4649
 7967SOL    HW135534   2.879   2.841   2.413  0.1696 -0.4973 -0.1300
 7967SOL    HW235535   2.883   2.748   2.524  2.5787  1.6729 -0.8651
 7968SOL     OW35536   4.318   4.165  16.923  0.1506 -0.5237 -0.0814
 7968SOL    HW135537   4.370   4.226  16.871  1.8113 -1.5396  0.3905
 7968SOL    HW235538   4.389   4.114  16.961  0.6883 -0.3700 -0.8744
 7969SOL     OW35539   4.055   2.845  11.215 -0.1334  0.3052 -0.3489
 7969SOL    HW135540   4.018   2.863  11.301  2.0313 -1.2296  0.9155
 7969SOL    HW235541   3.976   2.822  11.166 -0.8208 -0.9691  1.3563
 7970SOL     OW35542   4.234   2.152   0.415 -0.1348  0.1297  0.6643
 7970SOL    HW135543   4.161   2.127   0.358  0.8076 -2.9359  0.8019
 7970SOL    HW235544   4.231   2.087   0.486 -1.8329 -1.4590 -0.8629
 7971SOL     OW35545   1.408   1.148   5.231  0.0997  0.0401  0.3446
 7971SOL    HW135546   1.323   1.111   5.255  0.6533 -0.4449  1.5482
 7971SOL    HW235547   1.449   1.075   5.186 -3.0196 -2.3015  1.2574
 7972SOL     OW35548   4.089   3.164   5.110 -0.9526 -0.1451  0.4236
 7972SOL    HW135549   4.102   3.148   5.204  1.2551 -0.2447  0.1132
 7972SOL    HW235550   3.994   3.153   5.108 -0.7528 -1.7659  0.1733
 7973SOL     OW35551   2.698   2.825   3.766 -0.1543  0.4553 -0.7138
 7973SOL    HW135552   2.779   2.816   3.715 -0.1373  0.1620 -0.6392
 7973SOL    HW235553   2.659   2.901   3.723 -0.2252 -0.6306 -2.5435
 7974SOL     OW35554   1.105   3.525   8.118  0.2945  0.0980  0.8384
 7974SOL    HW135555   1.020   3.568   8.127  0.0704 -0.3703  0.9618
 7974SOL    HW235556   1.125   3.560   8.031  0.0577 -1.5229  0.1264
 7975SOL     OW35557   1.006   3.507   4.251 -0.6036  0.4973  0.5872
 7975SOL    HW135558   0.911   3.520   4.251 -0.9810 -2.3759 -1.0594
 7975SOL    HW235559   1.016   3.472   4.163 -0.6263 -0.9584  1.1618
 7976SOL     OW35560   1.957   1.511   2.888  0.5293  0.1994  0.4521
 7976SOL    HW135561   1.897   1.468   2.826  1.7072 -0.2889 -0.3480
 7976SOL    HW235562   1.984   1.589   2.841 -0.5243  0.4736  0.3131
 7977SOL     OW35563   1.795   4.604   3.991  0.2367  0.0899  0.5712
 7977SOL    HW135564   1.722   4.580   4.047  1.3950 -0.9354  1.6179
 7977SOL    HW235565   1.784   4.551   3.912 -2.3668  4.2396 -1.8877
 7978SOL     OW35566   3.891   2.428  15.564  0.6601 -0.0963  0.0361
 7978SOL    HW135567   3.906   2.523  15.555  0.7767  0.0763  2.0478
 7978SOL    HW235568   3.806   2.430  15.519  0.7706  0.6583 -0.1475
 7979SOL     OW35569   0.507   1.686   1.699  0.5655 -0.3854  0.5373
 7979SOL    HW135570   0.529   1.601   1.736 -0.0474 -0.9424 -0.3800
 7979SOL    HW235571   0.423   1.700   1.742  1.7659  2.6299  1.9228
 7980SOL     OW35572   3.338   1.144  14.808 -0.9760 -0.1578 -0.0819
 7980SOL    HW135573   3.298   1.096  14.880 -1.6072  0.9250  0.2975
 7980SOL    HW235574   3.317   1.091  14.732  0.9117 -0.9517 -0.0502
 7981SOL     OW35575   1.955   3.414   1.403 -0.0586  0.3591 -0.1543
 7981SOL    HW135576   1.907   3.474   1.460 -0.4501  1.3570 -1.5380
 7981SOL    HW235577   1.880   3.378   1.357  0.9734 -1.3129 -0.5148
 7982SOL     OW35578   4.186   2.738   0.557 -0.3812  0.2081  0.0911
 7982SOL    HW135579   4.174   2.643   0.556 -0.6071  0.2252  0.8793
 7982SOL    HW235580   4.267   2.747   0.608 -0.2390  1.3304 -0.3167
 7983SOL     OW35581   3.332   3.616   3.885 -0.1713  0.0056  0.5637
 7983SOL    HW135582   3.251   3.621   3.934  0.3824  1.3763  1.3207
 7983SOL    HW235583   3.340   3.526   3.851  2.8142  0.1271  0.9354
 7984SOL     OW35584   1.547   2.454   8.922 -0.5418 -1.2594 -0.0336
 7984SOL    HW135585   1.626   2.415   8.885  1.0089  1.0767  0.8600
 7984SOL    HW235586   1.500   2.479   8.842 -0.0623  1.2591  0.4611
 7985SOL     OW35587   3.268   2.546   4.366  0.8127 -0.5682 -0.2071
 7985SOL    HW135588   3.184   2.581   4.335  1.1180  0.8870  0.6325
 7985SOL    HW235589   3.307   2.508   4.287  1.0588  0.1640 -0.4360
 7986SOL     OW35590   0.787   1.212  13.072  0.0887 -0.1688  0.4440
 7986SOL    HW135591   0.849   1.145  13.105 -1.6125 -1.5542  0.8201
 7986SOL    HW235592   0.712   1.173  13.028  0.0369  1.0442 -0.5220
 7987SOL     OW35593   2.172   4.206   6.241 -0.1325 -0.1135  0.0647
 7987SOL    HW135594   2.118   4.194   6.319  3.6883  0.3915  2.7989
 7987SOL    HW235595   2.164   4.124   6.193  0.8376  0.3519 -0.8899
 7988SOL     OW35596   4.467   1.162   7.189 -0.2400  0.0998 -0.8586
 7988SOL    HW135597   4.526   1.090   7.212  0.0849  1.3494  2.2972
 7988SOL    HW235598   4.528   1.226   7.153  0.0787  0.7259  0.7897
 7989SOL     OW35599   0.552   1.439  17.178 -0.3292  0.0638 -0.0736
 7989SOL    HW135600   0.473   1.399  17.214  0.3547 -0.3665  0.9628
 7989SOL    HW235601   0.577   1.496  17.252  2.0095  0.2272 -0.9899
 7990SOL     OW35602   3.053   2.480   3.915  0.1312 -0.4888  0.3091
 7990SOL    HW135603   3.059   2.389   3.886 -0.6624 -0.5329  0.2668
 7990SOL    HW235604   2.964   2.500   3.886  0.9371  0.3369 -1.6073
 7991SOL     OW35605   4.717   2.989  11.844  0.0656 -0.0845  0.2120
 7991SOL    HW135606   4.725   2.894  11.846  2.0767  0.0885  0.9143
 7991SOL    HW235607   0.053   3.019  11.790 -0.4540 -1.0207 -1.0038
 7992SOL     OW35608   1.899   0.819   9.632 -0.5206 -0.0465 -0.4526
 7992SOL    HW135609   1.834   0.754   9.659  0.4738 -0.5232  0.7847
 7992SOL    HW235610   1.847   0.900   9.632 -0.4555 -0.0043 -0.9236
 7993SOL     OW35611   2.387   0.273  12.076  0.4752 -0.0967 -0.1943
 7993SOL    HW135612   2.313   0.274  12.136  0.3006 -2.7685 -0.3612
 7993SOL    HW235613   2.466   0.243  12.123  0.6422  0.7618  0.0753
 7994SOL     OW35614   2.498   4.453   1.743  0.2644  0.0936  0.0263
 7994SOL    HW135615   2.510   4.435   1.650 -0.7835  1.1418 -0.3006
 7994SOL    HW235616   2.450   4.535   1.730 -0.7036 -0.6563 -1.0589
 7995SOL     OW35617   0.340   1.557  16.929  0.4150  0.1765  0.1954
 7995SOL    HW135618   0.291   1.483  16.965 -2.0103  1.1213 -1.2642
 7995SOL    HW235619   0.414   1.573  16.989 -1.0713  0.1417  2.0435
 7996SOL     OW35620   0.486   2.517  11.108  0.0092  0.0330  0.9102
 7996SOL    HW135621   0.468   2.608  11.082 -1.6863 -0.3098  0.8973
 7996SOL    HW235622   0.579   2.518  11.129  0.9715 -1.0712 -3.3606
 7997SOL     OW35623   1.363   1.690  12.594 -0.2560 -0.1136  0.3058
 7997SOL    HW135624   1.371   1.623  12.661 -1.2560 -1.2443 -0.7034
 7997SOL    HW235625   1.285   1.736  12.627  0.1996  1.5143 -0.8596
 7998SOL     OW35626   2.538   3.162   6.241 -0.4537 -0.3367  0.1047
 7998SOL    HW135627   2.616   3.144   6.188 -1.2276  1.2136 -1.5768
 7998SOL    HW235628   2.480   3.201   6.176 -1.8356 -0.6166  1.1825
 7999SOL     OW35629   2.682   0.544   7.309  0.6338  0.0764  0.2449
 7999SOL    HW135630   2.728   0.618   7.348  0.2094 -0.1421  1.1415
 7999SOL    HW235631   2.618   0.580   7.248 -0.6344 -1.3590  0.7238
 8000SOL     OW35632   1.251   0.914   5.340  0.0757 -0.4279 -0.5222
 8000SOL    HW135633   1.205   0.855   5.280 -0.1489 -0.2240 -0.5483
 8000SOL    HW235634   1.215   0.874   5.420 -3.1389  1.8102 -0.8531
 8001SOL     OW35635   2.280   0.249   5.408  0.0537  0.6239  0.3084
 8001SOL    HW135636   2.243   0.229   5.322 -1.1743 -0.9978  1.2151
 8001SOL    HW235637   2.310   0.334   5.377 -1.8668  1.0410 -0.3990
 8002SOL     OW35638   1.475   1.612   4.477  0.3454 -0.1476  0.3951
 8002SOL    HW135639   1.440   1.627   4.565  0.3916 -0.3506  0.4467
 8002SOL    HW235640   1.423   1.543   4.437  0.0709 -0.9280  2.1081
 8003SOL     OW35641   0.164   1.254   5.139 -0.0077  0.3057 -0.0693
 8003SOL    HW135642   0.231   1.185   5.141 -0.3079  0.0120 -0.0165
 8003SOL    HW235643   0.195   1.309   5.067 -0.0044 -1.1433 -1.1854
 8004SOL     OW35644   3.474   2.485  10.298  0.0728  0.0268 -0.5231
 8004SOL    HW135645   3.437   2.562  10.256  1.4376  1.7317  1.3796
 8004SOL    HW235646   3.418   2.417  10.260  1.1542 -0.1567 -1.7781
 8005SOL     OW35647   4.704   2.331   3.513  0.1283 -0.0395  0.3043
 8005SOL    HW135648   4.642   2.266   3.546  1.8169 -0.4905  2.6138
 8005SOL    HW235649   0.026   2.282   3.456  0.1030  0.3417 -0.0477
 8006SOL     OW35650   0.372   1.832  11.199 -0.0847  0.1797  0.0147
 8006SOL    HW135651   0.278   1.842  11.184 -0.3525 -0.2408  1.4562
 8006SOL    HW235652   0.402   1.901  11.140 -0.5531  1.4656  1.2726
 8007SOL     OW35653   4.615   1.229   3.435 -0.4345  0.4177 -0.4463
 8007SOL    HW135654   4.572   1.297   3.487 -2.1344  0.1217 -1.4485
 8007SOL    HW235655   4.555   1.228   3.360  0.2890 -1.8496 -0.9911
 8008SOL     OW35656   3.995   3.965  12.046  0.2349  0.0911  0.6466
 8008SOL    HW135657   3.956   4.040  12.090  0.6159 -0.0730  1.2591
 8008SOL    HW235658   3.964   3.981  11.957  1.0388 -1.9891 -0.0169
 8009SOL     OW35659   2.237   2.101   7.467  0.9816  0.3864  0.3688
 8009SOL    HW135660   2.217   2.139   7.553 -0.7856 -2.8200  1.3832
 8009SOL    HW235661   2.265   2.014   7.493  0.9629  0.1764 -0.3226
 8010SOL     OW35662   4.356   3.740   5.181  0.5782  0.1904 -0.2993
 8010SOL    HW135663   4.424   3.764   5.243 -1.2640  2.8550  0.6911
 8010SOL    HW235664   4.278   3.738   5.237  0.6345 -1.0174 -0.2668
 8011SOL     OW35665   4.431   4.243   6.430  0.0553  0.2046  0.4284
 8011SOL    HW135666   4.482   4.324   6.426  0.2610  0.1075  1.1253
 8011SOL    HW235667   4.353   4.272   6.382 -0.6975  1.3802  2.3762
 8012SOL     OW35668   1.961   3.980   1.010  0.2755  0.5147  0.5676
 8012SOL    HW135669   2.037   3.940   0.969 -0.7912  1.2734 -2.1299
 8012SOL    HW235670   1.918   3.908   1.055  1.1537 -1.5208 -1.8977
 8013SOL     OW35671   3.480   2.824  14.772 -0.0576 -0.2650 -0.3048
 8013SOL    HW135672   3.519   2.882  14.837  3.1602 -1.5406 -1.0936
 8013SOL    HW235673   3.434   2.763  14.830 -1.0773  0.1000 -0.7313
 8014SOL     OW35674   2.945   1.386   1.655 -0.1636 -0.3361  0.2755
 8014SOL    HW135675   2.962   1.446   1.727 -0.3355 -0.0759  0.0970
 8014SOL    HW235676   3.031   1.343   1.660  0.2455  0.4183 -0.2001
 8015SOL     OW35677   3.462   0.242   2.908  0.4632 -0.2402 -0.5749
 8015SOL    HW135678   3.534   0.253   2.970  0.9481 -1.1382 -0.9786
 8015SOL    HW235679   3.457   0.331   2.871  0.8826 -0.3413 -0.8904
 8016SOL     OW35680   2.888   3.290   7.799 -0.0301  0.4830 -0.1273
 8016SOL    HW135681   2.929   3.259   7.880 -0.5613 -0.2161 -0.1237
 8016SOL    HW235682   2.820   3.343   7.839  0.0092  1.4268 -1.3130
 8017SOL     OW35683   3.638   0.140   8.769 -0.3092 -0.3631 -0.1600
 8017SOL    HW135684   3.576   0.179   8.831 -0.2204  0.0556 -0.3340
 8017SOL    HW235685   3.720   0.162   8.815 -0.8802  0.5947  0.3983
 8018SOL     OW35686   0.103   3.444  12.502  0.1443  0.4725  0.3772
 8018SOL    HW135687   0.018   3.418  12.538 -0.2701 -1.6781 -2.1529
 8018SOL    HW235688   0.102   3.392  12.422  0.0454  1.3710 -0.2171
 8019SOL     OW35689   1.626   1.049  10.559 -0.5649 -0.1048  0.4229
 8019SOL    HW135690   1.600   1.136  10.590  1.7953  0.6843  0.2024
 8019SOL    HW235691   1.701   1.029  10.614 -0.6728 -3.1959 -0.5637
 8020SOL     OW35692   1.892   3.779   2.757  0.7179 -0.8509  0.4982
 8020SOL    HW135693   1.896   3.785   2.661 -4.2703 -2.1066  0.2134
 8020SOL    HW235694   1.914   3.869   2.778  1.7854 -1.2885  1.2414
 8021SOL     OW35695   0.142   0.760  11.985  0.3450 -0.1455 -0.5129
 8021SOL    HW135696   0.172   0.845  12.019 -1.3818  1.0310 -1.9350
 8021SOL    HW235697   0.052   0.779  11.958 -0.2987 -0.4329  1.4025
 8022SOL     OW35698   3.767   1.454   4.143  0.1054 -0.3460 -0.4539
 8022SOL    HW135699   3.751   1.543   4.109  2.3881  0.5371  0.7764
 8022SOL    HW235700   3.712   1.446   4.222 -0.5774 -0.0826 -0.9007
 8023SOL     OW35701   1.768   1.955  15.162  0.0155 -0.2710  0.6720
 8023SOL    HW135702   1.726   1.926  15.243 -1.6874  1.5980  0.4453
 8023SOL    HW235703   1.696   1.980  15.105  0.5476  1.6297  0.8242
 8024SOL     OW35704   4.588   4.591   5.189 -0.0684  0.2361  0.0475
 8024SOL    HW135705   4.683   4.579   5.192 -0.1311 -0.5038 -1.2210
 8024SOL    HW235706   4.565   4.537   5.114  0.3010  0.2589 -0.0819
 8025SOL     OW35707   0.422   0.001   2.799  0.4498 -0.0534  0.5389
 8025SOL    HW135708   0.444   4.647   2.786 -0.0942 -0.1074 -0.0249
 8025SOL    HW235709   0.381   0.019   2.715  0.7977 -1.0140  0.1665
 8026SOL     OW35710   1.783   3.080   7.183  0.5334 -0.0367  0.0868
 8026SOL    HW135711   1.787   3.099   7.090  3.3933  0.6814  0.3442
 8026SOL    HW235712   1.689   3.093   7.197  0.1043 -0.9323 -2.0323
 8027SOL     OW35713   2.687   1.485   8.273  0.6618  0.2418  0.8776
 8027SOL    HW135714   2.692   1.504   8.179 -0.0560 -0.0602  0.7808
 8027SOL    HW235715   2.663   1.392   8.273  1.0167  0.1677 -3.2026
 8028SOL     OW35716   2.954   0.662  17.091 -0.2614 -0.1253  0.8303
 8028SOL    HW135717   3.005   0.736  17.057 -1.1142 -0.1761 -0.5387
 8028SOL    HW235718   2.992   0.652  17.178  0.7736 -0.2517  0.3604
 8029SOL     OW35719   3.321   1.697   8.691 -0.2397  0.4557 -0.5366
 8029SOL    HW135720   3.305   1.696   8.597 -0.8655  2.1003 -0.4563
 8029SOL    HW235721   3.403   1.745   8.695  0.2781 -0.2890 -2.5290
 8030SOL     OW35722   4.349   2.927   7.111  0.4358 -0.3922 -0.2059
 8030SOL    HW135723   4.341   2.981   7.032  1.1260  2.5237  1.7164
 8030SOL    HW235724   4.406   2.985   7.162 -0.8130  2.1866 -1.7589
 8031SOL     OW35725   0.663   1.421   7.613  0.3726 -0.2451 -0.5607
 8031SOL    HW135726   0.671   1.328   7.593  0.0131 -0.5807  0.8680
 8031SOL    HW235727   0.599   1.447   7.547 -0.8209 -0.5283  0.4896
 8032SOL     OW35728   2.608   3.285   8.532  0.2243  0.1470  0.2912
 8032SOL    HW135729   2.677   3.340   8.568  0.4669 -1.3264  2.0660
 8032SOL    HW235730   2.643   3.196   8.532  0.4848  0.2496 -2.2505
 8033SOL     OW35731   2.084   1.321   2.297 -0.2479  0.1725  0.0735
 8033SOL    HW135732   2.012   1.288   2.243 -1.0385 -1.3315  2.0337
 8033SOL    HW235733   2.090   1.413   2.273 -1.2316  0.6542  1.6858
 8034SOL     OW35734   3.439   3.176  14.977 -0.6629  0.2406 -0.0395
 8034SOL    HW135735   3.412   3.096  15.023 -0.7303 -0.2948 -1.0074
 8034SOL    HW235736   3.534   3.174  14.991 -0.6258 -1.8831 -0.6313
 8035SOL     OW35737   2.109   2.274   2.798 -0.1776  0.8445  0.1099
 8035SOL    HW135738   2.058   2.229   2.865  1.1529 -1.0129 -0.1425
 8035SOL    HW235739   2.088   2.222   2.721 -1.1402  1.9204 -0.3572
 8036SOL     OW35740   2.362   0.485   4.153 -0.3877  0.3812  0.0463
 8036SOL    HW135741   2.304   0.457   4.224 -0.6390 -4.1928 -1.9576
 8036SOL    HW235742   2.348   0.420   4.084  1.1595  0.2633 -0.1638
 8037SOL     OW35743   0.611   0.026  12.546 -0.0364 -0.3020  0.0406
 8037SOL    HW135744   0.584   4.694  12.606  1.3873 -0.5366  0.4164
 8037SOL    HW235745   0.578   0.103  12.593 -0.6949  0.8032 -2.2425
 8038SOL     OW35746   1.993   4.392   9.515  0.0330  0.0359  0.3645
 8038SOL    HW135747   1.924   4.331   9.541 -0.6803  0.6564 -0.0690
 8038SOL    HW235748   1.952   4.468   9.556  0.4956 -0.2149  1.2893
 8039SOL     OW35749   4.086   4.553   2.923 -0.1975  1.2608  0.1459
 8039SOL    HW135750   4.125   4.639   2.910  1.5493  0.4829  0.2403
 8039SOL    HW235751   4.136   4.516   2.996 -1.5396 -1.2071 -0.1590
 8040SOL     OW35752   0.068   2.818   7.642  0.3221  0.6513 -0.2664
 8040SOL    HW135753   0.101   2.906   7.626  0.8243  0.3648 -0.8220
 8040SOL    HW235754   0.150   2.783   7.677  0.0670  0.6114  0.2911
 8041SOL     OW35755   3.091   3.569   5.449 -0.4254  0.8638 -0.1414
 8041SOL    HW135756   3.089   3.660   5.480 -1.4078  0.8630 -0.1948
 8041SOL    HW235757   3.004   3.572   5.410 -0.0973  2.2552 -0.7507
 8042SOL     OW35758   1.217   2.267   7.050 -0.5089  0.1561  0.2042
 8042SOL    HW135759   1.282   2.329   7.084 -2.3746  2.7136 -0.8317
 8042SOL    HW235760   1.254   2.256   6.963 -0.6020 -2.5094  0.5027
 8043SOL     OW35761   3.720   2.021  15.500  0.0551  0.1380 -0.1722
 8043SOL    HW135762   3.797   2.074  15.522 -0.7922 -0.1664  3.5166
 8043SOL    HW235763   3.702   1.977  15.583 -1.0326  1.8932  0.5163
 8044SOL     OW35764   3.784   0.532  14.663 -0.1271 -0.2241  0.2777
 8044SOL    HW135765   3.736   0.585  14.598 -0.1388 -1.0105 -0.3626
 8044SOL    HW235766   3.799   0.458  14.604 -0.9570 -0.9979  1.0263
 8045SOL     OW35767   2.546   2.245  12.524  0.3975  0.6722 -0.0162
 8045SOL    HW135768   2.582   2.177  12.581 -1.4887 -1.6990 -1.6439
 8045SOL    HW235769   2.468   2.276  12.570  0.3206 -1.5736  1.3760
 8046SOL     OW35770   0.021   1.009   2.131 -0.5413  0.1238  0.1846
 8046SOL    HW135771   0.088   0.986   2.066 -0.8479 -0.4223  0.0577
 8046SOL    HW235772   0.024   1.101   2.107 -0.8554  0.1409  0.2116
 8047SOL     OW35773   1.852   0.928   6.941  1.0632  0.0796 -0.0414
 8047SOL    HW135774   1.862   0.884   7.026  0.6690 -2.2304 -1.1878
 8047SOL    HW235775   1.774   0.982   6.953  0.2717 -0.7710 -1.3160
 8048SOL     OW35776   2.503   1.782   8.498  0.0828 -0.0061 -0.4089
 8048SOL    HW135777   2.490   1.742   8.412 -0.1982 -0.3502 -0.2014
 8048SOL    HW235778   2.587   1.744   8.523 -0.6370  0.2195  2.2667
 8049SOL     OW35779   4.314   1.705   7.655  0.5499 -0.3418  0.3265
 8049SOL    HW135780   4.250   1.700   7.725 -1.2290 -1.3007 -1.3591
 8049SOL    HW235781   4.375   1.771   7.690  0.1445 -1.0371  2.3058
 8050SOL     OW35782   4.229   0.921   3.071 -0.2909  0.1499 -0.8156
 8050SOL    HW135783   4.312   0.936   3.024 -0.8937 -1.4094 -2.4087
 8050SOL    HW235784   4.196   0.845   3.022 -1.2510  0.9240 -1.3552
 8051SOL     OW35785   3.850   1.322   2.374  0.1910 -0.8318 -0.0873
 8051SOL    HW135786   3.885   1.297   2.460  0.7396  0.0206 -0.0604
 8051SOL    HW235787   3.926   1.361   2.330 -1.0019  0.0132 -1.4112
 8052SOL     OW35788   1.979   4.022   2.860 -0.0089 -0.2476  0.8327
 8052SOL    HW135789   1.920   4.062   2.924 -0.6387  0.3044 -0.0945
 8052SOL    HW235790   2.010   4.094   2.805  0.0502 -0.5202  0.5078
 8053SOL     OW35791   2.871   3.731   8.686  0.2932  0.0380  0.0962
 8053SOL    HW135792   2.952   3.780   8.698  0.4153  0.3923 -2.1488
 8053SOL    HW235793   2.807   3.801   8.698  0.7950  0.6678 -0.9094
 8054SOL     OW35794   0.338   2.353   7.404 -0.4999 -0.0899  0.1040
 8054SOL    HW135795   0.256   2.316   7.436 -0.9433  2.3884  1.7989
 8054SOL    HW235796   0.369   2.378   7.491 -0.2973 -2.5766  0.7531
 8055SOL     OW35797   4.580   1.880   4.849  0.1744 -0.0967  0.3189
 8055SOL    HW135798   4.486   1.869   4.834  0.0645  1.5002 -0.1701
 8055SOL    HW235799   4.589   1.878   4.945  2.3466 -0.2011  0.1093
 8056SOL     OW35800   4.174   3.327  10.920  0.2379  0.1276 -0.4299
 8056SOL    HW135801   4.269   3.324  10.910  0.1720  0.0294 -1.0318
 8056SOL    HW235802   4.155   3.406  10.870  3.4350  2.3658  1.9285
 8057SOL     OW35803   1.979   1.822   2.788  0.0447 -0.6053 -0.7897
 8057SOL    HW135804   2.049   1.881   2.813 -0.6149 -0.2469  0.2358
 8057SOL    HW235805   2.019   1.755   2.733 -2.6252 -2.6978 -0.1888
 8058SOL     OW35806   3.554   4.103   8.321  0.0198  0.1765 -0.3675
 8058SOL    HW135807   3.579   4.023   8.367  1.8199  0.5888 -0.6283
 8058SOL    HW235808   3.582   4.161   8.392 -0.2090 -1.5842  1.1503
 8059SOL     OW35809   2.599   1.403  13.033 -0.3725  0.8507  0.5276
 8059SOL    HW135810   2.585   1.427  13.125  1.9779  1.5561  0.6949
 8059SOL    HW235811   2.688   1.367  13.037 -0.9622 -0.3747  2.7716
 8060SOL     OW35812   4.578   0.832   3.367  0.2234 -0.2447 -0.8020
 8060SOL    HW135813   4.494   0.867   3.336 -1.0261 -1.4341  1.2738
 8060SOL    HW235814   4.566   0.737   3.370  0.8033 -0.3742 -2.7645
 8061SOL     OW35815   2.836   3.842   5.034  0.3640 -0.9415 -0.1462
 8061SOL    HW135816   2.833   3.937   5.025  1.9090 -0.8867 -0.0780
 8061SOL    HW235817   2.747   3.822   5.002  0.4641  2.3953 -2.4317
 8062SOL     OW35818   3.230   1.677   6.446  0.1325  0.4012  0.5088
 8062SOL    HW135819   3.291   1.645   6.380 -0.2135 -0.6605  0.7068
 8062SOL    HW235820   3.194   1.756   6.405  0.1270  0.3084  0.3328
 8063SOL     OW35821   4.428   4.508   7.408  0.2512  0.1839 -0.4465
 8063SOL    HW135822   4.505   4.500   7.463 -2.5663  1.1877  3.6641
 8063SOL    HW235823   4.390   4.423   7.430 -0.0523 -0.2127 -2.5507
 8064SOL     OW35824   0.849   0.035  13.003  0.3856 -0.2733 -0.0094
 8064SOL    HW135825   0.872   0.082  13.083  1.1410 -0.3480 -0.1827
 8064SOL    HW235826   0.754   0.028  13.011  0.4232 -2.0781 -1.0335
 8065SOL     OW35827   2.749   2.251   5.358  0.1441 -0.0802  0.1089
 8065SOL    HW135828   2.775   2.325   5.413  0.3170 -0.3903  0.4469
 8065SOL    HW235829   2.654   2.242   5.363 -0.2231  3.3368 -0.3897
 8066SOL     OW35830   3.485   0.738   3.664  0.1862  0.6154  0.0427
 8066SOL    HW135831   3.506   0.709   3.752 -1.2571 -1.3605 -0.2701
 8066SOL    HW235832   3.396   0.772   3.678 -0.7566 -2.2273  0.9049
 8067SOL     OW35833   0.020   3.359   7.886 -0.9330 -0.0004  0.4008
 8067SOL    HW135834   0.073   3.286   7.853  0.7574  1.9910 -1.3167
 8067SOL    HW235835   4.730   3.328   7.972 -0.2516  0.5048  0.8060
 8068SOL     OW35836   2.468   2.849   8.010  0.1826  0.1029  0.4667
 8068SOL    HW135837   2.521   2.928   8.001  2.0499 -1.4769 -2.3509
 8068SOL    HW235838   2.390   2.868   8.062 -0.2621  0.2442 -0.2534
 8069SOL     OW35839   0.392   3.778   2.905  0.3401 -0.0419 -0.7022
 8069SOL    HW135840   0.380   3.685   2.920 -0.8529  0.2259 -0.0527
 8069SOL    HW235841   0.389   3.777   2.809  1.3642  2.4482 -0.7913
 8070SOL     OW35842   1.342   2.271   5.973 -0.6191 -0.4559  0.3377
 8070SOL    HW135843   1.254   2.303   5.990 -0.2749  0.9671 -0.5915
 8070SOL    HW235844   1.349   2.234   5.884  0.9470  0.5259  0.0599
 8071SOL     OW35845   1.439   1.345  17.700  0.4860 -0.2008  0.6718
 8071SOL    HW135846   1.344   1.343  17.708  0.3460 -2.7006 -1.5275
 8071SOL    HW235847   1.461   1.254  17.716  2.4408  0.4335  1.6861
 8072SOL     OW35848   2.198   3.286  11.725  0.3752  0.3182 -0.2227
 8072SOL    HW135849   2.204   3.325  11.812  2.7634 -2.3152  0.7717
 8072SOL    HW235850   2.205   3.193  11.745 -0.0598  0.5623  1.1001
 8073SOL     OW35851   4.681   0.611   8.810 -0.2223 -0.0224  0.0844
 8073SOL    HW135852   4.586   0.596   8.809 -0.5999  2.4247 -0.6662
 8073SOL    HW235853   4.682   0.704   8.835  0.4038 -0.0026 -0.0304
 8074SOL     OW35854   1.372   0.177   8.368 -0.2103  0.1514  0.4187
 8074SOL    HW135855   1.352   0.217   8.453  0.2302 -1.1925  1.1530
 8074SOL    HW235856   1.285   0.167   8.331  0.4149 -0.4362 -0.8662
 8075SOL     OW35857   0.881   0.552   4.953  0.6502 -0.1078  0.2425
 8075SOL    HW135858   0.951   0.505   4.908  1.3325 -0.5966  1.7934
 8075SOL    HW235859   0.811   0.559   4.888  1.5551  1.1145 -0.5949
 8076SOL     OW35860   4.253   2.104  16.548  0.2656  0.1305 -0.2399
 8076SOL    HW135861   4.332   2.079  16.499  0.8570  1.9896 -0.2621
 8076SOL    HW235862   4.192   2.100  16.474 -1.0667 -2.1424  0.9991
 8077SOL     OW35863   2.105   1.035  10.210 -0.6612  0.1266  0.8601
 8077SOL    HW135864   2.197   1.034  10.236  0.1451 -0.1535 -1.9910
 8077SOL    HW235865   2.065   1.042  10.296  1.7121  0.5480  1.9435
 8078SOL     OW35866   1.910   4.654  10.328 -0.3128  0.1669  0.1467
 8078SOL    HW135867   1.988   4.611  10.364  0.0345  0.4895 -0.2255
 8078SOL    HW235868   1.845   4.633  10.395 -0.1729  0.9966  0.5401
 8079SOL     OW35869   2.255   4.042   3.988  0.0276  0.5772 -0.3641
 8079SOL    HW135870   2.310   4.039   4.066  1.3530  0.2324 -1.3185
 8079SOL    HW235871   2.306   4.093   3.926  2.5580 -2.1099 -0.4994
 8080SOL     OW35872   2.946   3.699   6.709 -0.4375 -0.7548 -0.0767
 8080SOL    HW135873   2.915   3.609   6.702 -0.7716 -0.5068 -1.9773
 8080SOL    HW235874   2.886   3.748   6.653  2.1015  0.3623 -1.8433
 8081SOL     OW35875   0.601   2.345   3.027  0.4101 -0.0481  0.1921
 8081SOL    HW135876   0.617   2.367   3.119  0.5982 -0.2175  0.1988
 8081SOL    HW235877   0.618   2.251   3.024  1.4617  0.1270  0.5107
 8082SOL     OW35878   4.250   1.717  14.868  0.1506  0.1610  0.5764
 8082SOL    HW135879   4.233   1.623  14.862  0.8425  0.2565 -3.2751
 8082SOL    HW235880   4.206   1.746  14.947  1.3151  0.7871  0.9930
 8083SOL     OW35881   2.930   4.399   5.687 -0.4255 -0.7612  0.2926
 8083SOL    HW135882   2.964   4.429   5.772 -1.5286 -1.1598  0.8717
 8083SOL    HW235883   3.011   4.361   5.651 -1.7729 -4.2355  0.9606
 8084SOL     OW35884   1.235   1.039   7.442  0.2005 -0.5059  0.1375
 8084SOL    HW135885   1.275   1.052   7.528  0.7602  0.4450 -0.2624
 8084SOL    HW235886   1.182   0.961   7.459  0.4255 -0.5431  0.6887
 8085SOL     OW35887   4.471   4.114   8.313  0.4570  0.7034  0.5209
 8085SOL    HW135888   4.447   4.035   8.360  0.7282  2.9459  4.4037
 8085SOL    HW235889   4.388   4.134   8.270 -0.1205 -2.5553  0.1289
 8086SOL     OW35890   0.524   4.109   1.504  0.2313 -0.2494 -0.6745
 8086SOL    HW135891   0.499   4.074   1.418  1.3580 -0.6555 -0.8348
 8086SOL    HW235892   0.493   4.035   1.558  0.0487 -0.1104 -0.5891
 8087SOL     OW35893   0.718   1.436   1.933  0.0246 -0.2285  0.4022
 8087SOL    HW135894   0.795   1.471   1.889 -0.6879  0.1564 -0.5447
 8087SOL    HW235895   0.737   1.466   2.022 -1.2400  0.3786  0.4710
 8088SOL     OW35896   2.527   2.159   2.675  0.1701  0.3360  0.3539
 8088SOL    HW135897   2.469   2.205   2.735  2.0773  2.6590  0.4307
 8088SOL    HW235898   2.537   2.075   2.720 -0.0515  0.5811  0.8571
 8089SOL     OW35899   3.317   4.293  17.728  0.1915 -0.0318 -0.3012
 8089SOL    HW135900   3.369   4.217  17.703  0.1492 -0.8126  2.0454
 8089SOL    HW235901   3.240   4.253   0.021  0.5906  2.2511  2.5768
 8090SOL     OW35902   0.661   0.919  12.314  0.4025  0.6338 -0.2341
 8090SOL    HW135903   0.709   0.885  12.390 -0.5343 -1.4134 -0.5402
 8090SOL    HW235904   0.631   0.837  12.274  1.9223 -0.0106 -0.0702
 8091SOL     OW35905   1.312   0.688   1.182  0.1756  0.0186  0.3268
 8091SOL    HW135906   1.281   0.626   1.247  0.7189 -2.0210 -1.3468
 8091SOL    HW235907   1.338   0.628   1.112  1.1158  0.0785  0.6240
 8092SOL     OW35908   0.633   1.940   1.577 -0.3428 -0.1594 -0.2397
 8092SOL    HW135909   0.554   1.985   1.605 -0.1381  0.0783 -0.0570
 8092SOL    HW235910   0.598   1.855   1.606  0.6148 -0.4486  0.0706
 8093SOL     OW35911   3.750   0.744   1.986 -0.2154  0.0394  0.1401
 8093SOL    HW135912   3.833   0.736   2.032 -0.0061 -0.2886 -0.2894
 8093SOL    HW235913   3.766   0.710   1.898  1.2380 -0.9697  0.8056
 8094SOL     OW35914   4.494   2.394  10.147  0.2597  0.0369  0.2878
 8094SOL    HW135915   4.474   2.428  10.234  0.0598  0.3950  0.1015
 8094SOL    HW235916   4.589   2.381  10.152  0.4975  1.4640 -0.5505
 8095SOL     OW35917   4.541   0.189   4.858  0.0852 -0.0887  0.1242
 8095SOL    HW135918   4.461   0.241   4.866 -0.4362 -0.9059  0.2313
 8095SOL    HW235919   4.553   0.169   4.951 -0.4580  0.0039  0.2175
 8096SOL     OW35920   3.133   0.597   4.600 -0.4624 -0.6649  0.1986
 8096SOL    HW135921   3.108   0.659   4.532 -0.2213 -2.1382 -1.2147
 8096SOL    HW235922   3.228   0.605   4.594 -0.2814 -1.7042  1.4514
 8097SOL     OW35923   1.249   0.512   6.826  0.0408 -0.1942  0.8230
 8097SOL    HW135924   1.277   0.421   6.820 -3.6523 -1.5571  4.1685
 8097SOL    HW235925   1.216   0.516   6.916  0.0331 -2.4451  0.9174
 8098SOL     OW35926   3.508   4.371  15.972 -0.4852 -0.5456  0.1906
 8098SOL    HW135927   3.539   4.441  15.914 -1.1374 -1.7938 -1.6586
 8098SOL    HW235928   3.591   4.350  16.013 -1.0042 -2.8991  0.0543
 8099SOL     OW35929   0.769   4.180   3.371 -0.0638  0.0401  0.0218
 8099SOL    HW135930   0.686   4.137   3.389 -0.6801  1.4402  0.5056
 8099SOL    HW235931   0.776   4.239   3.446 -0.4770  3.1268 -2.3338
 8100SOL     OW35932   1.287   4.137   9.537  0.3065 -0.1158  0.1919
 8100SOL    HW135933   1.243   4.125   9.621 -0.0728 -0.1223 -0.0039
 8100SOL    HW235934   1.358   4.197   9.559  0.0091  0.5283 -0.6313
 8101SOL     OW35935   3.046   3.412   4.912 -0.8645  0.4147 -0.1716
 8101SOL    HW135936   3.094   3.392   4.831  0.7101  1.8479  0.4174
 8101SOL    HW235937   2.963   3.438   4.871 -0.0096  3.0915 -0.2015
 8102SOL     OW35938   4.061   4.623   8.072  0.8705 -0.0444  0.4613
 8102SOL    HW135939   4.112   4.592   7.997 -0.0706 -0.1709 -0.1239
 8102SOL    HW235940   4.059   4.544   8.126 -0.3476 -0.0061  0.4575
 8103SOL     OW35941   2.680   2.325   1.103 -0.0939  0.0503  0.6273
 8103SOL    HW135942   2.758   2.305   1.154  0.9006  0.7934 -0.6030
 8103SOL    HW235943   2.615   2.282   1.159  2.4590 -2.3393  1.7906
 8104SOL     OW35944   4.121   3.410   4.509  0.3206 -0.2198  0.1905
 8104SOL    HW135945   4.123   3.350   4.584  0.6002  0.8347  1.0290
 8104SOL    HW235946   4.030   3.423   4.482  0.7447  0.3648 -0.9501
 8105SOL     OW35947   3.826   3.147  14.931 -0.2796  0.2533 -0.3157
 8105SOL    HW135948   3.888   3.096  14.983 -1.7255 -0.5250  0.6625
 8105SOL    HW235949   3.778   3.184  15.005 -0.4871 -0.7941  0.0784
 8106SOL     OW35950   1.760   4.564   6.597  0.3413 -0.0860 -1.1341
 8106SOL    HW135951   1.675   4.523   6.610  0.9838 -0.8156  0.8200
 8106SOL    HW235952   1.807   4.518   6.666  1.4315 -0.1997 -1.9480
 8107SOL     OW35953   2.974   4.383  15.300  0.1596 -0.2625  0.1412
 8107SOL    HW135954   3.067   4.379  15.322  0.4060  2.1995 -0.4085
 8107SOL    HW235955   2.979   4.361  15.207 -0.3363 -1.3239  0.3628
 8108SOL     OW35956   1.922   3.481   2.471  0.6576  0.8926  0.3978
 8108SOL    HW135957   1.880   3.567   2.474  0.8485  0.9088  2.2482
 8108SOL    HW235958   2.010   3.518   2.473  1.1426 -0.1839 -0.8364
 8109SOL     OW35959   1.740   1.308   9.269  0.0155 -0.3571  0.1643
 8109SOL    HW135960   1.755   1.224   9.313  0.5745  0.5459  1.7027
 8109SOL    HW235961   1.682   1.338   9.338 -1.3686  3.1620 -2.5499
 8110SOL     OW35962   1.058   2.901  11.955  0.7473  0.3855  0.2520
 8110SOL    HW135963   1.114   2.909  12.032 -0.9043 -0.6385  1.5639
 8110SOL    HW235964   1.027   2.991  11.942 -0.0448  0.3325  1.7390
 8111SOL     OW35965   3.303   1.482   6.252  0.1720 -0.2319 -0.1702
 8111SOL    HW135966   3.373   1.516   6.196  0.0118 -0.8634 -0.7503
 8111SOL    HW235967   3.228   1.484   6.193  0.0882 -1.1916 -0.0860
 8112SOL     OW35968   1.553   1.073   3.527  0.0149  0.0239 -0.4285
 8112SOL    HW135969   1.469   1.099   3.489 -0.5697  0.4421  1.1662
 8112SOL    HW235970   1.530   1.009   3.594 -1.2228 -0.0511 -0.9180
 8113SOL     OW35971   1.799   0.136   0.850 -0.6028 -0.1993 -0.0123
 8113SOL    HW135972   1.719   0.133   0.798 -1.8896 -1.0875  2.0053
 8113SOL    HW235973   1.763   0.143   0.938  2.1985 -1.5346  1.2513
 8114SOL     OW35974   3.596   3.179   7.737  0.1711 -0.0084  0.7427
 8114SOL    HW135975   3.503   3.169   7.717  0.2711  0.7046 -0.0992
 8114SOL    HW235976   3.614   3.116   7.806 -3.4313 -0.5857  1.1333
 8115SOL     OW35977   0.791   1.124   8.298 -0.3745 -0.3158 -0.3439
 8115SOL    HW135978   0.840   1.041   8.303 -3.4985 -2.1139  0.0386
 8115SOL    HW235979   0.844   1.183   8.352 -0.9975  0.3685 -0.4868
 8116SOL     OW35980   0.515   2.520   6.136  0.5380 -0.0747 -0.0666
 8116SOL    HW135981   0.532   2.498   6.228  0.4665  0.7421  0.1427
 8116SOL    HW235982   0.454   2.454   6.102 -0.4419  0.5122  0.5537
 8117SOL     OW35983   4.044   3.372   7.006 -0.0920 -0.7547 -0.7454
 8117SOL    HW135984   3.979   3.443   7.010  0.5355 -0.3117  1.3600
 8117SOL    HW235985   3.994   3.318   6.945 -0.9182 -2.8262  1.7765
 8118SOL     OW35986   1.406   1.139  15.325 -0.2626 -0.1065 -0.0505
 8118SOL    HW135987   1.475   1.085  15.364  0.0562  1.1673  1.1608
 8118SOL    HW235988   1.458   1.205  15.280 -0.0135 -0.7135 -0.6516
 8119SOL     OW35989   1.663   3.826   2.281  0.4522  0.0221 -0.2246
 8119SOL    HW135990   1.586   3.835   2.337  0.0544  1.6429 -1.0399
 8119SOL    HW235991   1.697   3.915   2.275 -1.1906  0.4902 -2.3006
 8120SOL     OW35992   3.263   2.722  15.293  0.2442 -0.1176 -0.8629
 8120SOL    HW135993   3.240   2.712  15.386  0.8642 -0.9844 -0.7975
 8120SOL    HW235994   3.185   2.673  15.268 -0.2621 -0.0528  0.6011
 8121SOL     OW35995   1.682   2.747   1.622  0.5826 -0.2558 -0.1399
 8121SOL    HW135996   1.597   2.757   1.664  0.1808  1.8904 -1.4653
 8121SOL    HW235997   1.734   2.716   1.696  0.2995 -2.8226 -1.0380
 8122SOL     OW35998   4.427   0.562  16.190 -0.1992  0.6569 -0.0570
 8122SOL    HW135999   4.507   0.612  16.175  0.4197 -0.3715 -0.1693
 8122SOL    HW236000   4.361   0.631  16.184  0.7637  1.4444 -1.6759
 8123SOL     OW36001   3.851   0.952  13.441 -0.4633  0.1751 -0.6267
 8123SOL    HW136002   3.830   0.935  13.533 -0.6249  2.9565 -0.1464
 8123SOL    HW236003   3.821   1.043  13.440  2.6237  1.1524 -2.8580
 8124SOL     OW36004   0.530   2.883   3.651 -0.2266  0.5359  0.2333
 8124SOL    HW136005   0.625   2.870   3.657 -0.5487 -1.9206 -0.1008
 8124SOL    HW236006   0.512   2.790   3.659  1.6391  0.0429 -1.5792
 8125SOL     OW36007   4.024   1.758   3.462  0.2037  0.0112 -0.0876
 8125SOL    HW136008   3.944   1.729   3.506  0.4300 -1.0383 -0.3721
 8125SOL    HW236009   4.070   1.808   3.530  0.8750  0.4691 -0.8795
 8126SOL     OW36010   4.032   0.920   3.444  0.0251 -0.2819 -0.4261
 8126SOL    HW136011   4.015   0.906   3.351 -1.7025  2.1883 -0.4767
 8126SOL    HW236012   3.998   0.836   3.475  1.1252 -0.2840  0.7997
 8127SOL     OW36013   0.790   3.474   3.642  0.4533  0.0599 -0.1361
 8127SOL    HW136014   0.879   3.493   3.612  0.0442  0.5248 -1.0850
 8127SOL    HW236015   0.794   3.385   3.676  1.7280 -0.7746 -2.4165
 8128SOL     OW36016   4.582   0.528   4.278 -0.3544 -0.0222  0.3765
 8128SOL    HW136017   4.664   0.513   4.229  0.1690  0.3839  1.1284
 8128SOL    HW236018   4.587   0.465   4.350  0.0041 -0.1871  0.2067
 8129SOL     OW36019   1.975   2.158   2.978 -0.3288 -0.0939  0.4974
 8129SOL    HW136020   1.886   2.191   2.967 -1.0565 -2.2263  0.0240
 8129SOL    HW236021   1.991   2.153   3.072 -1.2991  2.4047  0.7885
 8130SOL     OW36022   0.649   0.739  10.217 -0.0057  0.4315 -0.3806
 8130SOL    HW136023   0.615   0.763  10.131 -0.4802  0.2021 -0.2568
 8130SOL    HW236024   0.639   0.644  10.210 -0.4810  0.4297  0.3004
 8131SOL     OW36025   3.590   3.896   6.749  0.2156 -0.1829 -0.1567
 8131SOL    HW136026   3.674   3.890   6.705  0.4818  1.6671  0.0949
 8131SOL    HW236027   3.601   3.819   6.804 -0.2779  0.9682  1.5795
 8132SOL     OW36028   0.815   1.742  15.860  0.1797  0.2285  0.6207
 8132SOL    HW136029   0.757   1.818  15.869 -2.3185 -1.3528 -1.8947
 8132SOL    HW236030   0.844   1.743  15.951 -0.2519 -2.6399  0.7832
 8133SOL     OW36031   4.284   2.775   4.569 -0.2193 -0.5171 -0.1468
 8133SOL    HW136032   4.268   2.689   4.530 -0.6781 -0.5510  0.1208
 8133SOL    HW236033   4.220   2.782   4.640  1.4326 -1.2911  1.3917
 8134SOL     OW36034   2.403   3.162   7.091  0.0336  0.1430  0.5446
 8134SOL    HW136035   2.429   3.089   7.147 -1.1976 -1.1390 -0.5369
 8134SOL    HW236036   2.480   3.171   7.035  0.1288 -0.5415  0.5731
 8135SOL     OW36037   1.799   3.660   7.899  0.4729 -0.3571  0.1505
 8135SOL    HW136038   1.845   3.640   7.980 -0.5497 -0.1588  0.7894
 8135SOL    HW236039   1.798   3.755   7.889  2.5492 -0.4730 -1.1087
 8136SOL     OW36040   1.037   0.036   1.158  0.1349 -0.3613 -0.1987
 8136SOL    HW136041   0.996   0.122   1.172  3.2753  1.3758 -1.4853
 8136SOL    HW236042   0.984   4.733   1.090 -0.7257  1.0900 -0.4002
 8137SOL     OW36043   2.602   0.622   8.058 -0.6393 -0.2466 -0.0204
 8137SOL    HW136044   2.606   0.639   8.153 -0.0461 -0.0849 -0.0715
 8137SOL    HW236045   2.509   0.619   8.036 -0.2982  1.4976 -1.6517
 8138SOL     OW36046   0.990   2.566   8.150  0.4013  0.7626 -0.1190
 8138SOL    HW136047   1.044   2.527   8.219  0.0260 -0.0225 -0.2709
 8138SOL    HW236048   1.049   2.555   8.076 -0.0841  1.8445 -0.6752
 8139SOL     OW36049   3.730   4.323   9.171 -0.5699 -0.0253  0.2900
 8139SOL    HW136050   3.744   4.347   9.263  2.8276  1.1975 -0.5727
 8139SOL    HW236051   3.646   4.279   9.187 -0.3931 -0.3936  0.2176
 8140SOL     OW36052   0.885   1.811  15.490  0.0929 -0.5971 -0.0846
 8140SOL    HW136053   0.856   1.848  15.574  1.9587  1.4821 -0.3600
 8140SOL    HW236054   0.877   1.889  15.436  0.2619 -0.1444  0.5414
 8141SOL     OW36055   4.701   2.349   8.569 -0.5026  0.0057  0.0039
 8141SOL    HW136056   4.608   2.371   8.581 -0.8855 -2.3144  1.4357
 8141SOL    HW236057   4.726   2.337   8.661 -1.6344  1.8756  0.5545
 8142SOL     OW36058   1.477   1.254   8.302 -0.6546 -0.3360  0.3652
 8142SOL    HW136059   1.509   1.204   8.377  2.4198 -0.0357 -0.7419
 8142SOL    HW236060   1.386   1.227   8.292 -1.2041  1.7629 -0.4524
 8143SOL     OW36061   0.317   4.611   5.057  0.1011  0.2070  0.4325
 8143SOL    HW136062   0.381   4.573   4.996  0.5777 -1.3241  1.8912
 8143SOL    HW236063   0.280   4.676   4.997  0.9589  0.2921 -0.0020
 8144SOL     OW36064   4.207   4.401   6.324 -0.0580 -0.2253 -0.3870
 8144SOL    HW136065   4.218   4.427   6.232  0.3981  0.6678 -0.0812
 8144SOL    HW236066   4.163   4.482   6.350 -4.0352 -1.5596 -2.8145
 8145SOL     OW36067   2.730   2.055   0.923  0.0494  0.5863  0.6424
 8145SOL    HW136068   2.739   1.999   1.000 -1.3283 -0.4947  0.0325
 8145SOL    HW236069   2.703   2.137   0.966 -1.1507  0.9394 -0.7680
 8146SOL     OW36070   4.549   4.125   2.739  0.1392  0.2879  0.1971
 8146SOL    HW136071   4.537   4.040   2.695  2.4405 -0.2113  0.5139
 8146SOL    HW236072   4.584   4.094   2.822  0.8401 -1.8604 -0.8723
 8147SOL     OW36073   1.870   2.983   1.706  0.1833 -0.4338  0.1032
 8147SOL    HW136074   1.882   2.993   1.611  2.1083 -1.1898  0.2802
 8147SOL    HW236075   1.813   2.906   1.705 -0.2800 -0.0921 -0.0098
 8148SOL     OW36076   1.205   0.697   1.510 -0.1432 -0.2120  0.2739
 8148SOL    HW136077   1.156   0.714   1.591  1.4046  0.5618  1.0353
 8148SOL    HW236078   1.230   0.787   1.487 -4.4644  0.1648 -3.0044
 8149SOL     OW36079   2.725   4.148   5.997 -0.1192  0.2973 -0.3677
 8149SOL    HW136080   2.672   4.115   6.069 -0.1262  1.3411  0.0978
 8149SOL    HW236081   2.675   4.224   5.966  1.3468  1.2128 -0.4500
 8150SOL     OW36082   3.149   1.811   8.869  0.4164 -0.0167 -0.1695
 8150SOL    HW136083   3.146   1.863   8.789  0.6619  0.3914  0.0887
 8150SOL    HW236084   3.211   1.743   8.844 -0.1900 -0.1079 -1.4274
 8151SOL     OW36085   3.615   2.450   3.641 -0.2496 -0.2408 -0.3387
 8151SOL    HW136086   3.622   2.362   3.603 -0.7182 -0.7350  0.6911
 8151SOL    HW236087   3.547   2.488   3.585  0.7830  1.9010 -0.1304
 8152SOL     OW36088   3.579   4.610   2.847  0.1467 -0.2404 -0.4488
 8152SOL    HW136089   3.628   4.670   2.791  0.6023  0.1399  0.3524
 8152SOL    HW236090   3.648   4.605   2.913 -1.3143  0.2013  1.1263
 8153SOL     OW36091   1.654   3.643  15.536  0.3251 -0.0058 -0.0624
 8153SOL    HW136092   1.654   3.574  15.602  1.0365  1.8618  1.9240
 8153SOL    HW236093   1.721   3.699  15.576  0.2383 -0.0056  0.0831
 8154SOL     OW36094   3.480   3.307   9.305 -0.0261  0.2661 -0.4461
 8154SOL    HW136095   3.391   3.333   9.278  0.5100  0.4073 -2.0871
 8154SOL    HW236096   3.501   3.240   9.241  1.5748 -0.1649  0.5418
 8155SOL     OW36097   2.821   4.079  13.792  0.0177 -0.3999 -0.1418
 8155SOL    HW136098   2.874   4.140  13.842  1.0003  0.0796 -1.7783
 8155SOL    HW236099   2.893   4.030  13.753 -0.1533  0.3431 -1.3688
 8156SOL     OW36100   3.171   0.587   6.810  0.3769  0.3125 -0.9982
 8156SOL    HW136101   3.236   0.606   6.743 -0.3371  1.3845 -1.3687
 8156SOL    HW236102   3.210   0.618   6.892  1.5701  1.1776 -1.9050
 8157SOL     OW36103   1.404   0.693   3.111  0.4211  0.3651 -0.0898
 8157SOL    HW136104   1.321   0.674   3.067  1.5409 -3.4433 -0.5882
 8157SOL    HW236105   1.461   0.623   3.079  2.7003  1.5909  1.3112
 8158SOL     OW36106   0.893   4.574   7.414 -0.3603  0.0162  0.1305
 8158SOL    HW136107   0.833   4.637   7.452 -0.1718  0.1853  0.1467
 8158SOL    HW236108   0.909   4.516   7.489 -0.6255  0.5155  0.5680
 8159SOL     OW36109   0.664   1.110   8.894  0.5387  0.1027  0.1800
 8159SOL    HW136110   0.640   1.038   8.836  3.0050  0.0272 -0.7863
 8159SOL    HW236111   0.674   1.057   8.973  0.8333  1.5998  1.1448
 8160SOL     OW36112   0.626   2.229  11.282  0.8721  0.2379  0.0857
 8160SOL    HW136113   0.678   2.261  11.355  1.8269 -0.1534 -0.4202
 8160SOL    HW236114   0.682   2.162  11.244 -0.8998 -0.9503 -0.4340
 8161SOL     OW36115   3.157   1.193   5.319  0.3542  0.1172  0.4473
 8161SOL    HW136116   3.134   1.107   5.283  1.0518  0.8509 -1.7537
 8161SOL    HW236117   3.162   1.226   5.230  1.2125  2.2032  1.2783
 8162SOL     OW36118   2.022   4.632  15.515 -0.5648 -0.1300  0.0032
 8162SOL    HW136119   2.085   4.620  15.586  0.5858  0.3867 -0.9373
 8162SOL    HW236120   2.082   4.675  15.454  1.4380 -0.7180  1.5550
 8163SOL     OW36121   3.973   0.595  15.201  0.0822  0.2046  0.2324
 8163SOL    HW136122   4.021   0.539  15.140  0.9640  2.4457 -1.1215
 8163SOL    HW236123   3.928   0.534  15.260  3.1315 -2.0307  0.2193
 8164SOL     OW36124   0.963   3.825   1.526 -0.4420 -0.1271  0.7331
 8164SOL    HW136125   0.876   3.819   1.488  0.3460 -0.5101 -1.0165
 8164SOL    HW236126   0.978   3.919   1.533  1.5284 -0.2555 -1.7187
 8165SOL     OW36127   0.821   0.830  14.350  0.2916  0.5529 -0.3351
 8165SOL    HW136128   0.762   0.799  14.281  2.9531 -1.4397 -1.7146
 8165SOL    HW236129   0.772   0.909  14.371  2.4227  2.4015 -2.3522
 8166SOL     OW36130   1.990   4.601  11.710  0.2992 -0.2176 -0.4515
 8166SOL    HW136131   1.900   4.624  11.689 -0.1572 -0.1395  1.5964
 8166SOL    HW236132   2.034   4.637  11.632 -0.3164  0.6261 -0.4091
 8167SOL     OW36133   2.505   3.158  11.944 -0.0834 -0.2281  0.1216
 8167SOL    HW136134   2.548   3.208  12.013 -1.1652  1.9186 -0.7643
 8167SOL    HW236135   2.562   3.081  11.941 -0.2866 -0.3370 -0.9067
 8168SOL     OW36136   2.939   4.228  10.904 -0.0515  0.1436  0.1083
 8168SOL    HW136137   3.034   4.227  10.891  0.1925  0.3051  1.8708
 8168SOL    HW236138   2.933   4.285  10.981 -0.5795  2.4873 -1.6512
 8169SOL     OW36139   2.353   3.773  12.212 -0.7184 -0.4171  0.2530
 8169SOL    HW136140   2.259   3.756  12.220 -0.9969  0.6802 -0.6855
 8169SOL    HW236141   2.369   3.746  12.122 -0.8876 -2.0224  0.7106
 8170SOL     OW36142   0.671   3.072   3.461 -0.1621  0.3117 -0.4582
 8170SOL    HW136143   0.766   3.076   3.447  0.2430  0.2711  2.2801
 8170SOL    HW236144   0.663   2.977   3.470 -0.2142  0.3667  0.0531
 8171SOL     OW36145   1.524   1.235  16.788 -0.0223 -0.7887  0.5529
 8171SOL    HW136146   1.583   1.216  16.715 -1.0919  0.9661 -0.7679
 8171SOL    HW236147   1.558   1.317  16.824 -0.2635 -0.8247  0.8685
 8172SOL     OW36148   3.208   1.953   2.694  0.3078 -0.2625 -0.0004
 8172SOL    HW136149   3.167   1.868   2.707 -0.7142  0.0166 -1.4543
 8172SOL    HW236150   3.251   1.946   2.609  1.9885 -1.2393  0.9482
 8173SOL     OW36151   2.965   3.005   3.965 -0.0033 -0.3678  0.2056
 8173SOL    HW136152   2.926   3.000   4.052 -2.8511  0.0879 -1.0480
 8173SOL    HW236153   2.899   3.053   3.914  0.8249 -1.0773 -1.5229
 8174SOL     OW36154   1.744   2.433  17.484  0.0036 -0.1659 -0.0828
 8174SOL    HW136155   1.704   2.358  17.529 -0.6339  0.2673  0.0681
 8174SOL    HW236156   1.671   2.485  17.451 -1.6411 -0.8341  2.5954
 8175SOL     OW36157   2.732   1.626   8.511  0.3192 -0.3126  0.1688
 8175SOL    HW136158   2.736   1.572   8.432 -1.5228 -0.1457 -0.0382
 8175SOL    HW236159   2.718   1.548   8.565  1.3918 -0.1938  0.6021
 8176SOL     OW36160   2.159   3.558   2.689  0.1345 -0.2792  0.0484
 8176SOL    HW136161   2.173   3.653   2.687  4.2896 -0.9031 -0.8262
 8176SOL    HW236162   2.161   3.538   2.596 -0.9318  0.1138 -0.0583
 8177SOL     OW36163   3.185   2.191   5.108 -0.1178  0.1390  0.0092
 8177SOL    HW136164   3.097   2.158   5.120  0.2313 -0.4396  0.9824
 8177SOL    HW236165   3.247   2.118   5.107  2.7911  2.5600  1.6301
 8178SOL     OW36166   1.935   2.758   2.893 -0.5908  0.4069 -0.3475
 8178SOL    HW136167   1.918   2.665   2.907  1.7307  0.1390  0.8105
 8178SOL    HW236168   1.957   2.760   2.799  1.5711 -1.8821  0.0818
 8179SOL     OW36169   2.674   4.035  15.588  0.0364 -0.0999 -0.8232
 8179SOL    HW136170   2.710   4.108  15.539 -2.0767  0.6112 -1.3030
 8179SOL    HW236171   2.597   4.026  15.531 -0.3991  0.5896 -0.3417
 8180SOL     OW36172   4.282   0.717   5.534 -0.2840  0.2723  0.0031
 8180SOL    HW136173   4.277   0.772   5.455 -0.8174 -0.7680 -0.6760
 8180SOL    HW236174   4.350   0.773   5.571 -1.4072  1.6626 -0.0374
 8181SOL     OW36175   1.127   1.715   9.445  0.4712  0.1007  0.0786
 8181SOL    HW136176   1.093   1.693   9.358 -2.8048  0.0499  1.3830
 8181SOL    HW236177   1.047   1.698   9.495  0.1075  3.3587  0.6224
 8182SOL     OW36178   2.067   1.483   5.746 -0.0196 -0.0537  0.0067
 8182SOL    HW136179   1.988   1.441   5.779 -0.4515  1.0463  0.3824
 8182SOL    HW236180   2.048   1.575   5.762 -0.5086 -0.1475 -0.0403
 8183SOL     OW36181   2.566   4.356   7.645  0.0338 -0.5786 -0.4719
 8183SOL    HW136182   2.485   4.309   7.667 -0.5951  0.0658 -1.3928
 8183SOL    HW236183   2.530   4.445   7.646  1.1785 -0.1498  1.4867
 8184SOL     OW36184   0.294   1.406   2.436  0.5221  0.2972  0.1067
 8184SOL    HW136185   0.299   1.310   2.435  0.7850  0.3100  0.1219
 8184SOL    HW236186   0.362   1.424   2.501  1.1061  0.6580 -0.6090
 8185SOL     OW36187   3.593   2.806   6.122 -0.0593  0.2890 -0.3211
 8185SOL    HW136188   3.646   2.753   6.063 -0.6281  0.8927 -1.3630
 8185SOL    HW236189   3.602   2.765   6.209  0.3338  0.6218 -0.2039
 8186SOL     OW36190   0.246   2.935   6.587  0.4235  0.4902 -0.4903
 8186SOL    HW136191   0.289   2.902   6.508  0.8723 -2.0315  0.7998
 8186SOL    HW236192   0.274   2.865   6.647 -0.2706  1.2334  0.6920
 8187SOL     OW36193   4.705   2.534   0.145  0.6319 -0.4453  0.2782
 8187SOL    HW136194   4.682   2.625   0.162 -0.6914 -0.7208 -0.0417
 8187SOL    HW236195   4.625   2.501   0.104  1.0822  0.1129 -1.0700
 8188SOL     OW36196   0.266   4.004   8.094  0.1154  0.2238 -0.3560
 8188SOL    HW136197   0.254   3.912   8.070  0.4252 -0.1041  0.7629
 8188SOL    HW236198   0.357   4.021   8.116 -0.3202  2.2662 -0.1769
 8189SOL     OW36199   3.099   1.169   1.924 -0.6717  0.0020 -0.1969
 8189SOL    HW136200   3.103   1.158   2.019  1.1031  0.1616 -0.2610
 8189SOL    HW236201   3.139   1.086   1.899  1.6469  1.2252 -0.5126
 8190SOL     OW36202   2.804   1.849   8.220 -0.4327 -0.0978  0.2569
 8190SOL    HW136203   2.842   1.876   8.137  2.6694  1.6850  2.2516
 8190SOL    HW236204   2.718   1.891   8.231 -0.3258  0.5539 -1.4303
 8191SOL     OW36205   4.410   1.712   3.072  0.1579  0.1192  0.5410
 8191SOL    HW136206   4.330   1.750   3.106  0.2113 -1.1148  2.0400
 8191SOL    HW236207   4.393   1.627   3.030  1.6916  0.6231 -1.1299
 8192SOL     OW36208   2.161   2.560   7.827  0.0213 -0.4954 -0.1780
 8192SOL    HW136209   2.206   2.480   7.852  2.8577  1.6586  1.5125
 8192SOL    HW236210   2.196   2.573   7.738  1.2334  2.3019  0.7142
 8193SOL     OW36211   3.814   3.475   7.457  0.3003 -0.4636 -1.0452
 8193SOL    HW136212   3.786   3.432   7.538 -1.1600  0.1462 -1.2241
 8193SOL    HW236213   3.761   3.555   7.460  1.0216 -0.0349  0.2510
 8194SOL     OW36214   4.657   0.576   6.367 -0.2803  0.3058  0.1822
 8194SOL    HW136215   4.656   0.483   6.391 -0.6793  0.2202 -0.1680
 8194SOL    HW236216   0.013   0.580   6.349  0.0294 -0.9608  1.4861
 8195SOL     OW36217   3.113   3.609   8.411  0.4003  0.2485  0.2415
 8195SOL    HW136218   3.022   3.630   8.392  0.7446 -0.1679 -1.8645
 8195SOL    HW236219   3.092   3.525   8.452  0.7399 -0.1338 -0.3673
 8196SOL     OW36220   4.179   4.187   6.741  0.5816  0.3259 -0.0804
 8196SOL    HW136221   4.138   4.124   6.800  1.7209 -2.5223 -2.3550
 8196SOL    HW236222   4.223   4.243   6.805 -0.7813 -0.4438  1.5526
 8197SOL     OW36223   0.780   3.637   7.184  0.2515  0.1195 -0.6527
 8197SOL    HW136224   0.738   3.577   7.122  0.7990  1.9094 -2.7194
 8197SOL    HW236225   0.829   3.694   7.125  1.6772  0.7026  1.0784
 8198SOL     OW36226   3.741   2.120   3.183  0.0827 -0.1548  0.3903
 8198SOL    HW136227   3.760   2.063   3.109  2.4147 -0.6635  1.3777
 8198SOL    HW236228   3.810   2.111   3.249  1.3566  1.2633 -0.7352
 8199SOL     OW36229   4.253   3.748  12.502  0.2729 -0.1462 -0.2023
 8199SOL    HW136230   4.293   3.724  12.418 -0.8153  1.5771 -1.1967
 8199SOL    HW236231   4.181   3.685  12.504  0.5569 -0.5185 -1.3782
 8200SOL     OW36232   1.253   0.438   8.130 -0.4705  0.3272  0.1643
 8200SOL    HW136233   1.224   0.520   8.090 -0.8762  1.0119  1.8457
 8200SOL    HW236234   1.174   0.385   8.116  0.6928 -1.4562  0.3022
 8201SOL     OW36235   2.302   4.443   3.969 -0.1409 -0.2138  0.5999
 8201SOL    HW136236   2.288   4.507   3.899  0.9696 -0.5754  0.0530
 8201SOL    HW236237   2.318   4.360   3.923  1.9741  1.3389 -1.4390
 8202SOL     OW36238   3.169   1.843  17.153 -1.0205 -0.0771 -0.0743
 8202SOL    HW136239   3.080   1.822  17.181 -1.3726 -1.7477 -2.4174
 8202SOL    HW236240   3.187   1.767  17.098 -0.7359 -1.5561  2.0678
 8203SOL     OW36241   3.674   2.460   5.390 -0.1999 -0.4597  0.1141
 8203SOL    HW136242   3.742   2.521   5.420 -0.2195  0.3537 -1.4802
 8203SOL    HW236243   3.644   2.493   5.305 -0.7176 -1.3306 -0.0398
 8204SOL     OW36244   2.834   0.249   5.705 -0.3983  1.2254 -0.1376
 8204SOL    HW136245   2.882   0.166   5.708 -2.1239  0.2992  2.1168
 8204SOL    HW236246   2.803   0.237   5.615  0.5805  0.6847 -0.4103
 8205SOL     OW36247   2.604   3.037   2.777 -0.0971 -0.3922 -0.1604
 8205SOL    HW136248   2.647   3.025   2.862  1.6312 -2.1598 -1.2787
 8205SOL    HW236249   2.602   3.133   2.774  0.3125 -0.3114  2.2779
 8206SOL     OW36250   1.569   4.293   8.736  0.3311 -0.2655  0.5537
 8206SOL    HW136251   1.650   4.342   8.748  0.8042 -0.7131 -0.8579
 8206SOL    HW236252   1.502   4.314   8.801 -0.3782 -0.0320 -0.2461
 8207SOL     OW36253   1.112   3.066   2.765  0.1101  0.2840  0.5174
 8207SOL    HW136254   1.204   3.061   2.739 -0.2545 -1.0257 -0.5375
 8207SOL    HW236255   1.093   3.159   2.764 -0.3748  0.1644 -0.9556
 8208SOL     OW36256   1.636   1.857   6.991 -0.4789 -0.6594  0.5380
 8208SOL    HW136257   1.729   1.878   7.005  0.0726 -1.0661 -2.6082
 8208SOL    HW236258   1.636   1.880   6.898 -1.4929  0.2889  0.7677
 8209SOL     OW36259   4.174   0.592   7.261  0.0532 -0.1938  0.4309
 8209SOL    HW136260   4.102   0.638   7.305  0.0852  1.5684 -1.3500
 8209SOL    HW236261   4.127   0.539   7.196  1.2792 -0.3574 -0.3243
 8210SOL     OW36262   2.180   2.791   3.510 -0.3109  0.1911  0.0270
 8210SOL    HW136263   2.199   2.700   3.489  2.3508  0.7613 -0.0403
 8210SOL    HW236264   2.247   2.821   3.449  1.8335 -1.3735  1.6519
 8211SOL     OW36265   1.386   2.657  12.933  0.2718 -0.0410  0.1650
 8211SOL    HW136266   1.416   2.748  12.933 -0.9714  0.3717  0.8088
 8211SOL    HW236267   1.356   2.647  12.842  1.4268 -2.9956  0.1163
 8212SOL     OW36268   2.733   1.229  14.891  0.1348  0.0107 -0.0907
 8212SOL    HW136269   2.654   1.181  14.916 -0.6728  0.7892 -1.0831
 8212SOL    HW236270   2.702   1.270  14.810 -0.8373 -0.2876  0.1312
 8213SOL     OW36271   1.047   1.889   0.225 -0.2048 -0.3680 -0.2491
 8213SOL    HW136272   1.118   1.826   0.232 -0.7125 -0.8776  0.2292
 8213SOL    HW236273   1.090   1.974   0.238 -1.7082  0.2067  0.9480
 8214SOL     OW36274   1.999   4.581   9.293  0.5176  0.5536 -0.2331
 8214SOL    HW136275   1.949   4.520   9.348  0.0816  0.4930 -0.6968
 8214SOL    HW236276   2.076   4.587   9.350 -0.2481 -0.6049  0.9161
 8215SOL     OW36277   1.157   3.855   8.342 -0.0767 -0.2036  0.0211
 8215SOL    HW136278   1.075   3.862   8.293 -0.7933 -2.6230  0.8401
 8215SOL    HW236279   1.218   3.834   8.272  1.5245  4.4484  0.0235
 8216SOL     OW36280   3.383   3.886   1.688 -0.5702 -0.0982 -0.0661
 8216SOL    HW136281   3.403   3.792   1.698  0.1671 -0.0196 -0.8178
 8216SOL    HW236282   3.443   3.917   1.620  0.3819 -2.1881 -0.1829
 8217SOL     OW36283   0.165   4.029   9.197 -0.3868 -0.1550  0.0851
 8217SOL    HW136284   0.094   4.071   9.148  0.6751  1.4194 -0.1026
 8217SOL    HW236285   0.219   3.995   9.126 -2.4815 -1.6822 -0.7493
 8218SOL     OW36286   1.984   0.580   3.531 -0.0476  0.0320  0.2575
 8218SOL    HW136287   2.019   0.491   3.543 -3.4571 -1.3679 -0.0881
 8218SOL    HW236288   1.972   0.583   3.437 -1.5020 -1.4423  0.4078
 8219SOL     OW36289   4.255   2.398  13.826 -0.0451 -0.1118 -0.1326
 8219SOL    HW136290   4.178   2.454  13.817 -0.9759 -1.4401 -0.5435
 8219SOL    HW236291   4.209   2.314  13.826 -3.1657  1.5946  3.7718
 8220SOL     OW36292   1.428   2.603  15.836 -0.3137 -0.3711  0.3825
 8220SOL    HW136293   1.407   2.596  15.743  0.5016 -3.2258  0.4170
 8220SOL    HW236294   1.483   2.526  15.849 -0.0779  0.1081  2.3053
 8221SOL     OW36295   1.714   3.012   5.372 -0.0367  0.6715  0.2005
 8221SOL    HW136296   1.692   3.022   5.464  0.4541 -1.3274  0.5205
 8221SOL    HW236297   1.723   2.917   5.371  2.6710  0.9332 -0.0638
 8222SOL     OW36298   0.487   0.087   8.432  0.3038 -0.4870 -0.1756
 8222SOL    HW136299   0.523   0.127   8.353 -0.7127 -0.4490 -0.6257
 8222SOL    HW236300   0.563   0.035   8.458  0.1584  0.4380  2.0723
 8223SOL     OW36301   4.636   1.276   1.758  0.3592 -0.2984  0.1034
 8223SOL    HW136302   4.644   1.210   1.689  0.9550 -1.0313  0.8681
 8223SOL    HW236303   4.704   1.250   1.820 -1.1526 -1.4318  1.2818
 8224SOL     OW36304   3.254   0.165   4.101 -0.4805 -0.2718  0.3391
 8224SOL    HW136305   3.241   0.259   4.109  1.0971  0.0810 -1.3622
 8224SOL    HW236306   3.171   0.151   4.054  0.2660 -0.6641 -0.8487
 8225SOL     OW36307   0.593   0.479   7.574  0.4829  0.9241  0.3230
 8225SOL    HW136308   0.567   0.543   7.640  2.3315  0.9298  1.0320
 8225SOL    HW236309   0.535   0.406   7.596 -0.3070  1.7971  1.1285
 8226SOL     OW36310   3.523   0.948   2.341  0.1324  0.2399  0.4275
 8226SOL    HW136311   3.571   1.028   2.366 -0.3073  0.7023 -0.2020
 8226SOL    HW236312   3.539   0.898   2.421  2.2764  0.8039  0.3385
 8227SOL     OW36313   3.704   1.757   1.576 -0.5597  0.1476  0.0517
 8227SOL    HW136314   3.703   1.691   1.508  0.3592  0.3998 -0.2101
 8227SOL    HW236315   3.791   1.736   1.610 -1.2540  0.9211  2.3180
 8228SOL     OW36316   3.114   1.601   7.982  0.1171  0.1927 -0.0167
 8228SOL    HW136317   3.168   1.553   7.920 -1.3262  0.0711 -1.1912
 8228SOL    HW236318   3.056   1.654   7.926 -2.6052 -1.7364  0.9657
 8229SOL     OW36319   1.060   0.772   1.713 -0.0363  0.0983 -0.6770
 8229SOL    HW136320   0.965   0.761   1.719  0.1655 -1.2995  0.0739
 8229SOL    HW236321   1.068   0.866   1.725 -1.8196  0.0883  0.5339
 8230SOL     OW36322   3.169   3.389   4.667  0.1214 -0.2051  0.4715
 8230SOL    HW136323   3.253   3.344   4.672 -0.7648 -2.0116 -0.6957
 8230SOL    HW236324   3.178   3.430   4.581 -1.0371 -0.5826  0.1596
 8231SOL     OW36325   0.105   4.381   5.663 -0.1419  0.3395 -0.1759
 8231SOL    HW136326   0.194   4.393   5.697 -0.5733  1.7773  0.4636
 8231SOL    HW236327   0.067   4.343   5.743 -1.9958  1.8509 -0.3492
 8232SOL     OW36328   3.588   1.601   3.784  0.4039  0.2506 -0.1442
 8232SOL    HW136329   3.498   1.629   3.801  1.0060  1.3805  1.1444
 8232SOL    HW236330   3.589   1.508   3.809 -1.7277 -0.3886 -2.3732
 8233SOL     OW36331   2.927   1.672   5.479 -0.2954  0.2881  0.3195
 8233SOL    HW136332   2.831   1.676   5.476 -0.3350 -2.6324 -2.3789
 8233SOL    HW236333   2.942   1.621   5.399 -1.0672 -0.5432  0.6940
 8234SOL     OW36334   3.633   2.718   4.225  0.7646  0.2545 -0.2439
 8234SOL    HW136335   3.563   2.768   4.267 -0.0087 -0.2425 -0.9411
 8234SOL    HW236336   3.701   2.711   4.292 -0.9277 -0.7095  1.3884
 8235SOL     OW36337   4.178   0.154   4.447 -0.2267  0.1564  0.2173
 8235SOL    HW136338   4.223   0.070   4.448 -1.5781 -0.5620 -0.1116
 8235SOL    HW236339   4.244   0.195   4.503 -0.3718  2.6006 -1.3568
 8236SOL     OW36340   1.661   2.013   2.800 -0.0382  0.1464 -0.1251
 8236SOL    HW136341   1.631   2.079   2.863  2.5288  0.8377  0.3807
 8236SOL    HW236342   1.687   1.940   2.857 -0.0763  1.1394  1.1735
 8237SOL     OW36343   3.205   1.357  12.876  0.8949 -0.1512 -0.3418
 8237SOL    HW136344   3.270   1.388  12.940  1.4858 -0.7668 -0.6503
 8237SOL    HW236345   3.253   1.359  12.793  0.6696 -0.6072 -0.4819
 8238SOL     OW36346   3.473   1.056  10.149  0.0770  0.3519 -0.0208
 8238SOL    HW136347   3.566   1.061  10.128 -0.0226  0.1129 -0.5211
 8238SOL    HW236348   3.463   0.961  10.151  0.7654  0.2544 -1.1684
 8239SOL     OW36349   1.124   2.102   8.977 -0.0717 -0.3132  0.1049
 8239SOL    HW136350   1.068   2.054   9.039  2.8871 -4.3832 -0.3497
 8239SOL    HW236351   1.143   2.016   8.939 -1.8748  0.5034 -2.6595
 8240SOL     OW36352   0.254   4.589   4.751  0.1573 -0.1162  0.0878
 8240SOL    HW136353   0.341   4.567   4.783 -0.2058 -0.9896  0.4719
 8240SOL    HW236354   0.269   4.583   4.657  0.7977  2.5015  0.0151
 8241SOL     OW36355   3.743   4.495   5.116 -0.1140  0.2366 -0.0043
 8241SOL    HW136356   3.798   4.519   5.190 -1.5384 -0.7299  1.3695
 8241SOL    HW236357   3.730   4.403   5.139 -0.2230  0.9116  2.5492
 8242SOL     OW36358   2.970   0.114   8.515  0.1488  0.3718 -0.3162
 8242SOL    HW136359   2.906   0.043   8.513  0.1382  0.4630 -3.2522
 8242SOL    HW236360   3.051   0.065   8.503 -0.0310  0.0158 -0.0637
 8243SOL     OW36361   0.915   0.821   2.190 -0.6485 -0.6737 -0.1455
 8243SOL    HW136362   0.823   0.800   2.172 -0.4105 -0.0677 -2.0078
 8243SOL    HW236363   0.926   0.802   2.283 -0.5516  1.8809  0.3690
 8244SOL     OW36364   4.145   1.130  15.554  0.1881  0.0951  0.3281
 8244SOL    HW136365   4.085   1.204  15.558 -0.2815 -0.3952  2.4595
 8244SOL    HW236366   4.080   1.060  15.558 -1.3642  1.5955  1.1257
 8245SOL     OW36367   3.179   4.357   0.825  0.5503  0.4442  0.0932
 8245SOL    HW136368   3.252   4.308   0.861 -0.7883  0.3620  2.7063
 8245SOL    HW236369   3.105   4.328   0.878 -0.4651  0.8285 -1.1050
 8246SOL     OW36370   4.547   1.576   5.497 -0.4317  0.1804  0.3293
 8246SOL    HW136371   4.615   1.538   5.553 -0.3852 -2.3667 -1.4503
 8246SOL    HW236372   4.508   1.636   5.561  0.7947 -0.4669  1.6837
 8247SOL     OW36373   2.009   3.570   1.949  0.8914 -0.4135 -0.2026
 8247SOL    HW136374   1.963   3.644   1.989  1.2368  0.4426 -1.3832
 8247SOL    HW236375   2.043   3.626   1.878  0.0294  1.9709  1.2513
 8248SOL     OW36376   0.956   3.088   0.705  0.1092  1.1616 -0.4250
 8248SOL    HW136377   1.035   3.041   0.680  0.6045  0.7431  1.9386
 8248SOL    HW236378   0.951   3.159   0.641 -2.1580  1.7027  0.3536
 8249SOL     OW36379   4.321   1.678   6.944  1.2899  0.1093  0.0923
 8249SOL    HW136380   4.279   1.630   7.016 -0.1058 -1.1242 -1.5574
 8249SOL    HW236381   4.268   1.675   6.865 -0.2104  1.3364  1.0294
 8250SOL     OW36382   4.338   0.188   8.086  0.4366 -0.1837 -0.3097
 8250SOL    HW136383   4.390   0.164   8.162 -0.1228  0.1309  0.1731
 8250SOL    HW236384   4.248   0.181   8.119  0.6606 -1.5721 -0.0082
 8251SOL     OW36385   0.256   0.771  11.531 -0.2038 -0.3819  0.6131
 8251SOL    HW136386   0.194   0.710  11.570 -1.1124 -0.0459 -0.2992
 8251SOL    HW236387   0.252   0.844  11.594  0.7361 -0.4801  0.7860
 8252SOL     OW36388   2.093   4.603   2.207 -0.6179  0.1496  0.5544
 8252SOL    HW136389   2.133   4.671   2.153 -0.6146 -1.4234 -1.4235
 8252SOL    HW236390   2.003   4.630   2.224 -1.6337 -1.9224 -1.3950
 8253SOL     OW36391   0.526   0.704   7.736 -0.2277  0.2123 -0.7457
 8253SOL    HW136392   0.551   0.742   7.651 -0.2991  0.1662 -0.7872
 8253SOL    HW236393   0.563   0.769   7.797  1.3781 -2.4345  1.0831
 8254SOL     OW36394   0.965   0.503  10.555 -0.3120 -0.0425  0.0199
 8254SOL    HW136395   1.057   0.530  10.549 -0.7366  1.3872 -0.1534
 8254SOL    HW236396   0.923   0.589  10.554  1.2536  0.7316  0.3821
 8255SOL     OW36397   2.404   1.044   5.151  0.0602 -0.1771  0.4393
 8255SOL    HW136398   2.364   1.034   5.065  3.7815 -1.0344 -1.1902
 8255SOL    HW236399   2.333   1.057   5.213 -0.8908 -3.1788 -0.0529
 8256SOL     OW36400   2.586   4.692   6.190 -0.0012  0.6172  0.1889
 8256SOL    HW136401   2.514   4.669   6.130 -0.8248 -0.1018  1.4455
 8256SOL    HW236402   2.541   0.001   6.261  1.3035  0.6672  0.9725
 8257SOL     OW36403   3.336   0.239   7.674  0.0913 -0.2772 -0.4802
 8257SOL    HW136404   3.353   0.149   7.701  1.8046 -0.2356 -1.4335
 8257SOL    HW236405   3.242   0.236   7.694  0.3633 -0.4951  0.7737
 8258SOL     OW36406   0.830   0.317  10.398  0.1114 -0.0508  0.1173
 8258SOL    HW136407   0.740   0.349  10.404 -0.0466 -0.9943  3.2143
 8258SOL    HW236408   0.871   0.374  10.463  1.1464 -1.2375  0.4965
 8259SOL     OW36409   1.748   3.358   4.967 -0.7339 -0.7681 -0.1826
 8259SOL    HW136410   1.805   3.405   4.905 -0.6641  1.4875  1.6001
 8259SOL    HW236411   1.748   3.404   5.051 -0.3674  0.8132 -1.0477
 8260SOL     OW36412   2.542   3.544  11.549 -0.2157  0.0448  0.3403
 8260SOL    HW136413   2.551   3.504  11.636  3.6037 -0.6822 -0.3993
 8260SOL    HW236414   2.447   3.538  11.547 -0.3065  1.6006 -0.3403
 8261SOL     OW36415   1.823   1.602   3.244  0.5954 -0.4424 -0.0159
 8261SOL    HW136416   1.756   1.603   3.175  2.2697  1.5814 -1.5928
 8261SOL    HW236417   1.864   1.519   3.219  3.6403  1.3461 -0.9392
 8262SOL     OW36418   0.681   0.419   6.896 -0.4339  0.3417  0.6959
 8262SOL    HW136419   0.713   0.401   6.984  3.0822  1.2782 -0.3785
 8262SOL    HW236420   0.704   0.338   6.851  0.1128  0.5218  0.6461
 8263SOL     OW36421   4.073   2.921  12.766  0.3378 -0.3844  0.2742
 8263SOL    HW136422   3.992   2.875  12.746 -0.0981  0.4235  0.1889
 8263SOL    HW236423   4.100   2.880  12.848  0.5312  0.7154  0.7605
 8264SOL     OW36424   3.950   2.686  16.993  0.3119 -0.2624 -0.1772
 8264SOL    HW136425   3.927   2.599  16.960 -0.9876 -1.0726  2.8121
 8264SOL    HW236426   4.045   2.682  17.003 -0.0115 -1.8457  2.1463
 8265SOL     OW36427   2.071   0.015   1.123  0.6154  0.0924  0.3568
 8265SOL    HW136428   2.115   0.025   1.039 -0.5823 -1.3101 -0.4247
 8265SOL    HW236429   1.985   4.715   1.108  0.9366 -0.1119 -0.9599
 8266SOL     OW36430   1.810   3.592  15.144  0.0177  0.0656 -0.1549
 8266SOL    HW136431   1.725   3.583  15.188  1.3855  2.2556  2.9305
 8266SOL    HW236432   1.836   3.678  15.176  1.7636 -0.8634  0.8754
 8267SOL     OW36433   2.621   3.183   6.950  0.2338 -0.3777  0.0835
 8267SOL    HW136434   2.651   3.099   6.915  0.2442 -0.5136  0.4193
 8267SOL    HW236435   2.703   3.221   6.980 -0.3315  1.4211 -0.6757
 8268SOL     OW36436   1.227   2.557   3.949 -0.4948 -1.1494  0.0486
 8268SOL    HW136437   1.299   2.563   3.887 -0.5287  2.7720  0.4115
 8268SOL    HW236438   1.258   2.492   4.013 -1.0778 -0.4553  1.0493
 8269SOL     OW36439   1.182   1.599   4.325 -0.1868 -0.4759 -0.1014
 8269SOL    HW136440   1.117   1.533   4.352 -1.5157  0.2470 -1.4770
 8269SOL    HW236441   1.214   1.558   4.245  1.1770  0.2394  0.0896
 8270SOL     OW36442   0.619   2.105   2.710  0.1834 -0.1495  0.0969
 8270SOL    HW136443   0.589   2.061   2.630 -1.9900  1.9778 -0.2774
 8270SOL    HW236444   0.665   2.179   2.670 -2.2188  0.2078 -2.0553
 8271SOL     OW36445   2.978   2.732  11.532 -0.0872 -0.2043  0.2633
 8271SOL    HW136446   2.981   2.637  11.516 -1.9795 -0.9352  4.3607
 8271SOL    HW236447   2.888   2.744  11.561 -0.1751 -1.7943  0.6563
 8272SOL     OW36448   1.819   0.117   6.894  0.0073 -0.0649 -0.9856
 8272SOL    HW136449   1.817   0.062   6.972 -0.5714 -0.3781 -1.2228
 8272SOL    HW236450   1.789   0.201   6.930  0.9441  0.3850 -1.2557
 8273SOL     OW36451   1.003   2.528   2.662 -0.6104  0.4491  0.5248
 8273SOL    HW136452   1.070   2.592   2.686  0.5357 -0.5410 -0.0296
 8273SOL    HW236453   0.938   2.535   2.731  1.0069  1.3671  1.9526
 8274SOL     OW36454   3.627   2.406  11.676  0.3085  0.2906  0.2004
 8274SOL    HW136455   3.553   2.349  11.655  0.2847  0.5614 -0.4541
 8274SOL    HW236456   3.629   2.466  11.601 -0.9123  2.1239  1.6129
 8275SOL     OW36457   4.162   3.659  11.790  0.1803 -0.4402  0.1063
 8275SOL    HW136458   4.217   3.730  11.757 -0.6544 -0.6656 -1.7334
 8275SOL    HW236459   4.207   3.585  11.750  0.8702 -0.8822  1.6988
 8276SOL     OW36460   2.396   3.574   9.829  0.5832 -0.5278  0.0464
 8276SOL    HW136461   2.450   3.614   9.896  1.4097  3.6113 -3.0985
 8276SOL    HW236462   2.445   3.499   9.793 -1.0507  1.3614 -6.1474
 8277SOL     OW36463   2.876   1.987   5.940  0.1937 -0.4281 -0.0689
 8277SOL    HW136464   2.934   2.040   5.886  0.5820  1.0174  1.7930
 8277SOL    HW236465   2.798   2.043   5.938  0.2307 -0.4391 -2.2826
 8278SOL     OW36466   2.060   3.498  14.997 -0.4722  0.2479 -0.3405
 8278SOL    HW136467   2.096   3.434  15.057  1.4908  2.4188  0.7894
 8278SOL    HW236468   2.066   3.572  15.058  1.5476  0.0787 -0.3588
 8279SOL     OW36469   4.394   3.369  17.119  0.1167 -0.4754 -0.5521
 8279SOL    HW136470   4.406   3.275  17.105 -2.1178 -1.2439  2.6834
 8279SOL    HW236471   4.453   3.399  17.050  1.1859  0.5902  0.8507
 8280SOL     OW36472   3.813   4.484   2.904 -0.5670 -0.2592 -0.4178
 8280SOL    HW136473   3.903   4.517   2.899 -1.0672  0.7175 -2.9599
 8280SOL    HW236474   3.806   4.438   2.820 -1.8999  1.4219 -1.2288
 8281SOL     OW36475   3.853   3.575   4.526  0.8766  0.6425 -0.3904
 8281SOL    HW136476   3.810   3.660   4.543  2.3758  1.2272  0.4402
 8281SOL    HW236477   3.805   3.547   4.448  0.9685 -0.6802  0.0368
 8282SOL     OW36478   0.143   3.077   1.522 -0.1430 -0.0628  0.1622
 8282SOL    HW136479   0.156   3.093   1.616  0.3853  0.3475  0.0195
 8282SOL    HW236480   0.066   3.132   1.512  0.2886  0.4576 -0.3221
 8283SOL     OW36481   1.905   2.616   7.669 -0.1076  0.4421  0.1452
 8283SOL    HW136482   1.987   2.637   7.714 -0.8197 -0.1708  1.7183
 8283SOL    HW236483   1.923   2.532   7.627  0.8643  2.0975 -2.7521
 8284SOL     OW36484   0.945   4.545   8.705  0.1896 -0.0342 -0.2378
 8284SOL    HW136485   0.989   4.555   8.621  2.0012 -0.6094  0.6577
 8284SOL    HW236486   1.000   4.477   8.742  0.1542  1.8163  3.2577
 8285SOL     OW36487   4.009   2.337   4.995 -0.0424  0.5046 -0.6798
 8285SOL    HW136488   4.074   2.269   4.980  0.3464  0.6437  0.3365
 8285SOL    HW236489   4.055   2.409   5.038  0.2921  0.1814 -0.4890
 8286SOL     OW36490   0.826   3.367   2.877 -0.5107 -0.1810 -0.3715
 8286SOL    HW136491   0.864   3.344   2.962 -1.2013 -1.2979 -0.3651
 8286SOL    HW236492   0.805   3.459   2.894 -1.3436 -0.2900 -0.8481
 8287SOL     OW36493   0.443   1.975  17.510 -0.1374 -0.9669 -0.4730
 8287SOL    HW136494   0.511   1.972  17.443  1.6479 -0.8890  1.3563
 8287SOL    HW236495   0.482   2.024  17.581 -3.3965  0.8354  0.0602
 8288SOL     OW36496   2.700   3.665   7.951  0.1627  0.3429 -0.1467
 8288SOL    HW136497   2.758   3.725   7.997 -0.4962  1.4519 -0.7416
 8288SOL    HW236498   2.634   3.653   8.020 -1.3516 -1.2796 -1.8530
 8289SOL     OW36499   0.680   2.310  15.087 -0.0516 -0.4013 -0.1940
 8289SOL    HW136500   0.621   2.292  15.160 -0.2642 -0.9560 -0.5097
 8289SOL    HW236501   0.649   2.400  15.075 -0.7846 -0.3543  2.0181
 8290SOL     OW36502   3.798   2.350   4.319 -0.0443 -0.3852  0.2958
 8290SOL    HW136503   3.787   2.444   4.305  2.7744  0.1190  1.4976
 8290SOL    HW236504   3.800   2.319   4.228  1.3354 -2.4867  1.0342
 8291SOL     OW36505   0.580   2.955   5.555 -0.3918  0.4180  0.5117
 8291SOL    HW136506   0.660   2.908   5.581 -0.1223  0.1184 -0.8785
 8291SOL    HW236507   0.517   2.885   5.567  1.1651 -1.1350 -0.4504
 8292SOL     OW36508   3.530   1.693   7.997  0.7161 -0.0987  0.5349
 8292SOL    HW136509   3.486   1.617   8.035 -0.1182 -1.5495 -3.3624
 8292SOL    HW236510   3.520   1.673   7.904 -2.0253 -0.8812  0.9951
 8293SOL     OW36511   1.057   1.276   4.896  0.4319 -0.1161 -0.3718
 8293SOL    HW136512   1.073   1.187   4.929  0.0545 -0.5780 -1.4272
 8293SOL    HW236513   0.963   1.278   4.914  0.5937  2.9175  0.1120
 8294SOL     OW36514   3.251   4.073   5.345  0.3565  0.6245 -0.3107
 8294SOL    HW136515   3.330   4.051   5.395  0.6941  1.3103 -0.5478
 8294SOL    HW236516   3.202   4.121   5.412  2.0433  1.4114  0.3459
 8295SOL     OW36517   4.281   0.204   0.796 -0.1172  0.3668 -0.4013
 8295SOL    HW136518   4.358   0.234   0.843 -0.0837  1.5127 -1.1771
 8295SOL    HW236519   4.217   0.235   0.860  0.0534 -0.7607  0.3102
 8296SOL     OW36520   1.561   4.674   6.317 -0.4060 -0.2478  0.5661
 8296SOL    HW136521   1.518   4.694   6.234  3.6240 -4.0692 -2.3989
 8296SOL    HW236522   1.515   4.603   6.361  1.6910 -0.8767  1.7386
 8297SOL     OW36523   3.642   4.328   8.444 -0.4301 -0.0661 -0.1120
 8297SOL    HW136524   3.724   4.371   8.471 -0.9243 -0.4199  1.9398
 8297SOL    HW236525   3.575   4.395   8.432  1.7437  2.1519  0.0487
 8298SOL     OW36526   0.062   2.033   6.406 -0.1073  0.1955 -0.2801
 8298SOL    HW136527   0.107   2.117   6.413 -0.1860  0.3645 -1.8051
 8298SOL    HW236528   0.137   1.978   6.428  1.4276  1.7762 -1.5344
 8299SOL     OW36529   0.883   1.498  16.341  0.2554  0.2279  0.0559
 8299SOL    HW136530   0.841   1.432  16.396 -2.0980  1.1270 -0.7008
 8299SOL    HW236531   0.972   1.490  16.377 -0.6062 -0.0704  2.1153
 8300SOL     OW36532   3.402   1.454   2.815  0.1865  0.0249  0.2394
 8300SOL    HW136533   3.404   1.476   2.722  0.0568 -0.7450  0.0539
 8300SOL    HW236534   3.465   1.382   2.822  0.4005  0.2184  0.2912
 8301SOL     OW36535   1.528   2.743   4.503  0.0548  0.9739 -0.1312
 8301SOL    HW136536   1.535   2.819   4.561  0.8228  0.1988  0.8033
 8301SOL    HW236537   1.539   2.669   4.564 -0.7773 -1.3042 -2.7653
 8302SOL     OW36538   3.467   4.042   6.579  0.4879 -0.4313 -0.0600
 8302SOL    HW136539   3.393   3.997   6.538 -0.1098  0.9294 -0.4802
 8302SOL    HW236540   3.502   3.985   6.647  1.2230 -0.9453 -0.8695
 8303SOL     OW36541   4.465   3.496   0.002  0.1765 -0.0246 -0.4055
 8303SOL    HW136542   4.406   3.485  17.677  0.3222  2.1154 -0.8530
 8303SOL    HW236543   4.542   3.442  17.734  0.3372 -0.3750  1.4588
 8304SOL     OW36544   1.978   0.659   2.681  0.5035 -0.2347  1.0924
 8304SOL    HW136545   2.026   0.742   2.673  0.3548 -0.0486  2.0813
 8304SOL    HW236546   2.002   0.631   2.769 -0.4119  0.8482  1.7011
 8305SOL     OW36547   3.343   0.486   1.887 -0.0352  0.9878 -0.2200
 8305SOL    HW136548   3.294   0.517   1.964 -0.5097  0.2213 -0.2151
 8305SOL    HW236549   3.432   0.498   1.918 -0.0051  0.7737 -0.2252
 8306SOL     OW36550   0.043   0.736   3.173 -0.0213  0.3998 -0.1111
 8306SOL    HW136551   4.736   0.795   3.113 -2.2706 -1.9814 -0.7392
 8306SOL    HW236552   0.004   0.760   3.257 -2.2165  0.4640 -1.1609
 8307SOL     OW36553   1.927   2.940  10.756  0.3872  0.3781  0.0585
 8307SOL    HW136554   1.905   2.847  10.765  0.7484  0.0967 -1.9193
 8307SOL    HW236555   1.837   2.968  10.743 -0.0510 -0.6172  0.9687
 8308SOL     OW36556   3.758   0.982   4.052 -0.3064  0.5063  0.0930
 8308SOL    HW136557   3.823   0.930   4.099 -1.2704  0.4441  1.3624
 8308SOL    HW236558   3.692   0.987   4.121  0.5899  2.4592  0.7771
 8309SOL     OW36559   4.226   0.533  15.565  0.5263 -0.0774  0.4133
 8309SOL    HW136560   4.265   0.530  15.478 -1.5359  1.1818 -0.5541
 8309SOL    HW236561   4.170   0.455  15.561  0.6479 -0.0275 -2.2367
 8310SOL     OW36562   1.517   2.715   5.288 -0.1218  0.8675 -0.2379
 8310SOL    HW136563   1.552   2.627   5.296 -2.4168 -0.2248 -2.3971
 8310SOL    HW236564   1.544   2.725   5.197 -0.6161  0.6846 -0.4021
 8311SOL     OW36565   3.739   1.712  10.827  0.3444 -0.5613 -0.7964
 8311SOL    HW136566   3.688   1.693  10.749  1.5975 -1.1532 -1.4618
 8311SOL    HW236567   3.703   1.646  10.886 -0.1836 -1.3852 -2.0439
 8312SOL     OW36568   3.831   2.189   8.122  0.6816 -0.4595  0.1389
 8312SOL    HW136569   3.840   2.274   8.165 -1.0425 -0.1043 -0.2088
 8312SOL    HW236570   3.781   2.145   8.190 -1.1437  0.8163 -0.3762
 8313SOL     OW36571   1.980   2.092   8.624 -0.3413 -0.0532 -0.2990
 8313SOL    HW136572   1.999   2.031   8.696  1.1125 -3.9850 -3.9890
 8313SOL    HW236573   1.935   2.027   8.570 -0.7873 -1.4327  1.7248
 8314SOL     OW36574   0.235   3.487   7.347  0.4680 -0.2337  0.6948
 8314SOL    HW136575   0.308   3.471   7.406  0.8551 -1.9246 -0.2475
 8314SOL    HW236576   0.283   3.533   7.278 -1.6816  1.2885  0.2024
 8315SOL     OW36577   3.402   3.977   2.984 -0.3408 -0.0893  0.3220
 8315SOL    HW136578   3.364   3.962   2.897  0.8782 -0.6009 -0.1169
 8315SOL    HW236579   3.487   4.014   2.962  0.7881 -3.7133 -1.4796
 8316SOL     OW36580   1.927   1.163   2.121 -0.2271 -0.6214  0.0951
 8316SOL    HW136581   1.921   1.167   2.026 -0.6305  0.0508  0.1450
 8316SOL    HW236582   1.833   1.170   2.140 -0.2196  2.0229 -0.7364
 8317SOL     OW36583   0.486   2.173   2.177 -0.1943 -0.1718  0.0843
 8317SOL    HW136584   0.511   2.082   2.163 -0.0355 -0.3580  1.5892
 8317SOL    HW236585   0.563   2.214   2.216  0.1209 -2.2488  1.6021
 8318SOL     OW36586   4.327   4.379   2.078 -0.1482 -0.0076  0.2216
 8318SOL    HW136587   4.349   4.295   2.037 -1.1218  0.0528 -0.4357
 8318SOL    HW236588   4.414   4.395   2.113  0.1306 -2.0170  0.4563
 8319SOL     OW36589   0.585   0.533  11.714  0.1926 -0.0713 -0.1628
 8319SOL    HW136590   0.617   0.442  11.715 -3.5084 -1.3665  1.6009
 8319SOL    HW236591   0.517   0.531  11.781  1.8181  0.9552  1.5342
 8320SOL     OW36592   0.559   3.803   7.951  0.5986 -0.5434  0.5373
 8320SOL    HW136593   0.549   3.867   8.021  0.5063  0.4966 -0.4209
 8320SOL    HW236594   0.501   3.734   7.986 -0.3463  0.9465  1.8975
 8321SOL     OW36595   0.803   1.345   3.143  0.2542  0.5525 -0.1579
 8321SOL    HW136596   0.827   1.253   3.128  1.5958  0.6040  1.6394
 8321SOL    HW236597   0.885   1.380   3.111  0.9982 -1.4544 -0.4610
 8322SOL     OW36598   1.529   1.380   5.179  0.1561 -0.3294 -0.0078
 8322SOL    HW136599   1.520   1.422   5.264 -1.8082 -1.8597  0.5551
 8322SOL    HW236600   1.491   1.292   5.187  1.5916 -0.9672 -0.3073
 8323SOL     OW36601   0.665   4.124  12.357 -0.1870  0.3520 -0.2911
 8323SOL    HW136602   0.652   4.140  12.450 -2.0664  1.2862 -0.7090
 8323SOL    HW236603   0.710   4.043  12.381 -0.1927 -0.1743 -2.0360
 8324SOL     OW36604   4.110   3.685   0.877 -0.2184  0.1580 -0.3497
 8324SOL    HW136605   4.047   3.670   0.807 -0.9361  1.3597  0.0382
 8324SOL    HW236606   4.175   3.618   0.858  0.3055 -0.3027  3.0878
 8325SOL     OW36607   1.900   2.724   8.288 -0.1837  0.9636 -0.6733
 8325SOL    HW136608   1.853   2.742   8.369 -0.8889 -0.9223 -0.6634
 8325SOL    HW236609   1.908   2.813   8.255 -1.2745  0.9793 -0.9026
 8326SOL     OW36610   4.561   0.730  15.580 -0.3914  0.0889  0.1057
 8326SOL    HW136611   4.524   0.678  15.509 -2.4022  0.9333  0.5269
 8326SOL    HW236612   4.479   0.776  15.601  0.3217  1.5727 -0.3171
 8327SOL     OW36613   1.865   3.584   8.585 -0.5904  0.4446 -0.2482
 8327SOL    HW136614   1.802   3.655   8.571  0.1966  1.1854 -0.0251
 8327SOL    HW236615   1.950   3.626   8.576 -0.4739  0.6516  1.8949
 8328SOL     OW36616   3.578   0.666   3.905 -0.4057 -0.1768  0.0484
 8328SOL    HW136617   3.509   0.607   3.935 -0.4768 -2.0255 -3.8095
 8328SOL    HW236618   3.650   0.648   3.964  0.3558  0.3970 -0.7077
 8329SOL     OW36619   2.832   3.709   3.927  0.5158  0.3431 -0.1763
 8329SOL    HW136620   2.836   3.695   4.022 -1.1561  3.3610  0.3513
 8329SOL    HW236621   2.920   3.740   3.907 -0.3312  2.2622 -0.9386
 8330SOL     OW36622   2.142   4.536  13.034  0.4853  0.5784  0.4272
 8330SOL    HW136623   2.119   4.454  12.989  1.1879  0.9924 -0.6741
 8330SOL    HW236624   2.119   4.596  12.963  0.3243  0.0737  0.0561
 8331SOL     OW36625   0.053   1.938   4.659  0.7378 -0.1029  0.1989
 8331SOL    HW136626   4.720   1.915   4.719  1.5229 -0.9286  0.7867
 8331SOL    HW236627   0.100   1.855   4.667 -0.2911 -0.8406 -1.3371
 8332SOL     OW36628   1.165   2.135  14.970  0.5202 -0.0770 -0.3668
 8332SOL    HW136629   1.178   2.212  14.914  2.3666 -0.9101 -1.0730
 8332SOL    HW236630   1.072   2.136  14.991  0.2777 -0.3715 -1.4328
 8333SOL     OW36631   0.181   0.529   2.519 -0.1681  0.1799  0.1106
 8333SOL    HW136632   0.182   0.447   2.568  1.3675  0.2759  0.2300
 8333SOL    HW236633   0.223   0.499   2.438  0.9077  0.2701  0.6410
 8334SOL     OW36634   2.761   4.300  12.934 -0.4728  0.3491 -0.0322
 8334SOL    HW136635   2.808   4.265  13.010 -0.4522  0.0370 -0.1861
 8334SOL    HW236636   2.715   4.379  12.961 -0.8166  0.0086  0.3819
 8335SOL     OW36637   3.877   4.249   4.387  0.0140 -0.7165 -1.0741
 8335SOL    HW136638   3.823   4.229   4.464  0.5376  1.5914 -0.1050
 8335SOL    HW236639   3.876   4.345   4.388 -0.7021 -0.7555  1.9826
 8336SOL     OW36640   1.292   3.259  11.178 -0.5906 -0.4926 -0.5332
 8336SOL    HW136641   1.262   3.242  11.090 -2.2939  0.2539 -0.0969
 8336SOL    HW236642   1.275   3.353  11.187  0.2724 -0.3736 -0.0939
 8337SOL     OW36643   0.983   0.013   7.767 -0.4981 -0.1439  0.4111
 8337SOL    HW136644   0.890   0.008   7.745 -0.3501  1.5102 -0.5993
 8337SOL    HW236645   1.012   0.077   7.702 -1.4976 -0.7031 -0.5923
 8338SOL     OW36646   4.091   3.466   0.550 -0.2844  0.0989  0.7569
 8338SOL    HW136647   4.092   3.374   0.576  2.4764 -0.7188 -2.2728
 8338SOL    HW236648   4.179   3.474   0.514 -0.3278 -1.4051  0.3042
 8339SOL     OW36649   1.136   1.752   7.007  0.7220 -0.4399  0.2493
 8339SOL    HW136650   1.047   1.753   7.043  0.1536  0.1465 -1.1778
 8339SOL    HW236651   1.164   1.828   7.059  1.7562 -0.3179 -0.4935
 8340SOL     OW36652   2.698   0.804  16.631  0.6967 -0.6509  0.0733
 8340SOL    HW136653   2.732   0.801  16.720 -1.3019  2.3382  0.9095
 8340SOL    HW236654   2.775   0.768  16.587  0.2943  0.0508 -1.2033
 8341SOL     OW36655   2.415   2.060   9.242 -0.8238  0.2685 -0.6120
 8341SOL    HW136656   2.477   2.067   9.169 -1.9786 -2.3671 -1.8163
 8341SOL    HW236657   2.472   2.104   9.305 -0.2332 -4.9940  2.5293
 8342SOL     OW36658   4.609   3.319   3.414 -0.9319 -0.0559  0.2344
 8342SOL    HW136659   4.635   3.298   3.504  0.2806  0.6998  0.0635
 8342SOL    HW236660   4.616   3.234   3.372 -1.4595  0.1917 -0.3505
 8343SOL     OW36661   4.064   0.258  10.169 -0.0772  0.4473 -0.2341
 8343SOL    HW136662   3.985   0.296  10.207 -0.5679  0.7989 -1.5877
 8343SOL    HW236663   4.102   0.333  10.122  0.4102  0.1608 -0.2931
 8344SOL     OW36664   1.206   0.228   5.241  0.5381 -0.1527 -0.0133
 8344SOL    HW136665   1.112   0.245   5.236  0.6324 -0.0472 -1.6521
 8344SOL    HW236666   1.237   0.303   5.189 -1.1638  0.1107 -0.6424
 8345SOL     OW36667   3.587   1.859   9.344 -0.3515 -0.3698  0.2421
 8345SOL    HW136668   3.571   1.811   9.425  0.2707 -0.9806  0.0172
 8345SOL    HW236669   3.583   1.784   9.284  1.4210 -0.4399  0.2087
 8346SOL     OW36670   0.742   2.401   1.049  0.6853  0.1860 -0.2843
 8346SOL    HW136671   0.801   2.333   1.081 -0.8923 -0.3046  1.6190
 8346SOL    HW236672   0.680   2.404   1.122  0.9716 -0.6426 -0.0074
 8347SOL     OW36673   0.988   0.401   5.178 -0.4354  0.0020  0.0100
 8347SOL    HW136674   0.956   0.455   5.106 -0.3741 -1.2278 -0.9326
 8347SOL    HW236675   0.919   0.418   5.242  0.3692 -1.0055  1.1528
 8348SOL     OW36676   1.478   3.678   6.604 -0.2772  0.1800 -0.3189
 8348SOL    HW136677   1.519   3.627   6.675 -2.8272 -2.7237 -0.9011
 8348SOL    HW236678   1.508   3.769   6.604 -1.9274  0.7282  1.3587
 8349SOL     OW36679   4.316   0.913   6.248 -0.6238 -0.2035  0.1172
 8349SOL    HW136680   4.362   0.897   6.330 -1.0214  0.9510  0.5638
 8349SOL    HW236681   4.385   0.935   6.186 -1.0786  1.3059  0.1360
 8350SOL     OW36682   0.053   2.917  11.573  0.1546 -0.3303 -0.5301
 8350SOL    HW136683   4.712   2.884  11.531 -0.0701 -2.2601  1.3783
 8350SOL    HW236684   0.095   2.839  11.611 -1.2110 -1.2426 -0.8993
 8351SOL     OW36685   4.604   0.200   5.905  0.2746  0.3531  0.0562
 8351SOL    HW136686   4.540   0.182   5.973 -0.2785  2.5642  0.1058
 8351SOL    HW236687   4.590   0.123   5.850  0.7940 -0.4271  1.0265
 8352SOL     OW36688   3.037   2.663   6.911  0.4241  0.1427 -0.3206
 8352SOL    HW136689   2.962   2.607   6.890 -0.7006  1.9626 -1.1604
 8352SOL    HW236690   3.033   2.717   6.832  0.1939 -1.2828 -1.2783
 8353SOL     OW36691   4.443   4.731   6.748 -0.1719 -0.7591 -0.4916
 8353SOL    HW136692   4.350   4.708   6.753 -0.7353  0.8129 -3.6241
 8353SOL    HW236693   4.479   4.648   6.778  0.5242  0.0776  0.9664
 8354SOL     OW36694   4.017   1.941   1.355 -0.5034 -0.3204 -0.0895
 8354SOL    HW136695   3.993   1.879   1.286 -3.9460  0.0923  0.7069
 8354SOL    HW236696   4.099   1.902   1.383 -0.3615  1.7970  2.4296
 8355SOL     OW36697   3.198   2.433  13.425  0.2953  0.5863 -0.4821
 8355SOL    HW136698   3.142   2.448  13.501  1.8283  1.4103  0.4768
 8355SOL    HW236699   3.282   2.464  13.458 -0.2310 -0.3768  1.7552
 8356SOL     OW36700   0.586   0.282   8.262  0.0292 -0.3384 -0.9080
 8356SOL    HW136701   0.504   0.325   8.239  0.1329  0.0427 -0.5695
 8356SOL    HW236702   0.651   0.332   8.214 -1.6204  1.6901 -1.0416
 8357SOL     OW36703   3.591   1.125   0.071  0.4040 -0.3144 -0.4076
 8357SOL    HW136704   3.677   1.168   0.068  1.3409 -2.1546 -0.3259
 8357SOL    HW236705   3.589   1.110  17.725  1.9540 -1.0756 -0.3234
 8358SOL     OW36706   0.875   3.684   8.221  0.4952 -0.0066 -0.4066
 8358SOL    HW136707   0.803   3.623   8.203  0.3510  0.1397 -0.3327
 8358SOL    HW236708   0.870   3.710   8.313  0.9210  1.0337 -0.6716
 8359SOL     OW36709   2.015   1.898  14.554  0.4024  0.0876  0.2097
 8359SOL    HW136710   1.982   1.825  14.606 -0.3697  1.8452  2.2039
 8359SOL    HW236711   2.062   1.951  14.618 -0.3053 -1.5239  2.0868
 8360SOL     OW36712   0.543   0.530   9.299  0.6103 -0.5025  0.0728
 8360SOL    HW136713   0.487   0.459   9.332  0.0488 -0.4666 -0.8017
 8360SOL    HW236714   0.632   0.505   9.326  1.4403 -1.3604 -3.4585
 8361SOL     OW36715   0.261   3.972   5.949 -0.0507 -0.0865 -0.0011
 8361SOL    HW136716   0.255   3.897   5.890 -0.8029 -0.5431  0.6529
 8361SOL    HW236717   0.354   3.988   5.933 -0.0447  0.9717  1.1015
 8362SOL     OW36718   2.635   3.429   4.989  0.2763 -0.1447  0.3894
 8362SOL    HW136719   2.705   3.417   4.924 -0.5191 -3.1157  0.0906
 8362SOL    HW236720   2.583   3.354   4.959  0.3088  0.8911 -2.2466
 8363SOL     OW36721   0.928   1.451   2.639 -0.8421  0.1949 -0.5967
 8363SOL    HW136722   0.981   1.493   2.571  0.7519 -0.5925  0.1666
 8363SOL    HW236723   0.853   1.509   2.624 -0.9874 -0.0899 -0.9572
 8364SOL     OW36724   0.263   0.809  14.010  0.2808 -0.3446 -0.7227
 8364SOL    HW136725   0.233   0.806  13.919 -0.9836  0.6174 -0.3385
 8364SOL    HW236726   0.294   0.900  14.012 -1.7335  0.3182  0.6133
 8365SOL     OW36727   1.300   1.346  13.151  0.1812 -0.1351  0.0685
 8365SOL    HW136728   1.360   1.275  13.176 -0.0630 -1.5856 -3.4906
 8365SOL    HW236729   1.221   1.300  13.124 -0.2378  1.5333 -1.5242
 8366SOL     OW36730   1.275   0.456  14.263  0.0551 -0.0733  0.1859
 8366SOL    HW136731   1.310   0.478  14.176  2.7171 -0.4954  1.1345
 8366SOL    HW236732   1.252   0.364  14.252 -0.0498  0.1394 -1.4555
 8367SOL     OW36733   2.337   2.624   5.968  0.3044  0.1932  0.1927
 8367SOL    HW136734   2.335   2.718   5.950 -0.6178  0.1070 -0.1779
 8367SOL    HW236735   2.352   2.627   6.062 -0.7908 -4.1276  0.4969
 8368SOL     OW36736   3.796   1.534  14.528 -0.1560  0.1993  0.3160
 8368SOL    HW136737   3.878   1.514  14.484 -0.4669  2.3131 -1.1955
 8368SOL    HW236738   3.821   1.553  14.619 -1.3911 -1.1393  0.9441
 8369SOL     OW36739   3.649   1.244   2.637  0.0644 -0.3660 -0.1583
 8369SOL    HW136740   3.666   1.178   2.570  0.6736 -0.2953 -0.0757
 8369SOL    HW236741   3.650   1.327   2.589 -0.1023 -0.5623 -0.5030
 8370SOL     OW36742   1.873   4.551   1.385  0.4374  0.2006 -0.0606
 8370SOL    HW136743   1.862   4.473   1.330  1.9861  0.0712 -0.1911
 8370SOL    HW236744   1.834   4.617   1.327 -1.7068 -0.2260  0.8793
 8371SOL     OW36745   0.537   1.708   2.043  0.5081 -0.0264  1.0089
 8371SOL    HW136746   0.472   1.650   2.003  0.8352 -0.0807  0.5600
 8371SOL    HW236747   0.596   1.733   1.972 -0.2012 -1.3302 -0.0387
 8372SOL     OW36748   3.322   1.657   6.882  0.8139  0.2005  0.2049
 8372SOL    HW136749   3.392   1.594   6.901 -0.5883 -0.7639  2.1647
 8372SOL    HW236750   3.362   1.742   6.895  1.0737  0.2186 -0.7015
 8373SOL     OW36751   4.502   2.623   4.786  0.1087  0.0041 -0.2770
 8373SOL    HW136752   4.592   2.593   4.775  0.5025  0.6099  1.2633
 8373SOL    HW236753   4.495   2.685   4.713  1.2747  0.4875  0.0169
 8374SOL     OW36754   3.834   0.779   9.746  0.1092  0.4354  0.1265
 8374SOL    HW136755   3.914   0.815   9.708 -0.4171  0.7517 -0.7010
 8374SOL    HW236756   3.851   0.792   9.839 -1.0607  2.4341  0.0597
 8375SOL     OW36757   1.304   0.598   5.169 -0.0015 -0.1501  0.2087
 8375SOL    HW136758   1.384   0.547   5.182  0.2842 -0.2736 -2.0392
 8375SOL    HW236759   1.342   0.684   5.157  1.2722 -0.4407  2.1277
 8376SOL     OW36760   4.733   1.628   0.573  0.2929 -0.6398 -0.3996
 8376SOL    HW136761   4.698   1.670   0.494  0.5516  0.6936  0.1917
 8376SOL    HW236762   0.019   1.537   0.553  1.1408 -0.1108 -1.8259
 8377SOL     OW36763   0.405   4.525   6.290  0.4285 -0.5943  0.0758
 8377SOL    HW136764   0.497   4.525   6.318  0.0570 -1.2250  1.2578
 8377SOL    HW236765   0.367   4.481   6.365 -1.5506  1.0961  0.0364
 8378SOL     OW36766   1.069   1.823   1.341 -0.3343 -0.5792 -0.0009
 8378SOL    HW136767   1.103   1.769   1.413 -0.7707  0.3921  0.9300
 8378SOL    HW236768   1.006   1.763   1.301 -2.7224  2.1849 -0.3478
 8379SOL     OW36769   4.095   2.790   7.096  0.7688  0.1859  0.2940
 8379SOL    HW136770   4.108   2.800   7.002 -0.7182  0.5265  0.1227
 8379SOL    HW236771   4.170   2.845   7.118  1.2430  0.0310 -0.9070
 8380SOL     OW36772   0.600   4.491   3.971  0.2702  0.0720  0.5993
 8380SOL    HW136773   0.678   4.545   3.960  0.9045 -1.0858 -0.5215
 8380SOL    HW236774   0.604   4.439   3.891  1.4152 -0.0127  0.7176
 8381SOL     OW36775   3.714   2.446   2.504  0.3408 -0.4585  0.6698
 8381SOL    HW136776   3.681   2.446   2.415 -1.1473 -1.3714  1.2144
 8381SOL    HW236777   3.660   2.379   2.547 -1.2357 -0.0472 -0.6843
 8382SOL     OW36778   4.248   0.703   6.483 -0.2102  0.1948  0.3715
 8382SOL    HW136779   4.209   0.750   6.557  0.2166 -1.7137  1.7980
 8382SOL    HW236780   4.322   0.761   6.461 -0.6243  1.1665  1.5696
 8383SOL     OW36781   2.531   1.482  16.320  0.0697  0.2629  0.4527
 8383SOL    HW136782   2.531   1.522  16.407  2.1409 -0.2446  0.6888
 8383SOL    HW236783   2.541   1.388  16.339 -2.4876  0.0251  0.6618
 8384SOL     OW36784   1.813   2.568  11.858  0.0620  0.1192  0.0191
 8384SOL    HW136785   1.765   2.570  11.775  1.3650 -1.1555 -0.7669
 8384SOL    HW236786   1.897   2.586  11.815  0.3782  0.9278  0.9926
 8385SOL     OW36787   3.812   0.192   2.613 -0.2851  0.1447 -0.0852
 8385SOL    HW136788   3.876   0.214   2.545 -0.9517  0.2345 -0.6819
 8385SOL    HW236789   3.871   0.167   2.684 -1.5555 -0.9986  0.5621
 8386SOL     OW36790   4.136   1.986   0.183  0.0787  0.5796 -0.5035
 8386SOL    HW136791   4.102   2.072   0.157  0.6768  1.2470  0.8930
 8386SOL    HW236792   4.157   1.937   0.104 -0.8461 -0.3972 -0.1408
 8387SOL     OW36793   4.126   1.344   6.331  0.3654  0.0336  0.1007
 8387SOL    HW136794   4.132   1.430   6.372 -1.1589  1.5697 -2.9293
 8387SOL    HW236795   4.210   1.344   6.285  0.6016 -0.8007  0.5359
 8388SOL     OW36796   0.813   3.168   2.709 -0.0427 -0.2416  0.0094
 8388SOL    HW136797   0.835   3.238   2.771 -0.5804  1.1741 -1.3946
 8388SOL    HW236798   0.718   3.173   2.708  0.0100  0.4769 -1.5309
 8389SOL     OW36799   3.055   2.524  14.980  0.1198  0.1344  0.1211
 8389SOL    HW136800   3.055   2.551  15.072 -0.6099 -0.6443  0.3428
 8389SOL    HW236801   3.093   2.436  14.979  0.8447  0.4411  0.4001
 8390SOL     OW36802   1.718   2.165  14.758  0.1212 -0.0948 -0.0194
 8390SOL    HW136803   1.735   2.151  14.665  1.8249 -2.6719  0.6667
 8390SOL    HW236804   1.738   2.077  14.792 -2.0270 -0.8817 -0.7748
 8391SOL     OW36805   3.906   1.153   0.349 -0.2676 -0.1304 -0.5447
 8391SOL    HW136806   4.000   1.173   0.347 -0.1358 -0.8564 -1.5572
 8391SOL    HW236807   3.877   1.223   0.407  0.3303 -1.6912  1.6521
 8392SOL     OW36808   2.810   0.999   6.354 -0.1190  0.4244 -0.5057
 8392SOL    HW136809   2.716   1.017   6.356 -0.2947 -0.5304  0.0335
 8392SOL    HW236810   2.846   1.085   6.337 -2.3445  1.5985  0.6591
 8393SOL     OW36811   1.116   1.115   2.264 -0.1604 -0.5146 -0.3870
 8393SOL    HW136812   1.141   1.025   2.244 -0.1361 -0.3960 -0.8931
 8393SOL    HW236813   1.083   1.083   2.348  0.8602 -1.9476 -0.5362
 8394SOL     OW36814   2.938   1.242   6.332 -0.0878  0.1818 -0.3220
 8394SOL    HW136815   2.979   1.279   6.410  0.2209  0.2165 -0.5017
 8394SOL    HW236816   2.904   1.324   6.296 -1.4866  0.2097  1.0985
 8395SOL     OW36817   1.610   1.538   0.380 -0.0555  0.4352 -0.2992
 8395SOL    HW136818   1.623   1.478   0.306 -1.3602 -0.7972  0.4843
 8395SOL    HW236819   1.620   1.478   0.454  1.9121 -0.3119 -1.1639
 8396SOL     OW36820   1.275   1.667   2.429  0.2105  0.1867 -0.0123
 8396SOL    HW136821   1.200   1.726   2.431 -0.4480 -0.6533  0.4159
 8396SOL    HW236822   1.348   1.723   2.455  1.3946 -1.4850  0.2682
 8397SOL     OW36823   1.823   1.572   4.349 -0.0238 -0.2153 -0.5522
 8397SOL    HW136824   1.789   1.519   4.277  1.9326 -0.4006 -1.3419
 8397SOL    HW236825   1.794   1.524   4.426  1.4117  0.2726  0.2822
 8398SOL     OW36826   4.679   4.647   7.165  0.4489 -0.0186  0.2992
 8398SOL    HW136827   4.647   4.712   7.227 -2.2996 -0.1777 -0.9186
 8398SOL    HW236828   4.603   4.613   7.117 -1.6697  0.8503  3.0669
 8399SOL     OW36829   0.605   1.928   2.218 -0.5038 -0.2035  0.6099
 8399SOL    HW136830   0.577   1.857   2.160  1.5637  0.0462 -0.6577
 8399SOL    HW236831   0.695   1.944   2.191 -0.2465 -1.0157  0.9749
 8400SOL     OW36832   0.110   0.048  10.037  0.6301 -0.0344 -0.9342
 8400SOL    HW136833   0.071   0.116   9.981  0.8156  0.2758 -0.6908
 8400SOL    HW236834   0.048   4.714  10.026  1.2800 -0.2952 -3.0098
 8401SOL     OW36835   4.293   2.667  14.107 -0.1980 -0.3494 -0.3367
 8401SOL    HW136836   4.316   2.597  14.047  0.5286  0.2565 -0.7605
 8401SOL    HW236837   4.226   2.712  14.056  0.2556  1.8552  1.0102
 8402SOL     OW36838   0.336   1.966   6.379  0.2771  0.0137  0.6715
 8402SOL    HW136839   0.336   1.884   6.428  2.5560  0.2594  1.0619
 8402SOL    HW236840   0.351   1.923   6.295 -3.7566 -1.0826  0.4867
 8403SOL     OW36841   0.760   1.826   4.618 -1.1597 -0.2327 -0.4866
 8403SOL    HW136842   0.665   1.830   4.611 -1.1264 -0.8145 -1.3792
 8403SOL    HW236843   0.776   1.918   4.638  0.5416 -0.2532 -1.6497
 8404SOL     OW36844   2.248   1.017   6.877 -0.4588 -0.3723 -0.5126
 8404SOL    HW136845   2.317   1.013   6.811 -0.4184 -0.5871 -0.4584
 8404SOL    HW236846   2.166   1.036   6.832  0.6105 -0.6376 -2.5720
 8405SOL     OW36847   3.452   4.363  11.048  0.1688  0.7302 -0.0881
 8405SOL    HW136848   3.547   4.367  11.063  0.2011  2.3716 -0.7979
 8405SOL    HW236849   3.426   4.342  11.138  3.3282  0.6335  0.8009
 8406SOL     OW36850   1.628   3.033   4.301  0.4558  0.0871  0.6473
 8406SOL    HW136851   1.674   2.950   4.317  0.7772 -0.3292 -2.4025
 8406SOL    HW236852   1.651   3.069   4.387 -1.3782 -0.8359  1.5285
 8407SOL     OW36853   4.487   4.207  16.251  0.1748 -0.2160 -0.2760
 8407SOL    HW136854   4.448   4.134  16.202 -1.3000  0.4279 -0.0639
 8407SOL    HW236855   4.580   4.186  16.253  0.2578  0.1651 -0.0637
 8408SOL     OW36856   2.818   2.740   8.146 -0.0459  0.0740 -0.4935
 8408SOL    HW136857   2.844   2.671   8.085  2.2749  0.8434 -0.3577
 8408SOL    HW236858   2.881   2.724   8.216 -1.5800 -1.7811  0.4554
 8409SOL     OW36859   2.350   0.176  15.727 -0.2369  0.0295 -0.0159
 8409SOL    HW136860   2.387   0.125  15.800  1.0720 -0.9203 -1.3444
 8409SOL    HW236861   2.394   0.262  15.726 -1.9941  0.9281  0.5140
 8410SOL     OW36862   4.579   0.732   9.547 -0.1973 -0.4388 -0.0369
 8410SOL    HW136863   4.502   0.780   9.517 -0.9315 -0.5350  1.7259
 8410SOL    HW236864   4.608   0.696   9.463 -0.3822 -0.5022 -0.0720
 8411SOL     OW36865   3.191   0.597   2.924 -0.1637  0.5245 -0.0657
 8411SOL    HW136866   3.126   0.531   2.898  0.2745  0.5157 -1.1547
 8411SOL    HW236867   3.134   0.673   2.938  1.8142  1.6142  2.0297
 8412SOL     OW36868   2.355   3.295   1.158  0.3975 -0.1438  0.1579
 8412SOL    HW136869   2.270   3.289   1.116 -0.5790 -0.2199  2.1348
 8412SOL    HW236870   2.397   3.218   1.119 -0.6385 -0.2676 -0.7204
 8413SOL     OW36871   1.927   0.351  14.773 -0.4864 -0.2670 -0.2450
 8413SOL    HW136872   1.938   0.433  14.821  1.1917 -0.8163  0.3169
 8413SOL    HW236873   1.862   0.377  14.708  1.0984  0.4847 -1.5275
 8414SOL     OW36874   1.113   2.655  11.519 -0.0817  0.1050  0.5348
 8414SOL    HW136875   1.092   2.732  11.572 -0.2079 -0.4855  1.3500
 8414SOL    HW236876   1.209   2.657  11.521 -0.1454  2.1196  0.9200
 8415SOL     OW36877   1.211   3.391   5.412 -0.3324  0.5758 -0.1989
 8415SOL    HW136878   1.216   3.398   5.507 -0.4645  0.6548 -0.1975
 8415SOL    HW236879   1.300   3.361   5.394 -0.4695 -0.7690  1.4386
 8416SOL     OW36880   2.390   1.496   8.749 -0.4180 -0.0648 -0.7843
 8416SOL    HW136881   2.459   1.446   8.793 -0.0198 -0.1143 -1.4660
 8416SOL    HW236882   2.399   1.581   8.792  2.3685 -0.0516 -1.4319
 8417SOL     OW36883   3.076   3.501  13.457 -0.2020 -0.5913 -1.0073
 8417SOL    HW136884   3.078   3.423  13.402 -1.1586 -1.8524  0.7955
 8417SOL    HW236885   3.150   3.557  13.433 -1.4105  1.6578  0.5669
 8418SOL     OW36886   2.475   0.644   3.456 -0.2491  1.1558  0.6765
 8418SOL    HW136887   2.523   0.563   3.473 -0.8708  0.4791 -0.8048
 8418SOL    HW236888   2.529   0.688   3.390 -0.4205 -2.1432 -1.6599
 8419SOL     OW36889   1.231   1.809   5.816  0.0049 -0.8579 -0.1576
 8419SOL    HW136890   1.253   1.902   5.826  0.9077 -1.1558  0.7006
 8419SOL    HW236891   1.191   1.786   5.900 -2.3183 -1.4749 -1.4405
 8420SOL     OW36892   3.995   4.009   1.606 -0.5966  0.3145  0.2063
 8420SOL    HW136893   3.917   3.972   1.648 -0.8583  0.1512 -0.4292
 8420SOL    HW236894   4.009   3.967   1.522  0.2394  0.6912  0.1650
 8421SOL     OW36895   0.970   0.652  17.022 -0.0947  0.2090 -0.8056
 8421SOL    HW136896   0.959   0.719  16.954 -2.7791  0.1416 -0.4088
 8421SOL    HW236897   1.027   0.701  17.083  0.1407  0.9363 -1.6103
 8422SOL     OW36898   2.579   1.394  14.419  0.1636  0.5381  0.8152
 8422SOL    HW136899   2.497   1.407  14.370  0.4426  0.9253  0.4545
 8422SOL    HW236900   2.619   1.328  14.363 -1.0228  0.0933  0.4918
 8423SOL     OW36901   2.170   3.031  11.837 -0.0407  0.4048 -0.0907
 8423SOL    HW136902   2.182   2.937  11.826  1.2119  0.4662  0.7297
 8423SOL    HW236903   2.226   3.042  11.914 -0.2879 -0.3470  0.1926
 8424SOL     OW36904   4.278   1.106  11.698 -0.4123  0.4825  0.0439
 8424SOL    HW136905   4.226   1.104  11.779 -2.7306  1.3570 -1.4152
 8424SOL    HW236906   4.216   1.091  11.627 -0.8226  3.2051 -0.1730
 8425SOL     OW36907   3.196   2.056  17.422 -0.2380  0.3531 -0.1556
 8425SOL    HW136908   3.109   2.058  17.462  0.7663  0.9349  1.9966
 8425SOL    HW236909   3.170   2.065  17.330 -1.6032 -1.8395  0.0035
 8426SOL     OW36910   4.727   0.078  15.025 -0.1714 -0.0312 -0.1161
 8426SOL    HW136911   0.026   0.130  14.953  0.9454 -0.1011  0.3954
 8426SOL    HW236912   0.054   0.095  15.094 -0.1236  2.2408 -0.7326
 8427SOL     OW36913   2.581   4.199  16.204  0.3541  0.4128  0.5417
 8427SOL    HW136914   2.620   4.126  16.155 -2.1720  0.5459 -1.6552
 8427SOL    HW236915   2.639   4.271  16.179 -1.1125  1.2090 -0.5844
 8428SOL     OW36916   0.082   1.923   1.865  0.2335 -0.0541  0.0018
 8428SOL    HW136917   0.043   2.003   1.829  0.5033 -1.1384 -2.7632
 8428SOL    HW236918   0.058   1.860   1.797  1.1286  0.1830 -0.5316
 8429SOL     OW36919   3.989   2.571  12.846 -0.0469 -0.0727 -0.1976
 8429SOL    HW136920   3.925   2.640  12.829 -0.6086 -0.8427 -1.1779
 8429SOL    HW236921   4.055   2.610  12.903  0.8649 -2.0676  0.0954
 8430SOL     OW36922   4.350   0.599   3.599  0.2295 -0.1337  0.4037
 8430SOL    HW136923   4.267   0.590   3.644  0.6771 -1.0435  1.0390
 8430SOL    HW236924   4.379   0.690   3.605 -2.4534  0.7142  0.4184
 8431SOL     OW36925   0.107   4.490   3.370 -0.1807  0.2172  0.1020
 8431SOL    HW136926   0.015   4.465   3.371  0.1425 -1.0575 -1.1734
 8431SOL    HW236927   0.158   4.410   3.360  0.4861  0.6596 -0.0850
 8432SOL     OW36928   2.343   2.494   7.325 -0.3643 -0.1335  0.2547
 8432SOL    HW136929   2.414   2.558   7.322 -0.8393  0.4015  0.3899
 8432SOL    HW236930   2.275   2.544   7.281  1.3892  2.1330  0.0875
 8433SOL     OW36931   3.253   3.496   4.424  0.4319 -0.4995 -0.9856
 8433SOL    HW136932   3.260   3.477   4.331 -0.4921  0.0960 -1.1808
 8433SOL    HW236933   3.302   3.576   4.406  0.5259 -0.2997  0.1235
 8434SOL     OW36934   3.924   0.652   4.323  0.5094 -0.1886  0.5394
 8434SOL    HW136935   3.898   0.731   4.370 -0.1841 -1.1285  1.7530
 8434SOL    HW236936   4.019   0.663   4.311  0.5667 -1.4187 -0.1303
 8435SOL     OW36937   2.490   0.838   6.148  0.0345 -0.2368  0.6343
 8435SOL    HW136938   2.555   0.775   6.116  2.6851  2.9665 -0.1898
 8435SOL    HW236939   2.412   0.782   6.144 -0.4098  0.5059 -0.7274
 8436SOL     OW36940   1.671   4.277   1.719 -0.0771 -0.2623  0.5169
 8436SOL    HW136941   1.587   4.262   1.763 -1.4216  0.4731 -1.7770
 8436SOL    HW236942   1.641   4.289   1.629  1.5141 -1.5628 -0.1882
 8437SOL     OW36943   0.838   3.211   0.352  0.4098  0.9936  0.4654
 8437SOL    HW136944   0.779   3.261   0.410 -0.5795 -0.0832  0.3982
 8437SOL    HW236945   0.922   3.226   0.396  1.3428 -0.2912 -0.8864
 8438SOL     OW36946   4.295   0.407   6.224 -0.4020 -0.1185 -0.3199
 8438SOL    HW136947   4.359   0.474   6.247 -1.0506  0.1456  0.6936
 8438SOL    HW236948   4.257   0.396   6.311  1.8794 -2.5751  0.3857
 8439SOL     OW36949   2.608   4.666   8.293 -0.4357  0.0031  0.2281
 8439SOL    HW136950   2.656   0.007   8.266  0.8343 -0.2093  1.8556
 8439SOL    HW236951   2.657   4.649   8.374 -0.0520  1.0445  0.2092
 8440SOL     OW36952   0.535   1.621   5.217  0.2628  0.2617 -0.0446
 8440SOL    HW136953   0.567   1.673   5.291 -0.8353  0.0004  0.6017
 8440SOL    HW236954   0.480   1.558   5.262  0.6787  0.2595  0.4574
 8441SOL     OW36955   3.986   3.000   8.843 -0.2489  0.2711 -0.2677
 8441SOL    HW136956   3.911   3.011   8.900 -1.3392 -2.3273 -1.2083
 8441SOL    HW236957   4.047   2.982   8.915 -0.8756 -2.0265 -0.3093
 8442SOL     OW36958   3.436   2.403   5.008 -0.1617  0.0999 -0.3677
 8442SOL    HW136959   3.527   2.381   5.031 -0.6914 -0.8523  0.8044
 8442SOL    HW236960   3.407   2.430   5.095  0.5312 -0.0553 -0.0824
 8443SOL     OW36961   0.063   1.607   8.916 -0.6544  0.2071  0.0477
 8443SOL    HW136962   0.058   1.558   8.998 -3.5784  1.7231  0.7931
 8443SOL    HW236963   0.152   1.643   8.919 -0.6284  0.1080  0.5021
 8444SOL     OW36964   1.169   2.320   6.335  0.4246 -0.4268 -0.3148
 8444SOL    HW136965   1.174   2.374   6.256 -1.3623 -3.6569 -2.6289
 8444SOL    HW236966   1.079   2.288   6.343  1.2534 -2.6681  0.1494
 8445SOL     OW36967   1.172   0.883  16.782  0.3945 -0.4707  0.2425
 8445SOL    HW136968   1.183   0.949  16.713  1.3517  0.4323  1.2804
 8445SOL    HW236969   1.080   0.890  16.808 -0.1437  1.4613 -2.0974
 8446SOL     OW36970   3.909   2.881   8.275  0.2760  0.2639 -0.8235
 8446SOL    HW136971   3.903   2.796   8.232 -2.7210  0.5226 -0.8547
 8446SOL    HW236972   3.826   2.914   8.242 -0.1769 -0.1505 -0.0808
 8447SOL     OW36973   0.513   4.239   6.507 -0.2274  0.3284  0.2663
 8447SOL    HW136974   0.488   4.183   6.581 -0.7198  0.4212  0.1668
 8447SOL    HW236975   0.586   4.192   6.467 -0.8724 -1.1931  0.8808
 8448SOL     OW36976   1.043   1.608   5.027 -0.3617 -0.0884 -0.1100
 8448SOL    HW136977   0.955   1.640   5.009  0.3010  1.8336  0.1485
 8448SOL    HW236978   1.071   1.569   4.944 -0.8754  0.3301 -0.4785
 8449SOL     OW36979   4.640   4.254   3.779 -0.0602  0.0423  0.2362
 8449SOL    HW136980   4.634   4.345   3.751 -2.3106 -0.2885 -0.3732
 8449SOL    HW236981   4.625   4.262   3.874 -0.5962 -0.6056  0.2123
 8450SOL     OW36982   2.389   2.376  12.176  0.5688  0.2654  0.0912
 8450SOL    HW136983   2.453   2.311  12.204 -0.5163 -0.6757  0.3891
 8450SOL    HW236984   2.330   2.376  12.251  2.8946 -1.1950  1.9415
 8451SOL     OW36985   0.617   0.039   1.377 -0.2555  0.5255  0.1199
 8451SOL    HW136986   0.551   4.716   1.343  0.5403  0.4922 -1.3625
 8451SOL    HW236987   0.608   0.034   1.472 -0.1328  1.1466  0.1625
 8452SOL     OW36988   2.906   1.179   4.933  0.1603  0.1875  0.4402
 8452SOL    HW136989   2.835   1.119   4.911 -0.4244  0.8491  0.5313
 8452SOL    HW236990   2.976   1.116   4.948 -1.2833 -1.9479 -1.7064
 8453SOL     OW36991   3.618   2.771   7.672  0.0657 -0.0123  0.4241
 8453SOL    HW136992   3.702   2.762   7.627 -0.1673  1.2619 -0.2475
 8453SOL    HW236993   3.569   2.794   7.594 -1.5200 -0.9497  1.1385
 8454SOL     OW36994   4.559   1.032   1.126 -0.0791  0.0531 -0.2886
 8454SOL    HW136995   4.491   1.063   1.186  0.6492 -3.1119  2.1383
 8454SOL    HW236996   4.590   1.113   1.085 -0.9056  0.5191  0.0047
 8455SOL     OW36997   0.160   4.017   4.030  0.0324 -0.3184  0.0276
 8455SOL    HW136998   0.132   4.026   4.121 -0.2524  1.6667 -0.2484
 8455SOL    HW236999   0.208   4.100   4.032 -2.9043  1.3892 -0.7387
 8456SOL     OW37000   0.889   0.440   8.218  0.3048 -0.7084 -0.0334
 8456SOL    HW137001   0.888   0.534   8.200  1.2233 -0.7147 -0.1369
 8456SOL    HW237002   0.935   0.405   8.142  1.3772  1.6880 -0.5046
 8457SOL     OW37003   0.623   1.057  11.237 -0.2912 -0.1228  0.0834
 8457SOL    HW137004   0.606   1.151  11.237  2.4637  0.3802  2.4534
 8457SOL    HW237005   0.534   1.022  11.234 -0.6246  0.8111 -0.8337
 8458SOL     OW37006   1.470   3.142  15.671  0.1033 -0.4405  0.0782
 8458SOL    HW137007   1.413   3.123  15.746 -1.4687  0.8360 -0.7979
 8458SOL    HW237008   1.416   3.158  15.593  0.1602 -1.5984 -0.2015
 8459SOL     OW37009   3.712   0.834   4.643  0.2052  0.3513 -0.1693
 8459SOL    HW137010   3.755   0.767   4.696 -1.4030 -1.2032 -0.8345
 8459SOL    HW237011   3.637   0.849   4.700  0.4613 -0.6706  0.4472
 8460SOL     OW37012   4.348   1.891   7.127 -0.0673  0.3463  0.0927
 8460SOL    HW137013   4.382   1.968   7.082  2.3083  0.7307  2.5906
 8460SOL    HW237014   4.339   1.832   7.052  1.8749 -0.2957  0.3690
 8461SOL     OW37015   2.097   2.769  10.194 -0.3228 -0.5094  0.2686
 8461SOL    HW137016   2.167   2.834  10.182  1.4231 -2.6151 -1.0096
 8461SOL    HW237017   2.151   2.691  10.188  1.0714  0.4743 -0.0289
 8462SOL     OW37018   0.051   4.030  10.355  0.6078 -0.1165 -0.2290
 8462SOL    HW137019   0.077   3.956  10.410 -1.0017 -0.7552 -0.3249
 8462SOL    HW237020   0.009   4.094  10.412 -0.2224  0.2586 -1.2485
 8463SOL     OW37021   0.164   1.509   7.590  0.5536 -0.3570 -0.0590
 8463SOL    HW137022   0.167   1.417   7.613  1.0193 -0.2948  0.1192
 8463SOL    HW237023   0.081   1.543   7.623  1.2625 -0.3427  1.7137
 8464SOL     OW37024   1.725   3.169  17.651  0.0032  0.2527 -0.4735
 8464SOL    HW137025   1.749   3.079  17.632 -0.8649 -0.1117  0.1418
 8464SOL    HW237026   1.777   3.219  17.588 -0.1118  0.2174 -0.5981
 8465SOL     OW37027   3.459   3.705  11.709 -0.2111 -0.7370 -0.4797
 8465SOL    HW137028   3.459   3.671  11.620  0.3577  0.0496 -0.7855
 8465SOL    HW237029   3.520   3.779  11.702  2.8849 -3.2075  0.2946
 8466SOL     OW37030   2.199   3.846   2.946  0.3901  0.2653 -0.0531
 8466SOL    HW137031   2.187   3.785   3.019  1.2528 -0.3494 -0.4265
 8466SOL    HW237032   2.107   3.869   2.932  0.6577  1.0560 -0.4756
 8467SOL     OW37033   1.443   3.305   2.845 -0.3706 -0.0185 -0.4212
 8467SOL    HW137034   1.538   3.293   2.852 -0.3598 -0.3285 -1.1104
 8467SOL    HW237035   1.421   3.220   2.808  1.5654 -0.1878 -1.2103
 8468SOL     OW37036   1.348   4.389   8.978 -0.6518  0.6055 -0.0182
 8468SOL    HW137037   1.400   4.469   8.980 -1.1629  0.9188  0.8084
 8468SOL    HW237038   1.389   4.338   9.049  1.4396  0.4800 -1.3384
 8469SOL     OW37039   0.794   2.857   2.526 -0.4252 -0.1744 -0.4810
 8469SOL    HW137040   0.760   2.925   2.584  0.0204 -1.5596  1.4059
 8469SOL    HW237041   0.886   2.854   2.550  0.4014  1.9237 -3.4762
 8470SOL     OW37042   1.983   0.060  13.176 -0.2350  0.7461  0.2477
 8470SOL    HW137043   1.919   0.057  13.247 -2.8207  2.8505 -1.9922
 8470SOL    HW237044   2.030   0.143  13.185  0.2718 -0.0198  4.6318
 8471SOL     OW37045   4.003   2.234   4.435  0.4405  0.0618 -0.3403
 8471SOL    HW137046   3.981   2.247   4.528  0.4595 -1.7668 -0.0814
 8471SOL    HW237047   3.924   2.266   4.391  0.0861 -0.6283 -0.2027
 8472SOL     OW37048   0.328   3.814   2.643  0.1145 -0.3149  0.0630
 8472SOL    HW137049   0.261   3.865   2.597  1.8475 -1.2523 -3.5042
 8472SOL    HW237050   0.292   3.727   2.628  1.1969 -0.8597  0.6310
 8473SOL     OW37051   1.964   3.253   3.740 -0.6511  0.0133  0.5534
 8473SOL    HW137052   2.038   3.288   3.788 -1.2709 -1.0926  2.3258
 8473SOL    HW237053   1.989   3.169   3.701 -0.9308  1.2643 -2.3321
 8474SOL     OW37054   2.837   2.102   7.161 -0.8071  0.3949  0.2519
 8474SOL    HW137055   2.749   2.133   7.137 -1.2008 -1.3638 -0.6032
 8474SOL    HW237056   2.856   2.165   7.229 -4.0749  2.4623 -0.7392
 8475SOL     OW37057   1.113   2.543   6.487 -0.0856  0.3510  0.2777
 8475SOL    HW137058   1.159   2.483   6.429 -1.2652  0.1981 -0.4934
 8475SOL    HW237059   1.025   2.537   6.450 -0.8377 -0.1683  2.1341
 8476SOL     OW37060   1.170   2.422   0.350  0.0068 -0.3375 -0.9558
 8476SOL    HW137061   1.161   2.508   0.310  1.8717 -0.3538 -1.3946
 8476SOL    HW237062   1.077   2.400   0.355  0.1241 -0.1254  2.3442
 8477SOL     OW37063   4.499   3.072   7.885 -0.6318  0.5922 -0.6385
 8477SOL    HW137064   4.500   3.111   7.797 -0.5333  0.1614 -0.8303
 8477SOL    HW237065   4.585   3.066   7.925  0.0914  0.3827 -2.2328
 8478SOL     OW37066   4.654   1.870   3.057  0.2780 -0.1013  0.3319
 8478SOL    HW137067   4.711   1.895   3.130 -0.0056 -2.8692  1.4812
 8478SOL    HW237068   4.600   1.802   3.097  2.2438 -0.8337  1.7479
 8479SOL     OW37069   4.254   3.147  12.880  0.8664  0.1590 -0.0087
 8479SOL    HW137070   4.246   3.233  12.839  1.1216  0.3765  0.4000
 8479SOL    HW237071   4.189   3.109  12.820  0.9698 -0.4576  0.2769
 8480SOL     OW37072   0.379   2.100   0.404  0.1457  0.6945  0.9241
 8480SOL    HW137073   0.320   2.043   0.452 -1.0628  1.7572  0.6894
 8480SOL    HW237074   0.458   2.090   0.457  1.2472  0.3842 -0.7689
 8481SOL     OW37075   2.362   0.148  11.801  0.0353  0.6714  0.3880
 8481SOL    HW137076   2.378   0.176  11.891 -0.3652 -0.1441  0.7104
 8481SOL    HW237077   2.348   0.053  11.806 -0.3606  0.6877 -0.4692
 8482SOL     OW37078   0.891   4.175   7.089 -0.5016 -0.0356 -0.0160
 8482SOL    HW137079   0.914   4.116   7.017 -1.5819 -0.7701  0.2455
 8482SOL    HW237080   0.857   4.117   7.157 -0.6861 -0.4374 -0.4513
 8483SOL     OW37081   2.424   4.076   0.122 -0.4572  0.6280 -0.0387
 8483SOL    HW137082   2.393   4.103   0.036 -2.3590  1.1853  0.8227
 8483SOL    HW237083   2.448   4.157   0.167  3.1079 -0.9834  1.0183
 8484SOL     OW37084   1.570   2.988   5.630 -0.2159  0.0072 -0.1658
 8484SOL    HW137085   1.537   2.905   5.663  0.2240 -0.6886 -1.4499
 8484SOL    HW237086   1.496   3.050   5.631 -0.0142  0.2639 -1.1468
 8485SOL     OW37087   0.205   4.173  10.156  0.4508 -0.5691 -0.2813
 8485SOL    HW137088   0.171   4.129  10.234 -0.3758 -0.1980 -0.4305
 8485SOL    HW237089   0.136   4.180  10.091  1.4330 -0.5101 -1.3169
 8486SOL     OW37090   3.251   1.425   3.050 -0.6846  0.0416 -0.6065
 8486SOL    HW137091   3.303   1.428   2.970  0.4340 -1.4181  0.0796
 8486SOL    HW237092   3.316   1.464   3.108 -1.8583  0.2557  0.5522
 8487SOL     OW37093   0.454   2.174  15.825  0.0358 -0.7465  0.5468
 8487SOL    HW137094   0.371   2.208  15.859 -0.0291 -1.0433  0.6861
 8487SOL    HW237095   0.510   2.194  15.900  0.9469 -0.7421 -0.1314
 8488SOL     OW37096   3.229   3.857   4.746  0.4018  0.3244  0.5147
 8488SOL    HW137097   3.196   3.902   4.668 -0.3317 -0.3369  0.4500
 8488SOL    HW237098   3.232   3.927   4.812 -2.5008 -0.9140  1.9569
 8489SOL     OW37099   0.949   3.123  17.689 -0.3869  0.0674 -0.2000
 8489SOL    HW137100   1.013   3.052  17.691 -1.7795 -1.1287  2.1456
 8489SOL    HW237101   0.909   3.103   0.025  1.7985 -1.3076  0.4984
 8490SOL     OW37102   1.764   0.667   7.510 -0.2579  0.3450 -0.1323
 8490SOL    HW137103   1.850   0.686   7.473 -1.5380  2.2543 -2.1045
 8490SOL    HW237104   1.749   0.577   7.481  0.8257  1.4813 -4.2066
 8491SOL     OW37105   2.955   0.387   6.763 -0.2175 -0.2539  0.1096
 8491SOL    HW137106   2.996   0.331   6.696  1.7598 -1.0558  1.9975
 8491SOL    HW237107   3.003   0.467   6.741  0.6076 -1.0408 -0.9725
 8492SOL     OW37108   4.018   1.657  17.659  0.5194 -0.3430  0.2366
 8492SOL    HW137109   3.949   1.682  17.598  0.7426 -0.4397 -0.0524
 8492SOL    HW237110   4.052   1.586  17.605 -0.6337  0.9117 -2.1170
 8493SOL     OW37111   1.059   3.163  14.513 -0.2608  0.3649  0.1859
 8493SOL    HW137112   0.984   3.149  14.571  0.8619  3.3998  2.3856
 8493SOL    HW237113   1.122   3.181  14.584  0.6509 -1.5786 -0.1260
 8494SOL     OW37114   2.688   2.171   4.097 -0.0838 -0.8558 -0.1266
 8494SOL    HW137115   2.762   2.113   4.116 -1.6564 -3.7901 -3.1217
 8494SOL    HW237116   2.729   2.252   4.127  0.0486 -1.8333  2.3900
 8495SOL     OW37117   2.666   1.348  17.500  0.3024 -0.0824  0.3749
 8495SOL    HW137118   2.619   1.425  17.469  1.0423 -0.7750 -2.5768
 8495SOL    HW237119   2.608   1.334  17.574 -1.9658 -0.4136 -1.4505
 8496SOL     OW37120   0.348   0.789   8.396  0.0427  0.6182 -0.0739
 8496SOL    HW137121   0.274   0.817   8.450  0.3090 -2.6667  1.9407
 8496SOL    HW237122   0.364   0.867   8.343 -4.5377  1.3779 -0.4173
 8497SOL     OW37123   2.355   1.442   5.575  0.4461  0.2170 -0.2232
 8497SOL    HW137124   2.394   1.356   5.592  1.1282  0.5063 -0.2953
 8497SOL    HW237125   2.434   1.494   5.593  0.7917 -0.0713 -0.8829
 8498SOL     OW37126   2.665   0.965  17.065 -0.1122 -0.5070 -0.0163
 8498SOL    HW137127   2.684   0.907  17.139  1.9434 -1.9780 -1.7049
 8498SOL    HW237128   2.634   1.041  17.115 -0.8397  0.3015 -1.7002
 8499SOL     OW37129   1.788   2.483  11.234 -0.2628 -0.6298 -0.0140
 8499SOL    HW137130   1.785   2.438  11.318  1.8890 -1.2713 -0.2902
 8499SOL    HW237131   1.803   2.421  11.163 -0.4407 -1.0625  0.3223
 8500SOL     OW37132   3.133   2.826   8.240  0.5668  0.6901 -0.2502
 8500SOL    HW137133   3.205   2.858   8.187 -1.3322  2.1872 -1.9151
 8500SOL    HW237134   3.179   2.743   8.254 -1.2505 -0.2800  0.0137
 8501SOL     OW37135   4.052   4.160   2.225 -0.9777  0.4952  0.3115
 8501SOL    HW137136   4.003   4.239   2.245 -0.0520  1.2521 -0.4273
 8501SOL    HW237137   4.130   4.172   2.279 -0.0251  3.0745 -1.6779
 8502SOL     OW37138   1.970   2.227  10.894 -0.9815  0.2678  0.0164
 8502SOL    HW137139   2.041   2.249  10.955  0.2203 -0.8095 -0.9940
 8502SOL    HW237140   1.939   2.312  10.861 -1.5215  0.7012  1.6602
 8503SOL     OW37141   0.322   2.121  15.048 -0.1578  0.2301 -0.0525
 8503SOL    HW137142   0.292   2.133  15.138  0.6621  1.7815  0.0299
 8503SOL    HW237143   0.238   2.108  15.004 -1.2869  0.2419  2.1263
 8504SOL     OW37144   0.706   0.305   3.605  0.0489 -0.4305 -0.2163
 8504SOL    HW137145   0.645   0.307   3.532 -0.5615 -1.0211  0.2735
 8504SOL    HW237146   0.790   0.293   3.562 -0.2122  1.7683 -1.3023
 8505SOL     OW37147   1.054   4.036   4.386  0.3910  0.0633  0.4052
 8505SOL    HW137148   1.054   3.948   4.348 -1.5032 -0.1693  0.9259
 8505SOL    HW237149   0.993   4.086   4.332 -0.0337 -1.0902 -0.1878
 8506SOL     OW37150   1.709   4.006   5.193 -0.2218 -0.3319  0.3552
 8506SOL    HW137151   1.778   3.974   5.134 -2.0013 -0.3463 -1.7256
 8506SOL    HW237152   1.760   4.029   5.271  0.8462  1.0600 -0.7646
 8507SOL     OW37153   0.377   2.881   6.352  0.1068 -0.2880 -0.3455
 8507SOL    HW137154   0.467   2.854   6.330  0.0070 -1.3334  0.5481
 8507SOL    HW237155   0.335   2.814   6.298 -2.2273  1.7345 -1.0557
 8508SOL     OW37156   3.559   3.336  11.991  0.4921 -0.3754 -0.1075
 8508SOL    HW137157   3.481   3.310  12.039  1.0437 -0.1795  0.8995
 8508SOL    HW237158   3.520   3.350  11.905  0.3508 -0.0939  0.0042
 8509SOL     OW37159   2.752   3.230  12.120 -0.0918 -0.0988  0.6428
 8509SOL    HW137160   2.767   3.158  12.059 -1.5592  0.8362 -0.8380
 8509SOL    HW237161   2.808   3.292  12.074 -1.8148  1.8424  1.1797
 8510SOL     OW37162   1.402   3.911   6.813 -0.1172 -0.1517 -0.3789
 8510SOL    HW137163   1.482   3.956   6.840  0.1143 -0.5816 -0.3578
 8510SOL    HW237164   1.347   3.916   6.891 -1.6645  0.7788 -1.5173
 8511SOL     OW37165   0.912   2.125  12.303  0.2197 -0.2775 -0.0281
 8511SOL    HW137166   0.828   2.124  12.257 -0.3241 -0.0799  0.9481
 8511SOL    HW237167   0.921   2.219  12.319 -1.6870 -0.5482  2.6962
 8512SOL     OW37168   0.618   2.008   7.106  0.4964 -0.5929 -0.5026
 8512SOL    HW137169   0.614   1.986   7.199  1.2990 -0.6321 -0.4737
 8512SOL    HW237170   0.602   2.102   7.100  1.3889 -0.5956 -2.9578
 8513SOL     OW37171   0.460   0.287   7.708  0.4821  0.8934 -0.3464
 8513SOL    HW137172   0.452   0.339   7.788 -0.0659  0.6919 -0.2677
 8513SOL    HW237173   0.435   0.200   7.740  1.0542  0.3345 -1.4092
 8514SOL     OW37174   2.214   3.862   4.534 -0.1698 -0.2441 -0.1045
 8514SOL    HW137175   2.228   3.813   4.453  2.7684 -1.4883  1.1556
 8514SOL    HW237176   2.119   3.870   4.539 -0.3290 -1.5733 -1.1304
 8515SOL     OW37177   1.932   3.847   8.058  0.1276  0.0922  0.5629
 8515SOL    HW137178   1.865   3.807   8.115  0.2312 -1.2241 -0.2358
 8515SOL    HW237179   1.985   3.883   8.129 -0.1278 -0.2209  0.9126
 8516SOL     OW37180   4.127   4.663   8.633 -0.1701  0.0393 -0.1722
 8516SOL    HW137181   4.161   4.629   8.716  0.0865 -1.7619 -0.9959
 8516SOL    HW237182   4.091   0.007   8.665  0.6645  1.0993 -1.9455
 8517SOL     OW37183   0.284   1.985   7.626 -0.0191  0.1552 -0.2645
 8517SOL    HW137184   0.299   1.892   7.608 -2.2720 -0.1258 -0.6353
 8517SOL    HW237185   0.196   1.987   7.664 -0.8354 -0.0722 -2.1252
 8518SOL     OW37186   0.769   3.609   8.718  0.0406 -0.1307  0.2782
 8518SOL    HW137187   0.718   3.528   8.714  2.3100 -1.5721  0.4705
 8518SOL    HW237188   0.759   3.629   8.811 -0.1503  2.2342 -0.2501
 8519SOL     OW37189   4.622   3.795   8.046 -0.1945  0.0368 -0.4733
 8519SOL    HW137190   4.682   3.781   8.119  2.0915 -0.6815 -2.4742
 8519SOL    HW237191   4.558   3.724   8.053 -1.0102  0.7488 -0.8286
 8520SOL     OW37192   3.199   2.877   7.019  0.2796 -0.4305 -0.1661
 8520SOL    HW137193   3.124   2.916   7.063 -0.6587 -1.7401 -0.5835
 8520SOL    HW237194   3.168   2.797   6.974 -0.8591 -0.9401  1.5388
 8521SOL     OW37195   3.581   1.778   7.159  0.6880  0.0528 -0.5520
 8521SOL    HW137196   3.641   1.847   7.185 -0.2691  0.7327 -0.1215
 8521SOL    HW237197   3.623   1.707   7.207  2.4962  1.0207 -0.6981
 8522SOL     OW37198   3.826   0.513   7.434  0.4787 -0.1066  0.0867
 8522SOL    HW137199   3.845   0.499   7.527  0.9710  0.8497  0.1329
 8522SOL    HW237200   3.754   0.455   7.411  1.9843 -2.8138  2.1887
 8523SOL     OW37201   1.191   3.895   3.136 -0.6826 -0.0172 -0.6577
 8523SOL    HW137202   1.218   3.944   3.058 -1.1004  0.0734 -0.7457
 8523SOL    HW237203   1.119   3.952   3.164  0.8881  1.6047  0.1370
 8524SOL     OW37204   2.976   2.130  11.907 -0.0118 -0.1660 -0.5928
 8524SOL    HW137205   2.938   2.088  11.984  1.5003 -0.7550 -0.1671
 8524SOL    HW237206   3.067   2.137  11.934  0.3754 -0.8533 -1.6956
 8525SOL     OW37207   1.997   3.017   7.903  0.1012  0.8907  0.3836
 8525SOL    HW137208   2.084   3.046   7.875  0.8519 -1.4741  0.2788
 8525SOL    HW237209   1.993   2.923   7.917  0.6888  0.6675 -1.0196
 8526SOL     OW37210   1.383   1.200   5.519 -0.9801  0.4360 -0.6422
 8526SOL    HW137211   1.309   1.258   5.502 -1.4574 -0.0204 -0.1038
 8526SOL    HW237212   1.403   1.176   5.428  1.0847 -0.8813  0.1532
 8527SOL     OW37213   0.430   1.539  15.486 -0.1819  0.3270 -0.4282
 8527SOL    HW137214   0.477   1.477  15.431  2.3573 -0.7810  3.0228
 8527SOL    HW237215   0.499   1.579  15.540  1.0079 -2.1406 -0.1491
 8528SOL     OW37216   2.644   1.663   4.478 -0.2635  0.8580 -0.0246
 8528SOL    HW137217   2.727   1.653   4.524  1.1365  0.3881 -2.6434
 8528SOL    HW237218   2.624   1.752   4.505 -0.1558  1.2042 -1.0786
 8529SOL     OW37219   3.148   1.216   6.775  0.2821  0.6134 -0.1611
 8529SOL    HW137220   3.144   1.143   6.713 -1.3689  0.7879 -0.2533
 8529SOL    HW237221   3.125   1.172   6.858 -1.3638  1.4822 -0.1636
 8530SOL     OW37222   4.598   4.376  17.437 -0.0282 -0.9233 -0.4317
 8530SOL    HW137223   4.525   4.409  17.384 -0.4822 -0.2713  0.6050
 8530SOL    HW237224   4.554   4.310  17.490  0.6722 -1.4581 -0.5144
 8531SOL     OW37225   1.894   3.839  15.244  0.0484  0.9075 -0.4291
 8531SOL    HW137226   1.928   3.927  15.259  0.6022  0.6201  0.0224
 8531SOL    HW237227   1.806   3.861  15.275  0.4347  1.9064 -0.0341
 8532SOL     OW37228   2.688   1.195   3.303  0.0818  0.4864 -0.5251
 8532SOL    HW137229   2.726   1.121   3.349  2.4773  0.7159 -2.1121
 8532SOL    HW237230   2.638   1.233   3.375 -1.8780 -2.4929 -0.3563
 8533SOL     OW37231   2.873   2.862   3.421 -0.8700  0.6397  0.5164
 8533SOL    HW137232   2.815   2.806   3.367  0.5099 -1.2499  0.9874
 8533SOL    HW237233   2.901   2.804   3.492  0.3491  0.0469 -0.4417
 8534SOL     OW37234   4.061   3.829  10.354  0.1422 -0.0971  0.6574
 8534SOL    HW137235   4.007   3.890  10.404 -1.6977  0.6651 -2.2529
 8534SOL    HW237236   4.151   3.849  10.380  0.6768 -0.0475 -1.1740
 8535SOL     OW37237   4.578   0.329   6.484 -0.8087  0.4408  0.5814
 8535SOL    HW137238   4.512   0.261   6.474 -2.2808  1.5031  3.0041
 8535SOL    HW237239   4.643   0.271   6.526 -1.8680 -0.3299  1.1514
 8536SOL     OW37240   0.093   1.611  17.305 -0.4519 -0.0170 -0.8971
 8536SOL    HW137241   0.033   1.625  17.232  0.6653  0.1468 -1.7686
 8536SOL    HW237242   0.138   1.693  17.326  0.5941 -1.0087  0.7032
 8537SOL     OW37243   2.366   3.692   7.643  0.2234 -0.0103 -0.1923
 8537SOL    HW137244   2.331   3.730   7.563 -1.4994  1.1339  1.1177
 8537SOL    HW237245   2.425   3.630   7.599  0.4513 -0.9777  1.4530
 8538SOL     OW37246   2.995   1.105   0.879 -0.1669 -0.3809  0.0435
 8538SOL    HW137247   3.038   1.168   0.937  0.3057 -0.2283 -0.4822
 8538SOL    HW237248   3.069   1.046   0.861 -2.3671 -3.4396  0.9108
 8539SOL     OW37249   4.106   0.895   9.629 -0.3790  0.0274  0.5321
 8539SOL    HW137250   4.160   0.878   9.706  0.0733 -0.3596  0.1323
 8539SOL    HW237251   4.130   0.986   9.610 -1.4067  0.2994  0.5186
 8540SOL     OW37252   0.133   2.528   8.505 -0.0718  0.2187  0.3274
 8540SOL    HW137253   0.081   2.450   8.525 -0.5698  0.7750  1.2289
 8540SOL    HW237254   0.070   2.598   8.525  0.4439  0.9084 -0.4784
 8541SOL     OW37255   1.259   3.091   3.840  0.1348  0.6282 -0.0363
 8541SOL    HW137256   1.324   3.157   3.860  0.0554  0.5294  0.5383
 8541SOL    HW237257   1.277   3.015   3.895 -1.0706 -0.4134 -1.0577
 8542SOL     OW37258   2.631   1.941   4.526  0.9931  0.7395 -0.2269
 8542SOL    HW137259   2.673   1.962   4.442  0.0596 -2.1192 -1.4288
 8542SOL    HW237260   2.595   2.024   4.556  1.4695 -0.0497  2.5403
 8543SOL     OW37261   1.512   3.915   5.016  0.5298 -0.0340  0.2379
 8543SOL    HW137262   1.499   3.992   4.960  0.2602 -0.6732 -0.5788
 8543SOL    HW237263   1.584   3.939   5.074  0.6862 -0.7010  0.3187
 8544SOL     OW37264   2.661   1.644   8.915  0.5953  0.1585  0.2946
 8544SOL    HW137265   2.751   1.623   8.939 -0.2132 -3.2874  0.3186
 8544SOL    HW237266   2.618   1.560   8.902 -1.0035  0.9780  0.2757
 8545SOL     OW37267   1.960   3.021  12.050  0.0636 -0.0235  0.7619
 8545SOL    HW137268   2.028   3.030  11.983  0.5602  1.5125  1.4779
 8545SOL    HW237269   1.986   3.079  12.122  0.3536 -1.5612  1.8810
 8546SOL     OW37270   0.148   4.128   4.596  0.1520  0.4723 -0.0112
 8546SOL    HW137271   0.167   4.061   4.662  0.6287  0.1921 -0.4330
 8546SOL    HW237272   0.230   4.177   4.589  0.4950 -0.6195 -3.6984
 8547SOL     OW37273   0.967   2.505   5.002 -0.2887 -0.7482 -0.1669
 8547SOL    HW137274   1.030   2.440   4.970  1.7605  0.3366  1.6569
 8547SOL    HW237275   0.986   2.577   4.943 -0.0762  0.7612  1.7263
 8548SOL     OW37276   1.057   3.836  15.910  0.1129  0.3894  0.9687
 8548SOL    HW137277   0.999   3.891  15.858 -0.7916 -0.7962  0.7157
 8548SOL    HW237278   1.146   3.844  15.875  0.5407  0.0403  1.9687
 8549SOL     OW37279   4.674   2.035   5.095  0.1978  0.0476 -0.3644
 8549SOL    HW137280   4.592   2.083   5.092 -1.2396 -2.4389 -0.1334
 8549SOL    HW237281   4.641   1.954   5.131  1.1350 -0.8342 -1.4766
 8550SOL     OW37282   1.488   0.258   1.676  0.3504 -0.4596 -0.2884
 8550SOL    HW137283   1.500   0.176   1.724  3.4563 -0.1892 -0.6175
 8550SOL    HW237284   1.541   0.245   1.597  0.3612 -1.3398 -0.1367
 8551SOL     OW37285   0.762   1.378   1.138  0.1950  0.1786 -0.0164
 8551SOL    HW137286   0.670   1.354   1.141  0.2201  0.2020  0.8124
 8551SOL    HW237287   0.808   1.293   1.135  0.6579  0.3662  1.7004
 8552SOL     OW37288   3.215   4.174   7.024 -1.0157 -0.3386 -0.4266
 8552SOL    HW137289   3.213   4.084   7.057  0.1697 -0.4113 -0.5614
 8552SOL    HW237290   3.136   4.174   6.970  0.2033 -0.5369 -2.2064
 8553SOL     OW37291   3.291   1.648  10.554 -0.9111 -0.1068  0.2374
 8553SOL    HW137292   3.251   1.590  10.489  0.3936 -1.5080  0.6877
 8553SOL    HW237293   3.238   1.727  10.540  0.2614  0.1159 -3.1934
 8554SOL     OW37294   0.914   2.222   6.353 -0.0438 -0.0832 -0.4444
 8554SOL    HW137295   0.873   2.137   6.369 -0.1524 -0.1559 -1.1200
 8554SOL    HW237296   0.925   2.217   6.258 -1.6903  2.9774 -0.8093
 8555SOL     OW37297   3.720   0.206   0.001  0.3635  0.5133 -0.1638
 8555SOL    HW137298   3.667   0.275   0.041  0.1778  0.0561  0.3838
 8555SOL    HW237299   3.709   0.220  17.656 -3.6726  0.2730  0.2789
 8556SOL     OW37300   3.233   4.649   5.922 -0.0583  0.5840  0.0728
 8556SOL    HW137301   3.209   4.568   5.878 -0.3836  1.0481 -0.5973
 8556SOL    HW237302   3.245   4.617   6.012 -2.4581  1.6345  0.7802
 8557SOL     OW37303   0.071   2.043   7.923  0.1091 -0.0030 -0.1423
 8557SOL    HW137304   0.072   2.116   7.861  0.0600 -0.0100 -0.1520
 8557SOL    HW237305   0.161   2.033   7.953 -0.6099 -1.0601  1.7044
 8558SOL     OW37306   2.763   1.323   5.850 -0.2495  0.0991  0.0233
 8558SOL    HW137307   2.770   1.367   5.765 -1.0014 -1.7354 -0.9857
 8558SOL    HW237308   2.745   1.398   5.907  1.4697 -0.2471  1.0339
 8559SOL     OW37309   1.130   1.663  15.009  0.2173  0.0399  0.7509
 8559SOL    HW137310   1.067   1.732  15.031 -0.2974 -0.7128  1.6284
 8559SOL    HW237311   1.137   1.628  15.098 -0.4714 -1.4174  0.2381
 8560SOL     OW37312   4.451   0.065   6.472 -0.1331 -0.0914  0.0381
 8560SOL    HW137313   4.357   0.078   6.485 -0.1832 -0.6815  0.2673
 8560SOL    HW237314   4.477   0.036   6.560  1.3551  1.7657  0.2347
 8561SOL     OW37315   4.581   0.006   8.583  0.2184  0.2975 -0.2009
 8561SOL    HW137316   4.647   4.696   8.534  0.6004  0.3294  0.2878
 8561SOL    HW237317   4.630   0.084   8.612 -3.0133  1.9671  0.8404
 8562SOL     OW37318   2.569   2.884   7.272  0.1556  0.0663 -0.1105
 8562SOL    HW137319   2.490   2.937   7.285  0.2604  0.2233 -0.1155
 8562SOL    HW237320   2.626   2.924   7.338  1.5414 -1.7826 -0.1817
 8563SOL     OW37321   4.240   0.864   9.897 -0.0680  0.4949  0.3354
 8563SOL    HW137322   4.150   0.835   9.910  0.1234 -0.8254 -1.3247
 8563SOL    HW237323   4.271   0.828   9.980 -1.3427  1.3705  1.2072
 8564SOL     OW37324   0.531   0.767   9.538  0.0519  0.0156  0.6903
 8564SOL    HW137325   0.590   0.701   9.577  2.3825  1.2196 -0.8138
 8564SOL    HW237326   0.510   0.709   9.465  0.5454  0.2077  0.3967
 8565SOL     OW37327   1.322   1.107   9.198  0.0768 -0.3317  0.2897
 8565SOL    HW137328   1.280   1.190   9.178  1.4768  0.1051 -0.8783
 8565SOL    HW237329   1.251   1.058   9.157  1.3287 -0.0571 -2.2561
 8566SOL     OW37330   0.271   2.643   8.305  1.1426 -0.3315  0.0418
 8566SOL    HW137331   0.241   2.596   8.382  0.7685  0.9552  0.6954
 8566SOL    HW237332   0.365   2.657   8.315  1.1904 -2.8354  2.8242
 8567SOL     OW37333   3.301   0.800   4.938  0.3305  0.0901 -0.0960
 8567SOL    HW137334   3.383   0.825   4.896  0.2220  1.9627  0.8153
 8567SOL    HW237335   3.325   0.804   5.031  0.1160 -2.3338  0.0638
 8568SOL     OW37336   1.265   3.610   8.421  0.1316  0.0934 -0.1815
 8568SOL    HW137337   1.191   3.665   8.395  0.5674  0.4776 -0.6014
 8568SOL    HW237338   1.292   3.664   8.495 -0.9725 -1.7457  1.5751
 8569SOL     OW37339   4.182   0.455   7.879 -0.3333 -0.2706  0.1575
 8569SOL    HW137340   4.144   0.387   7.934 -1.1981 -0.7670 -1.0633
 8569SOL    HW237341   4.243   0.398   7.832 -2.3825 -1.1574 -1.4073
 8570SOL     OW37342   2.873   3.337  17.712  0.0125 -0.2193  0.4225
 8570SOL    HW137343   2.880   3.293  17.627  1.7687  0.5709  0.1585
 8570SOL    HW237344   2.928   3.286   0.022  1.5003  1.0124  0.1133
 8571SOL     OW37345   3.201   1.846   3.536  0.1007 -0.1022 -0.1082
 8571SOL    HW137346   3.262   1.912   3.504  0.3140 -0.5107 -0.5587
 8571SOL    HW237347   3.165   1.797   3.461  0.9024  0.4165 -0.8295
 8572SOL     OW37348   4.692   4.205  17.237  0.0363  0.0593  0.9875
 8572SOL    HW137349   4.660   4.257  17.311 -0.5561  0.2287  0.6110
 8572SOL    HW237350   4.730   4.130  17.283 -0.4775  0.1770  1.6186
 8573SOL     OW37351   1.299   3.570  15.299 -0.3522  0.1888  0.4009
 8573SOL    HW137352   1.259   3.544  15.382 -2.7698  0.4123 -0.6864
 8573SOL    HW237353   1.254   3.516  15.234  3.4346 -0.1028 -2.0007
 8574SOL     OW37354   1.687   0.812   6.082  0.0482 -0.3404 -0.1013
 8574SOL    HW137355   1.770   0.773   6.109  0.5134  1.5534  1.2461
 8574SOL    HW237356   1.623   0.784   6.147 -1.1224  0.8704 -0.7279
 8575SOL     OW37357   3.756   1.692   4.852 -0.5500  0.1596 -0.4665
 8575SOL    HW137358   3.762   1.756   4.781 -3.3943 -0.0150 -0.8622
 8575SOL    HW237359   3.826   1.702   4.916 -0.0906 -0.4581 -0.8651
 8576SOL     OW37360   1.134   3.432   2.112  0.5835 -0.3403  0.0756
 8576SOL    HW137361   1.151   3.518   2.153 -0.0739  0.5942 -1.6242
 8576SOL    HW237362   1.168   3.371   2.177  1.6702  0.3275  0.1314
 8577SOL     OW37363   4.571   3.762   5.370  0.0823  0.2896  0.2933
 8577SOL    HW137364   4.613   3.840   5.405  2.8108 -1.5569  1.1705
 8577SOL    HW237365   4.617   3.692   5.416 -0.2956  0.0933  0.3726
 8578SOL     OW37366   3.753   1.919   2.270  0.4717  0.4308 -0.4918
 8578SOL    HW137367   3.730   1.844   2.324  0.8840  1.7976  1.5528
 8578SOL    HW237368   3.717   1.879   2.190 -1.4900  1.1734  0.0213
 8579SOL     OW37369   1.083   2.591   7.282  0.7022  0.3831 -0.0288
 8579SOL    HW137370   1.139   2.515   7.296 -1.0509 -0.7744  0.6315
 8579SOL    HW237371   1.071   2.592   7.187 -0.4544 -0.3163  0.1076
 8580SOL     OW37372   3.131   2.446   0.283 -0.1318  0.5988 -0.0585
 8580SOL    HW137373   3.121   2.352   0.303  2.0893  0.4587  0.3863
 8580SOL    HW237374   3.126   2.439   0.188  2.2398  0.1718 -0.1556
 8581SOL     OW37375   1.670   0.275  10.810 -0.4481 -0.2779 -0.4134
 8581SOL    HW137376   1.740   0.215  10.834  0.5798  1.6253  1.3691
 8581SOL    HW237377   1.698   0.346  10.868 -1.0340  1.4698 -2.2628
 8582SOL     OW37378   4.582   0.492   9.714 -0.0510  1.0855 -0.4664
 8582SOL    HW137379   4.565   0.580   9.681  0.6032  1.3865  0.0130
 8582SOL    HW237380   4.582   0.504   9.809 -2.5972 -0.9903 -0.2102
 8583SOL     OW37381   0.444   4.420   8.007 -0.2372 -0.2671 -0.3497
 8583SOL    HW137382   0.428   4.362   7.932 -0.3625  0.9673 -1.2859
 8583SOL    HW237383   0.370   4.395   8.063  1.4313 -0.8358  1.5583
 8584SOL     OW37384   3.257   2.970   6.118  0.6206 -0.2153 -0.0727
 8584SOL    HW137385   3.324   2.909   6.149 -0.1008  1.1895  4.1397
 8584SOL    HW237386   3.302   3.052   6.140  2.1970 -0.5832 -1.8696
 8585SOL     OW37387   1.273   4.626   7.378 -0.1133 -0.0043  0.1160
 8585SOL    HW137388   1.216   4.698   7.351 -1.8515 -1.0680  0.9709
 8585SOL    HW237389   1.289   4.581   7.295 -1.7389  1.5304 -1.0261
 8586SOL     OW37390   3.003   1.361   3.994 -0.0645  0.2174  1.0049
 8586SOL    HW137391   3.034   1.289   4.050 -1.2106 -0.2577  1.0383
 8586SOL    HW237392   3.062   1.364   3.919 -2.0232 -0.4477 -0.5593
 8587SOL     OW37393   4.323   3.097  17.234 -0.4177 -0.1305 -0.0217
 8587SOL    HW137394   4.298   3.009  17.205  1.3230 -0.8852  0.7681
 8587SOL    HW237395   4.235   3.132  17.242 -0.4122  0.1241 -1.0286
 8588SOL     OW37396   1.091   4.525   5.017 -0.2110 -0.7162  0.0877
 8588SOL    HW137397   1.048   4.441   5.031  0.3659 -0.6530  2.3596
 8588SOL    HW237398   1.169   4.505   5.069 -1.1264  0.1411  1.8086
 8589SOL     OW37399   0.056   4.486   6.902  0.7182 -0.3383 -0.0384
 8589SOL    HW137400   0.131   4.434   6.930  1.9702  0.3187 -2.1943
 8589SOL    HW237401   0.078   4.571   6.940 -1.7396 -0.2198  1.1495
 8590SOL     OW37402   4.350   3.177   2.767  0.2879 -0.3421 -0.1426
 8590SOL    HW137403   4.303   3.103   2.727 -0.6371  1.5355 -2.4996
 8590SOL    HW237404   4.300   3.179   2.849  2.4916 -0.8254  1.2152
 8591SOL     OW37405   0.243   0.861  11.043 -1.0488  0.2180  0.6614
 8591SOL    HW137406   0.237   0.806  11.121  3.2549 -0.2813  0.6310
 8591SOL    HW237407   0.332   0.884  11.068 -0.2200 -0.3372 -1.7601
 8592SOL     OW37408   3.816   0.319   3.543 -0.1669  0.2497 -0.3988
 8592SOL    HW137409   3.774   0.335   3.459 -0.1038  2.5740 -0.0137
 8592SOL    HW237410   3.761   0.370   3.603  0.7655  0.3300  0.4039
 8593SOL     OW37411   4.449   0.099   8.887  0.5045 -0.0683 -0.4610
 8593SOL    HW137412   4.521   0.142   8.842 -0.1327  1.2793 -0.1913
 8593SOL    HW237413   4.398   0.072   8.811  0.3166 -2.5961  0.5537
 8594SOL     OW37414   1.948   1.027   2.445  0.2835 -0.0954  0.0404
 8594SOL    HW137415   1.884   0.959   2.424  1.9230 -1.1370 -1.5392
 8594SOL    HW237416   2.002   1.031   2.366  0.4038 -0.4935  0.1056
 8595SOL     OW37417   1.920   0.801  14.704 -0.2081 -0.3616  0.5675
 8595SOL    HW137418   1.829   0.803  14.673  0.3683 -1.7818 -1.2794
 8595SOL    HW237419   1.949   0.887  14.676 -1.2286 -0.8575 -2.0729
 8596SOL     OW37420   4.387   1.762   2.763  0.4738 -0.6767  0.3580
 8596SOL    HW137421   4.443   1.751   2.840 -0.6180  1.5287  1.4622
 8596SOL    HW237422   4.330   1.835   2.787  3.1617  2.2826 -2.2371
 8597SOL     OW37423   4.643   2.279   1.490  0.0385  0.2732  0.0436
 8597SOL    HW137424   4.654   2.363   1.534  1.2477  1.2362 -2.0629
 8597SOL    HW237425   4.616   2.308   1.403  0.3211  2.6889  0.7570
 8598SOL     OW37426   0.341   3.930   4.594 -0.6000 -0.5422 -0.3844
 8598SOL    HW137427   0.320   3.887   4.511 -2.1637  1.0303 -0.8002
 8598SOL    HW237428   0.412   3.990   4.576 -0.9450 -0.1289 -0.3731
 8599SOL     OW37429   1.530   2.603  10.767  0.2845  0.1392  0.6036
 8599SOL    HW137430   1.463   2.547  10.806 -1.4015  1.3823 -0.5089
 8599SOL    HW237431   1.516   2.581  10.675 -0.2853 -0.1837  0.7684
 8600SOL     OW37432   2.812   0.850  15.789 -0.4901 -0.1477  0.0321
 8600SOL    HW137433   2.786   0.908  15.719 -1.5272 -2.2647 -1.3373
 8600SOL    HW237434   2.901   0.822  15.769 -0.8544 -1.1707 -0.1630
 8601SOL     OW37435   2.794   0.726  13.074 -0.3062  0.1635 -0.2057
 8601SOL    HW137436   2.810   0.638  13.107  2.1070  1.7593  2.8666
 8601SOL    HW237437   2.710   0.740  13.118  0.5642  2.5663  0.6852
 8602SOL     OW37438   0.100   0.554  12.162 -0.2859 -0.1680  0.2766
 8602SOL    HW137439   0.125   0.626  12.104 -0.8539 -0.4400 -0.3010
 8602SOL    HW237440   0.156   0.481  12.137 -2.5597 -1.3675 -1.2527
 8603SOL     OW37441   0.386   4.559   4.386 -0.0605  0.2004 -0.0886
 8603SOL    HW137442   0.415   4.469   4.369  2.0913  1.3294 -2.3316
 8603SOL    HW237443   0.438   4.594   4.458 -1.4860  0.7878  0.6512
 8604SOL     OW37444   1.249   0.876  12.571 -0.6155 -0.6281  0.5092
 8604SOL    HW137445   1.326   0.821  12.557 -0.4843 -0.2301 -0.3182
 8604SOL    HW237446   1.193   0.862  12.494 -1.1462 -1.3052  1.0144
 8605SOL     OW37447   4.243   1.444  12.402 -0.2566 -0.2173 -0.3335
 8605SOL    HW137448   4.241   1.538  12.385  1.9351 -0.2856 -0.9563
 8605SOL    HW237449   4.199   1.411  12.324 -2.9941 -0.4578  1.3305
 8606SOL     OW37450   2.455   0.072   6.653  0.5574 -0.2052  0.0786
 8606SOL    HW137451   2.534   0.098   6.607  0.5799  0.3580  0.4396
 8606SOL    HW237452   2.407   0.025   6.584 -0.1501 -2.1353  1.8775
 8607SOL     OW37453   3.762   0.498  17.142 -0.2002  0.1488  0.5715
 8607SOL    HW137454   3.675   0.509  17.181 -2.0046  0.2054 -3.4131
 8607SOL    HW237455   3.747   0.502  17.047  0.6133  0.8989  0.4795
 8608SOL     OW37456   3.364   2.706  10.225  0.2761  0.5466  0.4072
 8608SOL    HW137457   3.345   2.800  10.229  0.9159  0.6863  0.1806
 8608SOL    HW237458   3.459   2.713  10.229  0.2909 -0.6403  2.0461
 8609SOL     OW37459   3.010   3.525   3.220  0.1183 -0.0376 -0.0209
 8609SOL    HW137460   3.083   3.564   3.173  0.6946 -1.7049 -0.5338
 8609SOL    HW237461   3.022   3.555   3.310  2.5554 -1.6367  0.1978
 8610SOL     OW37462   2.653   3.318  16.576  0.2606 -0.3670 -0.1482
 8610SOL    HW137463   2.692   3.405  16.568 -0.0088 -0.3134 -0.9043
 8610SOL    HW237464   2.570   3.326  16.624  0.2541  1.9353 -0.5288
 8611SOL     OW37465   3.172   0.795   6.315 -0.0338 -0.2237  0.4359
 8611SOL    HW137466   3.112   0.838   6.254 -0.0573 -0.6579  0.1552
 8611SOL    HW237467   3.211   0.868   6.363  2.8375 -0.7120 -1.2092
 8612SOL     OW37468   0.562   1.792   5.881  0.3009  0.7584 -0.0927
 8612SOL    HW137469   0.632   1.856   5.866  1.6803 -0.7570 -0.1757
 8612SOL    HW237470   0.511   1.818   5.805  2.1514  0.3305 -1.4910
 8613SOL     OW37471   0.150   3.034   9.068  0.2190  0.1708  0.0750
 8613SOL    HW137472   0.214   2.994   9.009  0.1247  1.4920 -0.9271
 8613SOL    HW237473   0.149   2.977   9.144 -0.7327  0.2300  0.1004
 8614SOL     OW37474   2.324   3.815   7.094  0.1240  0.0754  0.1904
 8614SOL    HW137475   2.240   3.823   7.049  0.5018  1.8604 -0.1915
 8614SOL    HW237476   2.340   3.721   7.094  0.1202  0.0749  0.2429
 8615SOL     OW37477   1.661   4.726   6.014 -0.0834 -0.3228  0.3327
 8615SOL    HW137478   1.693   0.064   6.063 -1.6743  2.0821 -2.3286
 8615SOL    HW237479   1.743   4.677   6.005  0.2439  0.4036 -0.5498
 8616SOL     OW37480   0.699   4.658   5.547 -0.7302  0.7393  0.3431
 8616SOL    HW137481   0.725   4.568   5.526  0.5199  1.3205 -0.6090
 8616SOL    HW237482   0.719   4.665   5.640  0.7802 -0.3329  0.0952
 8617SOL     OW37483   1.449   1.475   7.892 -0.2557 -0.0263  0.1862
 8617SOL    HW137484   1.514   1.530   7.846 -1.2411 -0.4085 -1.6695
 8617SOL    HW237485   1.373   1.533   7.885 -0.4183 -0.1330  1.1646
 8618SOL     OW37486   4.536   3.656   4.855  0.2228  0.4428 -0.4684
 8618SOL    HW137487   4.488   3.640   4.773 -2.2132 -2.0922  1.4535
 8618SOL    HW237488   4.471   3.634   4.921 -0.7344 -0.2139 -1.6240
 8619SOL     OW37489   4.619   3.893   4.608  0.0064  0.6557  0.4956
 8619SOL    HW137490   4.711   3.887   4.636  0.6623  0.0933 -1.7579
 8619SOL    HW237491   4.570   3.900   4.690  0.1286  1.9736  0.4586
 8620SOL     OW37492   4.113   1.011   8.122  0.7367 -0.7616  0.3576
 8620SOL    HW137493   4.187   1.063   8.088 -1.4507  0.3808 -2.6594
 8620SOL    HW237494   4.069   1.003   8.037  0.9257  1.7861  0.0204
 8621SOL     OW37495   3.609   3.152   8.492 -0.0042 -0.1649  0.2446
 8621SOL    HW137496   3.665   3.229   8.482 -0.1836  0.0625  0.9769
 8621SOL    HW237497   3.527   3.201   8.500 -0.6851 -1.5479  1.7518
 8622SOL     OW37498   4.406   1.938   6.277 -0.0780 -0.3887 -0.6709
 8622SOL    HW137499   4.412   1.952   6.183 -2.1877 -1.3267 -0.9594
 8622SOL    HW237500   4.454   2.010   6.318  1.4211 -0.6102 -2.0793
 8623SOL     OW37501   1.353   4.100   1.697 -0.5741  0.2406 -0.3478
 8623SOL    HW137502   1.408   4.024   1.677  0.4439  1.3134 -1.6643
 8623SOL    HW237503   1.290   4.054   1.752  1.5067 -1.5544  0.5183
 8624SOL     OW37504   1.885   2.444   2.618  0.3599 -0.8278  0.3065
 8624SOL    HW137505   1.903   2.538   2.627 -0.9261 -0.6149  0.7174
 8624SOL    HW237506   1.797   2.442   2.581  0.2061 -0.1950  0.6309
 8625SOL     OW37507   2.263   2.199   0.870  0.0402  0.0410 -0.4056
 8625SOL    HW137508   2.212   2.180   0.791  1.2421 -1.8201 -0.7359
 8625SOL    HW237509   2.292   2.114   0.903 -1.6415 -1.1558 -2.0182
 8626SOL     OW37510   0.834   1.254   3.789 -0.0014  0.2644 -0.5592
 8626SOL    HW137511   0.769   1.193   3.754 -1.8251  1.4604  0.7122
 8626SOL    HW237512   0.794   1.335   3.756  0.9555 -0.4578 -3.5209
 8627SOL     OW37513   2.986   4.652   1.143 -0.3295 -0.4920  0.6370
 8627SOL    HW137514   3.046   4.654   1.069 -2.0840 -4.5102 -0.8914
 8627SOL    HW237515   3.045   4.671   1.216 -0.9617  0.1857  0.9750
 8628SOL     OW37516   4.188   0.870  14.373 -0.2343  0.2421  0.2393
 8628SOL    HW137517   4.259   0.860  14.436  2.6245 -0.3661 -3.0291
 8628SOL    HW237518   4.128   0.797  14.386 -0.5608  0.8529  2.0655
 8629SOL     OW37519   2.375   2.993   4.348  0.0247  0.1176 -0.4177
 8629SOL    HW137520   2.297   3.036   4.382  1.8406  1.3043  2.2149
 8629SOL    HW237521   2.388   3.043   4.267 -1.0566 -0.9405 -1.2435
 8630SOL     OW37522   3.343   3.744   7.372  0.0211 -0.2558 -0.0975
 8630SOL    HW137523   3.351   3.768   7.465  0.4472  1.0548 -0.4743
 8630SOL    HW237524   3.349   3.649   7.374 -0.4281 -0.2679  0.7410
 8631SOL     OW37525   3.484   1.746  10.321  0.0989  0.0391 -0.0067
 8631SOL    HW137526   3.398   1.719  10.287 -0.2339  0.0633  0.8156
 8631SOL    HW237527   3.464   1.748  10.415  1.5867  1.6680  0.2551
 8632SOL     OW37528   3.094   2.585   3.382  0.4943  0.0635 -0.4070
 8632SOL    HW137529   3.043   2.505   3.368 -0.3912  0.1958  2.1193
 8632SOL    HW237530   3.129   2.579   3.471  0.9372  1.1572 -0.5061
 8633SOL     OW37531   1.426   4.608  12.059  0.0885 -0.1948 -0.1148
 8633SOL    HW137532   1.500   4.648  12.104  0.2478 -0.8992  0.2498
 8633SOL    HW237533   1.381   4.565  12.132 -2.0767  0.4955 -1.0302
 8634SOL     OW37534   1.486   2.331  14.559  0.3621 -0.0958  1.0365
 8634SOL    HW137535   1.439   2.305  14.639 -0.4442  2.0924  1.2965
 8634SOL    HW237536   1.532   2.403  14.602 -0.4281  1.3385 -0.5145
 8635SOL     OW37537   2.646   0.518   7.644 -0.4492 -0.2223  0.1174
 8635SOL    HW137538   2.732   0.497   7.680 -0.2068  0.1803 -0.2212
 8635SOL    HW237539   2.646   0.611   7.619  0.4157  0.3913  2.3657
 8636SOL     OW37540   1.792   3.511   8.311 -0.2016 -0.0890 -0.1656
 8636SOL    HW137541   1.740   3.592   8.315  0.7507  0.4431  1.4029
 8636SOL    HW237542   1.884   3.537   8.311 -0.1360 -0.3231 -0.2094
 8637SOL     OW37543   1.864   3.057   4.096 -0.3669 -0.2615  0.0714
 8637SOL    HW137544   1.797   3.121   4.121  2.5815  1.7484  2.7058
 8637SOL    HW237545   1.846   3.008   4.176  0.4835  0.6533  0.8279
 8638SOL     OW37546   4.682   1.659   0.108 -0.4156 -0.6745  0.0530
 8638SOL    HW137547   4.662   1.565   0.113 -0.7522 -0.6193 -0.2273
 8638SOL    HW237548   4.682   1.676   0.014 -1.4345 -0.0268  0.1663
 8639SOL     OW37549   1.375   2.132   7.862  0.5167  0.0006  0.1217
 8639SOL    HW137550   1.337   2.050   7.896  1.5330  0.4579  2.3712
 8639SOL    HW237551   1.446   2.097   7.808  0.4739  1.0179 -0.5795
 8640SOL     OW37552   1.288   0.278   3.611 -0.4574  0.5341  0.1791
 8640SOL    HW137553   1.374   0.316   3.628 -0.2715  0.1467  0.0924
 8640SOL    HW237554   1.231   0.349   3.641  0.9297  0.7025  2.4552
 8641SOL     OW37555   3.982   2.278   4.718  0.0622  0.0910 -0.8955
 8641SOL    HW137556   3.913   2.215   4.737 -0.9993  1.1040 -1.3777
 8641SOL    HW237557   3.989   2.328   4.800 -1.6412 -0.6402 -0.3237
 8642SOL     OW37558   0.005   4.001  16.532 -0.8127  0.8314  0.4161
 8642SOL    HW137559   0.065   3.992  16.606 -0.2712  0.0563 -0.1062
 8642SOL    HW237560   0.013   4.096  16.529 -2.5988  0.9561 -0.0961
 8643SOL     OW37561   3.021   3.400  13.708  0.0461 -0.5066  0.5874
 8643SOL    HW137562   3.045   3.469  13.646 -0.4720 -0.7380  0.1234
 8643SOL    HW237563   2.991   3.341  13.640 -1.5897 -1.0650  1.7907
 8644SOL     OW37564   0.726   1.136  14.115  0.6663  0.2034 -0.2265
 8644SOL    HW137565   0.753   1.171  14.200  1.9092 -1.0940 -0.0939
 8644SOL    HW237566   0.661   1.205  14.099  1.7165  0.7787 -1.9689
 8645SOL     OW37567   4.424   4.305   8.547 -0.1790  0.3091 -0.6448
 8645SOL    HW137568   4.463   4.226   8.584 -2.4931 -1.5437 -2.1242
 8645SOL    HW237569   4.452   4.372   8.609  0.0493  0.2755 -0.7121
 8646SOL     OW37570   1.402   4.015  13.778  0.0125  0.2467  0.2364
 8646SOL    HW137571   1.464   4.074  13.820  2.1020  0.0456 -2.6301
 8646SOL    HW237572   1.469   3.950  13.757  0.2546  0.2191  1.0702
 8647SOL     OW37573   2.847   0.733   0.886  0.5301 -0.2665 -0.0805
 8647SOL    HW137574   2.840   0.802   0.952  1.1714  0.7651 -1.1044
 8647SOL    HW237575   2.758   0.716   0.853 -0.3415  2.7002  0.8120
 8648SOL     OW37576   0.593   2.281  12.368  0.4729  0.2848  0.3185
 8648SOL    HW137577   0.576   2.188  12.385 -0.8547  0.6253  0.8259
 8648SOL    HW237578   0.557   2.280  12.280 -0.2873  2.2320  0.6212
 8649SOL     OW37579   3.852   4.574   6.640  0.3194  0.0542  0.2307
 8649SOL    HW137580   3.868   4.594   6.732 -2.0870 -0.4892  0.7744
 8649SOL    HW237581   3.781   4.637   6.629  0.4534  0.2398  0.4306
 8650SOL     OW37582   4.595   4.719   9.879 -0.3518  0.5032 -0.5909
 8650SOL    HW137583   4.524   4.680   9.930 -0.2096 -0.5421 -1.2002
 8650SOL    HW237584   4.556   0.067   9.861 -1.0224 -0.0053 -1.5182
 8651SOL     OW37585   0.804   3.940   5.036  1.0765  0.4247 -0.2649
 8651SOL    HW137586   0.816   3.958   5.129 -2.2405  0.8121  0.0779
 8651SOL    HW237587   0.889   3.902   5.013  0.2056 -1.4052 -0.4905
 8652SOL     OW37588   2.771   3.142   1.414  0.6794  0.0684 -0.5351
 8652SOL    HW137589   2.682   3.144   1.449  0.5577 -0.9260 -0.7929
 8652SOL    HW237590   2.811   3.200   1.479  0.5443 -1.1769  0.6635
 8653SOL     OW37591   2.250   4.459   4.252 -0.6304  0.0553 -0.4291
 8653SOL    HW137592   2.286   4.371   4.266 -0.1337  0.7697  2.9512
 8653SOL    HW237593   2.253   4.463   4.157 -1.6922  1.0962 -0.4094
 8654SOL     OW37594   1.518   3.044   4.069  0.3726 -0.1512 -0.3714
 8654SOL    HW137595   1.502   3.138   4.069  0.2381 -0.1765 -1.1448
 8654SOL    HW237596   1.565   3.032   4.152 -0.7083  0.5069  0.3346
 8655SOL     OW37597   3.771   2.512  12.639  0.2849  0.5934  0.6777
 8655SOL    HW137598   3.739   2.469  12.719 -0.3737 -0.9864 -0.4421
 8655SOL    HW237599   3.865   2.500  12.654  0.6384  1.7627 -0.6776
 8656SOL     OW37600   1.522   2.753   9.107 -0.1665 -0.8024  0.0457
 8656SOL    HW137601   1.612   2.733   9.081 -0.2714 -2.1208  0.7230
 8656SOL    HW237602   1.525   2.823   9.173  0.7493  0.3634 -1.2289
 8657SOL     OW37603   3.488   0.368   8.899 -0.6786 -0.5890 -0.2913
 8657SOL    HW137604   3.548   0.365   8.974 -1.0311 -0.0077  0.0156
 8657SOL    HW237605   3.517   0.449   8.858 -2.6359 -0.2309 -0.9267
 8658SOL     OW37606   1.659   3.875   8.959  0.1657  0.3900 -0.0365
 8658SOL    HW137607   1.712   3.949   8.989 -1.0372 -0.0083  3.1161
 8658SOL    HW237608   1.719   3.804   8.938  0.2597 -0.5131  3.2700
 8659SOL     OW37609   3.290   2.127  11.881  0.0066  0.3490  0.1260
 8659SOL    HW137610   3.326   2.150  11.795 -0.4745  0.1947 -0.1133
 8659SOL    HW237611   3.335   2.047  11.909 -0.4427  0.0896  0.0898
 8660SOL     OW37612   2.540   4.374   1.483  0.3135 -0.1289 -0.1911
 8660SOL    HW137613   2.585   4.299   1.445  1.4031  1.3115 -1.7848
 8660SOL    HW237614   2.603   4.442   1.459  1.1177 -0.3581  1.3111
 8661SOL     OW37615   3.693   3.935   5.059  0.7861 -0.4052 -0.2188
 8661SOL    HW137616   3.671   3.842   5.051  1.6529 -0.7591  1.5494
 8661SOL    HW237617   3.706   3.964   4.969  1.8697 -1.6597 -0.4582
 8662SOL     OW37618   4.362   1.583   8.828 -0.1203 -0.4694 -0.0120
 8662SOL    HW137619   4.406   1.499   8.813 -0.7751 -0.4710 -1.8772
 8662SOL    HW237620   4.440   1.639   8.835 -0.4958  0.2700 -1.8164
 8663SOL     OW37621   1.794   1.125  15.130  0.0415 -0.4739  0.7561
 8663SOL    HW137622   1.843   1.202  15.159  0.6163 -0.5446 -0.0200
 8663SOL    HW237623   1.709   1.139  15.171 -0.4186 -1.0394  0.0051
 8664SOL     OW37624   3.654   4.251   5.574  0.1734 -0.2431 -0.2329
 8664SOL    HW137625   3.748   4.255   5.588  0.1160 -1.3812  0.4859
 8664SOL    HW237626   3.610   4.291   5.649 -1.6177  1.9668 -2.4630
 8665SOL     OW37627   1.743   4.446   4.421  0.2141 -0.2069 -0.7004
 8665SOL    HW137628   1.668   4.425   4.366 -0.1202 -0.7249 -0.0537
 8665SOL    HW237629   1.803   4.377   4.397 -1.3105 -1.9363  0.4614
 8666SOL     OW37630   4.152   0.729   5.934  0.3416  0.0857  0.1214
 8666SOL    HW137631   4.222   0.794   5.936 -0.7014  1.1913 -0.0741
 8666SOL    HW237632   4.200   0.650   5.909  1.4852  0.5633  0.8076
 8667SOL     OW37633   1.790   1.451   0.784  0.2214 -0.1027  0.3087
 8667SOL    HW137634   1.774   1.545   0.784 -0.1482 -0.1790 -1.3997
 8667SOL    HW237635   1.734   1.421   0.713 -1.1994  1.0293  0.9585
 8668SOL     OW37636   3.028   3.685  15.805 -0.2894  0.2554  0.1231
 8668SOL    HW137637   2.960   3.698  15.871 -0.2809  0.2147  0.1402
 8668SOL    HW237638   3.103   3.659  15.858  0.0423 -0.1379 -0.5301
 8669SOL     OW37639   4.072   2.183   5.520 -0.1322  0.3428  0.1269
 8669SOL    HW137640   4.052   2.248   5.588  5.0222 -0.1218  2.0992
 8669SOL    HW237641   4.135   2.232   5.469 -0.0568  0.1491  0.0347
 8670SOL     OW37642   3.654   3.681   4.953  0.2026  0.3527 -0.2577
 8670SOL    HW137643   3.578   3.664   4.898  0.6455 -2.7448  0.1053
 8670SOL    HW237644   3.715   3.622   4.909 -1.1610 -1.5677  0.4317
 8671SOL     OW37645   0.672   0.170   0.931  0.6198  0.1099 -0.2229
 8671SOL    HW137646   0.607   0.176   1.002 -0.7737 -0.3765 -1.4604
 8671SOL    HW237647   0.686   0.263   0.913 -2.0363  0.8551  1.4140
 8672SOL     OW37648   0.754   4.229   4.459  0.0706  0.1417  0.0406
 8672SOL    HW137649   0.830   4.282   4.485 -0.0518  0.0392  0.6098
 8672SOL    HW237650   0.778   4.208   4.368 -3.0916 -2.7412 -0.1094
 8673SOL     OW37651   2.157   3.242   8.519  0.5140  0.0658  0.3282
 8673SOL    HW137652   2.083   3.254   8.460  1.1000 -0.2140 -0.4824
 8673SOL    HW237653   2.221   3.201   8.460  0.0683  1.3074 -1.0112
 8674SOL     OW37654   4.630   2.700   1.953  0.2131 -0.2306  0.5830
 8674SOL    HW137655   4.656   2.625   2.007 -0.4744  1.3499  3.1111
 8674SOL    HW237656   4.694   2.760   1.992  3.0484 -1.3256 -2.3716
 8675SOL     OW37657   4.407   0.639   0.487 -0.3510  0.7128  0.1325
 8675SOL    HW137658   4.348   0.618   0.415 -0.4118  3.7885 -0.6953
 8675SOL    HW237659   4.375   0.581   0.556 -0.7548  1.0708  0.2449
 8676SOL     OW37660   3.535   4.654  16.150 -0.2527 -0.6191 -0.2803
 8676SOL    HW137661   3.585   4.612  16.079 -1.0256 -0.9913 -0.6009
 8676SOL    HW237662   3.469   4.590  16.176 -0.7739 -0.1180 -0.3883
 8677SOL     OW37663   0.238   4.309  15.611  0.1017 -0.0020  0.5169
 8677SOL    HW137664   0.164   4.344  15.562 -1.0483  2.5861  4.1511
 8677SOL    HW237665   0.191   4.255  15.674 -0.1304  0.8370  1.0650
 8678SOL     OW37666   0.765   2.757   3.668 -0.3756  0.1777  0.3983
 8678SOL    HW137667   0.783   2.806   3.748  1.2845 -0.8041  0.6109
 8678SOL    HW237668   0.768   2.674   3.715  1.6116  1.5797  2.7646
 8679SOL     OW37669   3.743   0.393   5.518 -0.2062 -0.2715  0.1481
 8679SOL    HW137670   3.701   0.380   5.433 -0.1253 -2.4463  0.4452
 8679SOL    HW237671   3.837   0.398   5.501 -0.0831 -0.5779  0.7279
 8680SOL     OW37672   4.031   0.256   5.198  0.1957 -0.1091  0.3611
 8680SOL    HW137673   3.971   0.185   5.173  1.2917 -1.4110  1.4401
 8680SOL    HW237674   4.112   0.205   5.191 -0.7962 -1.4954 -0.9826
 8681SOL     OW37675   3.656   0.996   5.323  0.7746 -0.0098 -0.0484
 8681SOL    HW137676   3.576   0.977   5.372 -0.3891 -1.1901 -2.4134
 8681SOL    HW237677   3.717   0.927   5.351 -0.8793 -0.9102  1.3361
 8682SOL     OW37678   4.679   1.586   4.978 -0.3360 -0.1541 -0.1098
 8682SOL    HW137679   4.636   1.559   5.059  1.1866 -2.4810 -0.0706
 8682SOL    HW237680   0.020   1.635   5.000 -0.5924  1.2051 -2.1563
 8683SOL     OW37681   2.888   1.493  14.645  0.5310  0.3674  0.5396
 8683SOL    HW137682   2.856   1.454  14.564 -0.7545 -0.3579  1.3854
 8683SOL    HW237683   2.840   1.442  14.710 -0.4691 -0.8000 -1.1224
 8684SOL     OW37684   4.202   4.361   2.608  0.0536 -0.1866 -0.2434
 8684SOL    HW137685   4.152   4.439   2.582 -1.6612 -1.3759 -0.4312
 8684SOL    HW237686   4.214   4.317   2.524  0.9336 -1.6603  0.6587
 8685SOL     OW37687   0.109   4.151   1.361 -0.1642 -0.0384 -0.2650
 8685SOL    HW137688   0.090   4.125   1.451  2.1342  0.3282  0.3399
 8685SOL    HW237689   0.172   4.079   1.350  0.6334  0.2251  2.4553
 8686SOL     OW37690   1.667   4.251   3.948 -0.1001 -0.0807  0.3181
 8686SOL    HW137691   1.741   4.312   3.959 -0.7642  0.6973  0.4674
 8686SOL    HW237692   1.703   4.190   3.884 -0.2977 -0.4084  0.5193
 8687SOL     OW37693   2.653   0.232   2.191  0.7224  0.0803 -0.0961
 8687SOL    HW137694   2.717   0.297   2.161  1.8149  0.1749  2.4538
 8687SOL    HW237695   2.576   0.268   2.147 -0.3214 -0.3964  1.3311
 8688SOL     OW37696   0.814   1.477   6.057 -0.1711 -0.1426  0.1385
 8688SOL    HW137697   0.722   1.497   6.040  0.5857  2.3639 -1.0078
 8688SOL    HW237698   0.806   1.442   6.146 -0.6350 -1.4334 -0.4154
 8689SOL     OW37699   0.415   0.721   9.947  0.3372 -0.5212  0.1864
 8689SOL    HW137700   0.355   0.774   9.894  2.3893 -0.3506 -1.9781
 8689SOL    HW237701   0.498   0.743   9.904  0.4745 -0.0609  0.6820
 8690SOL     OW37702   2.872   2.862   1.571 -0.4747  0.3890 -0.0136
 8690SOL    HW137703   2.876   2.915   1.651 -0.6839 -2.1299  1.6492
 8690SOL    HW237704   2.834   2.779   1.599 -0.2131 -0.3909 -1.9920
 8691SOL     OW37705   3.224   4.102   1.641  0.3779  0.3140 -0.2459
 8691SOL    HW137706   3.295   4.037   1.639  0.3828  0.2210  1.9676
 8691SOL    HW237707   3.152   4.055   1.685 -0.1356  0.1085 -1.3209
 8692SOL     OW37708   3.440   2.246   5.541 -0.3963 -0.3978 -0.2802
 8692SOL    HW137709   3.474   2.161   5.510 -2.4526 -1.1473 -0.5332
 8692SOL    HW237710   3.516   2.291   5.577  0.0139 -2.5235  1.4843
 8693SOL     OW37711   1.025   2.885   2.308  0.1252 -0.0005 -0.0567
 8693SOL    HW137712   0.962   2.952   2.335 -0.1723 -0.4994  0.4953
 8693SOL    HW237713   1.057   2.874   2.398  0.9394 -2.0673 -0.6095
 8694SOL     OW37714   4.005   2.385   6.533  0.3404 -0.1184  0.0827
 8694SOL    HW137715   4.088   2.427   6.556  0.8612 -0.6130 -0.8799
 8694SOL    HW237716   4.030   2.340   6.452  1.8105  0.4018  0.2477
 8695SOL     OW37717   0.506   1.741  13.392  0.1694  0.7948  0.0428
 8695SOL    HW137718   0.569   1.752  13.463 -0.5556  0.4037  0.7509
 8695SOL    HW237719   0.571   1.754  13.323  1.8643 -1.4392  1.2183
 8696SOL     OW37720   1.367   3.009   8.882  0.0964 -0.5131  0.2700
 8696SOL    HW137721   1.323   3.083   8.924  0.2106  0.7069 -1.8033
 8696SOL    HW237722   1.414   3.060   8.817 -1.7430  0.2478 -0.4847
 8697SOL     OW37723   4.024   3.828   3.548  0.2792 -0.0255 -0.3764
 8697SOL    HW137724   3.998   3.747   3.504  0.2267 -0.3738  0.2841
 8697SOL    HW237725   4.104   3.853   3.501  0.6869 -0.5006  0.0614
 8698SOL     OW37726   0.661   3.337   0.516 -0.2136 -0.0753  0.5606
 8698SOL    HW137727   0.685   3.428   0.535  0.0525  0.1539 -0.8990
 8698SOL    HW237728   0.571   3.328   0.549 -0.3028 -0.5274  0.1929
 8699SOL     OW37729   3.608   2.188   1.262  0.0923  0.0253 -1.1411
 8699SOL    HW137730   3.644   2.143   1.339  0.9876  1.3412 -0.7826
 8699SOL    HW237731   3.517   2.189   1.294  0.9627  2.5715  1.2885
 8700SOL     OW37732   4.512   1.201  15.354 -0.2799  0.0849  0.1806
 8700SOL    HW137733   4.524   1.167  15.443 -0.0803 -0.0401  0.1077
 8700SOL    HW237734   4.594   1.246  15.332  0.3133 -0.3814  1.4332
 8701SOL     OW37735   2.502   3.991   8.330 -0.6183 -0.4798 -0.1558
 8701SOL    HW137736   2.454   4.023   8.406  1.0722  3.4485 -0.7536
 8701SOL    HW237737   2.510   4.073   8.281  0.9663 -0.9683 -0.7034
 8702SOL     OW37738   1.950   4.409   5.160  0.0411 -0.0283  0.0434
 8702SOL    HW137739   1.931   4.498   5.132  0.5961 -0.2468 -1.0112
 8702SOL    HW237740   2.044   4.411   5.146 -0.2604  2.5099 -1.5414
 8703SOL     OW37741   2.236   2.152   5.049 -0.2249  0.4817  0.3844
 8703SOL    HW137742   2.254   2.196   4.966 -0.4662 -0.4875 -0.1895
 8703SOL    HW237743   2.323   2.134   5.086  1.0415  3.1034 -1.3330
 8704SOL     OW37744   1.743   0.119   2.039  0.0411 -0.3820 -0.0390
 8704SOL    HW137745   1.764   0.212   2.031 -2.7056  0.2473 -0.1513
 8704SOL    HW237746   1.803   0.087   2.106 -0.8126 -0.0572  0.8656
 8705SOL     OW37747   0.845   2.027   1.356 -0.0350 -0.1474  0.2507
 8705SOL    HW137748   0.930   1.984   1.345  0.8724  1.8449 -0.4978
 8705SOL    HW237749   0.809   1.982   1.432 -1.4504 -0.0762 -0.3939
 8706SOL     OW37750   2.181   0.741  15.251  0.4320 -0.7183 -0.3874
 8706SOL    HW137751   2.258   0.739  15.309  1.3499  0.6375 -1.5781
 8706SOL    HW237752   2.221   0.754  15.165  1.0309 -1.1784 -0.1782
 8707SOL     OW37753   2.171   2.706   6.733  0.2638 -0.1999 -0.6291
 8707SOL    HW137754   2.160   2.783   6.789  0.1392  0.7846 -2.0070
 8707SOL    HW237755   2.108   2.646   6.773 -1.1454  0.7474 -1.4213
 8708SOL     OW37756   0.024   3.157   2.153 -0.0181  0.3280 -0.1903
 8708SOL    HW137757   0.114   3.130   2.135 -0.3146  0.6230 -2.0834
 8708SOL    HW237758   0.016   3.132   2.245 -2.5860  2.2727  0.1152
 8709SOL     OW37759   1.679   1.810   0.467  0.4747  0.1042 -0.3792
 8709SOL    HW137760   1.647   1.720   0.469 -0.8065  0.5531 -0.2245
 8709SOL    HW237761   1.609   1.853   0.417  1.1481  2.9085  1.0927
 8710SOL     OW37762   0.939   0.406   9.298  0.8887  0.2088 -0.0187
 8710SOL    HW137763   0.988   0.488   9.289 -0.2248  0.9180  0.2790
 8710SOL    HW237764   0.877   0.399   9.224  0.2747  0.4574  0.4736
 8711SOL     OW37765   0.956   1.828  15.154 -0.2979 -0.0208 -0.1955
 8711SOL    HW137766   0.961   1.760  15.221 -0.2102  0.9483  0.7907
 8711SOL    HW237767   0.874   1.873  15.170 -0.6834 -1.3497  1.6304
 8712SOL     OW37768   3.330   3.879   3.216  0.4458 -0.1190  0.2975
 8712SOL    HW137769   3.262   3.940   3.243 -1.7343 -2.3700 -0.0195
 8712SOL    HW237770   3.355   3.924   3.135  3.6810  0.5496  1.6846
 8713SOL     OW37771   1.549   0.453   5.178  0.4018 -0.3490 -0.0619
 8713SOL    HW137772   1.614   0.453   5.108  1.8329  0.6289  1.2603
 8713SOL    HW237773   1.541   0.358   5.188 -0.2716 -0.2652  0.2352
 8714SOL     OW37774   3.979   1.084   9.340  0.4587 -0.5814 -0.1045
 8714SOL    HW137775   4.039   1.128   9.400 -0.4595  0.3552  0.1236
 8714SOL    HW237776   4.035   1.015   9.303  0.5685 -0.0486 -0.9492
 8715SOL     OW37777   4.275   3.795   6.534 -1.2784  0.3092  0.3210
 8715SOL    HW137778   4.353   3.743   6.513 -1.6230  0.0974 -0.4120
 8715SOL    HW237779   4.207   3.735   6.502  0.9217 -1.3529 -1.2487
 8716SOL     OW37780   0.725   2.501  16.051  0.6769  0.0062  0.3609
 8716SOL    HW137781   0.699   2.575  16.107  1.7452  0.0760  0.7777
 8716SOL    HW237782   0.779   2.545  15.985  1.4306 -0.8766  0.3928
 8717SOL     OW37783   2.953   3.619   2.696 -0.3030  0.1992  0.0117
 8717SOL    HW137784   2.875   3.567   2.715 -1.6999  2.2309 -0.1748
 8717SOL    HW237785   2.939   3.649   2.607 -1.2916  1.7179  0.6909
 8718SOL     OW37786   1.877   0.637  16.770  0.0019  0.3071  0.0190
 8718SOL    HW137787   1.886   0.730  16.790  2.8449 -0.4105  2.0042
 8718SOL    HW237788   1.804   0.608  16.824  1.5786 -1.6928  1.0796
 8719SOL     OW37789   1.006   3.347   4.880 -0.0603 -0.2200  0.3212
 8719SOL    HW137790   0.924   3.382   4.845  1.0701 -0.0960 -2.1513
 8719SOL    HW237791   1.061   3.344   4.803 -2.5084  0.4483 -1.4488
 8720SOL     OW37792   1.928   1.668   4.863 -0.4402 -0.6292 -0.0060
 8720SOL    HW137793   2.023   1.674   4.877 -0.5916  0.7427  0.4235
 8720SOL    HW237794   1.922   1.573   4.855 -0.7754 -0.4831 -1.4562
 8721SOL     OW37795   2.323   0.948   9.342  0.2536  0.8428 -0.3543
 8721SOL    HW137796   2.375   0.931   9.264  0.1044  1.4397 -0.5772
 8721SOL    HW237797   2.382   0.925   9.415  0.9664 -3.0307 -2.1328
 8722SOL     OW37798   1.511   0.377   8.200  0.2140  0.3092  0.3832
 8722SOL    HW137799   1.470   0.359   8.116  1.5868 -2.1349  0.2323
 8722SOL    HW237800   1.470   0.312   8.257  0.5214  1.6485  2.1251
 8723SOL     OW37801   0.631   4.389  16.186  0.3448 -0.5424  0.1420
 8723SOL    HW137802   0.616   4.450  16.258 -2.3710  0.4423 -1.2566
 8723SOL    HW237803   0.651   4.447  16.112  0.1816  0.1639  0.6535
 8724SOL     OW37804   1.195   1.014   1.819 -0.0356  0.7304  0.0870
 8724SOL    HW137805   1.140   0.999   1.896 -0.9663 -0.3205 -0.7891
 8724SOL    HW237806   1.237   1.093   1.852 -0.5073  1.3633 -0.8118
 8725SOL     OW37807   4.491   0.486   8.115  0.3238  0.0834 -0.3273
 8725SOL    HW137808   4.403   0.454   8.136  1.2738 -2.6448 -0.5742
 8725SOL    HW237809   4.471   0.580   8.115  0.5760  0.1360 -1.0409
 8726SOL     OW37810   1.081   0.941   8.808 -0.2592 -0.3302 -0.3309
 8726SOL    HW137811   1.018   0.986   8.751 -0.7411 -0.6761 -0.0762
 8726SOL    HW237812   1.096   0.854   8.771  1.3156  0.8931 -2.5572
 8727SOL     OW37813   0.217   1.912   1.583 -0.5409 -0.6448  0.3673
 8727SOL    HW137814   0.260   1.840   1.537 -1.2826 -0.6141 -0.3635
 8727SOL    HW237815   0.146   1.937   1.524 -0.7379  0.9735  1.2706
 8728SOL     OW37816   0.848   4.160   4.218 -0.3139  0.3067 -0.8368
 8728SOL    HW137817   0.795   4.088   4.183 -1.5060  1.1803 -0.7945
 8728SOL    HW237818   0.894   4.189   4.139 -1.3766 -1.1220 -1.9996
 8729SOL     OW37819   0.338   3.230  17.575 -0.0074 -0.5554 -0.8144
 8729SOL    HW137820   0.303   3.311  17.539 -0.4845 -1.1604 -1.7090
 8729SOL    HW237821   0.261   3.173  17.577  0.6918 -1.5024 -0.1904
 8730SOL     OW37822   3.559   3.289   8.904 -0.2108  0.0560  0.1335
 8730SOL    HW137823   3.508   3.234   8.963  0.4836  0.2977  0.9639
 8730SOL    HW237824   3.590   3.221   8.845  1.3424 -1.6947  2.9453
 8731SOL     OW37825   3.990   3.770   6.014 -0.2063  0.1239  0.5363
 8731SOL    HW137826   3.990   3.865   6.011  3.0982  0.1275  1.4253
 8731SOL    HW237827   3.997   3.750   5.920 -3.0186 -0.9759  0.5277
 8732SOL     OW37828   1.617   2.568  14.652 -0.1363 -0.1291 -0.5016
 8732SOL    HW137829   1.684   2.529  14.709 -0.0788 -1.3078 -1.3683
 8732SOL    HW237830   1.608   2.654  14.691 -1.5834 -1.8362  2.9455
 8733SOL     OW37831   3.974   4.061  12.374  0.4240  0.9129  0.3295
 8733SOL    HW137832   3.906   4.110  12.420  0.1929  0.1532  0.8004
 8733SOL    HW237833   3.966   4.105  12.290 -0.6968  2.2104  1.1059
 8734SOL     OW37834   3.863   3.402   1.100  0.4693 -0.2101 -0.2980
 8734SOL    HW137835   3.806   3.474   1.071  0.8405  0.9279  1.7886
 8734SOL    HW237836   3.845   3.418   1.193  1.1389 -0.6008 -0.1032
 8735SOL     OW37837   2.818   1.146   5.601 -0.0290  0.4702  0.3827
 8735SOL    HW137838   2.807   1.231   5.559 -1.3288 -0.7428 -1.7562
 8735SOL    HW237839   2.893   1.170   5.655 -0.9464  0.6126  1.5755
 8736SOL     OW37840   0.143   3.659   4.428 -0.0958  0.5580 -0.2913
 8736SOL    HW137841   0.160   3.632   4.518 -2.2380 -1.3562 -0.4721
 8736SOL    HW237842   0.058   3.620   4.406  0.4593  0.2207 -1.7972
 8737SOL     OW37843   3.667   1.259  11.987 -0.2019 -0.0103  0.6912
 8737SOL    HW137844   3.692   1.254  11.894 -0.1871  0.2645  0.6798
 8737SOL    HW237845   3.573   1.279  11.991 -0.6234 -1.7153 -0.6226
 8738SOL     OW37846   1.181   1.092  12.992  0.0089  0.0252 -0.1762
 8738SOL    HW137847   1.224   1.018  12.950  1.3560 -0.0844  1.4038
 8738SOL    HW237848   1.176   1.157  12.921 -1.3238  0.6667  0.4885
 8739SOL     OW37849   1.500   3.468   5.163  0.2052  0.1712  0.0152
 8739SOL    HW137850   1.467   3.380   5.148  0.5018  0.1584 -0.5816
 8739SOL    HW237851   1.580   3.433   5.201 -1.1273 -2.2642  0.5577
 8740SOL     OW37852   1.274   3.718   5.348  0.1251 -0.4325 -0.2676
 8740SOL    HW137853   1.249   3.626   5.356  2.4107 -0.9518  1.0496
 8740SOL    HW237854   1.353   3.729   5.296  0.0872  2.6179  0.3018
 8741SOL     OW37855   0.534   0.506   3.198  0.0553 -0.3000 -0.1182
 8741SOL    HW137856   0.590   0.562   3.251 -1.1090  0.0860  0.6816
 8741SOL    HW237857   0.448   0.544   3.214  1.3286  1.5838  2.1201
 8742SOL     OW37858   2.252   0.151   5.726  0.5480 -0.4183  0.3916
 8742SOL    HW137859   2.198   0.085   5.683  1.4206 -1.4529  0.8569
 8742SOL    HW237860   2.339   0.112   5.737  0.9249  0.6821  1.3570
 8743SOL     OW37861   4.128   2.197   2.379  0.5986 -0.0700 -0.2291
 8743SOL    HW137862   4.085   2.282   2.389 -0.6648 -0.7352 -0.0284
 8743SOL    HW237863   4.149   2.185   2.472 -0.5493  2.2252  0.3204
 8744SOL     OW37864   0.324   1.006  15.554 -0.1399  0.1236  0.4839
 8744SOL    HW137865   0.239   1.043  15.531  1.1435  0.9800 -2.8141
 8744SOL    HW237866   0.360   1.076  15.609  0.1750  0.9933 -0.8461
 8745SOL     OW37867   3.319   4.437   4.810  0.0232 -0.2401  0.4174
 8745SOL    HW137868   3.303   4.454   4.717 -0.5636 -0.1714  0.5283
 8745SOL    HW237869   3.414   4.438   4.815  0.2263  0.6500 -3.3082
 8746SOL     OW37870   0.204   1.450  15.596  0.3609 -0.5322  0.3279
 8746SOL    HW137871   0.287   1.497  15.588  0.1192 -0.0366  0.7577
 8746SOL    HW237872   0.165   1.450  15.509 -1.1756 -0.7026  1.0206
 8747SOL     OW37873   0.518   2.382   5.218  0.1500  0.4360  0.1834
 8747SOL    HW137874   0.428   2.395   5.188  0.5801  0.3811 -1.1424
 8747SOL    HW237875   0.571   2.416   5.146  2.5036 -0.2312  1.5829
 8748SOL     OW37876   2.430   0.876   3.664 -0.1175  0.1825  0.0248
 8748SOL    HW137877   2.438   0.875   3.760  1.9855 -0.1146 -0.1633
 8748SOL    HW237878   2.472   0.791   3.649  1.0199  0.5806  0.9480
 8749SOL     OW37879   2.049   1.542   0.809  0.6487 -0.3619 -0.7017
 8749SOL    HW137880   1.973   1.484   0.818  0.6077  0.2003  2.3335
 8749SOL    HW237881   2.042   1.549   0.714  1.6207 -0.2972 -0.7695
 8750SOL     OW37882   3.995   2.199   1.386 -0.0465 -0.3502 -0.0985
 8750SOL    HW137883   4.019   2.107   1.402  1.5571  0.0030 -0.4711
 8750SOL    HW237884   4.083   2.234   1.396  0.1854 -1.0449  0.2935
 8751SOL     OW37885   3.895   1.390  10.182 -0.4239  0.1585  0.3484
 8751SOL    HW137886   3.825   1.437  10.227  0.5036  0.1814  1.7709
 8751SOL    HW237887   3.923   1.452  10.114  1.3764 -2.2329 -1.0785
 8752SOL     OW37888   4.622   1.551   7.721 -0.0787 -0.2737  0.1298
 8752SOL    HW137889   4.537   1.577   7.756 -0.2038  1.4562 -1.4823
 8752SOL    HW237890   4.688   1.576   7.785 -0.2877 -0.2864  0.3471
 8753SOL     OW37891   3.850   2.994  16.943  0.1070 -0.0677  0.4148
 8753SOL    HW137892   3.941   2.994  16.913 -0.1069 -2.1533 -0.2200
 8753SOL    HW237893   3.808   2.952  16.868  0.7612  0.0212 -0.0092
 8754SOL     OW37894   3.634   0.173  14.883 -0.3585  0.0581 -0.5008
 8754SOL    HW137895   3.539   0.164  14.888 -0.2103 -0.2733  1.8712
 8754SOL    HW237896   3.677   0.103  14.933 -2.2425  0.2591  1.4382
 8755SOL     OW37897   2.749   2.925  10.530  0.9753  0.3149  0.7206
 8755SOL    HW137898   2.717   3.006  10.489  2.1594 -0.4737 -1.8058
 8755SOL    HW237899   2.699   2.926  10.611  1.1719  2.3343  0.8169
 8756SOL     OW37900   4.571   1.667   3.448  0.0356 -0.0819 -0.3147
 8756SOL    HW137901   4.523   1.586   3.429  0.1295  0.7732 -4.1536
 8756SOL    HW237902   4.520   1.727   3.394 -0.6706 -0.8637 -0.5165
 8757SOL     OW37903   3.710   4.097  17.193 -0.1922 -0.3879 -0.1388
 8757SOL    HW137904   3.662   4.176  17.172  2.4529  0.9556 -1.1697
 8757SOL    HW237905   3.774   4.094  17.122 -0.4565 -0.2284 -0.3821
 8758SOL     OW37906   0.307   1.580  12.132 -0.0203 -0.2452  0.0044
 8758SOL    HW137907   0.379   1.584  12.070  0.5167 -2.5230  0.5088
 8758SOL    HW237908   0.252   1.657  12.114 -0.3118 -0.2261  0.9683
 8759SOL     OW37909   0.060   4.638   8.457 -0.1422  0.2206  0.2187
 8759SOL    HW137910   0.069   4.674   8.369 -1.9214 -0.4740 -0.2471
 8759SOL    HW237911   0.085   4.546   8.448 -0.4807  0.0012  1.4176
 8760SOL     OW37912   4.451   4.412   5.003 -0.7623 -0.6791 -0.2897
 8760SOL    HW137913   4.534   4.436   4.961 -0.2599 -0.7230  0.6949
 8760SOL    HW237914   4.476   4.325   5.034  1.0278  0.8658  2.5929
 8761SOL     OW37915   3.311   2.644   7.603 -0.3789  0.1840 -0.1637
 8761SOL    HW137916   3.290   2.681   7.689 -2.1794  0.8045 -0.8911
 8761SOL    HW237917   3.314   2.551   7.624  0.1642 -0.1361 -1.6130
 8762SOL     OW37918   1.249   3.188   8.099 -0.2517 -0.3072 -0.4676
 8762SOL    HW137919   1.305   3.203   8.023 -0.2056 -0.5462 -0.4799
 8762SOL    HW237920   1.304   3.217   8.171  0.5447 -2.2601 -0.3094
 8763SOL     OW37921   0.923   0.039   2.796  0.0922  0.1284 -0.1252
 8763SOL    HW137922   0.950   0.064   2.707 -0.9191  1.1057 -0.1602
 8763SOL    HW237923   0.829   0.049   2.781  0.2248  0.2028 -0.9148
 8764SOL     OW37924   4.536   4.726   4.222 -0.1064  1.2747 -0.1477
 8764SOL    HW137925   4.611   0.036   4.258  0.8703  0.1815 -0.7193
 8764SOL    HW237926   4.566   4.636   4.235  1.3117  1.5029 -1.8346
 8765SOL     OW37927   0.249   0.294  14.804 -0.2197 -0.0628 -0.8402
 8765SOL    HW137928   0.319   0.360  14.807  0.8668 -1.2847  0.6671
 8765SOL    HW237929   0.174   0.342  14.768  0.1314  0.5660 -0.7284
 8766SOL     OW37930   2.803   3.013   1.810  0.3792 -0.1546 -0.3951
 8766SOL    HW137931   2.797   2.947   1.880 -0.1044  2.9478  2.5071
 8766SOL    HW237932   2.720   3.058   1.792  0.1287 -1.2231 -1.8895
 8767SOL     OW37933   0.261   3.463   6.919  0.4029  0.5344 -0.0882
 8767SOL    HW137934   0.272   3.396   6.987 -1.7291  0.5053  0.2164
 8767SOL    HW237935   0.167   3.471   6.905  0.5744  2.4319 -0.1615
 8768SOL     OW37936   3.963   3.108   7.383 -0.4027  0.0367 -0.3570
 8768SOL    HW137937   3.961   3.101   7.288 -2.3173  1.1976 -0.4011
 8768SOL    HW237938   4.012   3.190   7.397 -0.6220 -0.1945  1.7490
 8769SOL     OW37939   4.060   3.952   2.980  0.0411  0.5378 -0.0460
 8769SOL    HW137940   4.008   4.006   3.039  0.1993  0.2399  0.3641
 8769SOL    HW237941   4.118   4.010   2.930  0.5671  1.3258  1.4759
 8770SOL     OW37942   3.267   0.153   7.171 -0.5593  0.5953 -0.2311
 8770SOL    HW137943   3.234   0.088   7.109 -0.5589 -0.0518  0.4495
 8770SOL    HW237944   3.206   0.227   7.175  0.7365  1.4529  3.8248
 8771SOL     OW37945   2.840   3.462   6.673 -0.6180  0.0058 -0.2408
 8771SOL    HW137946   2.784   3.440   6.598 -0.2482  0.6030 -0.6916
 8771SOL    HW237947   2.858   3.370   6.692  0.2193  0.1371 -0.3938
 8772SOL     OW37948   2.373   3.795   5.835  0.1249 -0.4620 -0.2222
 8772SOL    HW137949   2.462   3.761   5.830  0.1235 -0.3988 -0.6488
 8772SOL    HW237950   2.360   3.780   5.929 -2.5309 -1.4391 -0.7459
 8773SOL     OW37951   4.369   0.850   8.946  0.4204  0.5540 -0.3674
 8773SOL    HW137952   4.370   0.808   9.032  2.3566  0.6753 -0.3152
 8773SOL    HW237953   4.408   0.784   8.890 -3.0804 -0.7694 -1.2027
 8774SOL     OW37954   0.229   3.250   5.157 -0.8999  0.2584  0.1271
 8774SOL    HW137955   0.168   3.255   5.230 -1.5365 -0.0148 -0.3852
 8774SOL    HW237956   0.189   3.177   5.109 -1.1395 -0.0911  0.8539
 8775SOL     OW37957   3.274   4.456   0.210  0.1327 -0.8919 -0.5911
 8775SOL    HW137958   3.195   4.499   0.177  1.1587  0.4566 -1.2733
 8775SOL    HW237959   3.302   4.388   0.149 -3.2422 -0.9547 -2.0265
 8776SOL     OW37960   0.994   2.214  16.604  0.4820  0.2504 -0.2515
 8776SOL    HW137961   0.981   2.308  16.594 -1.2559  0.1233  0.8535
 8776SOL    HW237962   1.067   2.215  16.666 -0.2947 -1.7547  0.7220
 8777SOL     OW37963   3.524   1.835   3.256 -0.0901  0.2114  0.0150
 8777SOL    HW137964   3.583   1.873   3.321  0.2868  1.9104 -1.3061
 8777SOL    HW237965   3.586   1.839   3.183  0.9034  1.7506  0.9289
 8778SOL     OW37966   3.644   1.997   5.852  0.0353  0.0474  0.4912
 8778SOL    HW137967   3.714   1.990   5.916 -1.2680  0.6450  1.9807
 8778SOL    HW237968   3.574   1.947   5.894  1.1558 -1.9673 -0.0594
 8779SOL     OW37969   1.775   2.063  12.343 -0.2794  0.5262 -0.0930
 8779SOL    HW137970   1.869   2.056  12.327 -0.5421 -0.0924 -1.4305
 8779SOL    HW237971   1.730   2.080  12.260  1.8483 -0.1935 -1.3995
 8780SOL     OW37972   1.055   3.276   7.407 -0.4438  0.4612 -0.0917
 8780SOL    HW137973   1.111   3.348   7.378  0.0757  0.4844  0.9666
 8780SOL    HW237974   0.996   3.265   7.332 -0.6424  0.1729  0.1124
 8781SOL     OW37975   1.663   3.205   8.874 -0.5538  0.5613 -0.3918
 8781SOL    HW137976   1.732   3.223   8.811  0.3117 -0.5489  0.2431
 8781SOL    HW237977   1.594   3.170   8.818  0.4790 -0.0271 -1.2787
 8782SOL     OW37978   3.708   1.072  16.614 -0.0444 -0.5232  0.0965
 8782SOL    HW137979   3.722   1.023  16.533  0.4574  1.0894 -0.7945
 8782SOL    HW237980   3.796   1.075  16.652  0.6788  3.2284 -1.9348
 8783SOL     OW37981   4.419   3.504   7.087 -0.3410 -0.0824 -0.4534
 8783SOL    HW137982   4.439   3.479   6.996  1.7571  1.7334 -0.4873
 8783SOL    HW237983   4.369   3.584   7.067 -2.6874 -1.5195 -0.3579
 8784SOL     OW37984   0.462   2.305  11.584  0.2531  0.2110 -0.3020
 8784SOL    HW137985   0.460   2.291  11.678 -4.0129  1.3106 -0.2229
 8784SOL    HW237986   0.466   2.221  11.539 -0.1176  0.1077 -0.1364
 8785SOL     OW37987   2.498   2.944   2.526  0.4600  0.0018 -0.5339
 8785SOL    HW137988   2.480   3.036   2.508  1.2708  0.1574 -0.5543
 8785SOL    HW237989   2.540   2.944   2.612  1.8922  0.9832 -1.2374
 8786SOL     OW37990   1.850   2.416   3.743 -0.1782  0.2843  0.3728
 8786SOL    HW137991   1.943   2.410   3.765  0.1769  1.6249 -0.7383
 8786SOL    HW237992   1.817   2.488   3.797 -1.4482  0.6139 -0.8567
 8787SOL     OW37993   0.514   2.929   8.214  0.3627  0.1093 -0.5603
 8787SOL    HW137994   0.601   2.966   8.201  0.9539 -1.2550 -0.4436
 8787SOL    HW237995   0.525   2.838   8.241 -0.3629 -0.7708 -3.2366
 8788SOL     OW37996   2.760   1.301  11.490  0.2586  0.4648  0.2813
 8788SOL    HW137997   2.745   1.228  11.430 -0.5510  1.2235 -0.4338
 8788SOL    HW237998   2.716   1.368  11.438 -2.2932 -0.8699  0.7104
 8789SOL     OW37999   2.846   0.607  15.545 -0.2299 -0.3750 -0.1210
 8789SOL    HW138000   2.880   0.607  15.635  1.7261  2.9423 -0.8392
 8789SOL    HW238001   2.908   0.554  15.496  3.1595  0.8820  2.7963
 8790SOL     OW38002   3.931   1.793   9.471 -0.3166 -0.1191  0.2184
 8790SOL    HW138003   3.923   1.757   9.382 -1.8797  2.3782 -0.6551
 8790SOL    HW238004   3.906   1.884   9.459  0.9137 -0.0132 -1.6098
 8791SOL     OW38005   3.248   4.037   4.930 -0.1052 -0.1898 -0.0376
 8791SOL    HW138006   3.225   3.994   5.012 -3.6644  3.9167  1.1804
 8791SOL    HW238007   3.336   4.065   4.955  0.3969 -2.6444  0.8614
 8792SOL     OW38008   2.653   3.054   8.063  0.1045 -0.0950  0.0798
 8792SOL    HW138009   2.748   3.052   8.065  0.0301 -1.7491  1.3481
 8792SOL    HW238010   2.632   3.142   8.094  1.1465 -0.0741  0.7003
 8793SOL     OW38011   2.346   2.954  13.842 -0.1719  0.1280 -0.5936
 8793SOL    HW138012   2.276   2.890  13.828 -1.0260  1.0996 -0.7878
 8793SOL    HW238013   2.333   2.981  13.933  1.0476  1.7822 -0.8979
 8794SOL     OW38014   1.609   1.432  17.482  0.0310  0.5478  0.6301
 8794SOL    HW138015   1.533   1.379  17.458 -0.2214  0.3034  1.9271
 8794SOL    HW238016   1.579   1.481  17.559 -0.4132  0.7313  0.3383
 8795SOL     OW38017   1.719   4.179   6.564 -0.5232 -0.7964 -0.2656
 8795SOL    HW138018   1.766   4.211   6.641 -3.2590 -0.1423  1.1073
 8795SOL    HW238019   1.679   4.257   6.526 -0.8360 -1.3660 -1.1035
 8796SOL     OW38020   2.095   3.165   6.735  0.2809 -0.1014  0.0165
 8796SOL    HW138021   2.181   3.164   6.692  0.8619  1.2828  1.1815
 8796SOL    HW238022   2.048   3.228   6.681 -1.6098 -0.1716  1.5970
 8797SOL     OW38023   1.897   4.261   9.179 -0.4371 -0.9081 -0.3700
 8797SOL    HW138024   1.912   4.173   9.213  0.3959  0.0745  1.8554
 8797SOL    HW238025   1.986   4.295   9.169 -1.2578  1.0321 -1.1331
 8798SOL     OW38026   4.091   3.780   4.592 -0.1221 -0.3444 -0.0330
 8798SOL    HW138027   4.101   3.789   4.498  0.4632  0.2817  0.0885
 8798SOL    HW238028   4.025   3.711   4.592  0.3521 -0.8038 -0.1253
 8799SOL     OW38029   3.513   3.052  17.731 -0.9298  0.1862  0.6863
 8799SOL    HW138030   3.601   3.086  17.748 -0.4365 -1.1666  0.8271
 8799SOL    HW238031   3.476   3.082   0.066 -1.6191  1.4278 -0.0515
 8800SOL     OW38032   2.151   2.777  13.804 -0.2120  0.0312  0.5194
 8800SOL    HW138033   2.166   2.694  13.759  0.5893  1.4630 -1.8210
 8800SOL    HW238034   2.064   2.815  13.792 -0.1907 -0.8526 -2.4760
 8801SOL     OW38035   3.925   2.231   8.716 -0.0606 -0.0185  0.2433
 8801SOL    HW138036   3.995   2.224   8.781 -1.5896  0.2311  1.9229
 8801SOL    HW238037   3.862   2.174   8.761  1.3558 -1.7267  0.0611
 8802SOL     OW38038   2.800   4.012   6.990  0.7318  0.7370  0.3617
 8802SOL    HW138039   2.853   3.972   7.059 -0.6421 -0.3128  0.8186
 8802SOL    HW238040   2.753   4.072   7.048 -3.2453 -1.4305 -0.5777
 8803SOL     OW38041   3.079   0.427  17.077  0.2423  0.6681 -0.4879
 8803SOL    HW138042   3.002   0.478  17.105 -0.1709 -1.2584  1.8614
 8803SOL    HW238043   3.150   0.477  17.118 -0.7631  1.9647 -0.3245
 8804SOL     OW38044   0.248   3.447  13.125  0.5600  0.7049  0.1299
 8804SOL    HW138045   0.258   3.538  13.097 -0.5481  1.2183  1.3949
 8804SOL    HW238046   0.219   3.401  13.046 -1.0600  1.3634  0.3328
 8805SOL     OW38047   2.250   2.771   3.790  0.2671  0.3491 -0.2553
 8805SOL    HW138048   2.185   2.804   3.729  1.0130 -1.6621 -2.1660
 8805SOL    HW238049   2.310   2.722   3.733 -0.4485 -0.0358 -0.6748
 8806SOL     OW38050   2.783   1.971  11.801 -0.0703  0.0831  0.3724
 8806SOL    HW138051   2.696   1.979  11.762  1.0801 -0.1175 -2.2598
 8806SOL    HW238052   2.823   2.056  11.820 -1.3152  0.9117 -0.6880
 8807SOL     OW38053   3.225   4.449   4.552 -0.8862 -0.8788  0.2605
 8807SOL    HW138054   3.130   4.445   4.543 -0.9350 -0.3558  0.5216
 8807SOL    HW238055   3.241   4.528   4.500 -4.1377 -1.2324 -1.2597
 8808SOL     OW38056   2.697   0.201   5.954 -0.4872  0.2967  0.8316
 8808SOL    HW138057   2.618   0.251   5.934  0.0636  0.1847 -1.6332
 8808SOL    HW238058   2.726   0.206   5.863  0.3099 -1.3338  0.9964
 8809SOL     OW38059   1.961   3.416  17.196  0.7206 -0.3154 -0.4249
 8809SOL    HW138060   2.012   3.408  17.115  0.1788 -2.0506 -0.5864
 8809SOL    HW238061   1.978   3.510  17.210  0.5309 -0.3233 -0.1419
 8810SOL     OW38062   1.438   0.438  12.632 -0.4249 -0.2116 -0.1078
 8810SOL    HW138063   1.467   0.424  12.722 -0.4487 -0.4185 -0.1313
 8810SOL    HW238064   1.499   0.381  12.585 -1.0505 -0.9738  0.0039
 8811SOL     OW38065   0.157   2.383   5.846 -0.1664  0.2965  0.4193
 8811SOL    HW138066   0.218   2.364   5.918  1.2834  0.7214 -0.7118
 8811SOL    HW238067   0.167   2.477   5.837  1.3890 -0.0126 -1.0194
 8812SOL     OW38068   0.506   3.959   2.158  0.5035  0.2073  0.1127
 8812SOL    HW138069   0.479   4.014   2.085  0.6555  0.5149  0.2890
 8812SOL    HW238070   0.588   4.004   2.178  0.7985  0.3541 -1.4713
 8813SOL     OW38071   1.113   3.766   2.004 -0.0310 -0.1929 -0.4616
 8813SOL    HW138072   1.030   3.736   2.043  1.1139 -2.6906  0.0292
 8813SOL    HW238073   1.178   3.733   2.066 -1.7886 -1.9192  0.4749
 8814SOL     OW38074   4.412   4.637   2.701 -0.4670 -0.4577  0.1669
 8814SOL    HW138075   4.373   4.723   2.687  2.5123  1.0169  0.9628
 8814SOL    HW238076   4.388   4.606   2.788 -0.8178 -0.4001  0.0880
 8815SOL     OW38077   0.459   2.556   0.420  1.0320 -0.2548  0.1526
 8815SOL    HW138078   0.402   2.619   0.376  0.0340 -0.4760  1.1311
 8815SOL    HW238079   0.389   2.505   0.460  0.5955 -0.3876 -0.7881
 8816SOL     OW38080   1.764   2.520   5.959  0.5750 -0.7096 -0.3814
 8816SOL    HW138081   1.825   2.583   6.000 -1.7164  1.8849 -0.9563
 8816SOL    HW238082   1.750   2.464   6.035 -0.8913  2.0846  1.4346
 8817SOL     OW38083   1.222   2.754   7.990 -0.0839  0.0576 -0.6683
 8817SOL    HW138084   1.229   2.819   7.920 -0.9386 -0.6503 -1.4194
 8817SOL    HW238085   1.212   2.812   8.065 -0.5443  0.4180 -1.0061
 8818SOL     OW38086   2.427   0.772   3.002 -0.2279 -0.2551  0.8712
 8818SOL    HW138087   2.465   0.756   2.915 -0.0324  2.2455  0.4997
 8818SOL    HW238088   2.480   0.707   3.048  0.7706 -1.0203 -1.3456
 8819SOL     OW38089   4.306   2.576   7.718 -0.0948 -0.0104 -0.3605
 8819SOL    HW138090   4.227   2.558   7.770 -2.1355  0.3395 -3.3069
 8819SOL    HW238091   4.271   2.580   7.628  0.6576 -1.5570 -0.7128
 8820SOL     OW38092   4.029   4.043   5.993  0.7447  0.6939 -0.2958
 8820SOL    HW138093   4.052   4.076   6.080  0.9673  1.0270 -0.4806
 8820SOL    HW238094   4.112   4.046   5.946  0.7755  0.1882 -0.2691
 8821SOL     OW38095   3.393   2.473   1.163 -0.2419 -0.1184  0.0776
 8821SOL    HW138096   3.324   2.518   1.211  0.1535  1.3669 -0.7483
 8821SOL    HW238097   3.472   2.502   1.207 -1.4189 -0.0840  2.1459
 8822SOL     OW38098   1.150   3.185   9.052 -0.0374 -0.5954 -0.2312
 8822SOL    HW138099   1.137   3.254   9.118  0.5948 -0.9501  0.2651
 8822SOL    HW238100   1.118   3.106   9.096  2.8222 -0.3517  2.3368
 8823SOL     OW38101   3.287   4.596   6.179  0.5775 -0.2850 -0.4259
 8823SOL    HW138102   3.314   4.656   6.247  0.6853 -0.0076 -0.7121
 8823SOL    HW238103   3.313   4.515   6.222 -0.0691  0.3510  1.1237
 8824SOL     OW38104   4.318   2.721  15.784  0.0205  0.1837 -0.5151
 8824SOL    HW138105   4.306   2.739  15.877 -1.1732  1.8030 -0.9738
 8824SOL    HW238106   4.412   2.730  15.771  0.2284  1.8579  2.2135
 8825SOL     OW38107   0.528   4.630   1.684 -0.1039  0.0388  0.0979
 8825SOL    HW138108   0.612   4.649   1.642 -0.8852 -0.0744 -1.4975
 8825SOL    HW238109   0.518   4.536   1.670  1.0696  0.0497 -0.8072
 8826SOL     OW38110   1.420   1.549   5.383  0.0251  0.5399 -0.0129
 8826SOL    HW138111   1.475   1.628   5.378 -0.3913  0.8212 -0.1319
 8826SOL    HW238112   1.390   1.551   5.474  1.1643 -1.0832  0.3911
 8827SOL     OW38113   3.846   0.942   5.947  0.2463  0.0673  0.6598
 8827SOL    HW138114   3.802   0.979   6.023  0.0847  0.3716  0.4154
 8827SOL    HW238115   3.777   0.964   5.884  1.7669  0.6749 -0.7720
 8828SOL     OW38116   0.907   0.014   0.899 -0.4299 -0.2485 -0.4487
 8828SOL    HW138117   0.831   0.061   0.934  0.9451  2.3147 -0.9141
 8828SOL    HW238118   0.868   4.676   0.854 -3.1209  0.6393  0.4342
 8829SOL     OW38119   1.171   1.402   6.269 -0.3135  0.4167 -0.6235
 8829SOL    HW138120   1.243   1.454   6.304  0.4227 -0.5603 -0.6642
 8829SOL    HW238121   1.215   1.378   6.188  1.8459  1.7434  0.1652
 8830SOL     OW38122   4.455   3.330   2.016 -0.2929 -0.4115  0.2760
 8830SOL    HW138123   4.441   3.370   1.930 -1.4746 -0.4394  0.4606
 8830SOL    HW238124   4.373   3.348   2.061 -0.7742 -0.8042 -0.4453
 8831SOL     OW38125   3.627   2.346   9.783  0.3450  0.1745  0.0196
 8831SOL    HW138126   3.588   2.286   9.846  0.7769  0.0687  0.1879
 8831SOL    HW238127   3.719   2.349   9.809  0.1644 -1.5733  0.8216
 8832SOL     OW38128   3.230   3.195  11.411  0.3801  0.2497  0.0469
 8832SOL    HW138129   3.219   3.156  11.323 -1.4811 -0.1561  0.4576
 8832SOL    HW238130   3.217   3.116  11.464  1.0746 -0.8106 -1.3510
 8833SOL     OW38131   0.034   0.838   4.872  0.8313  0.2250 -0.6390
 8833SOL    HW138132   0.103   0.843   4.937 -0.1075  0.5518  0.3424
 8833SOL    HW238133   4.714   0.766   4.900 -0.7908  1.5862 -0.4470
 8834SOL     OW38134   3.229   3.330  16.395 -0.1951 -0.4150  0.0334
 8834SOL    HW138135   3.247   3.237  16.409  0.2966  0.0347  2.3345
 8834SOL    HW238136   3.164   3.351  16.462 -2.7073 -0.1372 -2.4577
 8835SOL     OW38137   0.966   3.538   6.120 -0.0887 -0.1154 -0.4729
 8835SOL    HW138138   1.000   3.491   6.044 -1.7680  0.7176 -1.7459
 8835SOL    HW238139   1.047   3.573   6.157 -0.1941 -1.7681  1.3244
 8836SOL     OW38140   2.553   4.508   6.439  0.1210 -0.0544 -0.0058
 8836SOL    HW138141   2.496   4.581   6.460  1.2627  0.9477 -0.3739
 8836SOL    HW238142   2.503   4.463   6.371 -1.5760 -1.0198  1.8779
 8837SOL     OW38143   4.238   2.717   3.532  0.7774  0.4041  0.4131
 8837SOL    HW138144   4.191   2.800   3.538  1.5174  0.8516 -0.0311
 8837SOL    HW238145   4.316   2.741   3.483  0.5975  2.4797  1.1556
 8838SOL     OW38146   3.440   0.167  16.121 -0.0064 -0.4953 -0.2324
 8838SOL    HW138147   3.453   0.073  16.108 -4.1497 -1.2402  0.7951
 8838SOL    HW238148   3.442   0.192  16.028 -1.4059  2.0844  0.4524
 8839SOL     OW38149   0.901   2.931   1.705  0.2703  0.1711  0.2371
 8839SOL    HW138150   0.845   2.854   1.697  1.6245 -0.7660 -0.2103
 8839SOL    HW238151   0.975   2.882   1.741  0.1980  0.2001  0.4225
 8840SOL     OW38152   1.686   2.238   4.939  0.2963  0.3423  0.1106
 8840SOL    HW138153   1.655   2.179   4.870  2.6603  1.1193 -1.6030
 8840SOL    HW238154   1.761   2.183   4.962  0.3473  1.0144  1.5181
 8841SOL     OW38155   0.228   2.416   5.056 -0.2045 -0.0067  0.7628
 8841SOL    HW138156   0.267   2.495   5.018 -0.3674 -0.3242 -0.0643
 8841SOL    HW238157   0.140   2.445   5.079  0.4287  1.5082  1.2920
 8842SOL     OW38158   4.711   3.202   4.035  0.0563 -0.1326  0.3614
 8842SOL    HW138159   0.054   3.251   4.016 -0.8940  1.1025 -0.5502
 8842SOL    HW238160   4.650   3.274   4.049 -1.1311 -0.8840 -0.9438
 8843SOL     OW38161   0.093   4.585  15.276  0.1479  0.3263  0.2121
 8843SOL    HW138162   0.091   4.546  15.189  1.4249  0.7612 -0.0020
 8843SOL    HW238163   0.122   4.676  15.268 -1.0063  0.6594 -0.2569
 8844SOL     OW38164   4.593   2.790   7.480 -0.8114 -0.2613 -0.0501
 8844SOL    HW138165   4.526   2.834   7.532  0.7170  3.8174 -1.5418
 8844SOL    HW238166   4.666   2.789   7.542 -1.6397 -0.5664  0.9200
 8845SOL     OW38167   1.620   0.536  14.971 -0.2139  0.0790 -0.1561
 8845SOL    HW138168   1.558   0.556  14.901 -0.8280  1.3930  0.7596
 8845SOL    HW238169   1.601   0.443  14.970 -2.0532  0.4400  1.1890
 8846SOL     OW38170   1.380   0.953   1.604  0.0490 -0.5023  0.5088
 8846SOL    HW138171   1.433   0.902   1.665 -0.3047 -1.0069  0.3933
 8846SOL    HW238172   1.314   0.991   1.662  0.3066 -1.5182  1.4838
 8847SOL     OW38173   2.229   3.982  15.787 -0.1506 -0.1124 -0.1842
 8847SOL    HW138174   2.172   4.043  15.740 -1.6614 -1.8690 -0.6531
 8847SOL    HW238175   2.288   3.941  15.724  2.3036  2.6725  0.2963
 8848SOL     OW38176   2.969   2.190  17.534  0.6480 -0.5493 -0.0993
 8848SOL    HW138177   3.034   2.259  17.524 -1.1410  1.0167 -0.7787
 8848SOL    HW238178   2.915   2.196  17.455  1.4785  1.8221 -0.4567
 8849SOL     OW38179   0.179   2.761   7.119 -0.4907 -0.2147  0.3153
 8849SOL    HW138180   0.233   2.736   7.194  1.1128  1.7771 -0.1881
 8849SOL    HW238181   0.118   2.829   7.146  0.2915  0.2062  0.9911
 8850SOL     OW38182   1.884   3.350  17.517  0.2028 -0.0299  0.6393
 8850SOL    HW138183   1.947   3.282  17.496 -0.1821 -0.0441 -0.4609
 8850SOL    HW238184   1.915   3.429  17.473  0.4806 -0.1425  0.6327
 8851SOL     OW38185   1.900   3.794   1.234  0.0166  0.4652  0.2230
 8851SOL    HW138186   1.964   3.856   1.269  0.2482  0.8564 -0.8893
 8851SOL    HW238187   1.957   3.721   1.206 -1.3252 -0.4078 -0.2489
 8852SOL     OW38188   0.081   3.572  13.301 -0.1608 -0.9647 -0.1870
 8852SOL    HW138189   0.059   3.502  13.363  0.3024  0.1562  1.2332
 8852SOL    HW238190   0.146   3.524  13.250  2.4544  2.1967  0.2300
 8853SOL     OW38191   1.904   3.908  11.079 -0.7661  0.5240  0.2068
 8853SOL    HW138192   1.849   3.908  11.157 -1.0089 -0.3123  0.0427
 8853SOL    HW238193   1.989   3.927  11.120 -1.5108  1.1545  1.4555
 8854SOL     OW38194   1.849   2.532   4.038 -0.3195 -0.4341 -0.5220
 8854SOL    HW138195   1.842   2.627   4.035  1.8437 -0.1458  3.1916
 8854SOL    HW238196   1.900   2.532   4.119  0.7609  0.3774 -1.2092
 8855SOL     OW38197   1.188   4.098   4.786  0.0396  0.2356  0.7431
 8855SOL    HW138198   1.279   4.113   4.808  0.2923 -0.6973  0.3576
 8855SOL    HW238199   1.204   4.083   4.693 -1.1850 -0.4336  0.6388
 8856SOL     OW38200   3.974   3.860  11.759 -0.9879  0.2002  0.2117
 8856SOL    HW138201   4.034   3.785  11.755 -0.1646  0.8080  1.1204
 8856SOL    HW238202   4.042   3.928  11.758 -1.1517  0.4089  2.6054
 8857SOL     OW38203   0.234   1.666   5.036  0.2061 -0.6423 -0.2989
 8857SOL    HW138204   0.267   1.635   4.952 -1.2015 -0.3587 -0.9571
 8857SOL    HW238205   0.213   1.756   5.011  1.6599 -0.0746  0.4714
 8858SOL     OW38206   1.435   1.492   1.917  0.4737  0.4454  0.0076
 8858SOL    HW138207   1.524   1.526   1.923  1.0143 -0.5419 -2.6188
 8858SOL    HW238208   1.410   1.504   2.009 -0.9742 -1.7242 -0.0770
 8859SOL     OW38209   2.703   1.881   8.800 -0.0999  0.4408  0.2517
 8859SOL    HW138210   2.737   1.900   8.712  2.7901  0.0038  1.3066
 8859SOL    HW238211   2.697   1.786   8.806 -0.8846  0.5324  0.8533
 8860SOL     OW38212   2.792   0.873   0.657  0.1736 -0.1183 -0.7192
 8860SOL    HW138213   2.740   0.793   0.651  0.7069 -0.2195 -3.8072
 8860SOL    HW238214   2.839   0.860   0.740 -0.3365  0.6966 -0.3001
 8861SOL     OW38215   2.387   3.422   0.068  0.0548 -0.2657 -0.1250
 8861SOL    HW138216   2.404   3.515   0.058  0.9135 -0.2498  1.5774
 8861SOL    HW238217   2.455   3.375   0.018 -0.6223 -1.8582  0.4758
 8862SOL     OW38218   3.505   0.117   7.274  0.0834 -0.5940 -0.3684
 8862SOL    HW138219   3.427   0.128   7.220  0.2840  0.2786 -0.4775
 8862SOL    HW238220   3.546   0.039   7.236  1.1574 -0.1403 -0.1532
 8863SOL     OW38221   3.812   3.405  11.797 -0.1402 -0.2941 -0.0094
 8863SOL    HW138222   3.732   3.443  11.834  0.7145  0.6287  0.8828
 8863SOL    HW238223   3.808   3.397  11.702 -0.0103  1.7627 -0.1811
 8864SOL     OW38224   3.614   4.737  13.579 -0.2489 -0.4819  0.0675
 8864SOL    HW138225   3.555   4.666  13.553  0.0482 -0.2259 -1.3134
 8864SOL    HW238226   3.578   0.073  13.529 -0.2514 -1.5420 -1.4775
 8865SOL     OW38227   1.101   2.563   6.982 -0.7095 -0.0585 -0.1078
 8865SOL    HW138228   1.133   2.588   6.896 -1.4602  0.4899 -0.2258
 8865SOL    HW238229   1.095   2.467   6.981  2.2882 -0.1939 -2.8272
 8866SOL     OW38230   0.216   2.691   0.347 -0.4986  0.7881 -0.4575
 8866SOL    HW138231   0.162   2.711   0.423  1.4950 -0.6932  1.3612
 8866SOL    HW238232   0.201   2.603   0.314  1.5902 -0.4617  1.9225
 8867SOL     OW38233   0.847   2.817   5.514 -0.0993  0.1860  0.1015
 8867SOL    HW138234   0.898   2.788   5.438  0.2412 -0.5272  0.6042
 8867SOL    HW238235   0.902   2.886   5.552  1.0015 -1.6686  1.8926
 8868SOL     OW38236   4.373   4.552   3.875  0.2426  0.0574  0.2260
 8868SOL    HW138237   4.279   4.547   3.893  0.3097  1.5256  1.0190
 8868SOL    HW238238   4.371   4.578   3.783 -0.1405  1.3897  0.6004
 8869SOL     OW38239   4.258   0.225   9.746 -0.0836  0.0326  0.7387
 8869SOL    HW138240   4.190   0.162   9.772 -0.4886 -0.5277 -1.6516
 8869SOL    HW238241   4.297   0.190   9.665 -1.2432 -0.7256  0.4972
 8870SOL     OW38242   2.147   1.760   9.385  0.0735 -0.4738 -0.1308
 8870SOL    HW138243   2.198   1.840   9.392  1.5317 -1.3929 -0.3549
 8870SOL    HW238244   2.140   1.751   9.290 -0.9537 -2.9633  0.1869
 8871SOL     OW38245   2.111   1.638   9.982 -0.5893 -0.0152 -1.1236
 8871SOL    HW138246   2.113   1.734   9.982  1.2408 -0.0370  0.6213
 8871SOL    HW238247   2.176   1.620  10.050 -0.8846  1.0787 -0.5541
 8872SOL     OW38248   2.556   1.156  16.337  0.3840  0.2266  0.1505
 8872SOL    HW138249   2.535   1.070  16.375  0.8944  0.1549  0.2705
 8872SOL    HW238250   2.603   1.197  16.410  0.6145  0.4473 -0.1257
 8873SOL     OW38251   3.081   1.670   4.790  0.6897 -0.6563  0.7421
 8873SOL    HW138252   3.162   1.719   4.801  0.7643 -1.2250  2.8034
 8873SOL    HW238253   3.074   1.654   4.885  2.0201  1.8595  1.2381
 8874SOL     OW38254   3.530   1.601   9.261  0.2463 -0.3720  0.1386
 8874SOL    HW138255   3.439   1.574   9.276 -0.7990  3.0081 -0.1462
 8874SOL    HW238256   3.588   1.534   9.297  0.3484 -0.6342 -0.5256
 8875SOL     OW38257   4.279   2.723   3.065 -0.3613 -0.3158 -0.7728
 8875SOL    HW138258   4.325   2.656   3.117  0.9269 -2.9675 -5.2570
 8875SOL    HW238259   4.197   2.679   3.044 -0.7066  0.4581 -1.0048
 8876SOL     OW38260   0.019   0.242   4.727  0.2191 -0.0922  0.1286
 8876SOL    HW138261   4.681   0.211   4.776 -0.5955 -1.3465 -1.9185
 8876SOL    HW238262   0.072   0.282   4.796  1.1886  2.2209 -1.9374
 8877SOL     OW38263   2.251   3.944   4.822 -0.1414  0.0645 -0.3800
 8877SOL    HW138264   2.330   3.907   4.863 -0.3535 -0.5437 -0.5182
 8877SOL    HW238265   2.261   3.917   4.731  2.6870  0.6773 -0.2758
 8878SOL     OW38266   3.870   3.900   3.750 -0.1816  0.3206 -0.1306
 8878SOL    HW138267   3.948   3.890   3.696 -0.3240  0.4768 -0.3688
 8878SOL    HW238268   3.798   3.864   3.698  0.9848 -1.3590 -0.5733
 8879SOL     OW38269   4.166   0.716   3.807 -0.2188 -0.1680  0.0194
 8879SOL    HW138270   4.184   0.807   3.832 -1.1246 -0.2591  1.0318
 8879SOL    HW238271   4.081   0.722   3.765  1.8504  2.5513 -3.7745
 8880SOL     OW38272   0.099   1.850   2.581 -0.0069  0.3731 -0.1049
 8880SOL    HW138273   0.018   1.892   2.553  0.5824  1.4636 -0.1521
 8880SOL    HW238274   0.143   1.877   2.501  0.7354 -3.1310 -0.8849
 8881SOL     OW38275   4.191   2.386  14.663  0.3128 -0.3620  0.6185
 8881SOL    HW138276   4.265   2.432  14.703 -0.5497  1.8147 -0.2988
 8881SOL    HW238277   4.223   2.360  14.577 -1.1783  0.1206 -0.0772
 8882SOL     OW38278   2.507   3.614   0.714  0.0219  0.0135  0.0363
 8882SOL    HW138279   2.578   3.576   0.661  1.8392  0.0434  2.4315
 8882SOL    HW238280   2.446   3.651   0.651 -0.9640 -0.7251  0.5756
 8883SOL     OW38281   4.126   2.895   7.417  0.3864  0.3031 -0.0622
 8883SOL    HW138282   4.096   2.824   7.360 -1.5419 -0.5894  2.0829
 8883SOL    HW238283   4.074   2.975   7.418 -0.9778 -0.6142  1.7065
 8884SOL     OW38284   2.471   2.845   4.639  0.4147 -0.2839  0.1689
 8884SOL    HW138285   2.540   2.900   4.676  0.2220 -0.6722  1.1198
 8884SOL    HW238286   2.402   2.863   4.703  0.8148  2.0349 -0.0233
 8885SOL     OW38287   4.331   4.571   6.041 -0.0221  0.3809  0.0461
 8885SOL    HW138288   4.281   4.558   5.960 -2.7407 -1.0569  1.9436
 8885SOL    HW238289   4.299   4.659   6.062  0.5756  0.6624 -0.2183
 8886SOL     OW38290   2.354   3.391   0.838  0.2224 -0.1343  0.2390
 8886SOL    HW138291   2.401   3.457   0.787 -1.2896  0.0496 -0.9200
 8886SOL    HW238292   2.277   3.441   0.866  0.9414  2.1208 -1.7636
 8887SOL     OW38293   2.068   0.331   9.411 -0.3779 -0.0242 -0.3622
 8887SOL    HW138294   2.163   0.327   9.404 -0.3063 -1.0044  1.1693
 8887SOL    HW238295   2.071   0.415   9.456 -0.4740 -1.1930  1.8338
 8888SOL     OW38296   3.131   1.649   6.707  0.5999 -0.9024  0.3232
 8888SOL    HW138297   3.181   1.674   6.629 -1.6636  0.3252 -0.7271
 8888SOL    HW238298   3.198   1.656   6.775  0.7180 -2.6807  0.3852
 8889SOL     OW38299   3.671   2.051   5.537 -1.0164  0.3298  0.1993
 8889SOL    HW138300   3.753   2.065   5.490 -0.9579  0.0325  0.2077
 8889SOL    HW238301   3.700   2.076   5.625  0.7766 -0.4311 -0.1634
 8890SOL     OW38302   1.689   2.332   7.971 -0.2088  0.2269 -0.0797
 8890SOL    HW138303   1.779   2.359   7.988 -0.1410  0.0023 -0.0798
 8890SOL    HW238304   1.654   2.359   8.055 -1.4304  2.3828 -1.2828
 8891SOL     OW38305   1.726   4.696   3.582  0.2489  0.1953  0.4119
 8891SOL    HW138306   1.633   4.703   3.602  0.1416  3.1873 -1.0769
 8891SOL    HW238307   1.744   4.602   3.585 -1.6543 -0.1236  1.4283
 8892SOL     OW38308   2.121   3.187  17.554  0.2497 -0.0341 -0.1273
 8892SOL    HW138309   2.129   3.101  17.512 -2.6500 -0.8460  0.9891
 8892SOL    HW238310   2.167   3.253  17.502 -3.1025  1.6375 -1.0100
 8893SOL     OW38311   3.582   0.958   2.046 -0.7327  0.4108  0.1567
 8893SOL    HW138312   3.641   0.892   2.010 -0.0777  1.4364 -0.6414
 8893SOL    HW238313   3.560   0.922   2.132 -2.4456  1.3468  0.0989
 8894SOL     OW38314   4.424   1.550   8.533  0.4934  0.2255  0.0098
 8894SOL    HW138315   4.359   1.523   8.468 -0.2086 -0.9384  1.1818
 8894SOL    HW238316   4.352   1.570   8.593  1.8168  0.5109  1.4915
 8895SOL     OW38317   0.061   1.527   6.768 -0.2633  0.4085 -0.1648
 8895SOL    HW138318   4.737   1.539   6.841  0.3523 -1.2937  0.6429
 8895SOL    HW238319   0.145   1.559   6.802  0.9521 -0.8438 -1.9762
 8896SOL     OW38320   3.739   1.361   3.748  0.4491 -0.2667 -0.0124
 8896SOL    HW138321   3.816   1.407   3.717  1.0940  0.1236  2.1456
 8896SOL    HW238322   3.776   1.326   3.829 -1.7366 -1.6920  0.3881
 8897SOL     OW38323   4.102   2.229   7.582  0.2571  0.1993  0.6707
 8897SOL    HW138324   4.114   2.277   7.664 -1.5133  0.5724  0.7085
 8897SOL    HW238325   4.109   2.135   7.600 -3.3631 -0.5198 -1.6976
 8898SOL     OW38326   4.736   0.122   9.663  0.0520 -0.5752  0.1966
 8898SOL    HW138327   0.087   0.090   9.672  0.3123 -0.6435 -2.3638
 8898SOL    HW238328   4.696   0.058   9.603 -2.0068  2.3354 -1.5693
 8899SOL     OW38329   2.305   1.410   5.898 -0.1674 -0.5545  0.1315
 8899SOL    HW138330   2.244   1.443   5.833  0.5516  3.0914  1.3334
 8899SOL    HW238331   2.289   1.481   5.960 -2.8724 -1.7440  0.7892
 8900SOL     OW38332   1.336   3.192   1.490  0.0988 -0.3218 -0.8448
 8900SOL    HW138333   1.251   3.222   1.521  0.8816 -2.1616  3.0802
 8900SOL    HW238334   1.307   3.119   1.435  2.2266 -0.3368 -1.9802
 8901SOL     OW38335   0.710   1.187   7.118  0.2286 -0.2054  0.4786
 8901SOL    HW138336   0.780   1.157   7.176  0.4939  1.5176  1.0593
 8901SOL    HW238337   0.686   1.115   7.060  0.8956 -0.7218  0.8537
 8902SOL     OW38338   3.922   2.139   5.764 -0.7070 -0.8676 -0.6675
 8902SOL    HW138339   3.881   2.089   5.834 -0.8402 -0.3796 -0.3972
 8902SOL    HW238340   4.013   2.109   5.770 -0.2963  0.2960 -1.0743
 8903SOL     OW38341   0.874   0.324   0.480 -0.1283  0.0185 -0.1353
 8903SOL    HW138342   0.790   0.341   0.521  0.3664  3.4107 -0.5200
 8903SOL    HW238343   0.880   0.404   0.427 -0.3770  0.3310  0.3134
 8904SOL     OW38344   3.707   3.213  16.460 -0.0852  0.7342 -0.0345
 8904SOL    HW138345   3.697   3.132  16.409 -0.2840 -0.7002  2.2687
 8904SOL    HW238346   3.741   3.273  16.394  2.4008 -1.5184 -0.7792
 8905SOL     OW38347   3.421   3.675  14.354 -0.6019  0.3292 -0.5098
 8905SOL    HW138348   3.368   3.596  14.370 -0.1638  0.4072  1.3490
 8905SOL    HW238349   3.361   3.723  14.297 -1.7198 -2.0743 -1.3574
 8906SOL     OW38350   0.099   0.727  16.632 -0.5826 -0.1972 -0.2122
 8906SOL    HW138351   0.117   0.742  16.539  1.7986 -0.0308  0.2839
 8906SOL    HW238352   0.017   0.678  16.629 -1.6380  1.5861 -0.1844
 8907SOL     OW38353   4.431   2.698   1.789  0.1880  0.7991  0.9147
 8907SOL    HW138354   4.506   2.702   1.849  0.5481 -1.9557  0.6474
 8907SOL    HW238355   4.360   2.658   1.839  1.7737 -0.7932  1.9124
 8908SOL     OW38356   2.687   3.566   2.748  0.0925 -0.1709 -0.4721
 8908SOL    HW138357   2.665   3.603   2.834 -1.7364  1.7395 -1.7745
 8908SOL    HW238358   2.624   3.604   2.687 -0.2874 -1.2248 -0.7355
 8909SOL     OW38359   2.428   3.318   9.709  0.5427 -0.4042 -0.2791
 8909SOL    HW138360   2.438   3.292   9.618 -0.8174 -0.5729 -0.3788
 8909SOL    HW238361   2.334   3.321   9.729  0.1083  0.3207 -2.4744
 8910SOL     OW38362   3.544   3.213   3.360  0.9149  0.0854  0.0344
 8910SOL    HW138363   3.617   3.152   3.349 -0.5448 -1.5124 -0.7746
 8910SOL    HW238364   3.566   3.272   3.289 -0.9380  0.0407 -0.5788
 8911SOL     OW38365   1.748   0.111   1.542 -0.3160  1.0137 -0.4810
 8911SOL    HW138366   1.759   0.020   1.570  0.9889  1.0804 -0.7538
 8911SOL    HW238367   1.796   0.125   1.460  0.5523 -0.6398 -0.2626
 8912SOL     OW38368   4.721   0.018   5.419  0.2694 -0.2865  0.0378
 8912SOL    HW138369   0.021   0.025   5.506  0.1115 -1.4471  0.2066
 8912SOL    HW238370   4.689   4.665   5.422 -0.5693  0.0142  0.1318
 8913SOL     OW38371   3.968   1.989   2.428 -0.0571 -0.1512 -0.1919
 8913SOL    HW138372   4.013   2.068   2.399  0.8817 -0.7800 -0.4401
 8913SOL    HW238373   3.905   1.984   2.356  2.9757  0.8543 -2.9220
 8914SOL     OW38374   0.789   1.071  10.105 -0.0467 -0.0094 -0.2160
 8914SOL    HW138375   0.751   1.138  10.162 -0.4526 -0.6746  0.2883
 8914SOL    HW238376   0.837   1.010  10.160  0.8634  0.7474 -0.1801
 8915SOL     OW38377   2.229   1.078   8.243 -0.5906 -0.1216 -0.6479
 8915SOL    HW138378   2.196   1.162   8.275  0.0717  0.3512 -1.1953
 8915SOL    HW238379   2.147   1.037   8.218 -1.8940  0.2504  3.0672
 8916SOL     OW38380   2.342   4.652  16.541 -0.0478 -0.4162 -0.6071
 8916SOL    HW138381   2.413   4.700  16.500  0.2151  0.6263  1.0832
 8916SOL    HW238382   2.286   4.635  16.465  1.4839  0.7021 -1.9912
 8917SOL     OW38383   1.576   1.385   7.205 -0.6178 -0.5122 -0.1446
 8917SOL    HW138384   1.566   1.450   7.135 -0.9628 -0.6544 -0.2258
 8917SOL    HW238385   1.508   1.414   7.265 -0.4245  0.0926 -0.2196
 8918SOL     OW38386   3.838   0.570   1.474 -0.2958  0.6387 -0.0059
 8918SOL    HW138387   3.758   0.520   1.457  1.4973 -1.4627 -2.1543
 8918SOL    HW238388   3.867   0.569   1.383 -0.7037 -1.2521 -0.1056
 8919SOL     OW38389   1.197   1.217   2.901 -0.1113 -0.0040  0.4123
 8919SOL    HW138390   1.257   1.143   2.900  0.9848  0.8648  1.4607
 8919SOL    HW238391   1.150   1.209   2.818 -0.0936 -0.7452  0.4768
 8920SOL     OW38392   3.098   0.916   6.714  0.4221 -0.5416  0.2263
 8920SOL    HW138393   3.007   0.897   6.689  0.3491  1.9288 -1.3337
 8920SOL    HW238394   3.141   0.836   6.683  0.0483 -0.9433  0.7286
 8921SOL     OW38395   4.568   0.067  16.286  0.0179 -0.1959 -0.9987
 8921SOL    HW138396   4.557   0.153  16.327  1.3840 -0.9285  0.9108
 8921SOL    HW238397   4.605   0.096  16.202  0.0079  0.5020 -0.7558
 8922SOL     OW38398   1.407   0.644   8.938  0.5548 -0.3530  0.0454
 8922SOL    HW138399   1.434   0.686   8.857 -0.8418  3.6312  1.6652
 8922SOL    HW238400   1.492   0.618   8.974 -0.0315 -1.7399  0.4562
 8923SOL     OW38401   3.540   4.135   9.249  0.2006  0.1414  0.5911
 8923SOL    HW138402   3.501   4.051   9.227  2.3604 -0.5152 -0.7426
 8923SOL    HW238403   3.503   4.140   9.337 -1.6964 -2.5460 -0.0487
 8924SOL     OW38404   1.190   3.201   4.166 -0.2203 -0.1024  0.9322
 8924SOL    HW138405   1.264   3.262   4.172 -1.1476  1.0038  0.9755
 8924SOL    HW238406   1.232   3.124   4.206  1.9725  0.9552  0.6418
 8925SOL     OW38407   0.537   4.072   3.422 -0.5141  0.3747 -0.0765
 8925SOL    HW138408   0.449   4.061   3.460  0.1001 -0.0748  1.2111
 8925SOL    HW238409   0.523   4.040   3.333 -3.1511 -1.3096  0.9221
 8926SOL     OW38410   4.105   0.613   1.447 -0.0215  0.1144 -0.5401
 8926SOL    HW138411   4.089   0.592   1.355  1.3307  2.3657 -1.3060
 8926SOL    HW238412   4.016   0.600   1.480  0.5524 -0.6688  0.6840
 8927SOL     OW38413   0.936   1.540   1.799  0.3618  0.2018 -0.5514
 8927SOL    HW138414   0.998   1.566   1.867 -0.5772 -1.9697  1.1489
 8927SOL    HW238415   0.995   1.494   1.739  1.0749  2.4199 -1.5729
 8928SOL     OW38416   0.825   1.309   9.585 -0.0593  0.1838 -0.1186
 8928SOL    HW138417   0.749   1.340   9.635  1.2725  2.1839  0.6802
 8928SOL    HW238418   0.900   1.346   9.631 -1.1256 -0.3017  2.0096
 8929SOL     OW38419   1.220   0.481   7.805  0.0477 -0.5268 -0.0389
 8929SOL    HW138420   1.241   0.388   7.801  0.1587 -0.5759  1.7311
 8929SOL    HW238421   1.241   0.513   7.717 -2.1041  4.8492  1.4093
 8930SOL     OW38422   4.577   1.028   9.022 -0.0099  0.0900 -0.0802
 8930SOL    HW138423   4.616   1.046   8.937  0.0241 -0.3202 -0.1542
 8930SOL    HW238424   4.501   0.980   8.990  0.1559  0.2946 -0.7612
 8931SOL     OW38425   2.344   1.174   2.104 -0.5063 -0.3074  0.6357
 8931SOL    HW138426   2.418   1.217   2.148 -0.4762  0.2791  0.0113
 8931SOL    HW238427   2.357   1.205   2.014  2.0141 -2.7564  0.1649
 8932SOL     OW38428   1.366   2.676   3.141 -0.3414 -0.2608 -0.0096
 8932SOL    HW138429   1.370   2.602   3.202  1.5169  2.4782  3.1950
 8932SOL    HW238430   1.296   2.729   3.180  0.1605  0.4578 -0.0889
 8933SOL     OW38431   3.522   2.713  15.211  0.3887 -0.2455  0.8817
 8933SOL    HW138432   3.442   2.736  15.257  1.2021  1.4394  1.4748
 8933SOL    HW238433   3.551   2.638  15.263 -0.0328  0.3656  1.9893
 8934SOL     OW38434   3.088   3.231   3.869 -0.5761  0.5166  0.1203
 8934SOL    HW138435   3.081   3.151   3.921 -0.4036  0.3431 -0.1222
 8934SOL    HW238436   3.019   3.284   3.909 -0.4781  0.3447  0.5087
 8935SOL     OW38437   1.164   2.254   7.657 -0.2870 -0.0222  0.2392
 8935SOL    HW138438   1.192   2.239   7.747 -0.0254  3.2456  0.6914
 8935SOL    HW238439   1.243   2.289   7.617 -0.6104 -0.9285 -1.1869
 8936SOL     OW38440   2.589   3.844  11.676 -0.0602 -0.1782 -0.0916
 8936SOL    HW138441   2.569   3.889  11.594  0.7591 -0.5402 -0.4955
 8936SOL    HW238442   2.593   3.753  11.647 -0.6762 -0.5857  1.1163
 8937SOL     OW38443   4.535   3.807  14.566 -0.4598 -0.4591  0.1402
 8937SOL    HW138444   4.554   3.723  14.610  1.0087  0.5586  1.4512
 8937SOL    HW238445   4.488   3.786  14.485  0.0651 -0.0668 -0.2669
 8938SOL     OW38446   1.443   3.548   3.796  0.3247  0.0121 -0.0475
 8938SOL    HW138447   1.457   3.595   3.714 -2.0142  0.3272 -0.2864
 8938SOL    HW238448   1.348   3.560   3.809 -0.0137 -0.4307 -2.2230
 8939SOL     OW38449   3.724   3.049   5.485 -0.3638  0.0632  0.3924
 8939SOL    HW138450   3.666   3.006   5.421  1.3398 -2.0362  0.2797
 8939SOL    HW238451   3.751   3.121   5.429  0.2768  0.3867  1.1208
 8940SOL     OW38452   0.178   1.846   8.117 -0.2076 -0.3129 -0.5243
 8940SOL    HW138453   0.238   1.794   8.171  0.6902  0.2451 -0.9820
 8940SOL    HW238454   0.235   1.909   8.074 -1.0960  0.2657 -0.8484
 8941SOL     OW38455   0.630   2.452   2.338 -0.3401 -0.0383 -0.3600
 8941SOL    HW138456   0.680   2.403   2.273  0.7745 -1.6509  1.7230
 8941SOL    HW238457   0.538   2.440   2.314 -0.2713 -0.2431 -0.5221
 8942SOL     OW38458   0.575   1.249   9.964  0.4911 -0.0827  0.9779
 8942SOL    HW138459   0.637   1.175   9.957 -0.8989 -1.3215  1.8418
 8942SOL    HW238460   0.497   1.198   9.984  0.5450 -0.2336  0.7998
 8943SOL     OW38461   2.892   3.419  11.986  0.1520 -0.8161 -0.0832
 8943SOL    HW138462   2.826   3.478  11.950  0.2845 -0.5999  0.0296
 8943SOL    HW238463   2.963   3.421  11.922 -0.1184 -0.3892 -0.3629
 8944SOL     OW38464   3.901   1.278   3.458 -0.5439 -0.4579 -0.0513
 8944SOL    HW138465   3.908   1.220   3.533 -0.9168  0.7505  0.9178
 8944SOL    HW238466   3.887   1.216   3.387  0.5940  0.7895 -1.3729
 8945SOL     OW38467   3.970   2.961  13.145  0.2239  0.2578  0.0174
 8945SOL    HW138468   4.003   2.900  13.080  0.9089  0.7513 -0.0980
 8945SOL    HW238469   4.005   2.939  13.231 -1.4590  1.0074  0.8907
 8946SOL     OW38470   2.794   3.115  10.947  0.3451 -0.0542 -0.2792
 8946SOL    HW138471   2.816   3.207  10.928 -0.4470 -0.1041 -1.4839
 8946SOL    HW238472   2.879   3.086  10.978  0.5490  1.1076  0.2678
 8947SOL     OW38473   2.085   2.785   5.864 -0.0305 -0.0416 -0.3578
 8947SOL    HW138474   2.095   2.723   5.792 -1.8178  1.4070 -1.8636
 8947SOL    HW238475   2.064   2.864   5.814  0.4036  0.7539  0.6937
 8948SOL     OW38476   1.838   4.689   2.313  0.1646 -0.3297  0.0867
 8948SOL    HW138477   1.761   4.727   2.355  0.1960 -0.0055 -0.1532
 8948SOL    HW238478   1.890   0.030   2.295 -0.7393  0.1422 -0.4537
 8949SOL     OW38479   3.590   0.955   3.538  0.0079  0.0912  0.0519
 8949SOL    HW138480   3.596   0.874   3.590 -1.3364  1.4639  2.3444
 8949SOL    HW238481   3.514   0.930   3.484  0.1291  0.0599 -0.1027
 8950SOL     OW38482   0.642   0.976  13.923 -0.4358  0.0923 -0.8127
 8950SOL    HW138483   0.600   0.937  13.999 -1.8127  0.1630 -1.5302
 8950SOL    HW238484   0.682   1.043  13.978  1.5565 -1.6393 -0.1694
 8951SOL     OW38485   1.298   0.629   7.282 -0.0306  0.2257 -0.2843
 8951SOL    HW138486   1.366   0.598   7.222 -0.5750  0.6920 -1.1426
 8951SOL    HW238487   1.227   0.581   7.239 -0.6161  0.5370  0.3408
 8952SOL     OW38488   0.638   2.040   3.419 -0.0943  0.1826  0.0975
 8952SOL    HW138489   0.727   2.024   3.451 -0.4952  0.9197  1.5795
 8952SOL    HW238490   0.647   2.135   3.410  0.8112 -0.1123 -2.0121
 8953SOL     OW38491   1.927   0.243   9.196  0.0140 -0.1028 -0.6848
 8953SOL    HW138492   1.882   0.172   9.242  0.5179  1.6120  2.4491
 8953SOL    HW238493   1.944   0.307   9.265 -0.2030 -2.4842  1.5668
 8954SOL     OW38494   2.015   1.118   4.097  0.1915 -0.3845 -0.2075
 8954SOL    HW138495   1.934   1.070   4.078  0.5368 -1.3315  0.7561
 8954SOL    HW238496   1.968   1.201   4.085 -0.7876 -0.6406  1.7761
 8955SOL     OW38497   4.679   1.172   4.291 -0.4854 -0.1058 -0.1362
 8955SOL    HW138498   4.689   1.077   4.288 -0.6329 -0.1723  1.6197
 8955SOL    HW238499   4.610   1.191   4.228 -1.5466 -0.7591  0.8279
 8956SOL     OW38500   4.473   0.972   7.575 -0.0553  0.3144 -0.1685
 8956SOL    HW138501   4.541   1.037   7.594  0.5023 -0.2797 -0.1341
 8956SOL    HW238502   4.524   0.904   7.530 -1.0439 -0.3695 -0.2613
 8957SOL     OW38503   0.831   0.062   0.416 -0.4108  0.1343  0.0662
 8957SOL    HW138504   0.897   0.054   0.348  0.1053 -0.8658  0.6774
 8957SOL    HW238505   0.851   0.146   0.458 -2.8931  0.8225 -0.1274
 8958SOL     OW38506   1.754   4.206   9.522  0.0049  0.3715  0.2366
 8958SOL    HW138507   1.689   4.176   9.586 -0.6262  1.7273  0.2424
 8958SOL    HW238508   1.723   4.148   9.453  1.0945  0.9832 -0.7579
 8959SOL     OW38509   3.344   2.939   3.104  0.0911 -0.2264 -0.4446
 8959SOL    HW138510   3.285   2.896   3.166  1.9777 -2.6552 -0.3281
 8959SOL    HW238511   3.310   3.028   3.098  0.2604 -0.0901  0.6636
 8960SOL     OW38512   2.521   3.585   8.519 -0.1375 -0.1804 -0.0562
 8960SOL    HW138513   2.539   3.496   8.550  0.6741 -0.4739 -1.3763
 8960SOL    HW238514   2.496   3.632   8.599  2.8174  0.3268  0.5784
 8961SOL     OW38515   4.209   1.585   5.820  0.4021  0.1567  0.1469
 8961SOL    HW138516   4.144   1.568   5.888  1.2580 -2.8551  0.2282
 8961SOL    HW238517   4.291   1.550   5.856  0.1019 -0.7432 -0.0549
 8962SOL     OW38518   1.549   2.480   4.901  0.1557  0.1787  0.3188
 8962SOL    HW138519   1.579   2.508   4.815 -0.5280  1.5212  0.5167
 8962SOL    HW238520   1.594   2.395   4.900  1.3093  0.8038 -0.7013
 8963SOL     OW38521   4.213   0.635  17.430  0.0379 -0.4445 -0.2162
 8963SOL    HW138522   4.284   0.597  17.379 -0.7278  0.8676 -2.2764
 8963SOL    HW238523   4.137   0.605  17.380 -1.7251  0.7369  1.7388
 8964SOL     OW38524   0.767   1.806  10.399  0.0243 -0.1558  0.0737
 8964SOL    HW138525   0.796   1.735  10.456  0.4933 -1.9558 -2.3857
 8964SOL    HW238526   0.730   1.769  10.319 -1.8378  1.4899  0.1860
 8965SOL     OW38527   0.702   2.329  13.300 -0.3769  0.4045  0.4520
 8965SOL    HW138528   0.630   2.356  13.243 -0.3956 -0.7386 -0.0682
 8965SOL    HW238529   0.733   2.407  13.346 -0.0904  1.4364 -1.4969
 8966SOL     OW38530   2.943   3.605  17.509  0.2510  0.4541 -0.6276
 8966SOL    HW138531   2.970   3.515  17.490  0.8542  0.8940 -1.8703
 8966SOL    HW238532   2.959   3.609  17.603  0.8439 -0.1488 -0.7025
 8967SOL     OW38533   4.135   2.823   8.692 -0.0071 -0.4834  0.4563
 8967SOL    HW138534   4.078   2.868   8.755  0.2734  1.0450 -0.3987
 8967SOL    HW238535   4.108   2.733   8.676 -0.0464 -0.3099 -0.4184
 8968SOL     OW38536   1.447   3.876   2.421 -0.4703 -0.0841  0.0597
 8968SOL    HW138537   1.460   3.814   2.493 -1.2629  0.9819  1.1275
 8968SOL    HW238538   1.399   3.949   2.461  0.2911 -0.0403  0.8786
 8969SOL     OW38539   2.506   3.470   7.526 -0.0524  0.2152 -0.4022
 8969SOL    HW138540   2.572   3.539   7.520  0.2434 -0.1184 -0.9120
 8969SOL    HW238541   2.557   3.393   7.503  0.4647  0.0422  1.3469
 8970SOL     OW38542   0.417   2.926   7.049  0.1961 -0.1375 -0.2150
 8970SOL    HW138543   0.344   2.865   7.063  0.3679 -1.3773 -4.4613
 8970SOL    HW238544   0.429   2.972   7.131 -1.4253  1.2965 -0.7667
 8971SOL     OW38545   2.201   1.662  16.169 -0.1795  0.0862 -0.3078
 8971SOL    HW138546   2.212   1.599  16.097  2.9319  0.3630 -0.0764
 8971SOL    HW238547   2.106   1.669  16.176 -0.1215 -1.7982  2.2132
 8972SOL     OW38548   0.175   1.877   9.034 -0.6104  0.5671 -0.0275
 8972SOL    HW138549   0.197   1.799   8.983 -0.9170  1.7722 -1.9797
 8972SOL    HW238550   0.263   1.885   9.069 -0.3260  1.3094 -0.9184
 8973SOL     OW38551   3.927   4.599   3.194 -0.5634  0.1550 -0.3409
 8973SOL    HW138552   3.928   4.522   3.251 -0.6890  1.3694  1.2718
 8973SOL    HW238553   4.023   4.604   3.187 -0.5209 -0.5261 -0.2631
 8974SOL     OW38554   0.235   4.494  10.313 -0.4468  0.2767  0.1566
 8974SOL    HW138555   0.204   4.518  10.226  0.7386  0.5457 -0.1848
 8974SOL    HW238556   0.316   4.543  10.328  0.8005 -1.9583  0.6708
 8975SOL     OW38557   1.892   2.151   3.614 -0.0527 -0.0569 -0.2721
 8975SOL    HW138558   1.860   2.237   3.644 -0.0421  0.6254 -2.2385
 8975SOL    HW238559   1.985   2.162   3.636  0.5080 -1.6382 -1.8752
 8976SOL     OW38560   4.154   0.968   6.672  0.8211  0.1833  0.2606
 8976SOL    HW138561   4.203   1.012   6.741  1.5663  0.8697 -0.6896
 8976SOL    HW238562   4.182   1.019   6.595  0.6325 -0.2186 -0.0746
 8977SOL     OW38563   2.322   3.980  13.695  0.3241  0.7996 -0.0291
 8977SOL    HW138564   2.340   3.947  13.607 -1.9942 -0.4414 -0.0651
 8977SOL    HW238565   2.389   4.048  13.698  0.6378  0.5616 -1.3826
 8978SOL     OW38566   4.465   1.231  12.661 -0.5350  0.8038 -0.1952
 8978SOL    HW138567   4.379   1.210  12.626 -0.9522  0.4860  1.0511
 8978SOL    HW238568   4.440   1.291  12.731 -1.1933  1.7805 -1.2590
 8979SOL     OW38569   0.201   1.296   8.805 -0.3751  0.0024  0.2647
 8979SOL    HW138570   0.250   1.337   8.734  2.7420 -1.6062  1.4952
 8979SOL    HW238571   0.113   1.325   8.782 -0.6239  0.0092  1.2130
 8980SOL     OW38572   2.330   1.336  15.092  0.3878  0.2965  0.3648
 8980SOL    HW138573   2.308   1.345  15.185 -0.8932  1.1122 -0.0162
 8980SOL    HW238574   2.298   1.246  15.079 -1.9116  1.1988 -0.3228
 8981SOL     OW38575   0.607   1.626  16.350 -0.4458  0.5572  0.1805
 8981SOL    HW138576   0.670   1.697  16.366  1.3808 -1.5612  2.5297
 8981SOL    HW238577   0.674   1.568  16.314  1.1786  1.3365  1.9344
 8982SOL     OW38578   0.394   1.115   5.148 -0.0002  0.1668 -0.6296
 8982SOL    HW138579   0.451   1.185   5.115  0.4779 -0.6579 -1.5374
 8982SOL    HW238580   0.448   1.096   5.225 -0.0997 -0.5582 -0.7413
 8983SOL     OW38581   1.498   0.845   6.465  0.1744 -0.6503  0.1340
 8983SOL    HW138582   1.411   0.809   6.486  0.1170 -0.4793  0.1898
 8983SOL    HW238583   1.533   0.883   6.545 -1.7342  0.3155  0.5178
 8984SOL     OW38584   3.341   1.730   2.906  0.3938  0.0426  0.2417
 8984SOL    HW138585   3.369   1.640   2.893  0.9617  0.4399 -1.2213
 8984SOL    HW238586   3.250   1.724   2.935  0.2149 -1.5234 -0.6246
 8985SOL     OW38587   4.360   0.901  15.582  0.0287  0.0056 -0.3357
 8985SOL    HW138588   4.328   0.973  15.528 -0.5401  0.7166  0.9364
 8985SOL    HW238589   4.276   0.863  15.608 -0.7593  1.4792 -0.7179
 8986SOL     OW38590   4.181   4.611   3.285  0.0592  0.3245  0.1343
 8986SOL    HW138591   4.275   4.592   3.292 -0.4721 -1.9712  1.2460
 8986SOL    HW238592   4.159   4.628   3.376  1.3818  1.0088  0.3262
 8987SOL     OW38593   2.083   0.623  14.576  0.6521  0.2106 -0.0837
 8987SOL    HW138594   2.021   0.685  14.615  0.3087  1.4700 -2.6352
 8987SOL    HW238595   2.080   0.646  14.483 -0.9776  1.1611  0.2135
 8988SOL     OW38596   0.167   1.059  15.844 -0.6618 -0.1480  0.0108
 8988SOL    HW138597   0.241   1.109  15.809 -1.3873  1.4302  0.7310
 8988SOL    HW238598   0.218   1.021  15.916  0.3803  1.3566  0.0763
 8989SOL     OW38599   0.409   0.307   9.370  0.1224  0.5307  0.0679
 8989SOL    HW138600   0.341   0.266   9.316  0.4620  0.6534 -0.4534
 8989SOL    HW238601   0.427   0.236   9.431 -2.2358 -0.6210 -0.5653
 8990SOL     OW38602   1.215   2.669  16.257 -0.4901 -0.0894 -0.2450
 8990SOL    HW138603   1.238   2.664  16.165  0.5677  1.8565 -0.0986
 8990SOL    HW238604   1.286   2.721  16.294  0.5379 -0.3116 -1.9120
 8991SOL     OW38605   2.910   0.118   6.903  0.2286 -0.1066 -0.0440
 8991SOL    HW138606   2.909   0.201   6.855  0.6827 -1.4485 -2.4144
 8991SOL    HW238607   2.877   0.055   6.839 -1.7303 -1.0340  1.9029
 8992SOL     OW38608   2.005   0.798   6.536 -0.3990 -0.2513 -0.4891
 8992SOL    HW138609   2.044   0.713   6.519  0.8586  0.4330 -1.0432
 8992SOL    HW238610   1.983   0.796   6.629 -2.3709 -0.0946 -0.9581
 8993SOL     OW38611   4.319   4.145   3.109 -0.2123  0.6058 -0.1948
 8993SOL    HW138612   4.342   4.059   3.075  2.0658  0.6740  1.1734
 8993SOL    HW238613   4.244   4.166   3.054 -1.2882 -2.3761  0.1738
 8994SOL     OW38614   4.618   4.171   2.085  0.0409 -0.7974 -0.3849
 8994SOL    HW138615   4.554   4.174   2.014 -1.9637  2.7363  1.6038
 8994SOL    HW238616   4.684   4.218   2.035  0.4998  0.0723  1.0560
 8995SOL     OW38617   1.432   4.227  15.500 -0.4442 -0.1199 -0.1198
 8995SOL    HW138618   1.386   4.238  15.416 -0.6439 -1.0324 -0.1257
 8995SOL    HW238619   1.512   4.276  15.482 -0.9779  0.5746 -0.6016
 8996SOL     OW38620   3.194   2.005   7.460  0.6645 -0.5722  0.0264
 8996SOL    HW138621   3.256   1.973   7.395 -0.2899  0.5874 -1.4528
 8996SOL    HW238622   3.173   1.929   7.514  1.8647 -1.3153 -0.5485
 8997SOL     OW38623   2.243   3.636   6.868  0.2609 -0.0802  0.5977
 8997SOL    HW138624   2.164   3.690   6.867  1.0308  1.0175 -0.0402
 8997SOL    HW238625   2.211   3.573   6.932  0.8211 -1.2406 -0.2583
 8998SOL     OW38626   1.849   4.601   9.597  0.0166 -0.5523 -0.3747
 8998SOL    HW138627   1.862   4.695   9.609 -0.7757 -0.4787 -0.0914
 8998SOL    HW238628   1.794   4.578   9.672 -2.6318  1.3194 -1.7383
 8999SOL     OW38629   2.676   0.664   6.541 -0.3163  0.3213 -0.2030
 8999SOL    HW138630   2.662   0.599   6.610 -0.4749  2.4833  1.8003
 8999SOL    HW238631   2.590   0.704   6.529  0.1041  1.3477  0.2562
 9000SOL     OW38632   0.900   2.779   0.272 -0.0226  0.3610 -0.3582
 9000SOL    HW138633   0.893   2.865   0.230 -1.6676  1.3006  1.8716
 9000SOL    HW238634   0.813   2.743   0.256  0.1428 -1.4931  3.0665
 9001SOL     OW38635   4.643   2.248  15.122 -0.6676  0.4853 -0.7425
 9001SOL    HW138636   4.670   2.220  15.209 -0.2476  0.8077 -0.7708
 9001SOL    HW238637   4.550   2.269  15.129 -0.1031  2.7503  0.0533
 9002SOL     OW38638   0.074   2.263   7.444 -0.5015  0.0493 -0.3586
 9002SOL    HW138639   4.737   2.320   7.423 -0.7446 -0.4144 -0.7403
 9002SOL    HW238640   0.037   2.176   7.458 -1.0841  0.2866 -0.4472
 9003SOL     OW38641   2.393   1.896  12.008  0.3149 -0.0670 -0.1520
 9003SOL    HW138642   2.473   1.846  12.023 -0.4068 -0.8298  1.0900
 9003SOL    HW238643   2.331   1.834  11.970  0.1596  0.2579 -0.4358
 9004SOL     OW38644   1.830   2.827   4.330 -0.5184  0.1762 -0.2686
 9004SOL    HW138645   1.907   2.828   4.386  0.0021 -0.0961 -0.9921
 9004SOL    HW238646   1.819   2.737   4.298  1.4672 -0.1363 -0.0641
 9005SOL     OW38647   0.582   4.052   8.334 -0.5841 -0.5957 -0.5841
 9005SOL    HW138648   0.544   4.084   8.416  0.2778 -2.4209  0.5118
 9005SOL    HW238649   0.614   3.964   8.353  0.8292  0.7798  3.3767
 9006SOL     OW38650   1.064   2.167   2.730 -0.0449 -0.2020  0.6322
 9006SOL    HW138651   1.077   2.149   2.823 -0.4383 -0.6441  0.6046
 9006SOL    HW238652   0.972   2.183   2.709 -0.8587 -0.0286  4.3675
 9007SOL     OW38653   2.285   1.695   6.374  0.1617  0.4245 -0.0792
 9007SOL    HW138654   2.325   1.771   6.417 -0.7002  0.8316  0.0002
 9007SOL    HW238655   2.194   1.692   6.404  0.1150 -1.0039 -0.3704
 9008SOL     OW38656   1.306   2.903  10.812 -0.3576  0.0216  0.8065
 9008SOL    HW138657   1.227   2.848  10.805 -0.4700  0.4422 -1.1150
 9008SOL    HW238658   1.278   2.993  10.829 -1.9491 -0.5804  1.3810
 9009SOL     OW38659   1.109   0.274   6.428 -0.0474  0.6075 -0.0955
 9009SOL    HW138660   1.063   0.248   6.508 -1.4125 -1.6365 -1.6513
 9009SOL    HW238661   1.199   0.289   6.458  0.2559  2.4146 -1.9183
 9010SOL     OW38662   1.349   4.551   5.637  0.4873  0.3890 -0.3830
 9010SOL    HW138663   1.265   4.597   5.636  0.1743 -0.1318  2.7106
 9010SOL    HW238664   1.400   4.631   5.623 -0.4690  1.0371 -0.1218
 9011SOL     OW38665   0.026   4.389  15.452  0.2173 -0.2525 -0.0472
 9011SOL    HW138666   4.684   4.423  15.492  1.0659  0.5903  0.9618
 9011SOL    HW238667   0.042   4.466  15.397  0.4948  1.0753  1.9033
 9012SOL     OW38668   1.416   1.891   3.297  0.2327 -0.0050  0.3953
 9012SOL    HW138669   1.429   1.814   3.241  1.7301  1.0796 -0.7533
 9012SOL    HW238670   1.427   1.856   3.385  0.2311 -1.0247 -0.0116
 9013SOL     OW38671   1.609   0.828   1.715  0.4622  0.0868  0.6820
 9013SOL    HW138672   1.609   0.733   1.699 -0.1728  0.3555 -0.8653
 9013SOL    HW238673   1.690   0.858   1.674  0.4413 -1.0870 -0.2423
 9014SOL     OW38674   1.774   2.433   9.252 -0.0211 -0.7078 -0.0624
 9014SOL    HW138675   1.692   2.444   9.299  1.4509  0.8769  2.1073
 9014SOL    HW238676   1.759   2.350   9.207  2.3975  0.3655 -2.9102
 9015SOL     OW38677   4.542   2.264   4.308  0.0740  0.4841 -0.5165
 9015SOL    HW138678   4.624   2.281   4.263  0.0025 -0.4535 -0.9740
 9015SOL    HW238679   4.547   2.336   4.372 -0.5025  1.0250 -1.0805
 9016SOL     OW38680   2.873   3.676   8.320 -0.6622  0.0564 -0.3695
 9016SOL    HW138681   2.805   3.717   8.373 -0.1820  0.4209 -0.0364
 9016SOL    HW238682   2.861   3.721   8.236  0.3654 -0.4001 -0.7567
 9017SOL     OW38683   3.355   4.184   8.167  0.2229  0.5523  0.6211
 9017SOL    HW138684   3.425   4.176   8.231 -2.5180  0.9667  3.6595
 9017SOL    HW238685   3.387   4.254   8.110  1.2792 -0.5821 -0.1931
 9018SOL     OW38686   0.400   1.899   3.541  0.1560  0.4942  0.6482
 9018SOL    HW138687   0.378   1.836   3.472  1.5130  0.3619  0.3289
 9018SOL    HW238688   0.484   1.925   3.502  0.0833 -0.1291  0.0645
 9019SOL     OW38689   2.188   4.144   5.469  0.3698  0.3037 -0.2197
 9019SOL    HW138690   2.127   4.207   5.431 -1.4091 -1.0761  0.3097
 9019SOL    HW238691   2.131   4.066   5.473  0.9281 -0.2606 -3.1994
 9020SOL     OW38692   2.041   4.022   3.207 -0.2254 -0.3469  0.0248
 9020SOL    HW138693   2.122   3.978   3.234 -1.3464 -1.6710  1.1905
 9020SOL    HW238694   2.000   3.949   3.161 -0.2196 -1.4776  1.8318
 9021SOL     OW38695   2.468   4.225   8.209  0.0482  0.2929 -0.1722
 9021SOL    HW138696   2.502   4.312   8.189 -0.2265  0.8550  1.8126
 9021SOL    HW238697   2.375   4.248   8.202  0.2332  0.4612 -2.1013
 9022SOL     OW38698   0.176   4.563   9.799 -0.2200 -0.0504  0.6813
 9022SOL    HW138699   0.210   4.582   9.886 -4.4973  0.2273  2.2394
 9022SOL    HW238700   0.204   4.646   9.760 -2.2124  1.1621  1.8846
 9023SOL     OW38701   2.718   0.965   9.394  0.6510 -0.5337  0.0702
 9023SOL    HW138702   2.663   0.892   9.423  1.2995 -0.5866  1.1748
 9023SOL    HW238703   2.726   0.956   9.299 -1.1959  2.3742 -0.3266
 9024SOL     OW38704   0.203   3.849   9.398 -0.7595 -0.0506 -0.1131
 9024SOL    HW138705   0.193   3.906   9.321  0.5828  0.8395  0.3610
 9024SOL    HW238706   0.281   3.887   9.439 -0.1945 -0.7243 -0.5742
 9025SOL     OW38707   1.653   4.346  15.383 -0.8074 -0.3137 -0.1321
 9025SOL    HW138708   1.742   4.378  15.399 -0.3907 -0.4320 -2.2152
 9025SOL    HW238709   1.669   4.284  15.312  0.5573  0.4369 -0.4717
 9026SOL     OW38710   2.873   3.416   3.988  0.0480  0.0905 -0.0089
 9026SOL    HW138711   2.823   3.351   3.939 -1.3931  0.6198  0.7723
 9026SOL    HW238712   2.844   3.498   3.948  0.4924  0.7542  1.0260
 9027SOL     OW38713   1.444   3.029   2.853 -0.0670 -0.5955 -0.3450
 9027SOL    HW138714   1.537   3.037   2.872 -0.0117 -0.7273 -0.5552
 9027SOL    HW238715   1.442   2.934   2.840  0.1514 -0.5904 -0.4159
 9028SOL     OW38716   2.519   1.211   4.150  0.3997 -0.3235 -0.2333
 9028SOL    HW138717   2.510   1.245   4.239 -2.1400 -0.3267 -0.4813
 9028SOL    HW238718   2.526   1.118   4.172  0.3130 -0.3884 -0.4747
 9029SOL     OW38719   4.374   4.165   1.901  0.0728  0.0782  0.5203
 9029SOL    HW138720   4.395   4.206   1.817 -0.8160 -0.1673  0.1759
 9029SOL    HW238721   4.334   4.084   1.868  0.4008  0.2425 -0.2768
 9030SOL     OW38722   0.275   0.667   7.396  0.3545  0.0657  0.0940
 9030SOL    HW138723   0.275   0.762   7.408  0.4695 -0.2137  2.3757
 9030SOL    HW238724   0.284   0.662   7.301  2.1724  3.2469  0.0915
 9031SOL     OW38725   2.592   2.150   5.857 -0.9401  0.1222 -0.0551
 9031SOL    HW138726   2.541   2.073   5.883 -0.0858 -0.6559 -0.6633
 9031SOL    HW238727   2.520   2.210   5.841  1.8047  3.1854 -0.8073
 9032SOL     OW38728   1.056   3.788   3.634  0.7147  0.4519  0.4183
 9032SOL    HW138729   1.010   3.848   3.693  1.6513  1.5734  0.0118
 9032SOL    HW238730   1.075   3.848   3.561  0.7332 -1.1176 -0.8624
 9033SOL     OW38731   2.697   1.284   9.344  0.4899 -0.3167 -0.2614
 9033SOL    HW138732   2.786   1.276   9.377 -0.4738 -0.7103  2.2847
 9033SOL    HW238733   2.661   1.196   9.357  2.0411 -0.5812  2.1732
 9034SOL     OW38734   1.156   1.927   2.638 -0.0938 -0.2767  0.1487
 9034SOL    HW138735   1.155   2.014   2.677  3.4056  0.1993 -0.8828
 9034SOL    HW238736   1.242   1.922   2.596  0.5426 -1.1603  1.5468
 9035SOL     OW38737   3.612   0.952  14.977 -0.5471  0.0376  0.0039
 9035SOL    HW138738   3.695   0.905  14.985 -0.8825 -0.2819  1.5761
 9035SOL    HW238739   3.565   0.882  14.931 -2.8462 -0.6874  3.4714
 9036SOL     OW38740   1.118   0.431   1.527 -0.1505  0.0776  0.4489
 9036SOL    HW138741   1.141   0.524   1.528  1.2510 -0.2863  2.1367
 9036SOL    HW238742   1.132   0.411   1.434  1.1126  1.7308  0.2907
 9037SOL     OW38743   3.001   0.234   3.366 -0.5485 -0.2251 -0.1592
 9037SOL    HW138744   2.995   0.295   3.440  0.0054  0.3168 -0.5594
 9037SOL    HW238745   3.053   0.165   3.407 -0.0715  1.0056  1.3131
 9038SOL     OW38746   2.067   3.137   2.175  0.2034  0.6703  0.3601
 9038SOL    HW138747   1.991   3.092   2.140  3.2091 -1.6121 -3.1838
 9038SOL    HW238748   2.053   3.221   2.131  0.9820  0.0144 -1.1454
 9039SOL     OW38749   1.181   3.175   1.911  0.4197  0.0985  0.0578
 9039SOL    HW138750   1.121   3.132   1.972  1.5385 -1.6279 -0.0695
 9039SOL    HW238751   1.127   3.240   1.865 -0.0644 -0.3559 -0.0204
 9040SOL     OW38752   4.481   0.008  14.928  0.2487  0.2006 -0.2868
 9040SOL    HW138753   4.566   0.036  14.962  0.5699  1.6394 -2.3304
 9040SOL    HW238754   4.481   4.653  14.951 -0.9952  0.4884  0.8833
 9041SOL     OW38755   4.565   3.094   0.303 -0.4280  0.6924 -0.3824
 9041SOL    HW138756   4.526   3.014   0.267 -0.7286  0.8575 -0.4237
 9041SOL    HW238757   4.631   3.048   0.354 -0.5850  1.3922  0.4478
 9042SOL     OW38758   3.376   0.216   8.337 -1.0367 -0.4742 -0.8677
 9042SOL    HW138759   3.357   0.276   8.265  1.0123  1.5133  0.2422
 9042SOL    HW238760   3.384   0.276   8.411 -0.8397  0.6686 -1.8043
 9043SOL     OW38761   2.362   0.757   4.687  0.0225  0.1109 -0.1927
 9043SOL    HW138762   2.273   0.790   4.676  0.0027 -0.0900 -0.6463
 9043SOL    HW238763   2.375   0.704   4.608  1.7301  0.0362  0.1238
 9044SOL     OW38764   3.195   0.620   8.240 -0.0816 -0.4246  0.2715
 9044SOL    HW138765   3.233   0.680   8.176 -2.3963  0.6751 -0.0521
 9044SOL    HW238766   3.270   0.561   8.241  0.6623  0.5453  1.1099
 9045SOL     OW38767   0.994   4.475   6.333  0.2845  0.0095  0.0445
 9045SOL    HW138768   0.940   4.532   6.278 -1.4704 -0.9080  0.8240
 9045SOL    HW238769   0.941   4.396   6.339 -1.6648  1.3093 -0.0518
 9046SOL     OW38770   1.167   4.727   2.261  0.0292  0.2714  0.8336
 9046SOL    HW138771   1.208   0.016   2.178  0.5465 -0.9961  0.6903
 9046SOL    HW238772   1.140   0.072   2.302 -0.8200 -0.1351  1.0849
 9047SOL     OW38773   4.333   4.356  16.413  0.2750 -0.2574 -0.0611
 9047SOL    HW138774   4.355   4.275  16.368  0.9802 -0.2684  0.2980
 9047SOL    HW238775   4.425   4.378  16.426 -0.2917  1.5815  0.9733
 9048SOL     OW38776   0.216   1.873  17.317 -0.1875 -0.0466 -0.1348
 9048SOL    HW138777   0.132   1.916  17.335  0.1350  1.1671 -1.5292
 9048SOL    HW238778   0.277   1.911  17.380 -0.6771 -0.7554  0.7681
 9049SOL     OW38779   0.837   0.970   6.166 -0.0196  0.5329  0.3042
 9049SOL    HW138780   0.765   0.912   6.140  1.3222 -0.5268 -1.0689
 9049SOL    HW238781   0.793   1.054   6.163 -0.5950  0.1408 -2.2819
 9050SOL     OW38782   3.096   3.712   7.866 -0.2235 -0.6883  0.0501
 9050SOL    HW138783   3.118   3.637   7.811  2.2487 -0.1068  0.2610
 9050SOL    HW238784   3.113   3.679   7.954 -1.3611 -1.4873 -0.0285
 9051SOL     OW38785   4.219   1.011   1.603 -0.3032 -0.3487 -0.7011
 9051SOL    HW138786   4.257   1.096   1.624 -3.3975  0.7346  0.5277
 9051SOL    HW238787   4.159   1.040   1.533 -0.1640 -0.0057 -0.6797
 9052SOL     OW38788   1.066   2.953  15.015 -0.0158 -0.4047 -0.1674
 9052SOL    HW138789   1.110   2.923  14.936 -0.4080  2.0409 -1.3162
 9052SOL    HW238790   1.111   2.896  15.078 -2.3938 -2.9009 -0.6965
 9053SOL     OW38791   0.613   0.042   8.118  0.3225  0.3934  0.2547
 9053SOL    HW138792   0.530   0.048   8.070 -0.1100 -0.0004  0.9585
 9053SOL    HW238793   0.629   0.132   8.144 -1.5729  0.2585  1.8830
 9054SOL     OW38794   4.246   2.297   1.446 -0.2255  0.3925  0.2267
 9054SOL    HW138795   4.299   2.364   1.403 -1.6712  2.6775  2.0423
 9054SOL    HW238796   4.313   2.268   1.507 -0.6808 -0.0230  0.5229
 9055SOL     OW38797   0.356   2.289   0.177  0.1683 -0.1829  0.0380
 9055SOL    HW138798   0.271   2.318   0.208  0.4875 -1.3899  2.0509
 9055SOL    HW238799   0.386   2.242   0.255  0.1524 -1.2024 -0.5779
 9056SOL     OW38800   4.695   0.690   2.490 -0.6031  0.3177 -0.1373
 9056SOL    HW138801   4.681   0.713   2.398  0.3346  1.0573 -0.0918
 9056SOL    HW238802   0.032   0.630   2.484 -0.6311  0.4566 -1.8298
 9057SOL     OW38803   2.670   0.377   4.677  0.5736  0.0654 -0.3891
 9057SOL    HW138804   2.608   0.304   4.675 -0.0246  0.6688 -4.4870
 9057SOL    HW238805   2.611   0.445   4.709 -0.3408 -1.5411  1.3447
 9058SOL     OW38806   0.393   0.086   7.935 -0.0064 -0.4351 -0.0779
 9058SOL    HW138807   0.389   0.022   7.863  1.6993  1.6253 -2.0282
 9058SOL    HW238808   0.302   0.112   7.948  0.0627 -1.5270  2.5099
 9059SOL     OW38809   2.858   2.911   7.912 -0.6049  0.2852  0.2871
 9059SOL    HW138810   2.811   2.876   7.988  1.0206 -1.5110  0.4503
 9059SOL    HW238811   2.848   2.840   7.848  1.9552 -0.2706  0.5149
 9060SOL     OW38812   3.369   1.453  13.864  0.0140  0.2601  0.2510
 9060SOL    HW138813   3.445   1.498  13.827  1.0035 -1.3845  0.2998
 9060SOL    HW238814   3.406   1.412  13.943 -1.0139 -0.1356  0.5305
 9061SOL     OW38815   0.791   2.472   3.780 -0.0828  0.3792  0.3847
 9061SOL    HW138816   0.814   2.383   3.806  1.3216 -0.3876 -3.4273
 9061SOL    HW238817   0.863   2.519   3.824  0.9861 -0.2536 -0.6947
 9062SOL     OW38818   1.046   3.646  11.665 -0.0723 -0.1566 -0.3938
 9062SOL    HW138819   1.107   3.704  11.711 -1.6449  0.5604  0.7731
 9062SOL    HW238820   0.963   3.671  11.706 -0.2774 -0.3991 -0.6572
 9063SOL     OW38821   3.221   2.934   4.393 -0.1238 -0.0612 -0.2823
 9063SOL    HW138822   3.153   2.874   4.363  1.5524 -0.9483 -2.2945
 9063SOL    HW238823   3.201   3.020   4.356 -1.1078 -0.4824 -0.7457
 9064SOL     OW38824   0.244   0.125   8.968  0.0628 -0.1633  0.6277
 9064SOL    HW138825   0.297   0.067   9.022  2.2372  0.9331 -0.3319
 9064SOL    HW238826   0.210   0.069   8.899 -0.9795  0.0757  0.9422
 9065SOL     OW38827   1.498   0.847   1.345 -0.2324 -0.3881 -0.3633
 9065SOL    HW138828   1.447   0.861   1.425  0.6185 -1.3050  0.3372
 9065SOL    HW238829   1.430   0.836   1.278 -0.5315 -3.0848  0.3772
 9066SOL     OW38830   1.981   3.567   4.484  0.4049 -0.7611 -0.3762
 9066SOL    HW138831   1.958   3.652   4.446  3.1950  1.4470  2.9119
 9066SOL    HW238832   1.969   3.569   4.579 -2.1555 -1.4447 -0.6987
 9067SOL     OW38833   4.606   3.001   5.362 -0.5999 -0.8670  0.5387
 9067SOL    HW138834   4.518   3.010   5.397 -0.3173 -1.0361  1.2774
 9067SOL    HW238835   4.656   3.059   5.419  1.7562 -1.8703 -0.4700
 9068SOL     OW38836   2.342   2.309   2.092  0.2893 -0.1332  0.4467
 9068SOL    HW138837   2.296   2.318   2.009  0.3717  2.1133  0.6461
 9068SOL    HW238838   2.384   2.392   2.116 -2.9750  1.5689  0.3574
 9069SOL     OW38839   4.139   4.730   6.184  0.8921 -0.1426 -0.3889
 9069SOL    HW138840   4.083   4.690   6.251 -0.5875  1.2784 -0.7742
 9069SOL    HW238841   4.149   0.079   6.223 -0.1453  0.4509 -1.4277
 9070SOL     OW38842   4.214   2.299   7.347  0.4222  0.2053 -0.0233
 9070SOL    HW138843   4.178   2.292   7.435 -1.6598 -3.7677 -1.1984
 9070SOL    HW238844   4.307   2.320   7.359  0.4142  0.4401 -0.3745
 9071SOL     OW38845   2.510   2.317   9.866  0.1116 -0.7178  0.5235
 9071SOL    HW138846   2.418   2.318   9.842  1.0066  0.9802 -2.8119
 9071SOL    HW238847   2.556   2.313   9.782 -0.9410 -1.1478 -0.0380
 9072SOL     OW38848   3.768   2.005   7.199 -0.3895 -0.3669  0.3918
 9072SOL    HW138849   3.720   2.055   7.134  0.7298  0.3920  0.1504
 9072SOL    HW238850   3.757   2.066   7.272 -2.0031  0.7236 -0.7554
 9073SOL     OW38851   3.790   3.232   4.788 -0.6230  0.5541  0.0825
 9073SOL    HW138852   3.808   3.249   4.695 -3.1710 -0.5267 -0.6222
 9073SOL    HW238853   3.877   3.203   4.817 -0.8440 -1.2627 -1.0419
 9074SOL     OW38854   2.621   4.023  12.802  0.2504 -0.2322 -0.1778
 9074SOL    HW138855   2.610   4.111  12.838 -1.3864 -1.1379  1.5080
 9074SOL    HW238856   2.645   3.971  12.878 -2.9295  0.8561  1.5632
 9075SOL     OW38857   0.564   2.578  10.006 -0.5163  0.7173  0.1720
 9075SOL    HW138858   0.619   2.554  10.081  0.1298 -2.1395 -1.2135
 9075SOL    HW238859   0.486   2.600  10.056  0.2205  1.2095  1.1097
 9076SOL     OW38860   0.232   1.688   4.364  0.8447  0.6895  0.0587
 9076SOL    HW138861   0.174   1.675   4.289 -1.1304  2.5854  1.2455
 9076SOL    HW238862   0.308   1.634   4.343  0.3838 -0.2315  0.7850
 9077SOL     OW38863   1.973   2.262   0.876 -0.0278  0.1744 -0.6464
 9077SOL    HW138864   1.882   2.254   0.851 -0.3800  0.9275  0.3810
 9077SOL    HW238865   2.015   2.203   0.814 -0.2466  0.6837 -1.2748
 9078SOL     OW38866   2.695   3.553   5.950  0.2077  0.0125  0.7473
 9078SOL    HW138867   2.658   3.582   5.867 -0.3582 -1.2958  0.5512
 9078SOL    HW238868   2.769   3.503   5.917 -0.2701 -0.1438 -0.0672
 9079SOL     OW38869   4.631   0.276  10.435  0.2682  0.0652  0.1605
 9079SOL    HW138870   4.615   0.256  10.527  0.6653 -1.3921 -0.0888
 9079SOL    HW238871   4.717   0.319  10.443 -0.0401  0.8649 -0.7432
 9080SOL     OW38872   0.774   2.051   4.901 -0.6683  0.1166 -0.0364
 9080SOL    HW138873   0.824   2.123   4.863 -0.3774 -0.0038  0.1255
 9080SOL    HW238874   0.838   1.979   4.896 -1.7740 -0.7798 -1.4109
 9081SOL     OW38875   1.029   0.428   3.668  0.6611 -0.2363 -0.8717
 9081SOL    HW138876   1.013   0.379   3.587 -0.9912  1.4464 -1.5681
 9081SOL    HW238877   1.008   0.363   3.734 -2.1284  3.0994  1.5008
 9082SOL     OW38878   0.311   1.944   0.162  0.4056 -0.3026 -0.5440
 9082SOL    HW138879   0.390   1.974   0.118  1.7023 -0.3942  1.7470
 9082SOL    HW238880   0.301   2.011   0.229  1.0317  0.3164 -1.0709
 9083SOL     OW38881   2.799   2.363   7.798  0.1326  0.3413  0.0367
 9083SOL    HW138882   2.758   2.279   7.819 -1.1019  0.4223 -1.9624
 9083SOL    HW238883   2.729   2.403   7.747  0.3171  1.0993  0.3896
 9084SOL     OW38884   2.116   1.989   4.803 -0.1765 -0.0363 -0.2150
 9084SOL    HW138885   2.173   2.066   4.809  1.6593 -1.4831  0.8128
 9084SOL    HW238886   2.106   1.977   4.708  2.1096 -1.5714 -0.2621
 9085SOL     OW38887   2.170   1.022   1.949  0.0680 -0.1271 -0.0858
 9085SOL    HW138888   2.227   1.055   2.018 -1.1530 -1.0272  1.3784
 9085SOL    HW238889   2.220   1.047   1.871 -0.6734  1.9641  0.1238
 9086SOL     OW38890   1.227   2.203   0.010  0.7270  0.3102 -0.0444
 9086SOL    HW138891   1.188   2.290   0.005  0.2540  0.0176 -1.3905
 9086SOL    HW238892   1.206   2.170  17.672 -1.3043  1.3566  0.0417
 9087SOL     OW38893   2.126   3.348   4.408 -0.4711 -0.7314 -0.4201
 9087SOL    HW138894   2.066   3.420   4.427 -0.7117 -1.0832  0.1468
 9087SOL    HW238895   2.078   3.287   4.464 -0.8284 -0.2883 -0.2424
 9088SOL     OW38896   0.846   4.021   7.315  0.1669  0.0847 -0.0775
 9088SOL    HW138897   0.778   3.986   7.373  2.1639 -1.6059  1.2536
 9088SOL    HW238898   0.923   4.010   7.371 -0.5632 -1.5673  0.6083
 9089SOL     OW38899   1.027   1.718   8.716 -0.2935  0.3220 -0.0679
 9089SOL    HW138900   0.955   1.778   8.733 -0.4885  0.2308 -0.5594
 9089SOL    HW238901   0.976   1.638   8.704  1.4014 -0.4512 -2.0197
 9090SOL     OW38902   2.517   4.414   1.078  0.0734  0.3069 -0.3334
 9090SOL    HW138903   2.611   4.432   1.081 -0.2231  1.9051 -0.8048
 9090SOL    HW238904   2.480   4.457   1.155 -0.0342  0.2126 -0.3332
 9091SOL     OW38905   4.590   4.145   4.320 -0.2808  0.1981 -0.3656
 9091SOL    HW138906   4.534   4.199   4.375  0.9556  0.7596  0.3604
 9091SOL    HW238907   4.536   4.125   4.244 -0.9497 -2.0259  0.6967
 9092SOL     OW38908   1.549   1.601   4.779 -0.6026  0.4276 -0.4363
 9092SOL    HW138909   1.586   1.600   4.868 -0.8658 -2.1617 -0.3530
 9092SOL    HW238910   1.455   1.593   4.793 -0.1827 -0.2864  1.9913
 9093SOL     OW38911   0.016   3.986   5.397 -1.0516 -0.3661 -0.1111
 9093SOL    HW138912   0.092   3.936   5.427 -0.9892  0.4349  1.0736
 9093SOL    HW238913   4.708   3.994   5.481 -0.1678 -0.1461  0.3462
 9094SOL     OW38914   0.037   0.467  10.102 -0.1076  0.3775  0.7052
 9094SOL    HW138915   0.010   0.385  10.060  0.9830  0.5881 -0.3775
 9094SOL    HW238916   0.055   0.428  10.188  3.5687  0.1803 -0.1630
 9095SOL     OW38917   1.565   2.651  16.483 -0.4656  0.0968  0.4717
 9095SOL    HW138918   1.621   2.605  16.545  1.7965  1.4707 -0.5602
 9095SOL    HW238919   1.559   2.580  16.420  1.6893 -0.0823  0.4713
 9096SOL     OW38920   3.604   1.948  15.948  0.2871  0.1630 -0.0313
 9096SOL    HW138921   3.669   1.901  16.000  1.1704  2.0958  0.5819
 9096SOL    HW238922   3.649   1.941  15.863 -1.8654  1.2633 -1.2671
 9097SOL     OW38923   4.078   2.735   6.233 -0.1426 -0.0190 -0.0524
 9097SOL    HW138924   4.103   2.657   6.184 -0.6570  0.3960 -0.9792
 9097SOL    HW238925   3.985   2.716   6.226  0.1592 -1.7117  0.4234
 9098SOL     OW38926   3.707   3.612   2.389 -0.0300  0.6936 -0.2711
 9098SOL    HW138927   3.776   3.602   2.324  0.5952  2.5944  0.1049
 9098SOL    HW238928   3.624   3.586   2.349 -1.6334  2.0874  2.1144
 9099SOL     OW38929   1.187   1.544   4.056 -0.3491  0.2615  0.2949
 9099SOL    HW138930   1.238   1.560   3.976 -1.9639  0.0315 -0.7760
 9099SOL    HW238931   1.117   1.487   4.025 -0.2409  0.0172  0.5073
 9100SOL     OW38932   1.468   2.918  12.920  0.1621  0.0028 -0.1394
 9100SOL    HW138933   1.561   2.941  12.916 -0.5036  2.5088 -1.5404
 9100SOL    HW238934   1.450   2.908  12.826  0.7950 -0.0844 -0.2527
 9101SOL     OW38935   0.560   1.304  11.285  0.4975 -0.3679 -0.3840
 9101SOL    HW138936   0.481   1.358  11.278  1.6170  1.1191 -1.5671
 9101SOL    HW238937   0.551   1.289  11.379  0.2108 -2.1120 -0.7006
 9102SOL     OW38938   4.221   4.044  10.631 -0.0510  0.0187  0.1019
 9102SOL    HW138939   4.298   3.987  10.637 -0.2098 -0.1332  0.6298
 9102SOL    HW238940   4.149   4.006  10.581 -0.5112 -0.4271  1.1110
 9103SOL     OW38941   3.910   1.005   8.803 -0.2733  0.1139 -0.0448
 9103SOL    HW138942   4.003   1.014   8.822 -0.2669 -3.1111  1.3643
 9103SOL    HW238943   3.877   1.084   8.846 -1.1867 -0.3594  0.1337
 9104SOL     OW38944   3.285   3.944   4.252 -0.2350  0.1218 -0.5166
 9104SOL    HW138945   3.315   4.014   4.194 -0.1182  1.3991  1.0643
 9104SOL    HW238946   3.196   3.976   4.271 -0.6692 -0.4963 -1.5074
 9105SOL     OW38947   3.053   2.220   3.894 -0.0901  0.6091  0.1656
 9105SOL    HW138948   3.036   2.129   3.920  1.9894  0.1456 -0.0804
 9105SOL    HW238949   3.136   2.236   3.939  2.6439 -2.1895 -3.9160
 9106SOL     OW38950   4.707   2.824   4.665  0.2529 -0.2814 -0.2900
 9106SOL    HW138951   4.734   2.916   4.664 -3.2130  0.7125 -0.4690
 9106SOL    HW238952   4.712   2.791   4.755 -3.4886  1.2737  0.4839
 9107SOL     OW38953   0.931   1.443  13.051  0.6094 -0.3034 -0.6559
 9107SOL    HW138954   0.874   1.519  13.041 -1.0192 -1.2635  1.3019
 9107SOL    HW238955   0.876   1.372  13.016  0.6465 -0.5857 -0.1509
 9108SOL     OW38956   2.865   4.377  11.620 -0.5927 -0.0662 -0.1101
 9108SOL    HW138957   2.841   4.353  11.709  0.2752 -2.4867 -0.5062
 9108SOL    HW238958   2.960   4.386  11.628 -0.6505  0.9282 -0.5628
 9109SOL     OW38959   2.739   3.824  12.061  0.3661  0.3834  0.3294
 9109SOL    HW138960   2.800   3.815  11.987 -2.9874 -1.8575 -2.1907
 9109SOL    HW238961   2.695   3.907  12.046 -0.7726 -0.5484 -1.4328
 9110SOL     OW38962   0.292   4.518  11.830 -1.0850 -0.4107  0.3440
 9110SOL    HW138963   0.309   4.487  11.741 -4.0435 -0.8768 -0.0857
 9110SOL    HW238964   0.233   4.450  11.864  1.6604 -1.7636  2.4054
 9111SOL     OW38965   0.722   4.686  17.457  0.2382  0.2546 -0.3961
 9111SOL    HW138966   0.648   4.711  17.512 -1.1124 -4.5040 -0.0856
 9111SOL    HW238967   0.761   4.611  17.502  1.4097  1.5157  0.6872
 9112SOL     OW38968   0.407   0.184  10.188 -0.2023  0.6225 -0.3104
 9112SOL    HW138969   0.338   0.208  10.250  0.8158  3.3754 -0.2395
 9112SOL    HW238970   0.411   0.260  10.129 -2.1855  0.6317 -0.4373
 9113SOL     OW38971   1.095   0.412   0.614  0.3396 -0.0329 -0.7735
 9113SOL    HW138972   1.142   0.331   0.634  1.4024  1.1049  1.3423
 9113SOL    HW238973   1.026   0.368   0.564  0.2902 -1.1143  0.2216
 9114SOL     OW38974   2.462   0.154   1.094  0.4254 -0.7255 -0.0707
 9114SOL    HW138975   2.525   0.223   1.072  1.1331 -2.3063 -3.0307
 9114SOL    HW238976   2.417   0.153   1.010  2.3086 -0.3661 -1.0916
 9115SOL     OW38977   0.579   3.169   9.343  0.2186 -0.4133  0.1744
 9115SOL    HW138978   0.666   3.155   9.306  1.3182  1.7361  1.9834
 9115SOL    HW238979   0.600   3.203   9.430 -1.3377 -0.9770  0.7833
 9116SOL     OW38980   2.946   0.672   3.288  0.5291 -0.1483 -0.0456
 9116SOL    HW138981   2.907   0.646   3.204  0.1836 -0.9538  0.3658
 9116SOL    HW238982   2.871   0.671   3.347  0.1606 -1.0273 -0.5233
 9117SOL     OW38983   1.082   1.813  12.851  0.3975  0.3475 -0.1990
 9117SOL    HW138984   1.106   1.877  12.784  2.2010 -0.4970 -0.3738
 9117SOL    HW238985   1.000   1.838  12.892 -0.5295 -1.9256 -0.6776
 9118SOL     OW38986   3.970   4.025   5.681  0.2180 -0.5123 -0.5227
 9118SOL    HW138987   4.048   4.022   5.737  0.5041 -1.0091 -0.9445
 9118SOL    HW238988   3.928   3.942   5.705 -1.1539  0.1189 -0.7372
 9119SOL     OW38989   4.595   4.395   3.393  0.7995 -0.0998  0.1721
 9119SOL    HW138990   4.620   4.409   3.484 -0.2828  0.4010  0.3928
 9119SOL    HW238991   4.516   4.342   3.398 -1.6563  3.5620 -0.1545
 9120SOL     OW38992   0.142   1.673  16.762  0.2240 -0.4722 -0.0550
 9120SOL    HW138993   0.109   1.762  16.766  1.7891  0.1205 -0.3824
 9120SOL    HW238994   0.227   1.682  16.805  0.2329 -1.2398  0.1021
 9121SOL     OW38995   2.885   1.881   8.584  0.1045  0.1281 -0.4047
 9121SOL    HW138996   2.899   1.805   8.528 -2.3582 -1.4935  1.1686
 9121SOL    HW238997   2.970   1.916   8.612 -0.0188 -0.0772  0.2173
 9122SOL     OW38998   2.105   0.526   2.500  0.1493 -0.5130  0.2490
 9122SOL    HW138999   2.042   0.563   2.561  1.3243  1.7478  0.0940
 9122SOL    HW239000   2.082   0.433   2.498  0.0191 -0.4548 -0.8339
 9123SOL     OW39001   1.520   0.847   1.976  0.2970  0.0103 -0.3570
 9123SOL    HW139002   1.546   0.836   1.885 -1.9673 -2.0913 -0.7362
 9123SOL    HW239003   1.496   0.756   1.992 -1.8743  0.4235 -1.3671
 9124SOL     OW39004   4.655   1.617   3.712  0.9925  0.2348 -0.3850
 9124SOL    HW139005   4.677   1.707   3.736 -0.4259  0.6304 -0.5854
 9124SOL    HW239006   4.638   1.642   3.621 -0.4099 -1.2078 -0.5276
 9125SOL     OW39007   3.497   3.525   2.240 -0.9464  0.5335  0.2079
 9125SOL    HW139008   3.508   3.612   2.202  0.5280  1.0432  1.7537
 9125SOL    HW239009   3.447   3.490   2.167 -0.3250  1.4425 -0.6525
 9126SOL     OW39010   4.515   3.249  12.293 -0.0772  0.1418  0.1569
 9126SOL    HW139011   4.561   3.198  12.225 -0.7501 -2.2315  1.4965
 9126SOL    HW239012   4.486   3.177  12.349 -0.7832  0.2387 -0.0850
 9127SOL     OW39013   2.465   0.915   2.099  0.4538 -0.5473  0.1135
 9127SOL    HW139014   2.534   0.927   2.034 -0.4983  0.1062 -0.7715
 9127SOL    HW239015   2.429   1.003   2.088 -0.9811 -1.0412  0.9781
 9128SOL     OW39016   0.377   4.383  16.080  0.1254 -0.0095 -0.1847
 9128SOL    HW139017   0.465   4.361  16.108  1.1075  3.9194 -0.2252
 9128SOL    HW239018   0.363   4.303  16.029  0.6775 -0.1793 -0.0650
 9129SOL     OW39019   4.675   3.146   6.661  0.6472  0.0206 -0.4490
 9129SOL    HW139020   4.668   3.065   6.712  3.0237  0.1131  0.0263
 9129SOL    HW239021   4.617   3.122   6.589 -0.3587  0.3986  0.2438
 9130SOL     OW39022   2.565   4.143   6.407  0.0622  0.4519 -0.7908
 9130SOL    HW139023   2.646   4.105   6.441 -1.2593  0.7032  2.6483
 9130SOL    HW239024   2.561   4.094   6.325 -0.4588 -1.6470  0.4794
 9131SOL     OW39025   2.897   2.232   6.637 -0.5057  0.9994  0.1172
 9131SOL    HW139026   2.820   2.192   6.678 -0.2064  1.5139  1.1830
 9131SOL    HW239027   2.957   2.166   6.671  0.5801  2.5550  1.2577
 9132SOL     OW39028   1.744   2.974   7.777  0.7010  0.7765 -0.3545
 9132SOL    HW139029   1.838   2.962   7.791  0.5496  1.5188  1.2111
 9132SOL    HW239030   1.701   2.966   7.862 -0.0791 -1.4610 -0.9391
 9133SOL     OW39031   4.737   0.235   8.315  0.3609  0.1078 -0.1520
 9133SOL    HW139032   4.661   0.206   8.365 -0.9019  1.4455 -1.2881
 9133SOL    HW239033   0.005   0.168   8.247  4.7437  0.5643 -0.2749
 9134SOL     OW39034   3.178   3.458   7.791  0.5414  0.2120  0.3005
 9134SOL    HW139035   3.253   3.401   7.773 -0.5064 -1.0253 -0.1723
 9134SOL    HW239036   3.111   3.420   7.734  0.3690  0.0708  0.6003
 9135SOL     OW39037   1.048   2.360  15.986 -0.4736 -0.3915 -0.5773
 9135SOL    HW139038   1.051   2.365  16.081 -1.0198  1.2368 -0.6520
 9135SOL    HW239039   1.081   2.271  15.972  2.2436  0.4157  0.5168
 9136SOL     OW39040   4.622   1.192   2.924  0.5377 -0.4671 -0.2570
 9136SOL    HW139041   4.642   1.285   2.908  0.9849 -0.5313 -0.0743
 9136SOL    HW239042   4.608   1.161   2.835 -0.8111 -0.7748  0.0681
 9137SOL     OW39043   4.215   1.093   2.714 -0.1814 -0.7208 -0.1039
 9137SOL    HW139044   4.250   1.113   2.627  0.9834  1.2523  0.7962
 9137SOL    HW239045   4.189   1.002   2.703 -2.1184  0.1098 -2.2583
 9138SOL     OW39046   3.591   1.794   5.596 -0.1368 -0.0691  0.0136
 9138SOL    HW139047   3.677   1.796   5.637  0.0391  0.0806 -0.3591
 9138SOL    HW239048   3.593   1.888   5.578  2.2680  0.0419  0.9026
 9139SOL     OW39049   1.358   4.653   2.940 -0.6181 -0.0534  0.5357
 9139SOL    HW139050   1.372   4.732   2.889  0.6151  0.5660  1.8425
 9139SOL    HW239051   1.405   4.666   3.023 -0.1455 -2.8579  0.7022
 9140SOL     OW39052   2.832   3.254   9.523 -0.1769 -0.2900  0.2000
 9140SOL    HW139053   2.791   3.332   9.560 -2.4060  0.0589 -2.9584
 9140SOL    HW239054   2.771   3.229   9.453 -2.2970  1.1931  1.5194
 9141SOL     OW39055   1.403   3.563   3.372 -0.1798  0.0165 -1.1479
 9141SOL    HW139056   1.445   3.553   3.287  1.3045  2.5401 -0.7004
 9141SOL    HW239057   1.471   3.604   3.426 -1.7289 -1.8731  2.2859
 9142SOL     OW39058   0.979   3.099   6.210 -0.0508  0.0460 -0.1157
 9142SOL    HW139059   1.039   3.078   6.138 -0.4424  1.2702 -0.8038
 9142SOL    HW239060   0.894   3.083   6.169 -0.2247 -1.6549  0.9497
 9143SOL     OW39061   3.282   2.955   2.420  0.7574  0.2559  0.2657
 9143SOL    HW139062   3.349   2.986   2.359  0.8355 -1.2912 -0.4453
 9143SOL    HW239063   3.330   2.883   2.462 -0.4099  0.6478  2.2568
 9144SOL     OW39064   2.779   3.511  12.440  0.5540 -0.0931 -0.4589
 9144SOL    HW139065   2.840   3.443  12.410  0.4584  0.0484 -0.9671
 9144SOL    HW239066   2.729   3.540  12.364 -0.8831 -0.8660  0.1864
 9145SOL     OW39067   3.930   0.693  13.370  0.1928  0.5870 -0.1932
 9145SOL    HW139068   3.981   0.690  13.451  1.6979  1.5351 -1.1054
 9145SOL    HW239069   3.905   0.785  13.375  1.0292  0.9134 -1.9186
 9146SOL     OW39070   3.021   4.328  10.603 -0.0467  0.3447  0.1821
 9146SOL    HW139071   2.957   4.315  10.533 -0.4715 -3.6591  1.2825
 9146SOL    HW239072   2.973   4.399  10.646 -1.0713 -0.3934  0.2494
 9147SOL     OW39073   3.391   0.911  15.418  0.7048 -0.3418  0.0731
 9147SOL    HW139074   3.415   1.002  15.436 -0.3007  0.4568 -2.5683
 9147SOL    HW239075   3.355   0.901  15.506 -0.3864  2.6484 -0.0383
 9148SOL     OW39076   3.586   2.868   2.709  0.0337  0.1207 -0.4003
 9148SOL    HW139077   3.647   2.794   2.708 -0.5233 -0.3510 -0.0850
 9148SOL    HW239078   3.512   2.815   2.738 -0.0043  1.4460  1.9448
 9149SOL     OW39079   0.274   2.847   1.808 -0.4772  0.5402  0.0270
 9149SOL    HW139080   0.250   2.938   1.789  3.7035  1.4056 -1.1214
 9149SOL    HW239081   0.358   2.867   1.849  0.1878 -2.6236  0.2367
 9150SOL     OW39082   2.342   2.195   7.228 -0.3122 -0.0378  0.8788
 9150SOL    HW139083   2.315   2.285   7.213 -1.4612 -0.8768 -2.2923
 9150SOL    HW239084   2.281   2.160   7.293 -0.2191 -0.8524  0.5374
 9151SOL     OW39085   3.802   4.463   2.478 -0.2381 -0.8056 -0.2114
 9151SOL    HW139086   3.723   4.515   2.461 -0.8554 -0.8497  2.5384
 9151SOL    HW239087   3.847   4.515   2.545 -0.9267  0.3649 -0.6659
 9152SOL     OW39088   1.646   3.177   9.156  0.0257  0.0357  0.3253
 9152SOL    HW139089   1.702   3.245   9.194  0.7429 -1.2447  1.5756
 9152SOL    HW239090   1.655   3.198   9.063  0.3014  1.8046  0.7478
 9153SOL     OW39091   1.712   3.854  14.093 -0.3978 -0.3004 -0.1294
 9153SOL    HW139092   1.693   3.948  14.104 -0.5238 -0.4781  1.2088
 9153SOL    HW239093   1.800   3.855  14.056 -0.2544  2.9842  0.2944
 9154SOL     OW39094   1.574   0.797   4.062  0.2422  0.6175 -0.0324
 9154SOL    HW139095   1.564   0.781   4.155  0.3976  0.7477  0.0073
 9154SOL    HW239096   1.513   0.869   4.050  0.4862  0.7140 -0.7023
 9155SOL     OW39097   0.655   1.668  15.559  0.0704 -0.3561  0.3191
 9155SOL    HW139098   0.677   1.708  15.643 -0.3558  0.3568  0.0845
 9155SOL    HW239099   0.716   1.713  15.500 -0.0014 -0.5401  0.1047
 9156SOL     OW39100   0.073   0.279   5.361  0.9257 -0.4011  0.2776
 9156SOL    HW139101   0.162   0.264   5.393  1.0602  1.1296  0.6038
 9156SOL    HW239102   0.031   0.195   5.380  1.9524 -1.4354 -1.9350
 9157SOL     OW39103   0.215   1.738  17.723 -0.1639 -0.2182  0.4001
 9157SOL    HW139104   0.238   1.805   0.039 -0.4243 -0.1632  0.4357
 9157SOL    HW239105   0.153   1.685   0.024 -0.6862 -1.0109 -1.1082
 9158SOL     OW39106   0.118   4.385   8.398  0.5396 -0.3134 -0.7053
 9158SOL    HW139107   0.076   4.299   8.399 -0.8332  0.3628 -0.0765
 9158SOL    HW239108   0.193   4.353   8.349  0.5528 -2.5331  0.7851
 9159SOL     OW39109   4.397   1.991   4.480  0.3097 -0.2053  0.2036
 9159SOL    HW139110   4.481   1.965   4.443  0.3590  0.6259 -0.2861
 9159SOL    HW239111   4.420   2.079   4.510 -1.1240  0.9904 -2.0939
 9160SOL     OW39112   4.113   1.820   4.698  0.5795  0.2034 -0.0320
 9160SOL    HW139113   4.057   1.750   4.665 -0.8760  1.0977  0.5476
 9160SOL    HW239114   4.117   1.876   4.621 -0.1238  1.3190  0.7522
 9161SOL     OW39115   4.203   0.847   2.603 -0.6566  0.0212  0.4743
 9161SOL    HW139116   4.249   0.772   2.640 -1.1949  0.1819  1.4621
 9161SOL    HW239117   4.228   0.837   2.511  1.3838 -0.2506  1.0590
 9162SOL     OW39118   1.135   4.275   7.136  0.4281  0.2054  0.2817
 9162SOL    HW139119   1.158   4.204   7.196  0.5068  0.3771  0.4535
 9162SOL    HW239120   1.054   4.243   7.098  2.4398 -1.3062 -2.7318
 9163SOL     OW39121   0.739   1.984   3.970  0.3059 -0.1576 -0.5715
 9163SOL    HW139122   0.782   1.899   3.962  1.0177  0.1245  0.3569
 9163SOL    HW239123   0.648   1.954   3.975  0.2011  0.1395 -0.6698
 9164SOL     OW39124   3.003   0.899   5.745 -0.1474  0.6964 -0.1042
 9164SOL    HW139125   3.056   0.953   5.804  0.5100  0.3308 -0.3664
 9164SOL    HW239126   2.911   0.910   5.768  0.4579  0.7155  2.2965
 9165SOL     OW39127   0.863   2.077   4.576  0.6182 -0.0733 -0.2651
 9165SOL    HW139128   0.799   2.126   4.524  1.4596  1.0130 -0.2760
 9165SOL    HW239129   0.893   2.139   4.643  1.2657  0.3428 -0.9442
 9166SOL     OW39130   3.769   3.965   7.925 -0.0981 -0.0041  0.0347
 9166SOL    HW139131   3.744   3.873   7.936 -1.1383  0.4229  1.0810
 9166SOL    HW239132   3.794   3.951   7.833  2.1568 -2.2142  0.9795
 9167SOL     OW39133   4.617   4.556   3.663  0.3943 -0.0845 -0.2847
 9167SOL    HW139134   4.531   4.599   3.656  0.4784  0.2779  0.9085
 9167SOL    HW239135   4.673   4.612   3.716  1.3839  0.1072 -1.5380
 9168SOL     OW39136   1.933   0.932   1.854  0.1011  0.1420  0.5884
 9168SOL    HW139137   2.005   0.976   1.900 -1.5202  2.4087  0.9483
 9168SOL    HW239138   1.903   0.983   1.779 -1.2468 -1.3330  0.1252
 9169SOL     OW39139   1.741   3.256   8.115  0.0012 -0.3876  0.2253
 9169SOL    HW139140   1.709   3.335   8.160  0.7778 -0.9321  1.7003
 9169SOL    HW239141   1.774   3.201   8.186  0.0092  0.1548  0.6466
 9170SOL     OW39142   4.368   4.007  16.108  0.1167 -0.2651  0.3496
 9170SOL    HW139143   4.405   3.977  16.026 -1.9787 -0.9156 -0.3605
 9170SOL    HW239144   4.294   4.042  16.059  0.6223 -1.0360 -0.9578
 9171SOL     OW39145   2.813   2.373   5.957 -0.3649 -0.0912  0.3252
 9171SOL    HW139146   2.905   2.388   5.978 -1.5567  3.8635  2.6410
 9171SOL    HW239147   2.820   2.410   5.868 -0.7883  1.3340  0.8811
 9172SOL     OW39148   1.571   2.131   4.728  0.4493  0.0603  0.2797
 9172SOL    HW139149   1.605   2.120   4.639  0.9615 -0.1825  0.5035
 9172SOL    HW239150   1.536   2.043   4.742  2.0694 -0.5456  0.5585
 9173SOL     OW39151   4.688   2.165   1.783  0.3866 -0.4434  0.8482
 9173SOL    HW139152   4.639   2.211   1.851 -1.4624  0.7802 -1.3019
 9173SOL    HW239153   4.640   2.183   1.702  1.5367  0.1494  0.3101
 9174SOL     OW39154   2.173   1.703   8.619 -0.0406 -0.1646  0.9106
 9174SOL    HW139155   2.224   1.631   8.580  1.7901  1.5177  0.2172
 9174SOL    HW239156   2.223   1.711   8.700  1.2276 -1.5192  0.2759
 9175SOL     OW39157   3.093   4.142   0.643 -0.0519 -0.1263  0.2726
 9175SOL    HW139158   3.124   4.214   0.698 -0.2420  1.0346 -1.1346
 9175SOL    HW239159   3.164   4.153   0.580 -1.1052  1.1119 -0.6768
 9176SOL     OW39160   2.097   4.066   0.623  0.0582  0.0888 -0.0533
 9176SOL    HW139161   2.162   4.067   0.693  0.8282  1.4107 -0.7835
 9176SOL    HW239162   2.064   3.977   0.628  1.3038 -0.4676 -1.5359
 9177SOL     OW39163   4.699   2.014   5.433  0.1368 -0.3883  0.1474
 9177SOL    HW139164   4.609   1.985   5.417  0.4425 -0.8953 -0.6644
 9177SOL    HW239165   0.015   1.950   5.386 -0.7096 -0.8267 -0.2205
 9178SOL     OW39166   2.388   2.260  10.211 -0.3673 -0.7859 -0.0192
 9178SOL    HW139167   2.468   2.239  10.260 -1.1873 -1.1896  1.1618
 9178SOL    HW239168   2.401   2.355  10.214  0.0496 -0.8736  1.0820
 9179SOL     OW39169   2.477   3.587   5.336  0.4877  0.4528 -0.0355
 9179SOL    HW139170   2.537   3.512   5.329  0.7178  0.4661  1.6181
 9179SOL    HW239171   2.445   3.576   5.426 -2.9142 -3.0520 -1.6945
 9180SOL     OW39172   0.162   0.415   7.434  0.4602 -0.3102  0.2418
 9180SOL    HW139173   0.159   0.399   7.528  1.5855  0.2968  0.3789
 9180SOL    HW239174   0.186   0.507   7.435  3.7228 -1.1668  2.6860
 9181SOL     OW39175   3.769   4.398  16.105  0.4402  0.4939  0.4825
 9181SOL    HW139176   3.779   4.357  16.019 -1.8676  0.1751  0.3652
 9181SOL    HW239177   3.857   4.396  16.143  0.6260 -3.4582 -0.1354
 9182SOL     OW39178   4.628   4.658   5.768 -0.0895  0.1340  0.1405
 9182SOL    HW139179   4.720   4.653   5.741  0.6595 -0.8084  2.8473
 9182SOL    HW239180   4.639   4.634   5.860 -0.4990  0.1646  0.1967
 9183SOL     OW39181   2.921   0.449  12.906 -0.6146 -0.2850  0.8538
 9183SOL    HW139182   2.870   0.453  12.988  1.3638 -0.1204  2.0654
 9183SOL    HW239183   2.855   0.445  12.837  1.1836 -0.3888 -0.8473
 9184SOL     OW39184   2.968   1.353   2.146  0.1147 -0.1965 -0.2497
 9184SOL    HW139185   2.949   1.367   2.054  1.4247 -0.9173 -0.6263
 9184SOL    HW239186   3.063   1.344   2.146  0.0408 -1.1009  0.8457
 9185SOL     OW39187   4.643   3.780   4.161  0.0437 -0.3623 -0.1344
 9185SOL    HW139188   4.586   3.716   4.118  2.2782 -2.6411  0.3136
 9185SOL    HW239189   4.595   3.787   4.244  2.0599  1.0418  0.9079
 9186SOL     OW39190   3.466   3.436   2.494  0.0348 -0.3279 -0.3182
 9186SOL    HW139191   3.411   3.509   2.522 -0.3262 -0.0308 -1.7827
 9186SOL    HW239192   3.474   3.443   2.398 -1.8386 -1.3162 -0.5561
 9187SOL     OW39193   3.665   2.533  12.402  0.8249  0.2057 -0.9235
 9187SOL    HW139194   3.744   2.511  12.352  0.6255 -1.3699 -0.5382
 9187SOL    HW239195   3.697   2.537  12.492 -2.5629  2.9113  0.1527
 9188SOL     OW39196   3.963   0.266   9.258  0.2940  0.4581 -0.4939
 9188SOL    HW139197   4.043   0.256   9.309 -0.0966  0.3431  0.1004
 9188SOL    HW239198   3.941   0.175   9.238 -1.5143  0.5879  0.8967
 9189SOL     OW39199   1.389   2.771  13.698 -0.1525  0.1989  0.1666
 9189SOL    HW139200   1.325   2.759  13.768 -1.6037 -3.1801 -1.7278
 9189SOL    HW239201   1.371   2.694  13.643 -0.1755  0.4722 -0.2078
 9190SOL     OW39202   1.802   1.873   4.306  0.0007  0.1719 -0.8294
 9190SOL    HW139203   1.714   1.880   4.343  0.4774 -0.7082  0.4704
 9190SOL    HW239204   1.834   1.787   4.333 -0.3521  0.2994 -0.0119
 9191SOL     OW39205   3.625   4.280  14.132 -0.0289 -0.4479 -0.1457
 9191SOL    HW139206   3.721   4.276  14.133  0.0086  0.1935 -1.3754
 9191SOL    HW239207   3.603   4.356  14.079  0.2521 -0.4079 -0.2037
 9192SOL     OW39208   2.722   1.214   3.815  0.8483 -0.3665  0.3720
 9192SOL    HW139209   2.706   1.183   3.905  1.4814 -2.9942 -0.4261
 9192SOL    HW239210   2.636   1.250   3.792  1.2307  0.4106  0.1595
 9193SOL     OW39211   1.178   3.701   7.610 -0.3280  0.6707  0.6776
 9193SOL    HW139212   1.244   3.633   7.594 -1.2122 -0.4275  1.7541
 9193SOL    HW239213   1.226   3.772   7.654 -0.0800 -0.8903  2.9419
 9194SOL     OW39214   3.648   0.995   9.320 -0.2791 -0.2880 -0.6832
 9194SOL    HW139215   3.687   0.978   9.405 -0.1010 -0.9163 -0.8916
 9194SOL    HW239216   3.613   0.910   9.293  1.4978 -1.5164  0.9313
 9195SOL     OW39217   2.580   0.949   4.431 -0.1026  0.2210  0.0617
 9195SOL    HW139218   2.603   1.041   4.443 -0.8139  0.4860 -0.5864
 9195SOL    HW239219   2.548   0.922   4.517  0.6252  2.5547  1.0704
 9196SOL     OW39220   1.754   4.530   4.856 -0.2089 -0.0361  0.0687
 9196SOL    HW139221   1.841   4.561   4.882 -0.0868 -0.6709  0.4230
 9196SOL    HW239222   1.746   4.459   4.920 -0.2482 -1.3298 -1.3543
 9197SOL     OW39223   2.260   0.383   5.995 -0.5241  0.3891  0.0997
 9197SOL    HW139224   2.196   0.358   5.928 -2.4965  2.2368  1.3046
 9197SOL    HW239225   2.338   0.344   5.954 -0.6222 -0.5029  0.7616
 9198SOL     OW39226   1.127   2.649  13.547  0.3121 -0.2650 -0.3863
 9198SOL    HW139227   1.196   2.585  13.530  1.1506  0.5927 -0.2082
 9198SOL    HW239228   1.063   2.617  13.610  0.6721  0.2882  0.2542
 9199SOL     OW39229   0.168   4.732  10.474  0.1644 -0.4573 -0.1703
 9199SOL    HW139230   0.119   0.008  10.556 -3.2781  0.5944 -2.4007
 9199SOL    HW239231   0.178   4.637  10.472 -0.5423 -0.6050  2.4082
 9200SOL     OW39232   3.813   2.766   4.046 -0.5914 -0.4345 -0.1375
 9200SOL    HW139233   3.836   2.856   4.068  0.6057 -0.7525 -0.0962
 9200SOL    HW239234   3.733   2.763   4.098 -0.3075 -0.8315  0.2779
 9201SOL     OW39235   3.028   3.331  16.570  0.7176  0.1782 -0.3132
 9201SOL    HW139236   2.977   3.262  16.613  1.1829  0.7596  1.2022
 9201SOL    HW239237   3.064   3.357  16.655  0.6670  0.8572 -0.4961
 9202SOL     OW39238   0.399   2.974  16.369  0.3257 -0.0767  0.1295
 9202SOL    HW139239   0.481   2.927  16.385  0.1609 -0.9385 -1.5620
 9202SOL    HW239240   0.345   2.945  16.443 -1.1331 -1.0614 -1.3428
 9203SOL     OW39241   0.155   0.737   6.173 -0.9255  0.1605 -0.0757
 9203SOL    HW139242   0.136   0.657   6.123 -3.6105  0.6717  0.0960
 9203SOL    HW239243   0.104   0.801   6.123  1.1905 -0.6229 -3.2432
 9204SOL     OW39244   3.455   0.466   8.224  0.2530 -0.3951 -0.4587
 9204SOL    HW139245   3.462   0.435   8.134  0.6240  0.2942 -0.6651
 9204SOL    HW239246   3.538   0.447   8.267  0.8247 -0.4788 -1.6278
 9205SOL     OW39247   0.289   3.571   0.842 -0.2750 -0.0564  0.3355
 9205SOL    HW139248   0.325   3.533   0.922 -1.2354 -0.4542  0.5855
 9205SOL    HW239249   0.363   3.568   0.782 -1.0656  0.9589 -0.6954
 9206SOL     OW39250   3.437   1.941   3.864 -0.2932  0.8419 -0.3028
 9206SOL    HW139251   3.467   1.969   3.951 -0.0359 -1.6140  0.4092
 9206SOL    HW239252   3.427   1.847   3.881 -2.5413  1.2234  0.4942
 9207SOL     OW39253   4.544   2.271   1.178  0.4585 -0.0283  1.1116
 9207SOL    HW139254   4.482   2.199   1.164 -1.0500  1.0582  2.2030
 9207SOL    HW239255   4.595   2.271   1.097 -0.5588 -0.2254  0.4702
 9208SOL     OW39256   3.627   1.104   8.406  0.3985 -0.5874  0.2810
 9208SOL    HW139257   3.539   1.066   8.408  0.1083  0.0796  0.1899
 9208SOL    HW239258   3.683   1.039   8.448 -0.7974 -1.2316  0.8809
 9209SOL     OW39259   3.179   3.652  16.066 -0.3778  0.1676  0.0318
 9209SOL    HW139260   3.271   3.671  16.085  0.5247 -1.3404 -2.9204
 9209SOL    HW239261   3.196   3.558  16.066 -1.7400 -0.0706  0.2505
 9210SOL     OW39262   0.252   2.222   1.246 -0.3260 -0.3340 -0.2014
 9210SOL    HW139263   0.166   2.179   1.246 -0.3043 -0.4161  1.8942
 9210SOL    HW239264   0.280   2.222   1.338 -1.8327 -1.2178  0.2513
 9211SOL     OW39265   0.939   3.284  11.537 -0.1955 -0.0812  0.1769
 9211SOL    HW139266   1.017   3.246  11.495  0.3824  0.2251  0.9785
 9211SOL    HW239267   0.922   3.354  11.475 -1.1760  1.4807  2.2376
 9212SOL     OW39268   4.146   1.780  14.496  0.3160  0.0529  0.8501
 9212SOL    HW139269   4.152   1.870  14.526  2.9801  0.7760 -1.8233
 9212SOL    HW239270   4.096   1.736  14.565  1.6193 -1.5683  0.7695
 9213SOL     OW39271   3.766   0.128   4.154  0.1227 -0.4736 -0.5749
 9213SOL    HW139272   3.841   0.160   4.204 -0.0178 -1.2794  0.1539
 9213SOL    HW239273   3.698   0.195   4.162  1.4794  1.2148 -3.2309
 9214SOL     OW39274   0.593   1.591   7.023  0.2469  0.7986  0.4065
 9214SOL    HW139275   0.682   1.595   6.988  0.0470  0.7199 -0.1140
 9214SOL    HW239276   0.562   1.681   7.028  2.7324  1.4575  4.2596
 9215SOL     OW39277   1.427   4.057   8.383  0.2279 -0.0799 -0.3633
 9215SOL    HW139278   1.474   4.074   8.465 -0.6774  1.3945 -0.1348
 9215SOL    HW239279   1.337   4.075   8.410  0.2687 -2.7732  1.6130
 9216SOL     OW39280   3.055   0.768   4.396 -0.3602  0.4403  0.7225
 9216SOL    HW139281   3.088   0.825   4.326 -0.3098  1.5446  1.6545
 9216SOL    HW239282   2.974   0.808   4.426 -0.1050  1.3489  0.2082
 9217SOL     OW39283   0.629   3.981   1.240 -0.1508  0.6116  0.2918
 9217SOL    HW139284   0.616   4.063   1.192 -0.5160  0.9196  0.9087
 9217SOL    HW239285   0.574   3.920   1.191 -2.1846  4.4965 -2.2935
 9218SOL     OW39286   3.400   2.120   4.414  0.3588  0.3488  0.3639
 9218SOL    HW139287   3.312   2.150   4.390 -0.0438 -0.3273  1.0033
 9218SOL    HW239288   3.394   2.127   4.509 -0.3944  0.9013  0.2745
 9219SOL     OW39289   3.541   2.209   3.391 -0.3764  0.4178  0.1542
 9219SOL    HW139290   3.555   2.301   3.367 -0.2727  0.2744 -0.3223
 9219SOL    HW239291   3.604   2.169   3.332 -1.4436 -1.5933  0.3884
 9220SOL     OW39292   1.174   1.515  11.617  0.5292 -0.6148  0.0616
 9220SOL    HW139293   1.254   1.477  11.655  0.3196 -0.1786  0.9532
 9220SOL    HW239294   1.198   1.517  11.525 -0.2574  0.7580 -0.1140
 9221SOL     OW39295   0.619   2.679   4.995  0.1546 -0.4531  0.4130
 9221SOL    HW139296   0.661   2.702   5.078 -3.0815  3.4237  1.0250
 9221SOL    HW239297   0.627   2.767   4.959 -0.2599 -0.3520  0.5691
 9222SOL     OW39298   1.407   4.317   3.182 -0.7134  0.1351  0.4139
 9222SOL    HW139299   1.427   4.385   3.247  1.3851 -0.5958  0.5322
 9222SOL    HW239300   1.324   4.347   3.146  0.5971  0.8910 -1.9355
 9223SOL     OW39301   0.673   3.244   8.672 -0.2378  0.4776 -0.6810
 9223SOL    HW139302   0.729   3.179   8.714  0.1008  1.2555  0.0707
 9223SOL    HW239303   0.731   3.285   8.608 -0.3702  0.6536 -0.6902
 9224SOL     OW39304   0.137   3.094   6.909 -0.4577  0.1029  0.4402
 9224SOL    HW139305   0.142   2.999   6.906 -1.3427  0.1259 -1.4307
 9224SOL    HW239306   0.052   3.107   6.867  1.3120 -0.6940 -3.3662
 9225SOL     OW39307   1.664   3.787   1.372  0.0926 -0.5220 -0.1786
 9225SOL    HW139308   1.730   3.781   1.303  0.7018 -1.7850  0.4968
 9225SOL    HW239309   1.628   3.699   1.366 -1.5636  0.1463 -0.0592
 9226SOL     OW39310   4.072   0.515   4.662 -0.1250 -0.4943 -0.2690
 9226SOL    HW139311   4.060   0.537   4.570 -2.5849  0.1565  0.1967
 9226SOL    HW239312   4.144   0.576   4.679 -1.3209  0.8721 -0.1467
 9227SOL     OW39313   0.785   3.505  10.775  0.0525  0.3758 -0.0169
 9227SOL    HW139314   0.691   3.505  10.791  0.0427 -0.1523 -0.0800
 9227SOL    HW239315   0.793   3.590  10.731  1.9546 -0.6812 -1.7193
 9228SOL     OW39316   2.422   1.407  14.856 -0.8970 -0.3790  0.2390
 9228SOL    HW139317   2.454   1.492  14.886  0.7979 -1.9587  2.9390
 9228SOL    HW239318   2.396   1.364  14.938  0.0960 -2.5785 -0.5841
 9229SOL     OW39319   1.367   0.324   6.496  0.3465 -0.7231 -0.3640
 9229SOL    HW139320   1.405   0.238   6.516 -2.1896 -1.0690  2.9666
 9229SOL    HW239321   1.433   0.384   6.531  0.0652 -1.0143  0.6604
 9230SOL     OW39322   2.235   0.462   1.896  0.2207 -0.1489  0.8017
 9230SOL    HW139323   2.221   0.451   1.802  0.9906  1.0221  0.5496
 9230SOL    HW239324   2.231   0.556   1.917 -1.1019  0.0474 -0.2967
 9231SOL     OW39325   2.927   4.103   5.529  0.3077  0.6780 -0.2370
 9231SOL    HW139326   2.974   4.182   5.555 -1.7458  1.2528  1.7375
 9231SOL    HW239327   2.867   4.070   5.596 -1.8355  1.5710 -1.7052
 9232SOL     OW39328   2.623   0.743   3.229 -0.6515  0.2433  0.3080
 9232SOL    HW139329   2.595   0.813   3.170 -0.3481 -1.3678 -1.7373
 9232SOL    HW239330   2.611   0.662   3.181  1.2546  1.2820 -1.9215
 9233SOL     OW39331   1.635   2.143   2.539 -0.4513 -0.1962  0.1119
 9233SOL    HW139332   1.552   2.183   2.515  0.7855  1.9863 -0.4119
 9233SOL    HW239333   1.643   2.185   2.625  1.5930  2.0375 -1.2056
 9234SOL     OW39334   0.583   0.001  17.226 -0.1005 -0.1760  0.4031
 9234SOL    HW139335   0.612   4.673  17.289  1.6629  1.8536  1.6899
 9234SOL    HW239336   0.579   0.078  17.283 -0.1957 -0.6934  1.0872
 9235SOL     OW39337   4.397   0.920   2.854  0.3642  0.1882 -0.4712
 9235SOL    HW139338   4.377   0.858   2.783 -0.8117  2.3442 -2.0268
 9235SOL    HW239339   4.393   1.005   2.811 -0.8748  0.5114  0.2905
 9236SOL     OW39340   2.721   0.923   5.722  0.3428 -0.2080  0.4528
 9236SOL    HW139341   2.632   0.944   5.750  1.6682  2.1078  2.9083
 9236SOL    HW239342   2.746   1.013   5.699 -1.0398  0.6302  2.2483
 9237SOL     OW39343   3.281   2.501   3.175 -0.3221  0.3789  0.1999
 9237SOL    HW139344   3.294   2.410   3.203 -1.3760 -0.3905 -1.8082
 9237SOL    HW239345   3.231   2.541   3.246 -0.3333  1.6671 -0.5484
 9238SOL     OW39346   3.127   3.709   6.219 -0.1643 -0.0034 -0.3448
 9238SOL    HW139347   3.081   3.789   6.194 -1.0177 -0.6215 -0.7531
 9238SOL    HW239348   3.109   3.708   6.313  0.4714  0.9274 -0.2154
 9239SOL     OW39349   1.117   3.661   9.135 -0.3220 -0.1547  0.3150
 9239SOL    HW139350   1.098   3.650   9.229  2.0592 -0.9781  0.6901
 9239SOL    HW239351   1.053   3.597   9.105  1.3781 -0.5963 -2.3282
 9240SOL     OW39352   4.726   2.405   6.553 -0.6430 -0.0232 -0.5177
 9240SOL    HW139353   4.643   2.435   6.516 -0.0755 -0.0611 -1.8261
 9240SOL    HW239354   0.038   2.484   6.573  0.7818 -1.3627  1.1833
 9241SOL     OW39355   2.478   0.720   2.300  0.2081 -0.5438  0.8822
 9241SOL    HW139356   2.445   0.753   2.216 -0.8326 -2.0392  0.6889
 9241SOL    HW239357   2.423   0.771   2.359 -0.1922 -0.4897  0.4613
 9242SOL     OW39358   3.955   4.086   6.587  0.5407 -0.5404 -0.0949
 9242SOL    HW139359   3.995   4.117   6.668 -0.9037 -0.9854  0.7699
 9242SOL    HW239360   4.035   4.053   6.545  0.8896  2.2363 -1.6192
 9243SOL     OW39361   3.402   0.869   7.732  0.5930  0.0941 -0.0811
 9243SOL    HW139362   3.467   0.799   7.729  1.4470  0.9042 -0.4741
 9243SOL    HW239363   3.385   0.887   7.640 -1.4287 -0.6346  0.1380
 9244SOL     OW39364   3.420   2.873   0.349 -0.2997  0.0033 -0.6253
 9244SOL    HW139365   3.387   2.784   0.338 -0.8825  0.2342 -0.7150
 9244SOL    HW239366   3.376   2.896   0.431 -0.9263 -0.5758 -0.7986
 9245SOL     OW39367   4.367   3.272   8.195  0.3612  0.1086  0.5267
 9245SOL    HW139368   4.364   3.279   8.100 -2.3436 -0.6207  0.5649
 9245SOL    HW239369   4.325   3.190   8.218  0.8238  0.1841  1.6419
 9246SOL     OW39370   2.954   3.724   4.770 -0.1802 -0.2005 -0.2063
 9246SOL    HW139371   2.948   3.753   4.861 -1.1969 -0.3602 -0.2196
 9246SOL    HW239372   3.046   3.727   4.744 -0.0260 -0.5668  0.2952
 9247SOL     OW39373   0.901   0.127  11.521 -0.1526 -0.2313 -0.1325
 9247SOL    HW139374   0.874   0.112  11.430 -2.3472  1.3871  0.2479
 9247SOL    HW239375   0.981   0.075  11.521  0.0391  0.0664  0.4966
 9248SOL     OW39376   1.595   0.866   7.613  0.1122 -0.0526  0.2970
 9248SOL    HW139377   1.638   0.853   7.697  0.2830  1.5992  0.4798
 9248SOL    HW239378   1.664   0.827   7.560 -0.4818 -1.8826  0.8737
 9249SOL     OW39379   2.026   2.767   7.950 -0.4917 -0.6166  0.2536
 9249SOL    HW139380   1.958   2.717   7.995 -0.3402 -1.4563 -0.4380
 9249SOL    HW239381   2.085   2.697   7.924  0.5732  1.1853 -2.2046
 9250SOL     OW39382   3.499   3.362   3.109  0.5743 -0.6554  0.0480
 9250SOL    HW139383   3.451   3.336   3.030  1.3294 -1.3598 -0.1746
 9250SOL    HW239384   3.585   3.397   3.086 -0.1513  1.3905  0.3706
 9251SOL     OW39385   3.376   0.984   8.336  0.4626  0.2729  0.4702
 9251SOL    HW139386   3.390   0.909   8.278  0.8686 -0.7598  1.8984
 9251SOL    HW239387   3.304   0.955   8.392 -1.0769  0.2502 -1.5222
 9252SOL     OW39388   1.640   1.370   4.659 -0.0729  0.2310  0.4054
 9252SOL    HW139389   1.552   1.352   4.625 -0.2974  0.9076  0.6255
 9252SOL    HW239390   1.619   1.452   4.704  1.7820  0.6356  0.5174
 9253SOL     OW39391   1.141   0.343  15.867  0.3104 -0.3529  0.0882
 9253SOL    HW139392   1.167   0.429  15.834  1.9857 -1.5080 -1.6163
 9253SOL    HW239393   1.194   0.281  15.818  1.2331  2.0638 -1.9779
 9254SOL     OW39394   2.318   0.025   3.394  0.1404  0.8054  0.1782
 9254SOL    HW139395   2.325   0.105   3.342 -0.3543  1.2291  0.7532
 9254SOL    HW239396   2.404   4.722   3.396  0.4686  1.5052  0.3764
 9255SOL     OW39397   3.582   0.355   5.259 -0.3592 -0.0166 -0.2138
 9255SOL    HW139398   3.503   0.343   5.206 -0.0918  0.6232 -0.7509
 9255SOL    HW239399   3.607   0.264   5.270  1.4124  0.5801  0.7551
 9256SOL     OW39400   3.469   0.800  15.180 -0.3877  0.5498  0.0658
 9256SOL    HW139401   3.425   0.844  15.253 -0.1048  0.3889  0.3349
 9256SOL    HW239402   3.480   0.867  15.113  2.3969  0.6295  0.5861
 9257SOL     OW39403   3.867   0.833  15.050  0.0585  0.4969 -0.3091
 9257SOL    HW139404   3.904   0.782  14.978  0.0267  0.5716 -0.3791
 9257SOL    HW239405   3.866   0.776  15.127 -0.8265  1.4431  0.3957
 9258SOL     OW39406   4.693   1.655  17.567 -0.0015  0.2865 -0.4417
 9258SOL    HW139407   0.005   1.595  17.512 -0.6952 -0.9882  0.3264
 9258SOL    HW239408   4.649   1.716  17.507  1.0191  0.4244 -1.0422
 9259SOL     OW39409   1.107   1.346   4.348 -0.5002 -0.0075 -0.4438
 9259SOL    HW139410   1.015   1.361   4.330 -0.1776 -0.5536 -2.6349
 9259SOL    HW239411   1.085   1.295   4.426  1.9754  1.6198  1.3331
 9260SOL     OW39412   3.060   1.690   2.668 -0.1562  0.1825  1.0571
 9260SOL    HW139413   2.966   1.699   2.653 -0.2366 -1.4627  0.6056
 9260SOL    HW239414   3.050   1.669   2.761  0.2185 -1.0981  0.7979
 9261SOL     OW39415   2.742   2.926   2.088 -0.3431 -0.3129  0.5121
 9261SOL    HW139416   2.725   2.907   2.180  1.2756  1.4741  1.1631
 9261SOL    HW239417   2.719   2.841   2.049 -0.9997  0.4557 -0.7518
 9262SOL     OW39418   2.304   3.040  12.079  0.3985  0.0956 -0.5245
 9262SOL    HW139419   2.381   3.092  12.054  0.6212 -0.3376 -0.7528
 9262SOL    HW239420   2.336   2.992  12.155 -0.1362 -1.2076 -1.1091
 9263SOL     OW39421   3.718   1.917   3.429 -0.4815 -0.3614 -0.3754
 9263SOL    HW139422   3.734   1.830   3.468 -1.2138  0.3934  1.6291
 9263SOL    HW239423   3.803   1.958   3.441  0.2682 -2.4015  1.4779
 9264SOL     OW39424   1.206   4.173   9.836 -0.2022  0.1302  0.0510
 9264SOL    HW139425   1.177   4.101   9.893 -1.3793  1.6235  1.3551
 9264SOL    HW239426   1.127   4.227   9.840  0.3153  0.9317 -0.5555
 9265SOL     OW39427   3.747   1.323   2.910 -0.3486  0.1119  0.6295
 9265SOL    HW139428   3.807   1.382   2.865  0.7924 -2.7131 -1.5139
 9265SOL    HW239429   3.711   1.266   2.843  1.2765  0.2727 -0.3892
 9266SOL     OW39430   1.106   0.799   5.525 -0.2342  0.1345  0.0615
 9266SOL    HW139431   1.068   0.779   5.610  0.5309  0.6004  0.5108
 9266SOL    HW239432   1.030   0.776   5.470 -0.3419  0.4855  0.0592
 9267SOL     OW39433   1.992   0.310  13.511 -0.1405  0.3015 -0.9164
 9267SOL    HW139434   1.911   0.292  13.464 -1.0847  2.7917 -0.2743
 9267SOL    HW239435   1.981   0.393  13.558  0.4259  1.2156 -2.3907
 9268SOL     OW39436   0.342   4.227   4.758 -0.1495 -0.2200 -0.3041
 9268SOL    HW139437   0.300   4.286   4.821  0.1481 -0.4489  0.1160
 9268SOL    HW239438   0.331   4.148   4.811 -0.5045 -0.4447 -0.7176
 9269SOL     OW39439   3.881   0.201   4.835 -0.0232  0.2111 -0.2588
 9269SOL    HW139440   3.964   0.248   4.842 -0.1066  0.2221  0.5773
 9269SOL    HW239441   3.878   0.174   4.743 -2.1619  2.1849 -0.7683
 9270SOL     OW39442   3.161   1.697  11.085 -0.3134 -0.1651 -0.4010
 9270SOL    HW139443   3.214   1.745  11.021 -0.1675  0.9715  0.5769
 9270SOL    HW239444   3.202   1.611  11.070 -1.3273 -1.0528  1.9517
 9271SOL     OW39445   0.985   1.969   8.205  0.2906 -0.3536 -0.8506
 9271SOL    HW139446   1.032   1.983   8.287 -1.1391  4.4123 -0.8401
 9271SOL    HW239447   1.056   1.982   8.142  0.4946  0.0817 -0.5299
 9272SOL     OW39448   2.289   3.115   6.549 -0.2369  0.1408 -0.7079
 9272SOL    HW139449   2.373   3.068   6.546 -0.8323 -1.1801  2.7638
 9272SOL    HW239450   2.313   3.194   6.502  0.8585  0.2415  0.0047
 9273SOL     OW39451   0.125   1.249  10.422 -0.2380 -0.5559  0.2738
 9273SOL    HW139452   0.031   1.254  10.439 -0.1293 -0.3294  0.8167
 9273SOL    HW239453   0.150   1.188  10.491  0.2940 -0.5361  0.1009
 9274SOL     OW39454   2.194   2.852   0.755  0.6346  0.0445 -0.2355
 9274SOL    HW139455   2.279   2.809   0.748  0.8376  0.7523 -2.1727
 9274SOL    HW239456   2.140   2.775   0.770 -0.3130  0.9835  1.1894
 9275SOL     OW39457   3.773   2.725  11.136  0.4012 -0.0417 -0.1580
 9275SOL    HW139458   3.733   2.728  11.222 -0.1689 -0.3844 -0.4100
 9275SOL    HW239459   3.769   2.630  11.123  1.4909 -0.2551  1.0690
 9276SOL     OW39460   0.324   0.647   1.496  0.1621  0.2112  0.2560
 9276SOL    HW139461   0.252   0.652   1.432 -0.5427  1.0316  1.1189
 9276SOL    HW239462   0.322   0.556   1.527 -2.1635 -0.0265 -0.5840
 9277SOL     OW39463   0.025   2.278   8.302 -0.0022  0.1465 -0.0701
 9277SOL    HW139464   4.736   2.297   8.392 -2.5222  0.4371 -0.8953
 9277SOL    HW239465   4.711   2.344   8.256 -1.1444 -0.0861  0.8716
 9278SOL     OW39466   4.280   3.176   4.375  0.4524 -0.0584  0.1558
 9278SOL    HW139467   4.294   3.178   4.280  1.0544 -1.0064  0.2225
 9278SOL    HW239468   4.225   3.252   4.392  1.5865  0.6137  0.7982
 9279SOL     OW39469   4.295   2.619  12.005 -0.3254  0.1747 -0.1740
 9279SOL    HW139470   4.333   2.694  12.052 -0.1943  1.2200 -1.9327
 9279SOL    HW239471   4.340   2.547  12.049 -2.2587 -0.5624  0.5593
 9280SOL     OW39472   4.454   2.479   2.122  0.2438 -0.1655  0.0588
 9280SOL    HW139473   4.416   2.566   2.110 -1.9033 -1.2043 -0.6649
 9280SOL    HW239474   4.376   2.425   2.114  2.2570 -3.2838  1.4149
 9281SOL     OW39475   0.820   3.859  13.943  0.3346  1.0182 -0.1574
 9281SOL    HW139476   0.763   3.784  13.961  2.4639 -0.0462  2.1997
 9281SOL    HW239477   0.899   3.822  13.982 -0.4232  0.1473  0.5682
 9282SOL     OW39478   4.478   2.759   8.783  0.4782 -0.4968 -0.3034
 9282SOL    HW139479   4.484   2.750   8.687 -2.4849 -0.8127 -0.4542
 9282SOL    HW239480   4.441   2.848   8.783 -0.4771 -0.9053  2.2338
 9283SOL     OW39481   2.838   1.777   4.299  0.0829  0.5545 -0.1794
 9283SOL    HW139482   2.807   1.732   4.378 -0.9725  1.2093 -0.2144
 9283SOL    HW239483   2.880   1.705   4.252 -0.6586  0.2624 -0.4017
 9284SOL     OW39484   2.362   0.407   7.202 -0.1110 -0.3257  0.0985
 9284SOL    HW139485   2.380   0.321   7.163  1.8714 -0.6506  1.6850
 9284SOL    HW239486   2.412   0.402   7.284 -1.9990 -1.5071  1.1968
 9285SOL     OW39487   1.910   2.062   5.946 -0.1518  0.2154  0.1362
 9285SOL    HW139488   1.837   2.001   5.958  0.4866 -0.3102  1.4093
 9285SOL    HW239489   1.872   2.128   5.888  1.8546  0.0077 -1.4029
 9286SOL     OW39490   4.403   0.723  10.178 -0.0585 -0.0891 -0.3886
 9286SOL    HW139491   4.481   0.699  10.128  1.5486  1.6921  1.2785
 9286SOL    HW239492   4.438   0.728  10.267 -2.1085 -0.6141  0.4565
 9287SOL     OW39493   0.668   2.766   6.595 -0.4334  0.6953  0.8341
 9287SOL    HW139494   0.649   2.846   6.643  0.1190  1.0762  0.4200
 9287SOL    HW239495   0.640   2.702   6.660  1.3426 -0.7024  0.2330
 9288SOL     OW39496   0.096   4.618  16.985  0.2218 -0.6356  0.0500
 9288SOL    HW139497   0.192   4.616  16.992  0.1723  1.4055  1.1794
 9288SOL    HW239498   0.080   4.523  16.989 -2.2537 -0.2374 -0.7347
 9289SOL     OW39499   0.296   1.592   6.877 -0.3378 -0.0869  0.3638
 9289SOL    HW139500   0.374   1.597   6.823 -0.5817  3.1334  0.2804
 9289SOL    HW239501   0.331   1.609   6.965 -0.8454 -1.9259  0.9323
 9290SOL     OW39502   0.832   3.021   0.172  0.9290 -0.3826  0.2725
 9290SOL    HW139503   0.741   2.999   0.155  0.9026 -0.4365  0.4917
 9290SOL    HW239504   0.826   3.096   0.231  1.5357  0.7151 -1.0570
 9291SOL     OW39505   0.862   2.743   6.205  0.1609  0.1070 -0.1308
 9291SOL    HW139506   0.868   2.650   6.227 -1.3778  0.4283  1.6680
 9291SOL    HW239507   0.791   2.748   6.141 -0.6082  1.7780  0.8509
 9292SOL     OW39508   3.593   1.581  17.607  0.1109  0.3983  0.0636
 9292SOL    HW139509   3.605   1.613  17.697 -2.4655  1.3958  0.0362
 9292SOL    HW239510   3.632   1.494  17.616 -0.5878  0.0736 -0.0393
 9293SOL     OW39511   2.676   0.929   3.020  0.2466 -0.7580  0.1191
 9293SOL    HW139512   2.591   0.971   3.033  1.7815  1.7281  2.1526
 9293SOL    HW239513   2.677   0.914   2.925 -1.6593  0.1192 -0.0442
 9294SOL     OW39514   0.389   3.587  11.306 -0.5429  0.2341  0.1485
 9294SOL    HW139515   0.440   3.663  11.335 -0.7494  0.3243  0.2709
 9294SOL    HW239516   0.397   3.528  11.381 -0.0243 -0.1083 -0.1764
 9295SOL     OW39517   0.708   4.068   0.891 -0.2388  0.7964  0.0546
 9295SOL    HW139518   0.651   4.113   0.953 -0.8839 -0.8816  0.6756
 9295SOL    HW239519   0.734   4.141   0.835  2.5746 -0.3243 -0.0908
 9296SOL     OW39520   4.312   1.016  11.407  0.1201  0.3174  0.1776
 9296SOL    HW139521   4.221   1.005  11.435  0.4261 -0.5736  0.8167
 9296SOL    HW239522   4.333   1.104  11.440 -0.4960  1.2597 -1.9575
 9297SOL     OW39523   3.659   4.579   5.925 -0.5306  0.0996 -0.5517
 9297SOL    HW139524   3.723   4.608   5.990 -0.6286  0.3940 -0.5878
 9297SOL    HW239525   3.616   4.663   5.912  1.3827  0.7708 -2.6364
 9298SOL     OW39526   4.244   0.761   2.347 -0.2247 -0.1736  0.0462
 9298SOL    HW139527   4.255   0.769   2.252  1.1698 -0.7285  0.1702
 9298SOL    HW239528   4.155   0.726   2.356 -1.0352  1.3071 -2.1862
 9299SOL     OW39529   4.452   2.094  10.057 -0.2176 -0.1297  0.5473
 9299SOL    HW139530   4.396   2.057  10.126 -0.7339 -0.6036 -0.1320
 9299SOL    HW239531   4.541   2.067  10.079  0.4607  0.8437 -1.0395
 9300SOL     OW39532   1.551   0.841  12.015  0.1233 -0.0512  0.1143
 9300SOL    HW139533   1.515   0.828  12.103  1.4073  1.2585  0.8269
 9300SOL    HW239534   1.518   0.922  11.978 -2.7910 -1.8672 -1.2511
 9301SOL     OW39535   1.805   0.678   5.284  0.1611  0.3639 -0.4567
 9301SOL    HW139536   1.720   0.722   5.294 -0.2464 -0.4204 -0.4885
 9301SOL    HW239537   1.814   0.679   5.188  0.1334 -1.1376 -0.4631
 9302SOL     OW39538   3.169   4.630   7.921  0.0583  0.1721  0.0383
 9302SOL    HW139539   3.150   4.590   7.837 -1.3880  1.7863 -0.3999
 9302SOL    HW239540   3.087   4.647   7.967  0.3433  1.0577  0.2212
 9303SOL     OW39541   4.383   4.466   5.329  0.1262  0.0875 -0.1808
 9303SOL    HW139542   4.341   4.460   5.244  0.3748 -1.4048 -0.1967
 9303SOL    HW239543   4.464   4.509   5.301 -1.2001  0.8762 -2.8286
 9304SOL     OW39544   2.211   4.203   2.382 -0.2362 -0.3657  0.0252
 9304SOL    HW139545   2.212   4.244   2.468 -0.2787 -0.3235  0.0056
 9304SOL    HW239546   2.210   4.280   2.325  1.1701  0.8760  1.6687
 9305SOL     OW39547   3.707   2.033   4.202 -0.0533 -1.1398 -0.5589
 9305SOL    HW139548   3.772   2.021   4.134  0.6982  0.4430 -0.1194
 9305SOL    HW239549   3.751   1.982   4.270  1.2053 -0.3665 -0.7949
 9306SOL     OW39550   2.898   1.885   7.964  0.0834  0.0894 -0.2318
 9306SOL    HW139551   2.879   1.957   7.904 -1.2656  0.8108  1.0797
 9306SOL    HW239552   2.980   1.857   7.923  0.4039 -1.9298  1.7962
 9307SOL     OW39553   0.262   1.027   6.055 -0.0042 -0.2488 -0.2784
 9307SOL    HW139554   0.219   1.100   6.010  1.4823  0.4299 -0.5945
 9307SOL    HW239555   0.266   0.964   5.983  0.5117 -1.1709  0.5613
 9308SOL     OW39556   2.293   0.934  17.090 -0.6136  0.0978  0.3340
 9308SOL    HW139557   2.285   1.029  17.084 -1.6098  0.1893  3.3127
 9308SOL    HW239558   2.208   0.897  17.068 -1.3523  2.5354 -0.9617
 9309SOL     OW39559   1.435   1.898   2.596  0.3629  0.2166  0.1144
 9309SOL    HW139560   1.527   1.909   2.618  0.5523 -0.2246 -0.4492
 9309SOL    HW239561   1.406   1.850   2.673  1.3045 -0.8963 -0.2202
 9310SOL     OW39562   3.453   4.383  10.237 -0.0788  0.1174 -0.8037
 9310SOL    HW139563   3.480   4.426  10.318  2.2300 -1.8268 -0.5247
 9310SOL    HW239564   3.399   4.309  10.267  0.7916  0.4024  1.4961
 9311SOL     OW39565   1.699   1.513   1.972 -0.4860 -0.8613 -0.3323
 9311SOL    HW139566   1.724   1.564   2.049  1.3534 -0.6888 -1.0174
 9311SOL    HW239567   1.775   1.544   1.921 -0.3258 -0.1135  0.3548
 9312SOL     OW39568   3.560   3.120   1.285  0.8020  0.1408 -0.1961
 9312SOL    HW139569   3.496   3.050   1.292  2.8972 -1.5654  2.0762
 9312SOL    HW239570   3.612   3.116   1.365 -0.6027  2.5620  0.8518
 9313SOL     OW39571   3.613   0.082  16.908  0.4056  0.0875  0.1834
 9313SOL    HW139572   3.591   4.727  16.894 -1.1250  0.3840  0.5437
 9313SOL    HW239573   3.534   0.119  16.868  2.3571  1.3590 -2.4600
 9314SOL     OW39574   0.871   2.179   3.797 -0.6313  0.0413 -0.5229
 9314SOL    HW139575   0.805   2.147   3.859 -0.5883  1.5647  0.3116
 9314SOL    HW239576   0.869   2.118   3.724 -2.3837  1.7105 -1.8819
 9315SOL     OW39577   1.956   4.658  14.688 -0.3078 -0.3231 -0.2968
 9315SOL    HW139578   1.901   4.621  14.619  0.0400  0.2739 -0.8881
 9315SOL    HW239579   2.030   4.601  14.666 -0.1396 -1.2680  2.7429
 9316SOL     OW39580   4.226   2.090  15.818 -0.2925  0.0853 -0.4816
 9316SOL    HW139581   4.150   2.034  15.808  1.0010 -2.2330  2.8203
 9316SOL    HW239582   4.229   2.137  15.734 -1.6273  0.7873 -0.1288
 9317SOL     OW39583   1.752   0.639   7.052  0.4520  0.3017 -0.1840
 9317SOL    HW139584   1.843   0.614   7.069  0.6464 -0.0082 -1.6660
 9317SOL    HW239585   1.725   0.714   7.104  0.0533  0.5718 -0.7808
 9318SOL     OW39586   1.024   4.142  16.068 -0.4968  0.3081  0.4256
 9318SOL    HW139587   0.982   4.224  16.043  1.2430  1.4900  1.3923
 9318SOL    HW239588   1.109   4.153  16.025  0.7514 -2.0529  2.2588
 9319SOL     OW39589   0.899   3.162   1.578  0.2470  0.1184  0.1982
 9319SOL    HW139590   0.804   3.157   1.572  0.5045 -2.0714 -1.9149
 9319SOL    HW239591   0.920   3.077   1.616 -0.6432 -0.3201 -0.3004
 9320SOL     OW39592   4.401   3.448   8.595  0.2273  0.2653  0.0311
 9320SOL    HW139593   4.308   3.457   8.616  0.1272  3.5308 -1.8246
 9320SOL    HW239594   4.428   3.374   8.648 -2.9580 -1.9998 -1.5285
 9321SOL     OW39595   3.392   3.968   7.796  0.7408 -0.0198 -0.0882
 9321SOL    HW139596   3.370   3.952   7.887 -1.5840 -1.7204 -0.9325
 9321SOL    HW239597   3.310   4.000   7.758  0.9206 -0.4942 -0.8732
 9322SOL     OW39598   3.882   1.673   0.158  0.5620 -0.0072 -0.0741
 9322SOL    HW139599   3.937   1.670   0.080 -1.8435  0.1103 -1.7960
 9322SOL    HW239600   3.950   1.696   0.221 -1.2372  2.1166  1.1098
 9323SOL     OW39601   3.893   2.026   6.013  0.3865 -0.1906  0.5913
 9323SOL    HW139602   3.938   1.944   5.991  0.6832  0.0421  0.3323
 9323SOL    HW239603   3.841   1.996   6.087  1.9956 -0.9857  1.4226
 9324SOL     OW39604   1.560   3.624  15.283 -0.7007  0.1354 -0.0547
 9324SOL    HW139605   1.471   3.592  15.293 -1.2536  1.4740 -0.6583
 9324SOL    HW239606   1.584   3.645  15.373 -0.6592  0.7008 -0.1991
 9325SOL     OW39607   2.367   2.838  17.293 -0.0945 -0.3006  0.1951
 9325SOL    HW139608   2.456   2.819  17.324 -0.2817 -3.3624 -1.1200
 9325SOL    HW239609   2.337   2.748  17.307  0.4467 -0.3816  0.8171
 9326SOL     OW39610   0.763   0.550  15.335 -0.0456 -0.2685 -0.0962
 9326SOL    HW139611   0.689   0.607  15.357  1.6614  3.2750 -3.4827
 9326SOL    HW239612   0.755   0.480  15.400  1.6493 -0.2586  0.1216
 9327SOL     OW39613   1.553   0.660   5.420 -0.4628  0.4339  0.1498
 9327SOL    HW139614   1.469   0.638   5.460 -0.0528 -1.9114 -0.2648
 9327SOL    HW239615   1.565   0.583   5.365 -0.4700  0.6886 -0.2074
 9328SOL     OW39616   4.016   2.187   8.467 -0.3157 -0.1083 -0.2388
 9328SOL    HW139617   4.005   2.209   8.559  1.2493  0.6451 -0.2433
 9328SOL    HW239618   3.923   2.168   8.451 -0.4394 -2.0014  2.7997
 9329SOL     OW39619   0.026   4.150   8.983 -0.4873 -0.0022 -0.2855
 9329SOL    HW139620   4.693   4.150   9.048  0.4734  2.5583  0.7333
 9329SOL    HW239621   4.715   4.170   8.903 -2.5708 -2.4820  0.3430
 9330SOL     OW39622   0.970   2.533   3.986 -0.2979 -0.0501 -0.0231
 9330SOL    HW139623   0.987   2.478   4.062  0.7847  1.4742  0.8059
 9330SOL    HW239624   1.058   2.561   3.964 -0.5611  1.4368  0.8093
 9331SOL     OW39625   0.727   1.410   4.525 -0.3289 -0.8360 -0.1569
 9331SOL    HW139626   0.756   1.418   4.434 -2.4416  0.3557 -0.7363
 9331SOL    HW239627   0.693   1.321   4.530 -0.6343 -0.7182 -0.1033
 9332SOL     OW39628   3.171   1.853   6.000 -0.8832  0.8301  0.2777
 9332SOL    HW139629   3.085   1.866   5.958 -1.2788 -2.0368  0.2285
 9332SOL    HW239630   3.210   1.793   5.936  0.9307  2.0488  0.2684
 9333SOL     OW39631   0.498   2.450  13.190 -0.1982  0.3556  0.4153
 9333SOL    HW139632   0.413   2.478  13.156 -0.5660 -1.6802 -0.3490
 9333SOL    HW239633   0.565   2.491  13.136  0.1121 -2.5502 -1.4233
 9334SOL     OW39634   0.525   2.034   2.469  0.2835 -0.0932  0.5793
 9334SOL    HW139635   0.541   2.008   2.378 -1.8150 -1.3481  0.5869
 9334SOL    HW239636   0.521   1.947   2.506 -1.4053  0.1385  0.9516
 9335SOL     OW39637   0.517   3.990   5.860  0.1167 -0.0412 -0.4445
 9335SOL    HW139638   0.491   3.945   5.780  1.9588  1.1167 -1.6959
 9335SOL    HW239639   0.586   3.936   5.899 -2.6858 -2.3683  1.3257
 9336SOL     OW39640   1.035   2.492   2.976  0.6278 -0.0517 -0.2548
 9336SOL    HW139641   1.005   2.570   3.023 -0.5508 -1.3726  1.2089
 9336SOL    HW239642   1.082   2.454   3.050  1.6184  1.2869 -0.1945
 9337SOL     OW39643   4.262   2.260   2.636  0.0752  0.3655 -0.2471
 9337SOL    HW139644   4.346   2.260   2.681  0.1134  2.9807 -0.2714
 9337SOL    HW239645   4.260   2.353   2.610  2.9907  0.3133 -0.7182
 9338SOL     OW39646   0.043   1.378   7.980  0.8340  0.0844 -0.0934
 9338SOL    HW139647   0.100   1.455   7.970  0.0771  0.8462  1.4505
 9338SOL    HW239648   0.107   1.312   7.952  1.3135  0.8750 -0.8441
 9339SOL     OW39649   0.004   2.903   4.213 -0.0596 -0.3604  0.2068
 9339SOL    HW139650   4.695   2.909   4.130  0.0229  1.8372  0.3206
 9339SOL    HW239651   0.092   2.883   4.179  0.1683  0.6994  0.1580
 9340SOL     OW39652   1.581   1.300   6.187 -0.0410  0.2562 -0.5116
 9340SOL    HW139653   1.574   1.293   6.282  1.5826  0.9570 -0.3258
 9340SOL    HW239654   1.622   1.218   6.157 -2.5025 -1.1964  0.1018
 9341SOL     OW39655   2.948   1.006   9.525 -0.5073  0.7256  0.2737
 9341SOL    HW139656   2.978   1.061   9.453  1.2915  0.5602  0.8838
 9341SOL    HW239657   2.877   0.957   9.483  1.5436 -1.5045 -0.6334
 9342SOL     OW39658   1.222   3.658  13.245  0.4570 -0.5500 -0.1641
 9342SOL    HW139659   1.145   3.629  13.293  0.9064 -1.1670  0.1707
 9342SOL    HW239660   1.263   3.722  13.303  2.5751 -1.1878 -0.9592
 9343SOL     OW39661   0.077   3.093   2.429 -1.1743 -0.4483 -0.5352
 9343SOL    HW139662   4.737   3.129   2.469 -0.1629  1.1020  0.0138
 9343SOL    HW239663   0.089   3.017   2.487 -1.1403  0.5914  0.7998
 9344SOL     OW39664   2.678   0.804   6.834  0.0553  0.4140  0.7091
 9344SOL    HW139665   2.704   0.804   6.742  3.3648 -1.7205  1.6789
 9344SOL    HW239666   2.743   0.746   6.873 -1.8213 -0.7831  2.0722
 9345SOL     OW39667   2.925   1.250   3.048 -0.1960  0.3258 -0.1686
 9345SOL    HW139668   2.995   1.221   2.990  0.3567 -0.5950  0.9489
 9345SOL    HW239669   2.955   1.199   3.123 -0.3853  1.0061  0.3755
 9346SOL     OW39670   0.515   1.650   3.680 -0.5709  0.0022  0.1261
 9346SOL    HW139671   0.464   1.731   3.690 -3.3216 -1.3260 -2.9820
 9346SOL    HW239672   0.485   1.593   3.609  2.4184 -1.3083 -0.0513
 9347SOL     OW39673   1.677   1.508   6.003 -0.2073 -0.2128  0.4258
 9347SOL    HW139674   1.671   1.425   6.049 -0.3175 -0.6712 -0.4146
 9347SOL    HW239675   1.734   1.555   6.064 -0.4997 -1.5367  1.7053
 9348SOL     OW39676   1.833   2.314   4.587  0.4455 -0.1326  0.1458
 9348SOL    HW139677   1.859   2.341   4.675  1.3045  1.5974 -0.6303
 9348SOL    HW239678   1.913   2.268   4.561 -0.0225  0.3327 -2.0708
 9349SOL     OW39679   4.186   3.587   7.326  0.0568 -0.6488 -0.2447
 9349SOL    HW139680   4.278   3.569   7.308 -0.5728  0.1861 -4.2512
 9349SOL    HW239681   4.152   3.596   7.237  2.7937 -1.4763 -1.3603
 9350SOL     OW39682   3.241   0.310  16.247  0.8561 -0.5262 -0.1278
 9350SOL    HW139683   3.311   0.272  16.194  1.6789 -0.3255  0.8206
 9350SOL    HW239684   3.241   0.255  16.326 -1.2671  1.5179  1.3089
 9351SOL     OW39685   3.532   2.599   9.791 -0.0411 -0.3078  0.5346
 9351SOL    HW139686   3.607   2.643   9.830 -0.6127 -0.3521  1.7051
 9351SOL    HW239687   3.558   2.507   9.792  1.3431  0.1365  3.1705
 9352SOL     OW39688   3.360   3.160   2.584 -0.1971 -0.1952  0.3515
 9352SOL    HW139689   3.346   3.079   2.535 -1.3070  0.8027 -0.9791
 9352SOL    HW239690   3.386   3.220   2.514  1.4149 -0.9184  0.3318
 9353SOL     OW39691   2.992   2.227  10.699  0.1103 -0.2325 -0.5189
 9353SOL    HW139692   3.029   2.265  10.619  2.6537  0.8695  1.1623
 9353SOL    HW239693   2.975   2.139  10.664  1.7809 -0.0639 -1.7800
 9354SOL     OW39694   1.486   0.252   3.147 -0.2343 -0.1849  0.2361
 9354SOL    HW139695   1.580   0.235   3.142  0.2490  2.4814  0.2146
 9354SOL    HW239696   1.456   0.161   3.154 -0.0083 -0.2921 -0.2054
 9355SOL     OW39697   4.726   1.954  14.025 -0.2346 -0.1350  0.0721
 9355SOL    HW139698   4.636   1.957  13.991 -0.1862 -0.8911 -0.1150
 9355SOL    HW239699   0.030   2.011  13.960 -1.2152  1.4552  0.8147
 9356SOL     OW39700   3.673   2.171   7.737 -0.1479 -0.6804 -0.3861
 9356SOL    HW139701   3.751   2.176   7.792  0.6960 -0.9661 -1.5616
 9356SOL    HW239702   3.674   2.263   7.711 -0.9530 -0.5709 -0.0213
 9357SOL     OW39703   2.685   2.274   1.437  0.6671  0.1456  0.4031
 9357SOL    HW139704   2.610   2.257   1.494 -0.1429  3.1193  0.2567
 9357SOL    HW239705   2.683   2.370   1.430 -0.8208  0.0328 -0.8580
 9358SOL     OW39706   1.875   1.262  14.559 -0.4580  0.2388 -0.0514
 9358SOL    HW139707   1.794   1.272  14.610 -0.0489 -0.6895  0.7790
 9358SOL    HW239708   1.854   1.302  14.475  0.5297  0.8027 -0.0293
 9359SOL     OW39709   4.519   3.867  13.850  0.6400  0.3701 -0.2189
 9359SOL    HW139710   4.604   3.845  13.887 -0.3565 -1.6268  0.8283
 9359SOL    HW239711   4.473   3.788  13.821  0.0573  0.4281  0.5631
 9360SOL     OW39712   3.741   1.714   4.017 -0.5218 -0.6225  0.1518
 9360SOL    HW139713   3.717   1.704   3.925  1.2260  0.9357 -0.4646
 9360SOL    HW239714   3.781   1.801   4.021  1.0550 -1.2664 -1.5523
 9361SOL     OW39715   2.730   2.072   6.775  0.7184 -0.1162 -0.2289
 9361SOL    HW139716   2.743   1.977   6.778 -2.8958 -0.5872  0.8359
 9361SOL    HW239717   2.636   2.079   6.793  0.3671 -1.8753 -1.3311
 9362SOL     OW39718   2.394   3.441   2.913  0.0859 -0.1233 -0.4568
 9362SOL    HW139719   2.350   3.502   2.853 -0.9421  2.2345  2.7122
 9362SOL    HW239720   2.351   3.464   2.995  0.9770  1.4438 -0.4234
 9363SOL     OW39721   1.795   0.889  13.963  0.8034  0.2121  0.5213
 9363SOL    HW139722   1.869   0.854  14.012  0.2328  0.6118  1.6908
 9363SOL    HW239723   1.845   0.918  13.887  0.6950  0.1565  0.4274
 9364SOL     OW39724   3.742   1.181  13.445  0.2974  0.3903  0.4383
 9364SOL    HW139725   3.647   1.194  13.450  0.1814 -0.5008  0.5808
 9364SOL    HW239726   3.779   1.268  13.430 -0.3902  0.4966 -0.6246
 9365SOL     OW39727   4.334   3.930   7.224 -0.0381 -0.0506  0.4175
 9365SOL    HW139728   4.342   3.886   7.309  1.0782  2.4719  1.6090
 9365SOL    HW239729   4.417   3.892   7.196  0.1022  1.0671 -0.6705
 9366SOL     OW39730   2.465   1.318   3.770  0.3832  0.0094  0.4395
 9366SOL    HW139731   2.473   1.377   3.695 -1.4190 -1.1363 -0.6700
 9366SOL    HW239732   2.422   1.375   3.834 -1.1982 -0.9747  0.2659
 9367SOL     OW39733   4.013   2.223   0.144 -0.6755 -0.2544 -0.2650
 9367SOL    HW139734   3.974   2.267   0.068 -0.9172  0.5096  0.3006
 9367SOL    HW239735   3.952   2.251   0.212  0.4646 -0.1354  0.6988
 9368SOL     OW39736   0.624   3.699   3.614 -0.1427 -0.0115  0.0060
 9368SOL    HW139737   0.697   3.643   3.640  2.5513  2.6936 -1.7254
 9368SOL    HW239738   0.552   3.639   3.636  0.4356 -0.5040  0.5457
 9369SOL     OW39739   3.595   3.460   3.753  0.2291 -0.4450 -0.2687
 9369SOL    HW139740   3.657   3.406   3.704 -3.3348 -2.1258 -2.9023
 9369SOL    HW239741   3.525   3.394   3.754 -0.4521  0.2874  0.1583
 9370SOL     OW39742   3.942   0.623   6.431 -0.4522 -0.1028  0.3581
 9370SOL    HW139743   3.975   0.676   6.359  1.3878 -0.9340  0.5995
 9370SOL    HW239744   4.002   0.652   6.500  1.2244 -0.2004 -1.0870
 9371SOL     OW39745   3.077   3.802   2.098 -0.5300 -0.2608 -0.0109
 9371SOL    HW139746   3.152   3.840   2.052 -0.6325  1.3899  1.1937
 9371SOL    HW239747   3.028   3.882   2.116  0.6312  0.6872 -1.0251
 9372SOL     OW39748   4.261   2.266   4.794  0.4484  0.3592  0.3194
 9372SOL    HW139749   4.180   2.244   4.749 -0.0486  2.9101 -0.0471
 9372SOL    HW239750   4.329   2.256   4.728 -0.6228  0.2508 -0.7665
 9373SOL     OW39751   1.719   3.825   8.530 -0.0113 -0.2832 -1.0636
 9373SOL    HW139752   1.674   3.907   8.547  0.0435 -0.1327 -1.6358
 9373SOL    HW239753   1.807   3.860   8.518 -0.3559  0.7406 -0.6020
 9374SOL     OW39754   2.791   4.686   7.416  0.1468 -0.1186 -0.0021
 9374SOL    HW139755   2.859   4.672   7.483 -0.2195 -0.1077  0.3734
 9374SOL    HW239756   2.788   0.043   7.410 -0.3996 -0.1339  0.0271
 9375SOL     OW39757   1.513   3.742   5.223 -0.2123  0.2797 -0.3249
 9375SOL    HW139758   1.504   3.799   5.146  1.5354  1.8635  0.6375
 9375SOL    HW239759   1.523   3.655   5.185 -0.9220 -0.1014  0.3611
 9376SOL     OW39760   2.723   2.324   6.423  0.1679  0.5816 -0.1126
 9376SOL    HW139761   2.729   2.273   6.342  1.0776 -1.7989  1.4716
 9376SOL    HW239762   2.790   2.282   6.476 -0.5371 -0.9975 -0.4466
 9377SOL     OW39763   3.017   4.427   5.970  0.1226 -0.5519 -0.3346
 9377SOL    HW139764   3.047   4.411   6.059  1.3621  1.7295 -0.3278
 9377SOL    HW239765   2.924   4.446   5.981  0.0785 -0.4713 -0.8591
 9378SOL     OW39766   3.849   2.301   9.290 -0.1843  0.1526  0.7122
 9378SOL    HW139767   3.865   2.389   9.256 -0.3431  0.8652  2.4684
 9378SOL    HW239768   3.773   2.282   9.236 -0.4313  1.0892  0.7301
 9379SOL     OW39769   3.332   2.106   8.932  0.1110  0.3635  0.0389
 9379SOL    HW139770   3.249   2.096   8.979  0.5088 -0.1266  0.6399
 9379SOL    HW239771   3.380   2.029   8.963  2.6669  1.6238 -0.8008
 9380SOL     OW39772   0.985   3.813   2.896  0.4291  0.2074 -0.2068
 9380SOL    HW139773   0.986   3.726   2.937 -1.0427  0.3993  0.2058
 9380SOL    HW239774   1.080   3.827   2.905  0.5624  1.3731 -3.6985
 9381SOL     OW39775   1.361   3.472  11.953  0.2169 -0.6041  0.3321
 9381SOL    HW139776   1.397   3.404  11.896 -0.7810 -0.2404 -0.7319
 9381SOL    HW239777   1.346   3.540  11.887 -1.6467 -0.1891  1.1692
 9382SOL     OW39778   1.686   1.892   7.332 -0.2211 -0.3901 -0.2510
 9382SOL    HW139779   1.778   1.887   7.305 -0.1595 -1.5604  0.1333
 9382SOL    HW239780   1.684   1.946   7.411  0.3102  0.7138 -1.0004
 9383SOL     OW39781   3.437   0.267   6.134  0.2106  0.6352  0.2433
 9383SOL    HW139782   3.477   0.333   6.077 -0.9540  0.3392 -0.9044
 9383SOL    HW239783   3.455   0.187   6.085  0.3833  1.3677 -0.8969
 9384SOL     OW39784   4.729   2.773  12.060  0.2690  0.1160 -0.5093
 9384SOL    HW139785   0.059   2.796  12.124  0.5468  0.3721 -0.8999
 9384SOL    HW239786   4.647   2.798  12.104 -0.1583 -1.0474 -0.6366
 9385SOL     OW39787   3.399   4.246   4.094  0.3010 -0.2299 -0.4362
 9385SOL    HW139788   3.484   4.250   4.051  1.1630  0.9688  1.3809
 9385SOL    HW239789   3.344   4.203   4.029  0.9719 -0.9116 -0.5585
 9386SOL     OW39790   2.296   3.589   8.382 -0.2209  0.3468 -0.3322
 9386SOL    HW139791   2.373   3.581   8.438 -0.7009 -1.6291  0.0507
 9386SOL    HW239792   2.336   3.567   8.298  1.1696 -1.3233  0.7577
 9387SOL     OW39793   4.086   1.318   2.202  0.3119  0.0006  0.1084
 9387SOL    HW139794   4.163   1.358   2.243 -0.1725 -0.3598  1.3800
 9387SOL    HW239795   4.092   1.223   2.214 -1.8273 -0.2765 -1.0633
 9388SOL     OW39796   0.798   0.936   5.008  0.2644  0.2371 -0.2598
 9388SOL    HW139797   0.768   1.022   4.979  1.1065  0.5591 -0.1782
 9388SOL    HW239798   0.814   0.905   4.919  0.5343  1.4886 -0.6580
 9389SOL     OW39799   0.219   0.231   8.508  0.2685  0.5992 -0.5353
 9389SOL    HW139800   0.281   0.160   8.490 -1.5338 -1.5406  1.6758
 9389SOL    HW239801   0.172   0.234   8.425  0.4963  0.1024 -0.6781
 9390SOL     OW39802   2.781   4.575   6.030  0.1640 -0.0646  0.2168
 9390SOL    HW139803   2.744   4.634   6.096  0.0092 -0.5385  0.5497
 9390SOL    HW239804   2.782   4.636   5.956  0.2395 -0.5761 -0.2006
 9391SOL     OW39805   0.960   3.512   0.675  0.3423  0.1245 -1.0637
 9391SOL    HW139806   1.019   3.587   0.686  1.6437 -0.9805 -0.3769
 9391SOL    HW239807   1.021   3.441   0.653  1.2713 -0.1896  2.4249
 9392SOL     OW39808   3.959   3.688   2.977 -0.0575  0.2630 -0.1828
 9392SOL    HW139809   4.013   3.625   2.929 -0.3431  0.3214 -0.5795
 9392SOL    HW239810   4.011   3.768   2.986  1.3623 -0.6795  0.0406
 9393SOL     OW39811   2.244   3.735   5.371  0.3760 -0.5777 -0.0443
 9393SOL    HW139812   2.267   3.698   5.456 -0.4662 -1.4366 -0.1870
 9393SOL    HW239813   2.330   3.772   5.351 -0.1061 -1.2530 -3.3236
 9394SOL     OW39814   4.317   1.004   0.312 -0.0587  0.8692  1.1338
 9394SOL    HW139815   4.384   1.031   0.250 -0.6758 -1.5100 -0.5825
 9394SOL    HW239816   4.308   0.925   0.258 -0.4441  0.7038  1.4404
 9395SOL     OW39817   1.072   0.732   0.499 -0.1885  0.3316 -0.3608
 9395SOL    HW139818   1.058   0.826   0.487 -0.0601  0.7449  2.6929
 9395SOL    HW239819   1.116   0.703   0.419  1.3223  0.7673  0.3027
 9396SOL     OW39820   1.757   4.705   4.484 -0.0593 -0.0389 -0.4229
 9396SOL    HW139821   1.750   4.613   4.460  0.2924  0.4169 -2.2833
 9396SOL    HW239822   1.834   4.733   4.435 -2.4016  2.6229 -2.5959
 9397SOL     OW39823   3.963   2.022   4.902  0.0170  0.1635 -0.4425
 9397SOL    HW139824   3.889   2.069   4.863  0.2004  0.7758 -0.0312
 9397SOL    HW239825   4.018   1.983   4.834  0.8402  0.7332 -0.0968
 9398SOL     OW39826   1.928   1.515   8.397 -0.0312  0.1742  0.4793
 9398SOL    HW139827   1.973   1.550   8.320  0.3374  0.1893  0.7000
 9398SOL    HW239828   1.841   1.547   8.374  0.4746  1.6110  0.6297
 9399SOL     OW39829   3.946   0.816  11.500 -0.0138  0.1178  0.3525
 9399SOL    HW139830   4.020   0.791  11.555  0.0239 -1.6931 -0.5092
 9399SOL    HW239831   3.940   0.911  11.503  1.1586  0.3646 -4.8359
 9400SOL     OW39832   1.552   1.354   9.463 -0.4052  0.2614  0.2880
 9400SOL    HW139833   1.486   1.415   9.431  0.6474  0.6733 -1.1192
 9400SOL    HW239834   1.506   1.305   9.531 -1.6664  0.6283 -0.3095
 9401SOL     OW39835   4.278   3.912  13.524  0.2244  0.0417  0.0751
 9401SOL    HW139836   4.283   3.854  13.600 -1.4020 -2.0539 -1.4215
 9401SOL    HW239837   4.212   3.875  13.465  0.8358  1.3526 -1.4427
 9402SOL     OW39838   4.175   3.389  16.575 -0.4656  0.3170 -0.3965
 9402SOL    HW139839   4.168   3.465  16.632 -0.4168 -0.9837  1.3423
 9402SOL    HW239840   4.084   3.371  16.550 -0.3851 -1.3182  0.4830
 9403SOL     OW39841   3.841   0.663   5.795 -0.2054  0.1064  0.0292
 9403SOL    HW139842   3.918   0.661   5.738 -0.7338 -0.2302 -0.6731
 9403SOL    HW239843   3.824   0.570   5.807 -2.2597  0.7212  1.7796
 9404SOL     OW39844   2.558   1.026  13.231  0.3972 -0.1982  0.1549
 9404SOL    HW139845   2.638   1.046  13.182 -0.7615 -1.7561 -2.3653
 9404SOL    HW239846   2.586   1.064  13.314  1.1528 -1.7338  0.5952
 9405SOL     OW39847   4.001   3.920   8.150 -0.1905 -0.3325  0.1220
 9405SOL    HW139848   3.986   4.015   8.144  0.6611 -0.1681  0.6801
 9405SOL    HW239849   4.046   3.914   8.234  0.8450  0.0306 -0.4132
 9406SOL     OW39850   1.454   0.582   2.633  0.0967  0.2728  0.7507
 9406SOL    HW139851   1.546   0.589   2.655  0.4944 -1.3369 -0.4091
 9406SOL    HW239852   1.432   0.540   2.716  0.5095  0.2205  0.8287
 9407SOL     OW39853   0.677   1.181   0.666 -0.7632 -0.0617  0.0228
 9407SOL    HW139854   0.689   1.266   0.624 -2.7803 -0.1098 -0.6664
 9407SOL    HW239855   0.648   1.135   0.588  0.7302  1.8163 -1.6241
 9408SOL     OW39856   2.437   0.110   4.448  0.3963 -0.4083  0.2875
 9408SOL    HW139857   2.354   0.084   4.489 -0.5492 -0.3005 -1.5739
 9408SOL    HW239858   2.401   0.166   4.380  1.5696  0.1484  0.1313
 9409SOL     OW39859   3.771   0.683   8.320  0.0328  0.8272  0.0015
 9409SOL    HW139860   3.801   0.680   8.229 -0.1762  1.1844 -0.0795
 9409SOL    HW239861   3.814   0.762   8.353  1.2359  0.9267 -1.7567
 9410SOL     OW39862   2.230   2.490   5.432 -0.6698  0.2437 -0.3842
 9410SOL    HW139863   2.314   2.522   5.400  0.1964 -2.0401 -0.3951
 9410SOL    HW239864   2.199   2.452   5.350  1.7284 -1.1248 -0.6431
 9411SOL     OW39865   3.574   1.148   5.822  0.0631 -0.1303 -0.7863
 9411SOL    HW139866   3.615   1.065   5.800  2.4732  0.9533 -0.4662
 9411SOL    HW239867   3.482   1.123   5.834 -0.7933  3.0029 -0.7793
 9412SOL     OW39868   3.490   0.763   8.192 -0.6413  0.6091 -0.0399
 9412SOL    HW139869   3.554   0.697   8.218 -1.5843  0.1990  1.2290
 9412SOL    HW239870   3.513   0.796   8.105  2.9219  0.6917  0.9148
 9413SOL     OW39871   2.370   3.671   1.630  0.1106 -0.0973  0.2171
 9413SOL    HW139872   2.282   3.651   1.662 -0.6202  2.8979  0.0282
 9413SOL    HW239873   2.414   3.704   1.709  1.5131 -0.0215 -0.6050
 9414SOL     OW39874   0.198   4.587   6.111  0.5924 -0.1354 -0.8266
 9414SOL    HW139875   0.263   4.586   6.181 -0.1078  0.1163 -0.1676
 9414SOL    HW239876   0.242   4.547   6.035 -0.1522 -0.8023 -0.9137
 9415SOL     OW39877   4.172   3.527   6.060 -0.8619 -0.3726  0.3337
 9415SOL    HW139878   4.119   3.605   6.044  2.1355  1.2970 -1.7217
 9415SOL    HW239879   4.249   3.566   6.102 -1.0781 -0.0377  0.4162
 9416SOL     OW39880   4.237   2.230   3.035  0.2534 -0.4186  0.5452
 9416SOL    HW139881   4.235   2.158   2.972 -2.3293  0.5131 -0.4443
 9416SOL    HW239882   4.303   2.189   3.091  0.4773  0.0317  0.6178
 9417SOL     OW39883   2.936   3.202   8.047  0.3234 -0.2864  0.5655
 9417SOL    HW139884   2.886   3.273   8.086 -0.6660  0.1305 -1.5052
 9417SOL    HW239885   2.946   3.140   8.120 -0.9961 -1.0040  0.1384
 9418SOL     OW39886   2.560   4.380   5.986 -0.4266 -0.2623 -0.4655
 9418SOL    HW139887   2.622   4.449   6.010 -0.1648 -0.3730 -0.8061
 9418SOL    HW239888   2.498   4.379   6.058  0.3566 -0.5069  0.2084
 9419SOL     OW39889   1.637   0.207   4.380 -0.3612 -0.1865  0.4040
 9419SOL    HW139890   1.707   0.272   4.380 -0.5156 -0.0361  2.4408
 9419SOL    HW239891   1.681   0.129   4.414  0.7883 -0.0016 -0.6558
 9420SOL     OW39892   4.344   3.991   3.564 -0.1754 -0.6749 -0.5658
 9420SOL    HW139893   4.376   3.936   3.492  0.7485 -0.0837 -0.6169
 9420SOL    HW239894   4.425   3.993   3.615  0.4612  0.9911 -1.6195
 9421SOL     OW39895   2.132   3.466   6.035  0.1396  0.1803 -0.1139
 9421SOL    HW139896   2.073   3.482   6.108  0.6725  2.1487 -0.1319
 9421SOL    HW239897   2.100   3.524   5.966 -1.2846 -0.0591  0.3478
 9422SOL     OW39898   3.356   1.234   7.511 -0.0200  0.2186  0.0124
 9422SOL    HW139899   3.315   1.173   7.572 -0.2682 -0.4705 -0.8549
 9422SOL    HW239900   3.440   1.192   7.493  1.0937  2.0614  0.8428
 9423SOL     OW39901   0.793   0.569   3.697  0.5270 -0.0746 -0.2850
 9423SOL    HW139902   0.862   0.504   3.687 -1.6960 -2.2610 -1.3604
 9423SOL    HW239903   0.714   0.528   3.663 -0.7728  0.9294  1.4640
 9424SOL     OW39904   1.086   0.310   4.828 -0.9099  0.1069  0.0746
 9424SOL    HW139905   1.118   0.265   4.750 -0.7488  2.3816 -1.1689
 9424SOL    HW239906   1.106   0.246   4.896  3.2281  0.1487 -1.1084
 9425SOL     OW39907   2.875   1.068   2.393  0.2672 -0.4269  1.4221
 9425SOL    HW139908   2.786   1.038   2.412 -1.2523  2.0626 -1.7808
 9425SOL    HW239909   2.907   0.993   2.342 -0.4832 -0.0322  0.3782
 9426SOL     OW39910   2.023   3.894   5.515  0.5816  0.5791 -0.5134
 9426SOL    HW139911   2.081   3.822   5.491  0.2566  0.3492 -0.6042
 9426SOL    HW239912   2.072   3.924   5.591 -0.2074  1.8490 -0.4891
 9427SOL     OW39913   1.403   2.276   2.591  0.1312 -0.0431 -0.0192
 9427SOL    HW139914   1.328   2.308   2.641 -2.0214 -2.1677 -1.8769
 9427SOL    HW239915   1.367   2.276   2.502 -0.4440 -1.1847  0.2127
 9428SOL     OW39916   3.899   0.616   3.719 -0.3711 -0.8025 -0.3152
 9428SOL    HW139917   3.939   0.632   3.634  2.3366 -0.7099  0.9946
 9428SOL    HW239918   3.808   0.599   3.693 -0.8224  1.5531 -0.3154
 9429SOL     OW39919   4.317   0.895   7.800  0.1525 -0.0034  0.1232
 9429SOL    HW139920   4.375   0.913   7.727 -1.0600  0.4570 -0.7266
 9429SOL    HW239921   4.295   0.802   7.793 -2.2786  0.4397  1.6963
 9430SOL     OW39922   1.276   0.653   6.545 -0.1572 -0.1971  0.2756
 9430SOL    HW139923   1.310   0.580   6.493  0.7688  0.3293  0.1359
 9430SOL    HW239924   1.246   0.605   6.622  0.8273 -2.1405 -0.5445
 9431SOL     OW39925   3.969   0.110  13.777  0.2510  0.0607 -0.4991
 9431SOL    HW139926   3.997   0.200  13.765 -1.7455  0.4952 -1.7850
 9431SOL    HW239927   3.943   0.086  13.688  0.3546  0.0966 -0.5390
 9432SOL     OW39928   2.406   3.413   6.564  0.0647  0.1723 -0.0587
 9432SOL    HW139929   2.413   3.402   6.659 -4.5492  1.1297  0.3980
 9432SOL    HW239930   2.360   3.497   6.566 -2.4263 -1.1662 -1.6446
 9433SOL     OW39931   2.342   4.094   7.251  0.2330  0.3859  0.3201
 9433SOL    HW139932   2.395   4.044   7.189 -1.1518  1.1571 -1.4713
 9433SOL    HW239933   2.369   4.061   7.337  2.0096 -0.1113 -0.4347
 9434SOL     OW39934   4.096   0.353  12.949 -0.8234  0.0590 -0.2406
 9434SOL    HW139935   4.027   0.379  12.888 -1.0310 -1.2937 -0.5712
 9434SOL    HW239936   4.065   0.271  12.987 -0.1482  0.2921  0.8166
 9435SOL     OW39937   4.479   0.119   1.752 -0.0873  0.1528  0.1475
 9435SOL    HW139938   4.450   0.034   1.785 -0.3066 -0.8093 -2.5109
 9435SOL    HW239939   4.436   0.124   1.667 -1.4681  2.0136  0.9812
 9436SOL     OW39940   2.582   0.538   3.056 -0.2951 -0.2805  0.1716
 9436SOL    HW139941   2.647   0.484   3.012  0.4877  0.4393  0.4475
 9436SOL    HW239942   2.513   0.473   3.069  0.1572 -0.4854  1.5638
 9437SOL     OW39943   4.194   3.806   9.846  0.1390 -0.4374 -0.0849
 9437SOL    HW139944   4.125   3.828   9.783  0.2464 -0.4958 -0.2221
 9437SOL    HW239945   4.170   3.720   9.881 -1.7357  0.3727  0.6452
 9438SOL     OW39946   1.178   3.273   5.084  0.3221  0.4213  0.0778
 9438SOL    HW139947   1.110   3.283   5.018 -0.2709 -2.2184  0.3073
 9438SOL    HW239948   1.135   3.318   5.157  0.1736  1.2085 -0.4957
 9439SOL     OW39949   3.309   3.148   7.741  0.4656  0.0344 -0.3878
 9439SOL    HW139950   3.285   3.141   7.649  1.5961  4.0535 -1.0070
 9439SOL    HW239951   3.231   3.111   7.783  0.2452  0.7081 -0.1881
 9440SOL     OW39952   1.519   4.591   9.049 -0.4295 -0.2443  0.5856
 9440SOL    HW139953   1.561   4.630   8.973 -0.9511 -0.7909  0.0147
 9440SOL    HW239954   1.580   4.629   9.112 -0.3986 -0.2198  0.5408
 9441SOL     OW39955   0.754   3.077   4.651 -0.0854 -0.0172  0.1294
 9441SOL    HW139956   0.775   3.083   4.744  3.2585  1.4691 -0.7324
 9441SOL    HW239957   0.660   3.091   4.663 -0.2482  2.0063 -3.6434
 9442SOL     OW39958   0.503   0.045   5.981  0.4330 -0.3021  0.0468
 9442SOL    HW139959   0.512   0.055   6.075  2.3907  0.0914 -0.1994
 9442SOL    HW239960   0.545   4.697   5.970  1.5512  0.1608  0.7870
 9443SOL     OW39961   4.480   2.969   1.713  0.0041 -0.2060 -0.2660
 9443SOL    HW139962   4.454   2.881   1.740  0.0619 -0.2190 -0.2533
 9443SOL    HW239963   4.516   3.002   1.795 -0.1360  1.5548 -0.9197
 9444SOL     OW39964   1.214   2.934   7.768 -0.0186 -0.5572 -0.7403
 9444SOL    HW139965   1.162   3.006   7.731 -0.5517  1.2281  3.5459
 9444SOL    HW239966   1.274   2.921   7.694  0.9086  0.9560 -0.2491
 9445SOL     OW39967   0.894   4.106   6.036 -0.8874  0.1579 -0.1278
 9445SOL    HW139968   0.909   4.191   5.993 -1.8973 -0.9448 -2.6393
 9445SOL    HW239969   0.799   4.095   6.027 -0.6641 -0.9652 -1.0374
 9446SOL     OW39970   3.435   1.547   1.305  0.1432 -0.1037 -0.5448
 9446SOL    HW139971   3.377   1.622   1.294 -0.5250 -0.1571  2.3787
 9446SOL    HW239972   3.381   1.487   1.356  0.7843  1.0829  1.5320
 9447SOL     OW39973   3.823   2.397  16.983 -0.0767  0.6121  0.0239
 9447SOL    HW139974   3.765   2.362  16.915 -0.3898 -0.7688  0.9952
 9447SOL    HW239975   3.911   2.398  16.944 -0.8811 -0.7845 -1.8432
 9448SOL     OW39976   0.066   0.135   6.592 -0.5431  0.0886  0.5595
 9448SOL    HW139977   0.148   0.153   6.546  0.3765  1.3987  2.7327
 9448SOL    HW239978   0.036   0.057   6.545  0.8127  1.4531 -2.6136
 9449SOL     OW39979   3.692   0.235   2.226  0.5078 -0.0466 -0.7156
 9449SOL    HW139980   3.605   0.266   2.253  1.6043  2.1089  0.3804
 9449SOL    HW239981   3.694   0.268   2.136 -0.8350 -0.9279 -1.0716
 9450SOL     OW39982   1.472   2.391   8.308  0.2688 -0.3042 -0.3139
 9450SOL    HW139983   1.421   2.371   8.230  0.3311 -1.0916 -0.1561
 9450SOL    HW239984   1.528   2.313   8.309  0.8364  0.1135  2.9102
 9451SOL     OW39985   0.075   2.224   6.734  0.5184 -0.4296 -0.2275
 9451SOL    HW139986   0.048   2.269   6.654  1.2531 -0.2583 -0.3874
 9451SOL    HW239987   0.032   2.274   6.803  0.8464 -0.4556 -0.0027
 9452SOL     OW39988   3.677   1.507   7.219 -0.1818 -0.4348  0.4177
 9452SOL    HW139989   3.613   1.500   7.290  0.6778 -1.7612  1.0578
 9452SOL    HW239990   3.759   1.467   7.246 -0.9076 -1.7337  0.7158
 9453SOL     OW39991   1.325   0.126   9.049 -0.1084  0.6426 -0.0617
 9453SOL    HW139992   1.406   0.117   9.099 -0.0859 -1.1063 -0.4110
 9453SOL    HW239993   1.264   0.087   9.111 -0.8988  0.2721 -1.0732
 9454SOL     OW39994   1.911   2.701  11.046  0.2940  0.3090  0.6126
 9454SOL    HW139995   1.869   2.649  11.115  0.5738 -1.6542 -0.6910
 9454SOL    HW239996   1.888   2.651  10.969 -1.0803 -1.1765  1.9904
 9455SOL     OW39997   4.112   1.716   3.941 -0.1748  0.3171 -0.2313
 9455SOL    HW139998   4.048   1.748   3.877 -0.0472  2.1960  0.5710
 9455SOL    HW239999   4.124   1.795   3.995 -2.4624  0.4759  0.0485
 9456SOL     OW40000   1.090   4.600   3.775  0.4501 -0.2174 -0.2855
 9456SOL    HW140001   1.111   4.545   3.851 -2.3847 -0.4362  0.3559
 9456SOL    HW240002   1.103   4.687   3.813 -1.0582  0.5482 -1.5312
 9457SOL     OW40003   2.745   1.145   7.977 -0.0708  0.9366  0.9068
 9457SOL    HW140004   2.789   1.137   7.892 -1.1476 -2.8869  0.6878
 9457SOL    HW240005   2.688   1.068   7.971  1.1276 -0.0192  2.0109
 9458SOL     OW40006   3.896   3.708  11.432 -0.4392  0.1733 -0.0945
 9458SOL    HW140007   3.903   3.803  11.423  0.4497 -0.0107 -1.2940
 9458SOL    HW240008   3.871   3.683  11.343  1.2546  0.2636 -0.6009
 9459SOL     OW40009   4.090   1.993  15.262  0.4592  0.3428 -0.1967
 9459SOL    HW140010   4.090   1.990  15.358 -1.9147  1.1640 -0.1616
 9459SOL    HW240011   4.004   2.032  15.245  0.5475  1.6507  2.2739
 9460SOL     OW40012   0.204   1.245   7.653  0.5891 -0.1810  0.4593
 9460SOL    HW140013   0.266   1.212   7.718  0.8820 -1.4896 -0.4899
 9460SOL    HW240014   0.207   1.182   7.581  1.6176  1.7180 -1.1490
 9461SOL     OW40015   4.352   3.609   4.626 -0.4738 -0.1510  0.4911
 9461SOL    HW140016   4.361   3.514   4.633  0.1516 -0.2201 -1.2542
 9461SOL    HW240017   4.264   3.619   4.588 -0.0658 -1.3058 -0.7840
 9462SOL     OW40018   1.205   1.061   4.228 -0.9423  0.6420  0.7157
 9462SOL    HW140019   1.282   1.090   4.277 -0.4653  0.6199 -0.0240
 9462SOL    HW240020   1.207   1.129   4.161  1.8738  1.4378  1.6154
 9463SOL     OW40021   2.453   2.163   3.968 -0.2329  0.1585  0.3746
 9463SOL    HW140022   2.544   2.166   3.997  1.3095 -2.4380 -4.1836
 9463SOL    HW240023   2.402   2.093   4.010  2.6795 -1.9251  0.3953
 9464SOL     OW40024   3.065   4.370   2.352 -0.7206  0.3286  0.0206
 9464SOL    HW140025   3.119   4.434   2.399 -1.9465  1.7132 -0.4285
 9464SOL    HW240026   2.984   4.369   2.402  0.0237  1.6840  1.2477
 9465SOL     OW40027   4.333   0.199   3.847  0.0713 -0.2962  0.3226
 9465SOL    HW140028   4.338   0.153   3.930 -0.1351  1.0219  1.0681
 9465SOL    HW240029   4.418   0.242   3.844 -0.4838  0.6789 -1.4118
 9466SOL     OW40030   0.246   3.252   7.085  0.1367 -0.0674 -0.1466
 9466SOL    HW140031   0.177   3.236   7.148 -1.1955  0.3866 -1.4863
 9466SOL    HW240032   0.238   3.181   7.022  1.7162  0.3121 -0.7875
 9467SOL     OW40033   3.997   2.961   4.612  0.0562 -0.0057  0.0291
 9467SOL    HW140034   3.998   2.955   4.708  0.7645  0.4284  0.0515
 9467SOL    HW240035   3.907   2.933   4.592  0.4349 -0.4999 -1.0041
 9468SOL     OW40036   3.071   4.381   3.445  0.1143  0.8264 -0.2956
 9468SOL    HW140037   3.141   4.396   3.381 -0.2424 -1.1232 -1.1421
 9468SOL    HW240038   3.119   4.370   3.527 -0.2724  1.2341 -0.0216
 9469SOL     OW40039   1.258   4.110   2.456  0.0377 -0.2978 -0.5008
 9469SOL    HW140040   1.198   4.151   2.518  1.4283 -0.4579  0.9430
 9469SOL    HW240041   1.201   4.113   2.380 -2.2070 -1.4203  1.1532
 9470SOL     OW40042   2.755   0.692   2.173  0.0737  0.6075  0.2552
 9470SOL    HW140043   2.838   0.675   2.218 -0.2114 -2.5933 -0.4156
 9470SOL    HW240044   2.728   0.767   2.225  2.3621  1.1000  0.7166
 9471SOL     OW40045   2.288   2.964  10.151  0.0683 -0.2574 -0.1379
 9471SOL    HW140046   2.366   2.997  10.197 -0.3362  2.2427 -1.2432
 9471SOL    HW240047   2.308   3.005  10.067  0.4833 -1.9213 -0.8408
 9472SOL     OW40048   1.564   3.543   6.834  0.2951  0.3248 -0.4039
 9472SOL    HW140049   1.506   3.560   6.908 -0.0724  0.5551 -0.7484
 9472SOL    HW240050   1.624   3.472   6.858  2.8695  1.8073 -2.4150
 9473SOL     OW40051   2.974   1.634   8.329 -0.2200 -0.1268  0.6762
 9473SOL    HW140052   2.993   1.578   8.254 -0.9945 -0.4255  0.7104
 9473SOL    HW240053   2.896   1.684   8.304 -1.3309 -1.8745  0.7049
 9474SOL     OW40054   4.048   2.617  11.900  0.1949  0.1867  0.2329
 9474SOL    HW140055   4.122   2.617  11.960  0.8271 -2.0383 -0.5809
 9474SOL    HW240056   4.001   2.542  11.935 -1.3912  1.4462  0.8006
 9475SOL     OW40057   2.861   0.877   6.585  0.0746  0.4742 -0.4193
 9475SOL    HW140058   2.831   0.924   6.507 -1.5793 -0.5282 -0.3780
 9475SOL    HW240059   2.820   0.796   6.556  0.2571  0.8052 -1.6040
 9476SOL     OW40060   3.521   4.394   9.725 -0.2742 -0.2534  0.3601
 9476SOL    HW140061   3.455   4.422   9.789 -1.6021  1.3315 -1.7129
 9476SOL    HW240062   3.596   4.406   9.783  0.4343 -0.5916 -0.4925
 9477SOL     OW40063   1.302   2.709   5.454  0.2280 -0.0822  0.1656
 9477SOL    HW140064   1.393   2.702   5.424  1.2372  3.0377  2.4568
 9477SOL    HW240065   1.247   2.723   5.378 -1.3752 -2.8334  0.8337
 9478SOL     OW40066   2.783   2.471   5.510 -0.0453  0.6132  0.0027
 9478SOL    HW140067   2.727   2.541   5.545 -0.1260  0.1835  0.7401
 9478SOL    HW240068   2.857   2.467   5.571  0.2398  1.0737 -0.3088
 9479SOL     OW40069   1.757   2.053   6.432 -0.6867  0.5009  0.0143
 9479SOL    HW140070   1.780   1.961   6.444 -2.2903  0.1864  0.6278
 9479SOL    HW240071   1.835   2.095   6.395 -0.0369  0.4584  1.3462
 9480SOL     OW40072   2.415   2.156   3.177  0.0189 -0.2076 -0.4963
 9480SOL    HW140073   2.428   2.250   3.175 -1.2022 -0.0256  0.4307
 9480SOL    HW240074   2.442   2.133   3.088  0.6445 -0.8199 -0.1451
 9481SOL     OW40075   0.137   0.001   5.647  0.3661  0.3784 -0.5587
 9481SOL    HW140076   0.170   0.061   5.713  0.8229  0.2599 -0.6789
 9481SOL    HW240077   0.206   4.673   5.649  0.4209  0.3864 -1.8789
 9482SOL     OW40078   3.914   4.209   4.772  0.4190  0.2674 -0.7551
 9482SOL    HW140079   3.854   4.244   4.837  0.1617 -1.2962 -0.1506
 9482SOL    HW240080   3.867   4.133   4.739 -1.7275  0.8608  0.9436
 9483SOL     OW40081   0.556   4.005  14.384  0.3635  0.0316  0.4293
 9483SOL    HW140082   0.577   4.062  14.310 -4.0517 -0.1973 -1.0392
 9483SOL    HW240083   0.608   4.043  14.454 -1.7553  2.1811  0.8248
 9484SOL     OW40084   3.305   2.684  11.211 -0.0077  0.2455  0.0623
 9484SOL    HW140085   3.321   2.730  11.129  0.5612  1.5430  0.9051
 9484SOL    HW240086   3.271   2.600  11.181  0.8154  0.0208 -0.2387
 9485SOL     OW40087   2.446   1.864  12.321  0.7665 -0.0634  0.4872
 9485SOL    HW140088   2.399   1.943  12.294 -0.0223 -0.5918  0.3394
 9485SOL    HW240089   2.379   1.801  12.297 -0.6929  2.2222 -1.4339
 9486SOL     OW40090   2.353   3.147   5.447  0.2630  0.0642  0.3534
 9486SOL    HW140091   2.332   3.211   5.515  4.1439  0.1134  1.5233
 9486SOL    HW240092   2.381   3.206   5.377  1.0912 -0.9577 -0.1706
 9487SOL     OW40093   1.957   3.935   7.189 -0.4551 -0.1717  0.6844
 9487SOL    HW140094   2.015   3.964   7.118  0.3230  0.8952  1.7565
 9487SOL    HW240095   1.974   3.841   7.194 -1.3722 -0.3346  0.8009
 9488SOL     OW40096   2.688   2.035   3.814 -0.1079  0.2466  0.3848
 9488SOL    HW140097   2.620   2.091   3.849  1.0704  1.0615  1.3823
 9488SOL    HW240098   2.732   2.099   3.757  0.5000 -0.6290 -0.1389
 9489SOL     OW40099   2.193   2.455   4.132 -0.2415 -0.2382  0.1306
 9489SOL    HW140100   2.250   2.472   4.208  0.8155 -2.7313 -0.1317
 9489SOL    HW240101   2.185   2.543   4.096 -2.8306 -0.3342  0.4974
 9490SOL     OW40102   2.880   0.652   6.973 -0.0967 -0.0107 -0.5124
 9490SOL    HW140103   2.942   0.593   6.929  3.2787  4.1340 -1.3248
 9490SOL    HW240104   2.827   0.589   7.020  0.2883 -0.9022 -1.2723
 9491SOL     OW40105   4.620   1.308   7.025  0.3558  0.0467 -0.7189
 9491SOL    HW140106   4.548   1.319   6.962 -0.6175 -0.6542  0.2576
 9491SOL    HW240107   4.650   1.399   7.027  0.2921  0.1062 -2.2604
 9492SOL     OW40108   1.834   3.184   6.127  0.4580  0.0874  0.1474
 9492SOL    HW140109   1.804   3.273   6.148 -1.9904 -0.2678 -1.9118
 9492SOL    HW240110   1.775   3.122   6.169 -2.0532  1.1913 -1.7433
 9493SOL     OW40111   1.730   0.393   3.469 -0.1209 -0.0896 -0.1820
 9493SOL    HW140112   1.779   0.315   3.444 -0.0062  1.2111 -3.9916
 9493SOL    HW240113   1.767   0.453   3.405 -0.5800  1.8181  1.3261
 9494SOL     OW40114   3.417   1.680  15.479  0.1757  0.1208 -0.2667
 9494SOL    HW140115   3.388   1.740  15.410  1.4052  3.3801  2.0634
 9494SOL    HW240116   3.425   1.732  15.558  2.5372 -0.6557  0.0053
 9495SOL     OW40117   1.041   0.473   5.770  0.2426 -0.1887 -0.3211
 9495SOL    HW140118   1.107   0.513   5.827 -1.9724 -0.1778  2.1716
 9495SOL    HW240119   0.982   0.540   5.736 -0.1211 -0.8554 -1.0029
 9496SOL     OW40120   0.370   4.255   7.818  0.1613  0.0837  0.3503
 9496SOL    HW140121   0.284   4.212   7.821  0.0119  0.2988 -0.5965
 9496SOL    HW240122   0.412   4.185   7.768  0.6149 -0.8894  2.0951
 9497SOL     OW40123   2.285   2.969   2.196 -0.4189 -0.0519  1.0128
 9497SOL    HW140124   2.267   2.900   2.260  0.2720  1.4298  2.7894
 9497SOL    HW240125   2.203   3.018   2.198 -0.1363  0.6096 -2.9909
 9498SOL     OW40126   0.929   3.037   3.428 -0.0329 -0.0971 -0.1278
 9498SOL    HW140127   0.956   3.128   3.443 -1.2108 -0.2637  2.9739
 9498SOL    HW240128   1.010   2.998   3.394 -1.7315 -3.0290 -0.7651
 9499SOL     OW40129   1.856   3.609   7.637  0.0658  0.0454  0.1162
 9499SOL    HW140130   1.850   3.620   7.732  1.0547 -1.0882  0.3070
 9499SOL    HW240131   1.844   3.516   7.619 -1.2463  0.0820  0.7948
 9500SOL     OW40132   0.022   0.675  11.638  0.2456 -0.6512 -0.6601
 9500SOL    HW140133   4.674   0.640  11.612  0.8834 -3.2656  0.7779
 9500SOL    HW240134   4.735   0.764  11.660 -0.1801 -0.8394 -0.3772
 9501SOL     OW40135   3.354   2.607   6.757 -0.1065  0.4706  0.0335
 9501SOL    HW140136   3.417   2.659   6.806  0.4734 -0.8721  0.7142
 9501SOL    HW240137   3.308   2.564   6.828  0.4113  1.0302  0.7041
 9502SOL     OW40138   1.425   0.911   9.525  0.1721  0.5646  0.0545
 9502SOL    HW140139   1.448   0.878   9.612  1.5242  1.3118 -0.0109
 9502SOL    HW240140   1.354   0.972   9.544  0.5358  1.1385 -0.4247
 9503SOL     OW40141   2.909   1.491  16.389  0.0555 -0.4734 -0.1541
 9503SOL    HW140142   2.982   1.435  16.361  0.8422  1.1635 -1.3882
 9503SOL    HW240143   2.892   1.545  16.312  1.1661  0.4103  0.2179
 9504SOL     OW40144   2.923   2.094   7.785 -0.5046 -0.1280  0.4469
 9504SOL    HW140145   2.870   2.095   7.705  0.1049 -2.1528 -0.0091
 9504SOL    HW240146   3.004   2.128   7.746 -1.8306  2.8114  0.2930
 9505SOL     OW40147   1.975   0.051   0.511 -0.2236 -0.3681 -0.3015
 9505SOL    HW140148   2.015   0.022   0.429 -0.8630  3.7093 -2.0308
 9505SOL    HW240149   1.968   4.707   0.561  0.0375  0.7717  1.5846
 9506SOL     OW40150   1.851   3.124   6.886 -0.1979  0.1038  0.5757
 9506SOL    HW140151   1.799   3.085   6.816  0.8108 -0.2631  0.0256
 9506SOL    HW240152   1.885   3.204   6.846 -0.8391 -0.7352 -1.6319
 9507SOL     OW40153   0.929   1.307   8.423 -0.0585  0.2894 -0.2308
 9507SOL    HW140154   0.997   1.281   8.484  0.4862  1.7910 -0.2013
 9507SOL    HW240155   0.963   1.372   8.362  0.5990 -1.3839 -1.6544
 9508SOL     OW40156   1.905   2.389   3.225 -0.3065 -0.6456  0.0898
 9508SOL    HW140157   1.857   2.311   3.253 -1.1529  0.3610  1.4386
 9508SOL    HW240158   1.966   2.393   3.299 -1.1897 -0.2012  0.7891
 9509SOL     OW40159   1.841   2.764   1.396 -0.5611 -0.1770  0.2980
 9509SOL    HW140160   1.759   2.742   1.439 -1.9617 -0.4186 -2.5008
 9509SOL    HW240161   1.854   2.694   1.332 -0.4517 -0.0762  0.2108
 9510SOL     OW40162   1.170   0.599   2.997 -0.5295  0.5591 -0.4076
 9510SOL    HW140163   1.099   0.610   3.060 -0.6697 -2.2627 -0.0561
 9510SOL    HW240164   1.157   0.686   2.960 -1.3052  1.6206  2.3364
 9511SOL     OW40165   0.967   3.547  14.483 -0.6522  0.2494 -0.2961
 9511SOL    HW140166   0.873   3.534  14.500 -0.8737 -1.0307 -2.5165
 9511SOL    HW240167   0.997   3.456  14.484  0.8382  0.7292 -1.7850
 9512SOL     OW40168   3.408   0.794  10.734 -0.0032 -0.1909 -0.1577
 9512SOL    HW140169   3.362   0.738  10.796  1.0830  1.0782  1.7658
 9512SOL    HW240170   3.364   0.766  10.653  0.9895  1.9278 -1.4464
 9513SOL     OW40171   1.764   2.167  11.060  0.2001  0.2562  0.7050
 9513SOL    HW140172   1.727   2.132  10.978 -0.3231  0.4062  0.8775
 9513SOL    HW240173   1.849   2.191  11.023 -0.3872 -1.5420 -1.7958
 9514SOL     OW40174   2.800   3.716   4.219  0.0295 -0.3231  0.7047
 9514SOL    HW140175   2.862   3.660   4.266 -1.3865  0.1199  3.1019
 9514SOL    HW240176   2.738   3.643   4.210  0.1550 -0.6847  2.7273
 9515SOL     OW40177   2.095   2.829   9.182  0.2284 -0.3579  0.9863
 9515SOL    HW140178   2.016   2.777   9.166 -0.6509  1.0138  0.9495
 9515SOL    HW240179   2.156   2.755   9.182 -1.4716 -1.7498  1.6630
 9516SOL     OW40180   1.791   0.427   0.569 -0.1197  0.1353  0.3865
 9516SOL    HW140181   1.835   0.441   0.485  0.2059  0.1253  0.5569
 9516SOL    HW240182   1.752   0.341   0.559  0.2706  0.1718 -1.4470
 9517SOL     OW40183   1.283   4.224  15.231  0.1174 -0.1001  0.3198
 9517SOL    HW140184   1.294   4.317  15.210 -3.0798 -0.5661 -3.3084
 9517SOL    HW240185   1.188   4.223  15.243  0.0009 -1.6316 -0.7632
 9518SOL     OW40186   3.062   3.990   5.838  0.2304  0.1098 -0.1918
 9518SOL    HW140187   3.046   4.001   5.932 -1.1507  0.6248 -0.4839
 9518SOL    HW240188   2.974   4.002   5.803  0.4804  1.0392 -0.5031
 9519SOL     OW40189   3.529   2.405   4.673  0.2066 -0.5769  0.0804
 9519SOL    HW140190   3.538   2.432   4.764 -2.8035  0.4363  0.0561
 9519SOL    HW240191   3.619   2.400   4.640  0.4921 -0.1281  0.8067
 9520SOL     OW40192   4.547   1.810   5.161 -0.1840  0.1335  0.0089
 9520SOL    HW140193   4.497   1.832   5.239 -2.0439 -0.2974 -1.0675
 9520SOL    HW240194   4.573   1.721   5.186 -0.3354  0.3046  0.7872
 9521SOL     OW40195   3.441   0.212   0.205 -0.2958 -0.2544  0.1238
 9521SOL    HW140196   3.493   0.191   0.282  1.4916 -0.1089 -1.0510
 9521SOL    HW240197   3.373   0.269   0.242 -0.1821  0.7362 -1.2013
 9522SOL     OW40198   4.410   2.133   5.080 -0.2061  1.0531 -0.2136
 9522SOL    HW140199   4.402   2.200   5.013  0.6523 -0.9640 -2.3636
 9522SOL    HW240200   4.322   2.096   5.087  0.8164 -0.7739  2.9000
 9523SOL     OW40201   1.409   1.992  16.778 -0.1158 -0.4949  0.6723
 9523SOL    HW140202   1.378   2.053  16.710  2.3878 -0.2052 -0.2128
 9523SOL    HW240203   1.339   1.999  16.843 -2.2513 -0.6793 -1.6167
 9524SOL     OW40204   2.145   1.751  13.367  0.4812 -0.0936 -0.1584
 9524SOL    HW140205   2.051   1.766  13.366  0.3019 -1.2157 -0.1811
 9524SOL    HW240206   2.163   1.705  13.449 -1.4681 -1.3710 -0.4615
 9525SOL     OW40207   3.786   2.674   2.666  0.0217 -0.6844 -0.3421
 9525SOL    HW140208   3.720   2.605   2.673 -1.3174  0.3672 -2.5000
 9525SOL    HW240209   3.862   2.617   2.671 -0.6904 -1.5030  1.1890
 9526SOL     OW40210   1.993   0.986   5.010 -0.2823  0.3273  0.3411
 9526SOL    HW140211   2.085   1.010   5.015 -0.4278  1.1192 -0.6763
 9526SOL    HW240212   1.973   1.018   4.921  0.1499  0.0438  0.1442
 9527SOL     OW40213   1.767   3.171   2.258 -0.0704 -0.7514 -0.0686
 9527SOL    HW140214   1.703   3.161   2.187  0.4652  0.9274 -0.7952
 9527SOL    HW240215   1.823   3.244   2.232  0.1812 -0.4599  1.2825
 9528SOL     OW40216   1.367   1.309   8.722  0.3652  0.3901 -0.8896
 9528SOL    HW140217   1.445   1.340   8.768 -0.6859  3.1452 -0.9834
 9528SOL    HW240218   1.377   1.214   8.735 -0.3741  0.3395 -0.7197
 9529SOL     OW40219   1.057   1.399  13.512 -0.1447 -0.2000  0.7211
 9529SOL    HW140220   1.083   1.485  13.543 -0.7682  0.2218  0.0642
 9529SOL    HW240221   1.136   1.346  13.522 -1.7236 -2.3149  2.1643
 9530SOL     OW40222   0.397   0.012   7.687  0.5949 -0.1163  0.1844
 9530SOL    HW140223   0.327   0.055   7.638 -0.7334 -2.7700 -0.2543
 9530SOL    HW240224   0.373   4.660   7.662  0.4723  0.2473 -1.0130
 9531SOL     OW40225   2.414   2.309   2.863 -0.2136  0.5302  0.0658
 9531SOL    HW140226   2.336   2.253   2.857  0.9894 -1.0574 -0.7359
 9531SOL    HW240227   2.388   2.401   2.872  1.6254  1.0938 -0.2600
 9532SOL     OW40228   1.373   0.903   4.975  0.0382 -0.6218 -0.2929
 9532SOL    HW140229   1.458   0.877   5.008 -0.4830 -0.0599  1.4868
 9532SOL    HW240230   1.386   0.982   4.923 -1.3491 -0.5794 -0.5914
 9533SOL     OW40231   3.928   0.683   8.713  0.1641 -0.0969  0.4504
 9533SOL    HW140232   4.021   0.706   8.704  0.2041  0.0111  1.1332
 9533SOL    HW240233   3.892   0.769   8.690  1.8821  0.0345 -1.7845
 9534SOL     OW40234   1.228   0.283   8.598  0.1081 -0.8489  0.3446
 9534SOL    HW140235   1.234   0.208   8.658 -0.8715 -1.6143 -0.5035
 9534SOL    HW240236   1.189   0.340   8.664 -0.9146 -3.0549  1.6390
 9535SOL     OW40237   3.473   3.108   4.446  0.9025  0.6096  0.1450
 9535SOL    HW140238   3.445   3.105   4.537  1.4392 -1.5406  0.2351
 9535SOL    HW240239   3.399   3.064   4.405  1.5389  0.4398 -0.8317
 9536SOL     OW40240   1.206   0.062   8.774  0.5735  0.3793 -0.1169
 9536SOL    HW140241   1.125   0.036   8.818  1.6066 -0.4068  1.3344
 9536SOL    HW240242   1.249   0.109   8.846 -0.1459 -0.4261  0.8437
 9537SOL     OW40243   1.935   1.771  10.228 -0.1490 -0.2726 -0.1049
 9537SOL    HW140244   1.981   1.820  10.160  0.2018 -1.6043 -0.8309
 9537SOL    HW240245   1.853   1.745  10.187  1.2920  0.6637 -3.5940
 9538SOL     OW40246   0.371   0.153  12.100 -0.3083 -0.9166  0.1928
 9538SOL    HW140247   0.367   0.102  12.181  0.5894  0.8256  1.3394
 9538SOL    HW240248   0.460   0.121  12.083 -0.2762 -0.5166 -0.4130
 9539SOL     OW40249   3.728   3.881   0.182  0.4239 -0.0874 -0.4310
 9539SOL    HW140250   3.785   3.957   0.173  0.0209  0.2532 -0.1207
 9539SOL    HW240251   3.655   3.891   0.121 -0.0875  0.7363  0.3249
 9540SOL     OW40252   0.198   2.168  15.269  0.0242 -0.0112 -0.5513
 9540SOL    HW140253   0.209   2.238  15.334 -0.1711 -0.9908  0.5382
 9540SOL    HW240254   0.106   2.144  15.281 -0.9542  2.7187 -2.6193
 9541SOL     OW40255   0.445   2.933  11.720 -0.1369  0.0795 -0.0080
 9541SOL    HW140256   0.441   2.838  11.737  2.1337  0.0305  0.2617
 9541SOL    HW240257   0.512   2.969  11.778  0.5981  1.1068 -1.5367
 9542SOL     OW40258   1.889   2.491   2.985  0.3169 -0.6404 -0.2238
 9542SOL    HW140259   1.917   2.452   3.068  1.4747 -2.9950 -1.7318
 9542SOL    HW240260   1.908   2.419   2.926 -0.8819 -2.0499  1.1073
 9543SOL     OW40261   0.119   4.614  11.612  0.4036 -0.2049  0.1524
 9543SOL    HW140262   0.177   4.675  11.657  0.3736 -0.4680  0.5449
 9543SOL    HW240263   0.191   4.569  11.568 -0.1896 -1.2172  0.2205
 9544SOL     OW40264   3.487   2.329   2.649 -0.0180  0.0015 -0.7349
 9544SOL    HW140265   3.435   2.332   2.568 -0.4042 -1.3825 -0.5432
 9544SOL    HW240266   3.424   2.348   2.718  0.3814 -0.3132 -0.2904
 9545SOL     OW40267   0.363   4.007   7.027  0.0961 -0.1891  0.2467
 9545SOL    HW140268   0.432   4.007   7.094 -0.9998  1.8434  1.3713
 9545SOL    HW240269   0.374   4.095   6.992  0.2823 -1.6411 -3.3456
 9546SOL     OW40270   3.932   1.356   4.681 -0.4588  0.3507  0.3274
 9546SOL    HW140271   3.938   1.268   4.645  0.6458  0.6873 -0.2933
 9546SOL    HW240272   3.894   1.336   4.767  0.7046 -2.6313  0.1516
 9547SOL     OW40273   0.843   0.982   8.624  0.3479 -0.0932  0.6238
 9547SOL    HW140274   0.763   0.933   8.640  0.9671 -0.8011  1.5646
 9547SOL    HW240275   0.876   0.947   8.542 -1.9381  0.5470 -0.5473
 9548SOL     OW40276   4.403   2.949   7.582 -0.2811 -0.1144 -0.1495
 9548SOL    HW140277   4.422   3.038   7.614  3.1642 -0.6544 -0.7302
 9548SOL    HW240278   4.312   2.951   7.551 -0.3058  0.0745 -0.0670
 9549SOL     OW40279   4.692   2.527  15.311 -0.4560  0.1742 -0.5293
 9549SOL    HW140280   4.689   2.458  15.244  1.2736  0.2133 -0.6560
 9549SOL    HW240281   0.040   2.516  15.353 -0.5026  1.3929 -0.1398
 9550SOL     OW40282   2.952   3.103   7.080  0.3775 -0.6551  0.0236
 9550SOL    HW140283   2.956   3.017   7.122 -0.5012 -0.6152  0.1969
 9550SOL    HW240284   2.892   3.150   7.138  1.0901 -1.5535  1.5048
 9551SOL     OW40285   3.698   2.635  14.808 -0.0675 -0.1189  0.6840
 9551SOL    HW140286   3.646   2.705  14.847 -0.9669  0.0271 -0.7737
 9551SOL    HW240287   3.652   2.553  14.825  0.8804 -0.5805  0.9997
 9552SOL     OW40288   4.733   3.354   1.987  0.2622 -0.3818 -0.5687
 9552SOL    HW140289   4.638   3.352   1.983  0.2757 -2.8319 -0.0362
 9552SOL    HW240290   0.013   3.281   2.047 -0.8016 -0.1922 -0.0353
 9553SOL     OW40291   3.507   1.025   1.689 -0.4327 -0.5982 -0.1601
 9553SOL    HW140292   3.576   1.002   1.751 -1.5907  0.9121  1.6924
 9553SOL    HW240293   3.536   0.957   1.627  0.3875 -0.6019  0.2329
 9554SOL     OW40294   1.622   3.406  17.466  0.1032  0.0628  0.1593
 9554SOL    HW140295   1.715   3.393  17.448 -0.1686 -2.8017  0.8924
 9554SOL    HW240296   1.633   3.463  17.542 -0.9480  0.5115 -0.0176
 9555SOL     OW40297   0.497   3.430   0.004 -0.3173  0.1762 -0.1575
 9555SOL    HW140298   0.558   3.395   0.070 -1.1727  0.3975  0.7538
 9555SOL    HW240299   0.459   3.353  17.712 -0.4359 -0.0470  0.3697
 9556SOL     OW40300   3.941   2.673   1.253 -0.3995  0.2774  0.1561
 9556SOL    HW140301   3.850   2.694   1.232 -0.8714 -1.4751  0.4571
 9556SOL    HW240302   3.937   2.582   1.224  1.8005  0.4823 -0.8026
 9557SOL     OW40303   4.349   3.003   8.792  0.2088  0.1372 -0.3322
 9557SOL    HW140304   4.279   2.977   8.732  0.0600  1.4421 -0.7140
 9557SOL    HW240305   4.368   3.096   8.785 -0.5664  0.0810 -3.2024
 9558SOL     OW40306   4.434   0.683   2.681 -0.2168 -0.4569 -0.1792
 9558SOL    HW140307   4.487   0.678   2.760  1.5953  2.0455 -1.2528
 9558SOL    HW240308   4.492   0.704   2.608  1.2870 -1.3709  0.7701
 9559SOL     OW40309   4.049   4.070   4.483 -0.1086  0.6756 -0.3369
 9559SOL    HW140310   4.105   4.022   4.422 -0.1000 -1.8753  1.6284
 9559SOL    HW240311   4.003   4.137   4.433 -0.8933  0.3092 -0.1050
 9560SOL     OW40312   0.287   3.368  11.805 -0.0744  0.7105 -0.0731
 9560SOL    HW140313   0.312   3.392  11.895 -2.8427  0.5239  0.7606
 9560SOL    HW240314   0.197   3.346  11.833  1.0697 -3.1536  0.6723
 9561SOL     OW40315   3.090   0.734   1.912 -0.0296  0.5844  0.1303
 9561SOL    HW140316   3.135   0.721   1.829 -0.6413 -1.5975  0.1352
 9561SOL    HW240317   3.155   0.788   1.957 -0.7457  0.4724  1.3045
 9562SOL     OW40318   4.380   2.720  12.423 -0.1728 -0.8832  0.1821
 9562SOL    HW140319   4.458   2.669  12.442  0.4572  0.4295  1.1307
 9562SOL    HW240320   4.388   2.794  12.484  0.7091  0.0642 -1.0908
 9563SOL     OW40321   2.521   1.236   7.570  0.5662 -0.1070 -0.2293
 9563SOL    HW140322   2.616   1.235   7.562  0.5258 -3.8527 -0.2364
 9563SOL    HW240323   2.504   1.326   7.542 -0.2262  0.3740  1.7895
 9564SOL     OW40324   0.120   1.079  11.178 -0.2490 -0.3107  1.0634
 9564SOL    HW140325   0.135   1.002  11.123  0.2612 -0.3142  1.2108
 9564SOL    HW240326   0.180   1.073  11.252 -0.2575  2.3221  1.2794
 9565SOL     OW40327   3.387   2.824  14.521  0.3040  0.1509  0.8683
 9565SOL    HW140328   3.440   2.800  14.597  1.9586  0.7447 -0.0958
 9565SOL    HW240329   3.302   2.792  14.552  0.6057 -0.1606  1.3799
 9566SOL     OW40330   4.504   2.252   2.734 -0.0802  0.4008 -0.5334
 9566SOL    HW140331   4.543   2.203   2.807  0.0089  0.8320 -0.2902
 9566SOL    HW240332   4.584   2.262   2.682 -0.5611 -0.2004 -1.3710
 9567SOL     OW40333   3.282   3.397   8.053 -0.0476  0.2775  0.5609
 9567SOL    HW140334   3.191   3.389   8.025  0.0335 -0.5793  0.5381
 9567SOL    HW240335   3.319   3.464   7.996  1.0325 -0.5111  0.3241
 9568SOL     OW40336   0.018   1.363   5.347 -0.8700  0.2625  0.4705
 9568SOL    HW140337   0.086   1.331   5.288 -0.0775 -0.0629  1.5704
 9568SOL    HW240338   0.064   1.371   5.430 -0.2647 -2.6439  0.4075
 9569SOL     OW40339   2.910   2.044   4.206 -0.8083 -0.0670  0.0234
 9569SOL    HW140340   2.926   1.957   4.242  3.3517  0.2073 -1.0685
 9569SOL    HW240341   2.974   2.102   4.247  0.5820 -1.8621  0.4149
 9570SOL     OW40342   0.045   4.241  13.276  0.6074  0.2892  0.1648
 9570SOL    HW140343   4.731   4.237  13.195 -0.7236 -1.5590  1.0997
 9570SOL    HW240344   4.733   4.297  13.336  2.1143 -0.4767  2.1042
 9571SOL     OW40345   2.048   0.958  10.464 -0.4072 -0.5774  0.1349
 9571SOL    HW140346   2.065   0.873  10.424 -2.9285 -0.6529 -0.8158
 9571SOL    HW240347   2.133   0.967  10.506 -0.1000 -2.5931 -0.0657
   4.73762   4.73762  17.74869
