Membrane in water
40347
    1TMC1    C1    1   3.805   2.824  11.739  0.4810 -0.0029 -0.1375
    1TMC1    C2    2   3.927   2.885  11.751  0.4732 -0.7313  0.0942
    1TMC1    C3    3   3.993   2.917  11.634 -0.3003  0.2393 -0.2687
    1TMC1    C4    4   3.743   2.809  11.621 -0.5171 -0.4374  0.1494
    1TMC1    C5    5   3.803   2.858  11.511 -0.7727 -0.1983  0.3437
    1TMC1    C6    6   3.929   2.917  11.515 -0.3053 -0.2696 -0.5753
    1TMC1     C    7   3.771   2.731  11.841 -0.4601 -0.2128 -0.0333
    1TMC1     O    8   3.766   2.774  11.956 -0.3222 -0.6910 -0.5109
    1TMC1     H    9   3.985   2.895  11.842 -0.1355 -0.9615  0.5047
    1TMC1    H1   10   3.652   2.753  11.602  0.3252 -2.6006  2.5769
    1TMC1    H2   11   3.981   2.935  11.422 -1.8658  3.3696 -0.7639
    1TMC1    C7   12   3.745   2.835  11.381  0.0153  0.4868  0.4854
    1TMC1    C8   13   4.139   2.914  11.629 -0.5691  0.8689  0.4218
    1TMC1    O1   14   3.685   2.732  11.353 -0.4368  0.0372  0.3529
    1TMC1    O2   15   4.204   2.815  11.668 -0.7073  0.6204  0.3102
    1TMC1    O3   16   3.744   2.951  11.315  0.3158  0.1983  0.4462
    1TMC1    H3   17   3.796   3.021  11.360  0.6426  1.3278 -1.6936
    1TMC1    O5   18   4.185   3.031  11.587  0.2350 -0.1609 -0.0152
    1TMC1    H5   19   4.113   3.091  11.558  0.8989 -0.3637 -2.0751
    2MPD2     C   20   3.484   2.337  11.987 -0.4214 -0.4943 -0.5816
    2MPD2    C1   21   3.522   2.450  12.055 -0.1785  0.0000  0.3165
    2MPD2    C2   22   3.611   2.537  11.996  0.0354  0.7668 -0.2137
    2MPD2    C3   23   3.642   2.518  11.861 -0.8146  0.5453  0.1498
    2MPD2    C4   24   3.610   2.403  11.795  0.2211 -0.1235 -0.8550
    2MPD2    C5   25   3.538   2.307  11.862  0.5208  0.1670 -0.4692
    2MPD2     H   26   3.656   2.619  12.051 -2.8936  1.9058  0.4637
    2MPD2    H1   27   3.648   2.370  11.699  0.8384 -1.3244 -0.2063
    2MPD2    H2   28   3.423   2.259  12.031  0.4414 -1.0969 -0.4328
    2MPD2    H3   29   3.511   2.217  11.808  0.5233 -0.8651  1.2361
    2MPD2     N   30   3.716   2.615  11.791 -0.1178  0.1523 -0.2608
    2MPD2    H5   31   3.728   2.601  11.691 -0.8342 -0.7725 -0.2107
    2MPD2    N1   32   3.471   2.489  12.181  0.8916  0.1014 -0.3730
    2MPD2    H7   33   3.495   2.584  12.210  1.3965 -0.0174 -0.4136
    3TMC1    C1   34   2.911   3.985  10.555 -0.5358 -0.0863 -0.4619
    3TMC1    C2   35   2.918   4.122  10.584  0.2112  0.2666 -0.0961
    3TMC1    C3   36   3.025   4.188  10.548  0.3801 -0.1349 -0.3262
    3TMC1    C4   37   3.020   3.917  10.498  0.2884 -0.4335  0.0568
    3TMC1    C5   38   3.123   4.000  10.453  0.5842  0.0967 -0.1767
    3TMC1    C6   39   3.127   4.135  10.483 -0.7011 -0.6087 -0.1027
    3TMC1     C   40   2.822   3.898  10.634  0.1194 -0.3535  0.1996
    3TMC1     O   41   2.824   3.780  10.608 -0.0555 -0.1297 -0.1569
    3TMC1     H   42   2.831   4.173  10.625  1.5221  2.1373  0.3098
    3TMC1    H1   43   3.015   3.810  10.481 -1.8758 -0.3982  0.4354
    3TMC1    H2   44   3.216   4.189  10.452 -0.4449 -1.4356 -0.8029
    3TMC1    C7   45   3.232   3.934  10.388 -0.0452  0.6851 -0.0181
    3TMC1    C8   46   3.004   4.329  10.526  0.3661  0.2012 -0.1102
    3TMC1    O1   47   3.211   3.825  10.334 -0.1166  0.1654  0.4349
    3TMC1    O2   48   3.102   4.397  10.508 -0.1167 -0.0817 -0.8364
    3TMC1    O3   49   3.328   4.022  10.350 -0.3394  0.3596 -0.4244
    3TMC1    H3   50   3.345   4.077  10.430 -1.6726  0.4690 -0.2166
    3TMC1    O5   51   2.882   4.355  10.462 -0.2221  0.5836  0.2954
    3TMC1    H5   52   2.810   4.299  10.497 -0.1107  1.9203  2.6868
    4MPD2     C   53   2.530   3.811  11.055  0.0127 -0.9129 -0.2508
    4MPD2    C1   54   2.577   3.945  11.059 -0.3017 -0.3728 -0.3390
    4MPD2    C2   55   2.655   3.999  10.953 -0.4330  0.0549 -0.0574
    4MPD2    C3   56   2.695   3.915  10.848  0.1697  0.7890  0.2651
    4MPD2    C4   57   2.649   3.785  10.849 -0.2285 -0.5372 -0.2381
    4MPD2    C5   58   2.567   3.734  10.948 -0.1090  0.0268 -0.4673
    4MPD2     H   59   2.695   4.100  10.958 -0.7320  0.0894  1.4478
    4MPD2    H1   60   2.684   3.713  10.775 -1.2222  0.1198 -1.3621
    4MPD2    H2   61   2.456   3.771  11.122 -1.0970 -1.7182 -1.9575
    4MPD2    H3   62   2.542   3.629  10.944 -1.3728  0.3258 -0.4237
    4MPD2     N   63   2.774   3.967  10.745 -0.2253 -0.2008 -0.1406
    4MPD2    H5   64   2.801   4.064  10.752 -0.8888  0.2332 -3.3691
    4MPD2    N1   65   2.538   4.036  11.158 -0.2413  0.0240  0.0432
    4MPD2    H7   66   2.554   4.136  11.148  0.6478 -0.1410 -0.1817
    5TCq1    O1   67   3.226   1.827  11.316  0.1065  0.2465 -0.2940
    5TCq1    C1   68   3.105   1.775  11.350 -0.0070 -0.1685  0.2473
    5TCq1    O2   69   3.014   1.843  11.391  0.1875  0.0889  0.2372
    5TCq1    C2   70   3.086   1.641  11.293  0.1355  0.5379 -0.3731
    5TCq1    C3   71   2.986   1.558  11.343  0.2864  0.2421 -0.0160
    5TCq1    C4   72   2.977   1.430  11.289 -0.1007 -0.0475 -0.3067
    5TCq1    C5   73   3.057   1.392  11.191  0.2335  0.0603 -0.1058
    5TCq1    C6   74   3.144   1.482  11.129  0.1210  1.0288 -0.2543
    5TCq1    C7   75   3.159   1.611  11.179 -0.3135 -1.0245  0.2173
    5TCq1    C8   76   3.245   1.417  11.041 -0.1123 -0.0465  0.5534
    5TCq1    O4   77   3.221   1.294  11.027  0.5015 -0.2643 -0.7795
    5TCq1    C9   78   2.901   1.333  11.358  0.5758 -0.2804 -0.3865
    5TCq1    O5   79   2.825   1.370  11.455  0.1918 -0.1319 -0.4239
    5TCq1    O6   80   2.897   1.217  11.309 -0.0252  0.3051 -0.1066
    5TCq1    H1   81   3.286   1.750  11.314 -1.7374 -1.2247  1.1782
    5TCq1    H2   82   2.929   1.583  11.431 -0.0690 -0.6100 -0.0063
    5TCq1    H3   83   3.044   1.291  11.153  0.7515 -0.1109  0.1764
    5TCq1    H4   84   3.229   1.684  11.141 -1.8378 -0.3578 -1.2840
    6MPD2     C   85   3.537   1.517  10.832  0.2134 -0.2914  0.4872
    6MPD2    C1   86   3.455   1.434  10.911  0.2283 -0.0585 -0.3525
    6MPD2    C2   87   3.485   1.298  10.920 -0.2652  0.2948  0.4422
    6MPD2    C3   88   3.603   1.249  10.861 -0.1995  0.0902  0.7133
    6MPD2    C4   89   3.670   1.336  10.778 -0.0959  0.1060  0.5727
    6MPD2    C5   90   3.640   1.466  10.760  0.8722  0.6680  0.0658
    6MPD2     H   91   3.421   1.235  10.981  0.1067  1.3741  1.9328
    6MPD2    H1   92   3.755   1.303  10.720  0.2601  1.2045  0.4576
    6MPD2    H2   93   3.531   1.625  10.818  0.1514 -0.4480 -0.6427
    6MPD2    H3   94   3.705   1.526  10.698  0.0674  1.6897  0.1998
    6MPD2     N   95   3.637   1.106  10.861  0.1880  0.5991 -0.0129
    6MPD2    H5   96   3.567   1.040  10.894 -1.3127  2.4989  0.6614
    6MPD2    N1   97   3.347   1.498  10.987  0.2645  0.1869  0.2422
    6MPD2    H7   98   3.329   1.597  11.003 -1.7691 -0.3590  1.3357
    7TCq1    O1   99   0.460   0.043  12.336  0.0016  0.7105 -0.2656
    7TCq1    C1  100   0.586   0.080  12.389 -0.4174  0.4376 -0.2680
    7TCq1    O2  101   0.634   0.191  12.383  0.2170  0.1418  0.6410
    7TCq1    C2  102   0.647   4.692  12.431 -0.3298  0.5531 -0.3032
    7TCq1    C3  103   0.612   4.579  12.363  0.2273  0.2661 -0.1937
    7TCq1    C4  104   0.680   4.469  12.394  0.2341 -0.7889 -0.5387
    7TCq1    C5  105   0.777   4.475  12.492  0.2463  0.4780 -0.1389
    7TCq1    C6  106   0.805   4.588  12.565 -0.5347  0.4384 -0.6938
    7TCq1    C7  107   0.738   4.699  12.531 -0.2849 -0.0472 -0.1334
    7TCq1    C8  108   0.896   4.588  12.676  0.1244  0.5225  0.3544
    7TCq1    O4  109   0.920   4.475  12.727 -0.0411 -0.1932 -0.3852
    7TCq1    C9  110   0.655   4.352  12.320  0.2378  0.2762 -0.7347
    7TCq1    O5  111   0.729   4.258  12.350 -0.1692 -0.6551 -0.1890
    7TCq1    O6  112   0.569   4.355  12.228  0.4517  0.3678 -0.4053
    7TCq1    H1  113   0.429   4.687  12.348  2.5684 -0.2879 -1.1807
    7TCq1    H2  114   0.547   4.580  12.276  1.0638 -0.4155 -0.8321
    7TCq1    H3  115   0.851   4.396  12.501  1.6237  1.6606 -1.0797
    7TCq1    H4  116   0.747   0.058  12.579 -2.8095 -0.5752  1.4299
    8MPD2     C  117   1.265   0.058  12.959 -0.0069 -0.5634  0.1380
    8MPD2    C1  118   1.228   4.671  12.961 -0.3421 -0.3158  0.3373
    8MPD2    C2  119   1.123   4.643  12.873  0.1652  0.5195  0.9552
    8MPD2    C3  120   1.062   0.002  12.792  0.2972  0.1216  0.3073
    8MPD2    C4  121   1.117   0.131  12.789  0.1618 -0.3242  0.2623
    8MPD2    C5  122   1.223   0.154  12.873 -0.0828  0.2036  0.7055
    8MPD2     H  123   1.080   4.543  12.870  2.5163 -0.4170 -1.2837
    8MPD2    H1  124   1.079   0.208  12.724 -1.4628 -1.4292 -0.0894
    8MPD2    H2  125   1.339   0.083  13.035  0.3910  1.7336 -1.0019
    8MPD2    H3  126   1.268   0.253  12.884 -0.4305  0.6476 -1.8900
    8MPD2     N  127   0.944   4.712  12.707  0.6245  0.4691  0.3279
    8MPD2    H5  128   0.913   0.056  12.655 -0.1874 -1.1002 -1.6496
    8MPD2    N1  129   1.290   4.582  13.052  0.7210 -0.1767  0.4139
    8MPD2    H7  130   1.355   4.612  13.124  0.6474  0.4738  0.1995
    9TMC1    C1  131   2.884   4.234  11.775 -0.2407  0.1834 -0.5543
    9TMC1    C2  132   2.822   4.190  11.892  0.1353  0.2026 -0.1209
    9TMC1    C3  133   2.723   4.277  11.934 -0.1781 -0.3606  0.0967
    9TMC1    C4  134   2.846   4.342  11.698  0.0814 -0.9826 -0.2522
    9TMC1    C5  135   2.740   4.414  11.746  0.0932  0.2547  1.0380
    9TMC1    C6  136   2.672   4.382  11.861  0.5424  0.5511  0.3899
    9TMC1     C  137   2.971   4.136  11.720 -0.4152  0.4450  0.6827
    9TMC1     O  138   3.000   4.158  11.602  0.2235 -0.1531 -0.1798
    9TMC1     H  139   2.832   4.098  11.948 -1.4233  0.1182  0.0105
    9TMC1    H1  140   2.910   4.378  11.618 -0.8920 -0.7843 -0.9323
    9TMC1    H2  141   2.584   4.439  11.891  0.4202  1.3377 -1.4660
    9TMC1    C7  142   2.675   4.504  11.661  1.2058  0.1616 -0.2546
    9TMC1    C8  143   2.692   4.284  12.073 -0.0247 -0.8072  0.3133
    9TMC1    O1  144   2.586   4.580  11.700 -0.4698 -0.0151 -0.0482
    9TMC1    O2  145   2.600   4.344  12.124 -0.1923  0.2756 -0.2438
    9TMC1    O3  146   2.679   4.453  11.537  0.7267 -0.6262  0.1056
    9TMC1    H3  147   2.735   4.373  11.527  1.4305 -0.1326  0.0739
    9TMC1    O5  148   2.807   4.258  12.139  0.1091  0.3995  0.0639
    9TMC1    H5  149   2.873   4.216  12.080  0.3076  1.0160 -0.1451
   10MPD2     C  150   3.124   3.901  11.629  0.0124 -0.0236 -0.6374
   10MPD2    C1  151   3.097   3.943  11.762  0.2647  0.4900 -0.1119
   10MPD2    C2  152   3.162   3.872  11.862 -0.0997  0.5585  0.3488
   10MPD2    C3  153   3.269   3.790  11.832 -0.7513 -0.5334  0.4727
   10MPD2    C4  154   3.304   3.764  11.701 -0.0085 -0.2264  0.2041
   10MPD2    C5  155   3.225   3.811  11.605 -0.3603 -0.3453  0.4404
   10MPD2     H  156   3.151   3.897  11.967  0.5848  1.6390  0.1693
   10MPD2    H1  157   3.387   3.701  11.671 -0.4853 -0.1781 -1.2010
   10MPD2    H2  158   3.070   3.932  11.540 -2.7773  1.7701  1.6879
   10MPD2    H3  159   3.248   3.795  11.501 -1.5027 -3.0267  0.6073
   10MPD2     N  160   3.336   3.728  11.941  0.6059 -0.4994  0.8977
   10MPD2    H5  161   3.300   3.755  12.032 -2.4276  1.8917 -1.0342
   10MPD2    N1  162   3.015   4.043  11.802 -0.3282  0.0405  1.1925
   10MPD2    H7  163   2.991   4.047  11.901 -0.4882  0.4334  1.1364
   11TCq1    O1  164   0.133   4.049  14.698  0.0423 -0.5810 -0.1530
   11TCq1    C1  165   0.060   3.955  14.765 -0.7623 -0.6214 -0.2111
   11TCq1    O2  166   0.082   3.833  14.762  0.0895  0.2902 -0.7292
   11TCq1    C2  167   4.662   4.010  14.757  0.5781  0.7168 -0.1360
   11TCq1    C3  168   4.632   4.144  14.799  0.5171  0.0305 -0.1710
   11TCq1    C4  169   4.499   4.188  14.791 -0.0412  0.4015  0.2851
   11TCq1    C5  170   4.398   4.103  14.745 -0.7377  0.1303  0.3994
   11TCq1    C6  171   4.435   3.978  14.702 -0.0178  0.5676 -0.0781
   11TCq1    C7  172   4.562   3.924  14.715 -0.6849  0.5683  0.0755
   11TCq1    C8  173   4.316   3.900  14.677  0.2440 -0.4093  0.6318
   11TCq1    O4  174   4.209   3.947  14.715  0.1134 -0.5461  0.1136
   11TCq1    C9  175   4.466   4.320  14.833 -0.5087  0.1314 -0.3705
   11TCq1    O5  176   4.342   4.350  14.838  0.4645  0.0484  0.1754
   11TCq1    O6  177   4.560   4.401  14.857  0.2526  0.3157  0.3033
   11TCq1    H1  178   0.094   4.139  14.700  1.0689 -0.1245 -0.7547
   11TCq1    H2  179   4.714   4.203  14.840  2.1560 -1.8532 -0.7252
   11TCq1    H3  180   4.296   4.138  14.755 -0.5705  0.1343  2.0921
   11TCq1    H4  181   4.588   3.821  14.693 -0.9547  0.8337 -1.4862
   12MPD2     C  182   4.104   3.717  14.583 -0.5668  0.1222  0.1141
   12MPD2    C1  183   4.231   3.713  14.533 -0.0109 -0.0524  0.8438
   12MPD2    C2  184   4.269   3.609  14.449  0.1316 -0.7211 -0.2036
   12MPD2    C3  185   4.169   3.523  14.412  0.2045  0.1234  0.2692
   12MPD2    C4  186   4.036   3.535  14.450  0.2710  0.0248 -0.3116
   12MPD2    C5  187   4.007   3.635  14.539  0.5550  0.2635  0.3285
   12MPD2     H  188   4.372   3.597  14.420 -0.0171  1.9698 -1.8643
   12MPD2    H1  189   3.956   3.471  14.415  0.6882 -0.7022  0.0757
   12MPD2    H2  190   4.076   3.781  14.666  0.5882 -0.0924  0.6714
   12MPD2    H3  191   3.902   3.651  14.562  1.2329  1.3305  2.6980
   12MPD2     N  192   4.198   3.409  14.336 -0.9249 -0.1945 -0.0471
   12MPD2    H5  193   4.122   3.357  14.293  1.0794 -2.6403 -0.6168
   12MPD2    N1  194   4.332   3.802  14.580 -0.9093 -0.7056 -0.2586
   12MPD2    H7  195   4.430   3.780  14.561 -1.0287 -2.3319  1.0342
   13TCq1    O1  196   3.632   3.338  11.995  0.1721 -0.5951 -0.4861
   13TCq1    C1  197   3.726   3.377  11.909 -0.2560 -0.3937 -0.9923
   13TCq1    O2  198   3.834   3.423  11.943  0.5040  0.2421  0.1016
   13TCq1    C2  199   3.703   3.339  11.775 -0.9413  0.3436  0.6509
   13TCq1    C3  200   3.811   3.314  11.695  1.0322 -0.1290  0.6658
   13TCq1    C4  201   3.793   3.272  11.566  0.2870 -0.3182  0.0265
   13TCq1    C5  202   3.665   3.267  11.512  0.2009 -0.3348  0.1889
   13TCq1    C6  203   3.558   3.302  11.596 -0.3150  0.0709 -0.6240
   13TCq1    C7  204   3.579   3.340  11.729  0.0894 -1.2834  0.4178
   13TCq1    C8  205   3.420   3.321  11.536  0.6735  0.7369 -0.6121
   13TCq1    O4  206   3.330   3.344  11.616 -0.2613  0.3037  0.3428
   13TCq1    C9  207   3.904   3.232  11.480  0.1871  0.7373 -0.3162
   13TCq1    O5  208   3.873   3.165  11.376 -0.3694 -0.3802 -0.2814
   13TCq1    O6  209   4.019   3.232  11.528  0.6034  0.0494  0.1631
   13TCq1    H1  210   3.543   3.319  11.960 -0.0565 -0.6385  0.1232
   13TCq1    H2  211   3.910   3.311  11.739  0.9640  0.1684  0.8382
   13TCq1    H3  212   3.655   3.245  11.406 -1.1949  0.3286  0.1895
   13TCq1    H4  213   3.496   3.368  11.794 -0.8423 -2.9911 -0.0361
   14MPD2     C  214   3.288   3.351  11.197 -0.0745  0.3748  0.2702
   14MPD2    C1  215   3.295   3.373  11.327  0.1493  0.1322 -0.4110
   14MPD2    C2  216   3.200   3.454  11.391 -0.5965 -0.8139 -0.4219
   14MPD2    C3  217   3.096   3.502  11.318  0.4850  0.4797 -0.2242
   14MPD2    C4  218   3.094   3.478  11.183 -0.1913  0.4060  0.1116
   14MPD2    C5  219   3.195   3.407  11.127  0.1905  0.4811  0.1712
   14MPD2     H  220   3.215   3.481  11.495 -0.0043 -1.6378 -0.2913
   14MPD2    H1  221   3.023   3.515  11.109 -0.7895  1.5941  1.2692
   14MPD2    H2  222   3.362   3.288  11.150  1.4424  1.7768  0.7627
   14MPD2    H3  223   3.189   3.393  11.019 -0.2475 -1.9629  0.5052
   14MPD2     N  224   3.009   3.587  11.386 -0.2124  0.0708  0.2004
   14MPD2    H5  225   3.016   3.595  11.487  1.5804  0.7914  0.0235
   14MPD2    N1  226   3.405   3.315  11.402 -0.5323 -0.5090  0.3055
   14MPD2    H7  227   3.481   3.281  11.344  0.0649 -0.0043  0.7939
   15TCq1    O1  228   0.589   3.215   1.289 -0.6682 -0.0504 -0.5364
   15TCq1    C1  229   0.682   3.266   1.372  0.2712  0.7106 -0.2255
   15TCq1    O2  230   0.691   3.381   1.417 -0.1609  0.1513 -0.1817
   15TCq1    C2  231   0.750   3.165   1.440 -0.0463 -0.6573  0.6656
   15TCq1    C3  232   0.791   3.193   1.569  0.6403  0.7775 -0.0306
   15TCq1    C4  233   0.842   3.093   1.643  0.6069  0.2779  0.1663
   15TCq1    C5  234   0.833   2.963   1.608 -0.1526  0.5049  0.1963
   15TCq1    C6  235   0.774   2.938   1.489  0.2828 -0.0736  0.2933
   15TCq1    C7  236   0.740   3.035   1.402  0.2606 -0.0184 -0.8987
   15TCq1    C8  237   0.758   2.803   1.447 -0.0515  0.3518 -0.9905
   15TCq1    O4  238   0.824   2.720   1.518  0.6316 -0.3138  0.0490
   15TCq1    C9  239   0.907   3.123   1.772  0.5995 -0.4741  0.3479
   15TCq1    O5  240   0.903   3.243   1.813  0.1418 -0.0840 -0.0097
   15TCq1    O6  241   0.987   3.035   1.812 -0.5513 -0.0229 -0.1023
   15TCq1    H1  242   0.581   3.118   1.283 -0.6873 -0.0541 -0.4528
   15TCq1    H2  243   0.802   3.298   1.594 -0.0047  0.5629  1.1045
   15TCq1    H3  244   0.874   2.880   1.664 -0.7644 -0.1907 -0.3877
   15TCq1    H4  245   0.720   3.022   1.296  0.4336 -1.2055 -0.7797
   16MPD2     C  246   0.612   2.652   1.143  0.2318 -0.1203  0.5455
   16MPD2    C1  247   0.683   2.652   1.262 -0.3633  0.0561  0.0351
   16MPD2    C2  248   0.758   2.539   1.303  0.2037  0.1222  0.2811
   16MPD2    C3  249   0.764   2.431   1.223 -0.8899  0.2901 -0.0034
   16MPD2    C4  250   0.680   2.424   1.113 -0.2227  0.7026  0.2017
   16MPD2    C5  251   0.608   2.535   1.069  0.5360  0.0823  0.3336
   16MPD2     H  252   0.819   2.545   1.392 -1.0115  1.9599  1.0043
   16MPD2    H1  253   0.676   2.339   1.046 -1.5239 -0.4294  1.7023
   16MPD2    H2  254   0.555   2.738   1.109  1.0884 -0.2904 -1.3048
   16MPD2    H3  255   0.554   2.525   0.975  0.6043 -1.7780  0.4979
   16MPD2     N  256   0.856   2.331   1.265 -0.2037 -0.2327 -0.6352
   16MPD2    H5  257   0.910   2.356   1.347 -1.5207 -0.4164  0.3005
   16MPD2    N1  258   0.690   2.782   1.327 -0.4518  0.1503  0.7553
   16MPD2    H7  259   0.640   2.862   1.291  0.8281  0.0970 -1.1429
   17TMC1    C1  260   2.491   3.266  10.815 -0.4059  0.2322 -0.6657
   17TMC1    C2  261   2.379   3.331  10.849 -0.4111 -0.6517  0.5536
   17TMC1    C3  262   2.278   3.260  10.910 -0.0762  0.3020  0.2163
   17TMC1    C4  263   2.502   3.128  10.837  0.1831 -0.0825  0.3252
   17TMC1    C5  264   2.399   3.063  10.899 -0.0032  0.3114  0.3792
   17TMC1    C6  265   2.291   3.129  10.946  0.4368  0.8735  1.0920
   17TMC1     C  266   2.606   3.349  10.779 -0.1704  0.2309  0.1420
   17TMC1     O  267   2.584   3.461  10.735  0.2296  0.0305  0.2737
   17TMC1     H  268   2.366   3.438  10.844  0.3026 -0.4713  2.3771
   17TMC1    H1  269   2.596   3.075  10.821  0.8880  1.4059 -0.5102
   17TMC1    H2  270   2.219   3.083  11.013  0.9439 -0.4222  0.7544
   17TMC1    C7  271   2.436   2.929  10.941 -0.2799  0.7147  0.0224
   17TMC1    C8  272   2.157   3.330  10.957 -0.2029 -0.1442 -0.4871
   17TMC1    O1  273   2.550   2.903  10.982 -0.5153  0.3374  0.6559
   17TMC1    O2  274   2.050   3.280  10.981  0.2919  0.7255 -0.1772
   17TMC1    O3  275   2.331   2.865  10.980 -0.0791  0.5065  0.0628
   17TMC1    H3  276   2.261   2.893  10.917  1.0119  0.7875 -1.0517
   17TMC1    O5  277   2.196   3.454  10.998 -0.3751  0.2165 -0.3222
   17TMC1    H5  278   2.291   3.461  11.019  0.1411  1.0004 -2.9584
   18MPD2     C  279   2.869   3.488  10.742 -0.1756  0.1561  0.6799
   18MPD2    C1  280   2.853   3.353  10.767 -0.3369 -0.3728 -0.9014
   18MPD2    C2  281   2.961   3.267  10.759  0.8617  0.6684  0.0870
   18MPD2    C3  282   3.087   3.321  10.728 -0.7002  0.0878 -0.1688
   18MPD2    C4  283   3.101   3.454  10.703  0.0014  0.9189  0.8645
   18MPD2    C5  284   2.994   3.533  10.716  0.1110 -0.0789 -0.6097
   18MPD2     H  285   2.955   3.161  10.783  3.2867  0.1262 -1.7134
   18MPD2    H1  286   3.198   3.489  10.671  0.2501  1.0417  1.7710
   18MPD2    H2  287   2.784   3.556  10.748  0.3108  0.8933 -0.7998
   18MPD2    H3  288   3.013   3.638  10.695  0.2446 -0.2521 -1.3346
   18MPD2     N  289   3.197   3.240  10.725 -0.1172 -0.2746 -0.4060
   18MPD2    H5  290   3.272   3.278  10.669  0.3524  0.0282  0.4243
   18MPD2    N1  291   2.728   3.291  10.792 -0.2674 -0.2344  0.1463
   18MPD2    H7  292   2.733   3.195  10.823  0.7756 -0.4559 -0.6917
   19TMC2    C1  293   0.196   3.684  14.122  0.0287  0.0756 -0.8342
   19TMC2    C2  294   0.078   3.740  14.085  0.3007 -0.1804  0.2847
   19TMC2    C3  295   4.699   3.680  14.131 -0.5260 -0.6832  0.2896
   19TMC2    C4  296   0.209   3.560  14.181  0.3075 -0.2632 -0.4953
   19TMC2    C5  297   0.093   3.513  14.236 -0.1636  0.1905 -0.3716
   19TMC2    C6  298   4.698   3.566  14.217  0.5424  0.6169 -0.0565
   19TMC2     C  299   0.324   3.748  14.088  0.4372  0.1375  0.6725
   19TMC2     O  300   0.334   3.828  13.992 -0.0622  0.4069  1.2675
   19TMC2     H  301   0.089   3.831  14.028 -0.9517 -1.1047 -1.4049
   19TMC2    H1  302   0.303   3.507  14.193  0.7597  0.5424 -0.5055
   19TMC2    H2  303   4.601   3.531  14.251 -0.2402  0.4284 -2.5247
   19TMC2    C7  304   0.103   3.376  14.281  0.0244 -0.6506 -0.3916
   19TMC2    C8  305   4.558   3.723  14.092 -0.4393 -0.0800 -0.1826
   19TMC2    O1  306   0.190   3.305  14.229  0.1088  0.3340 -0.0667
   19TMC2    O2  307   4.458   3.657  14.102 -0.3218  0.4248  0.1128
   19TMC2    O5  308   4.575   3.832  14.012  0.4261  0.8879 -0.2297
   19TMC2    H5  309   4.663   3.874  14.015  0.9472 -0.2130 -0.2035
   20MPD2     C  310   0.602   3.842  14.124 -0.2105  0.1343 -0.0366
   20MPD2    C1  311   0.532   3.783  14.225  0.1145  0.2306 -0.2231
   20MPD2    C2  312   0.599   3.776  14.352  0.5444  0.4490  0.5996
   20MPD2    C3  313   0.730   3.813  14.362 -0.5949  0.2519  0.5026
   20MPD2    C4  314   0.795   3.861  14.250  0.0162  0.3310 -0.1304
   20MPD2    C5  315   0.731   3.875  14.133  0.1184  0.1644  0.0464
   20MPD2     H  316   0.547   3.729  14.435  0.2622 -1.6714 -0.7862
   20MPD2    H1  317   0.901   3.883  14.255  0.5309 -2.5711  1.5883
   20MPD2    H2  318   0.564   3.859  14.024  2.4788  1.3923 -0.8546
   20MPD2    H3  319   0.779   3.915  14.044  0.8090  0.0158  0.3496
   20MPD2     N  320   0.813   3.813  14.477  0.3810  0.1176  0.0516
   20MPD2    H5  321   0.904   3.858  14.479 -0.4844  1.8431  0.4494
   20MPD2    N1  322   0.405   3.730  14.204  0.0852  0.6669  0.6501
   20MPD2    H7  323   0.360   3.689  14.286  2.0742  0.9282  1.8843
   21TMC2    C1  324   2.731   3.581  14.770  0.0399  0.4941  0.0487
   21TMC2    C2  325   2.750   3.462  14.831  0.3011  0.5924  0.8336
   21TMC2    C3  326   2.705   3.438  14.960  0.2088 -0.0444  0.1225
   21TMC2    C4  327   2.679   3.688  14.836  0.9758  1.1081  0.0850
   21TMC2    C5  328   2.644   3.665  14.963 -0.0192 -0.0335 -0.0490
   21TMC2    C6  329   2.649   3.543  15.025  0.1768 -0.2942 -0.3283
   21TMC2     C  330   2.781   3.601  14.633  0.4277  0.3271 -0.3611
   21TMC2     O  331   2.836   3.503  14.584  0.2209  0.1590  0.6331
   21TMC2     H  332   2.824   3.402  14.780 -1.4732 -0.3700 -0.5896
   21TMC2    H1  333   2.695   3.787  14.794  0.7884  1.4012  0.6884
   21TMC2    H2  334   2.612   3.541  15.126  1.9045  1.0406  0.3199
   21TMC2    C7  335   2.597   3.773  15.048 -0.0988 -0.2227  0.1596
   21TMC2    C8  336   2.752   3.323  15.036 -0.4540 -0.5998 -0.0803
   21TMC2    O1  337   2.608   3.753  15.167  0.1306 -0.1735  0.1015
   21TMC2    O2  338   2.846   3.247  15.006  0.0775  0.0154  0.9236
   21TMC2    O5  339   2.653   3.279  15.113  0.4268  0.5598  0.0767
   21TMC2    H5  340   2.563   3.318  15.112  1.1913  2.3675  1.3038
   22MPD2     C  341   2.963   3.925  14.292 -0.2049  0.3325  0.0427
   22MPD2    C1  342   3.001   3.798  14.319  0.5023  0.6342 -0.1709
   22MPD2    C2  343   2.933   3.729  14.418  0.0693 -0.4601 -0.2534
   22MPD2    C3  344   2.821   3.789  14.483  0.4131  0.6400 -1.2987
   22MPD2    C4  345   2.788   3.919  14.461 -0.0360 -0.6010  0.6005
   22MPD2    C5  346   2.860   3.988  14.367  0.3044  0.8752  0.6996
   22MPD2     H  347   2.957   3.626  14.441 -0.1673 -0.7934 -1.5375
   22MPD2    H1  348   2.704   3.953  14.522  0.3569  0.5516  0.4938
   22MPD2    H2  349   3.021   3.981  14.219  1.8385 -1.1503  0.5416
   22MPD2    H3  350   2.825   4.088  14.342 -0.9795  0.1018 -0.6216
   22MPD2     N  351   2.758   3.728  14.591  0.2738 -0.0462 -0.3473
   22MPD2    H5  352   2.683   3.772  14.643  0.8814 -1.1025  1.4160
   22MPD2    N1  353   3.114   3.726  14.255  0.0072  0.3295  0.8534
   22MPD2    H7  354   3.124   3.629  14.281  1.5488  0.0720 -0.7927
   23TMC2    C1  355   4.116   0.086  15.036 -0.1031  0.7742  0.0636
   23TMC2    C2  356   4.142   0.163  14.925  0.0520 -0.3209  0.5847
   23TMC2    C3  357   4.046   0.161  14.821 -0.1152 -0.5073 -0.5249
   23TMC2    C4  358   4.005   0.007  15.042  0.2754  0.0189  0.1388
   23TMC2    C5  359   3.919   4.737  14.935  0.4544 -0.2072  0.5655
   23TMC2    C6  360   3.939   0.083  14.821 -0.0684 -0.0588 -1.0922
   23TMC2     C  361   4.190   0.103  15.154  0.4010  0.7058  0.0502
   23TMC2     O  362   4.162   0.036  15.253  0.4000 -0.6932 -0.0068
   23TMC2     H  363   4.232   0.219  14.901  0.2353  0.3824  2.9396
   23TMC2    H1  364   3.997   4.669  15.120 -1.3640 -0.5132 -0.5329
   23TMC2    H2  365   3.861   0.086  14.746 -0.7635 -0.5654 -0.4000
   23TMC2    C7  366   3.811   4.638  14.937 -0.4810  0.1995 -0.1947
   23TMC2    C8  367   4.061   0.258  14.722  0.1707 -0.2054  0.5625
   23TMC2    O1  368   3.804   4.561  15.035 -0.5539 -0.0150 -0.2051
   23TMC2    O2  369   4.153   0.335  14.724  0.1596 -0.1584 -0.3020
   23TMC2    O5  370   3.989   0.226  14.613 -0.3132  0.0943  0.6179
   23TMC2    H5  371   3.960   0.133  14.615 -0.4361  0.1356  0.8136
   24MPD2     C  372   4.482   0.362  15.480  0.1942 -0.6181  0.1452
   24MPD2    C1  373   4.444   0.227  15.486  0.3369  0.2567  0.8511
   24MPD2    C2  374   4.372   0.185  15.380 -0.0499 -0.7698  0.3374
   24MPD2    C3  375   4.335   0.267  15.274  0.1909 -0.6058 -0.4786
   24MPD2    C4  376   4.396   0.388  15.264  0.3375 -0.1598 -0.1831
   24MPD2    C5  377   4.461   0.439  15.372 -0.0505 -0.4430 -0.7348
   24MPD2     H  378   4.340   0.081  15.377 -0.5205 -0.5595 -2.1690
   24MPD2    H1  379   4.357   0.454  15.188  1.1838 -0.4923 -0.9016
   24MPD2    H2  380   4.539   0.410  15.559 -0.0110 -0.1367  0.0031
   24MPD2    H3  381   4.484   0.545  15.376  0.7875 -0.7264  1.8406
   24MPD2     N  382   4.253   0.227  15.160 -0.1817 -0.0442 -0.8852
   24MPD2    H5  383   4.244   0.289  15.080 -1.1483  2.4128  1.1613
   24MPD2    N1  384   4.468   0.144  15.601  0.0704 -0.0140  0.6502
   24MPD2    H7  385   4.441   0.047  15.589 -2.2900  0.5531  1.4784
   25TMC2    C1  386   3.297   2.680  11.831 -1.5529 -0.2821  0.1687
   25TMC2    C2  387   3.389   2.784  11.840 -0.9306 -0.7936 -0.1984
   25TMC2    C3  388   3.368   2.885  11.923 -0.3462  0.0191 -0.3996
   25TMC2    C4  389   3.192   2.676  11.921  0.2197  0.5090 -0.1176
   25TMC2    C5  390   3.167   2.789  11.994  0.8092 -0.3618  0.1398
   25TMC2    C6  391   3.262   2.890  12.005 -0.2247  0.4044  0.5080
   25TMC2     C  392   3.314   2.575  11.728  0.1391  0.1575  0.5669
   25TMC2     O  393   3.379   2.608  11.627 -0.3876 -0.3632  0.1395
   25TMC2     H  394   3.475   2.789  11.775 -1.7810 -1.3402 -1.3578
   25TMC2    H1  395   3.115   2.600  11.911 -0.2234  0.9462  0.0242
   25TMC2    H2  396   3.250   2.975  12.071 -2.0469  0.0657  0.5961
   25TMC2    C7  397   3.081   2.775  12.112  0.3121 -0.0398 -0.0404
   25TMC2    C8  398   3.459   2.989  11.932  0.3712 -0.7277  0.8025
   25TMC2    O1  399   3.044   2.663  12.142  0.0497  0.3308  0.2713
   25TMC2    O2  400   3.490   3.034  12.044 -0.9058  0.5417 -0.1625
   25TMC2    O5  401   3.525   3.012  11.820 -0.3664 -0.4647 -0.1169
   25TMC2    H5  402   3.482   2.989  11.735  0.5430  0.7146 -0.8994
   26MPD2     C  403   3.212   2.101  11.557  0.4948 -0.2519  0.5570
   26MPD2    C1  404   3.119   2.130  11.649 -0.0952  0.8725  0.6965
   26MPD2    C2  405   3.133   2.250  11.715  0.1155  0.3155 -0.8280
   26MPD2    C3  406   3.234   2.344  11.674 -0.4019  0.1293 -0.4699
   26MPD2    C4  407   3.322   2.317  11.563  0.2053 -0.1670  0.3081
   26MPD2    C5  408   3.318   2.187  11.515  0.0074  0.0833  0.2474
   26MPD2     H  409   3.081   2.281  11.806 -0.0209 -1.9960 -0.1058
   26MPD2    H1  410   3.399   2.384  11.529 -0.0164 -0.8358 -1.4944
   26MPD2    H2  411   3.220   1.998  11.524  0.7532  0.6548 -2.2777
   26MPD2    H3  412   3.384   2.154  11.436 -1.2457 -1.0217 -0.3506
   26MPD2     N  413   3.233   2.469  11.749  0.0545  0.0524  0.3139
   26MPD2    H5  414   3.176   2.474  11.832  0.3338 -0.7021  0.5464
   26MPD2    N1  415   3.017   2.039  11.668  0.1653  0.2362 -0.0963
   26MPD2    H7  416   3.000   1.967  11.598 -1.8832 -0.6316  1.2767
   27TMC2    C1  417   1.875   4.619  12.105  0.3591  0.0660 -0.2953
   27TMC2    C2  418   1.806   4.698  12.024  0.2504  0.8897  0.0223
   27TMC2    C3  419   1.778   0.089  12.062  0.4704 -0.7283 -0.0725
   27TMC2    C4  420   1.953   4.670  12.204 -0.5834 -0.3307  0.0928
   27TMC2    C5  421   1.924   0.061  12.242  0.2750 -0.7026 -0.2634
   27TMC2    C6  422   1.827   0.137  12.180  0.4997 -0.5100  0.4417
   27TMC2     C  423   1.873   4.474  12.084 -0.2466  0.0497 -0.0128
   27TMC2     O  424   1.833   4.432  11.976  0.4574  0.9408  0.0221
   27TMC2     H  425   1.754   4.652  11.941  0.1603  0.6952  0.1852
   27TMC2    H1  426   2.028   4.608  12.253  0.4858  1.8892  1.2778
   27TMC2    H2  427   1.791   0.235  12.213 -0.5012 -1.3957  2.0049
   27TMC2    C7  428   1.956   0.103  12.378  0.1591 -0.8598 -0.0867
   27TMC2    C8  429   1.676   0.171  11.997  0.3289 -0.1308  0.1453
   27TMC2    O1  430   1.991   0.006  12.442 -0.0229 -0.3867  0.0290
   27TMC2    O2  431   1.633   0.271  12.058 -0.4251 -0.3903 -0.5665
   27TMC2    O5  432   1.664   0.149  11.864 -0.4908 -0.1577  0.3197
   27TMC2    H5  433   1.696   0.066  11.822  0.5476  0.4110 -0.0161
   28MPD2     C  434   1.755   4.061  12.364  0.0628 -0.1111  0.2508
   28MPD2    C1  435   1.815   4.160  12.442 -0.4766 -0.1603 -0.2204
   28MPD2    C2  436   1.864   4.272  12.382  0.1268 -0.1071  0.0067
   28MPD2    C3  437   1.855   4.292  12.249 -0.1787  0.9736  0.3906
   28MPD2    C4  438   1.805   4.190  12.177  0.2257  0.9923  0.9468
   28MPD2    C5  439   1.765   4.073  12.230 -0.2165 -0.1129 -0.0259
   28MPD2     H  440   1.919   4.342  12.443  0.5201  0.5838 -1.1517
   28MPD2    H1  441   1.798   4.205  12.070  3.8700  0.0513  0.5760
   28MPD2    H2  442   1.716   3.974  12.416 -0.2080 -0.1433 -0.0033
   28MPD2    H3  443   1.720   4.002  12.162  1.3341 -0.5080 -0.6458
   28MPD2     N  444   1.892   4.415  12.200  0.3405 -0.0993 -0.2479
   28MPD2    H5  445   1.925   4.471  12.278  2.4267 -1.0812 -0.4127
   28MPD2    N1  446   1.803   4.139  12.579 -0.3619  0.1531 -0.2305
   28MPD2    H7  447   1.758   4.055  12.613 -1.4250  1.1877  0.9410
   29TMC2    C1  448   1.976   1.984  14.269  0.8841 -0.7423  0.0275
   29TMC2    C2  449   2.102   1.978  14.222 -0.2508 -0.5584  0.0581
   29TMC2    C3  450   2.175   2.091  14.202  0.1301 -0.4824 -0.3295
   29TMC2    C4  451   1.914   2.104  14.303 -0.3141  0.2315 -0.2499
   29TMC2    C5  452   1.988   2.217  14.281 -0.1746  0.0678 -0.3626
   29TMC2    C6  453   2.117   2.214  14.229  0.0039  0.3747 -0.3206
   29TMC2     C  454   1.892   1.868  14.270 -0.3196  0.4258 -0.1796
   29TMC2     O  455   1.944   1.763  14.305 -0.2439  0.2366 -0.3268
   29TMC2     H  456   2.154   1.883  14.223  1.5023  0.3627 -2.9245
   29TMC2    H1  457   1.812   2.118  14.336  0.1125 -0.8017  1.4847
   29TMC2    H2  458   2.175   2.304  14.211  0.4191  0.1417 -0.1352
   29TMC2    C7  459   1.934   2.338  14.331 -0.0269 -0.7876 -0.3589
   29TMC2    C8  460   2.318   2.087  14.169  0.2982  0.0385 -0.3900
   29TMC2    O1  461   1.810   2.345  14.341 -0.3332 -0.5223 -0.5479
   29TMC2    O2  462   2.378   2.191  14.179  0.3709  0.7036  0.4429
   29TMC2    O5  463   2.355   1.978  14.096  0.2310  0.1752  0.1295
   29TMC2    H5  464   2.280   1.915  14.087  3.4379 -3.4309 -1.1123
   30MPD2     C  465   1.553   1.610  14.009  0.5317  0.2755 -0.2352
   30MPD2    C1  466   1.612   1.574  14.130 -0.2060  0.2818  0.4859
   30MPD2    C2  467   1.684   1.668  14.198 -0.3388  0.4258  2.1639
   30MPD2    C3  468   1.696   1.798  14.140  0.0347 -0.3403  1.0080
   30MPD2    C4  469   1.635   1.833  14.023  0.0189 -0.6902  0.4194
   30MPD2    C5  470   1.557   1.736  13.964  0.3531 -0.5839 -0.1610
   30MPD2     H  471   1.732   1.635  14.290 -1.3133 -4.2158  0.9595
   30MPD2    H1  472   1.651   1.932  13.982  0.1550  0.0527  2.2682
   30MPD2    H2  473   1.500   1.533  13.955  1.8276 -1.0953  0.4618
   30MPD2    H3  474   1.497   1.755  13.875 -0.6781 -0.2439  0.6067
   30MPD2     N  475   1.783   1.890  14.195  0.0291 -0.0901  0.0381
   30MPD2    H5  476   1.781   1.977  14.143 -1.3734  0.2347  0.6478
   30MPD2    N1  477   1.608   1.447  14.185  0.1653  0.2230  0.3404
   30MPD2    H7  478   1.634   1.437  14.283 -1.1462  0.9703  0.7655
   31TMC2    C1  479   4.070   0.639  15.830 -0.1146 -0.6613 -0.3520
   31TMC2    C2  480   3.943   0.611  15.801 -0.6994 -0.1264  0.4052
   31TMC2    C3  481   3.858   0.635  15.909  0.1712  0.0684  0.3526
   31TMC2    C4  482   4.123   0.661  15.955  0.7548 -0.4534  1.4682
   31TMC2    C5  483   4.031   0.679  16.055  0.0348 -0.1376  0.1576
   31TMC2    C6  484   3.896   0.674  16.032  0.1266 -0.3242  0.3449
   31TMC2     C  485   4.151   0.681  15.718  0.3758 -0.0169 -0.4393
   31TMC2     O  486   4.090   0.713  15.613  0.2289  0.0544 -0.3102
   31TMC2     H  487   3.919   0.560  15.709 -0.6723  1.6656 -0.5895
   31TMC2    H1  488   4.230   0.673  15.971  0.6646  3.1756 -0.7055
   31TMC2    H2  489   3.817   0.693  16.104 -0.7765  1.8785 -1.2310
   31TMC2    C7  490   4.081   0.694  16.194  0.6336 -1.0095  0.3048
   31TMC2    C8  491   3.724   0.574  15.898  0.2667 -0.6782  0.5706
   31TMC2    O1  492   4.203   0.679  16.203 -0.4346  0.3287  0.8599
   31TMC2    O2  493   3.660   0.537  15.991  0.0058  0.3880 -0.2172
   31TMC2    O5  494   3.672   0.629  15.786  0.5307  0.3725  0.2463
   31TMC2    H5  495   3.745   0.668  15.733 -0.4418  3.3643  1.1208
   32MPD2     C  496   4.613   0.766  15.501 -0.1489 -0.0555 -0.0411
   32MPD2    C1  497   4.486   0.793  15.459  0.2830 -0.6813  0.2499
   32MPD2    C2  498   4.377   0.750  15.532 -0.1531 -0.5288  0.4197
   32MPD2    C3  499   4.393   0.672  15.645 -0.2127 -0.1318 -0.0843
   32MPD2    C4  500   4.521   0.651  15.691  0.1599 -0.0550 -0.2513
   32MPD2    C5  501   4.632   0.694  15.623 -0.6604  0.4536  0.2578
   32MPD2     H  502   4.279   0.777  15.496 -0.1768 -1.6633 -0.3554
   32MPD2    H1  503   4.545   0.608  15.787  0.8301  0.0491 -0.3685
   32MPD2    H2  504   4.699   0.797  15.444 -0.3249 -0.3437 -0.4647
   32MPD2    H3  505   4.732   0.667  15.656 -0.0524 -0.2686 -2.2554
   32MPD2     N  506   4.286   0.641  15.731  0.0867  0.3280 -0.3725
   32MPD2    H5  507   4.300   0.588  15.817 -0.7467  0.1159 -0.3649
   32MPD2    N1  508   4.468   0.862  15.339 -0.0394 -0.3087 -0.4720
   32MPD2    H7  509   4.554   0.875  15.287  0.1303 -0.0794 -0.1312
   33TMC2    C1  510   3.653   3.262   9.875  0.4330 -0.3934 -0.2679
   33TMC2    C2  511   3.549   3.231   9.788  0.0675  0.1237  0.8934
   33TMC2    C3  512   3.534   3.318   9.679  0.1222 -0.5424 -0.4547
   33TMC2    C4  513   3.736   3.365   9.858  0.2928 -0.9353 -0.5297
   33TMC2    C5  514   3.738   3.433   9.737  1.0053 -0.1002 -0.8663
   33TMC2    C6  515   3.630   3.417   9.652 -0.4128 -0.3528 -0.4296
   33TMC2     C  516   3.662   3.175   9.992 -0.6836  0.6188 -0.8331
   33TMC2     O  517   3.563   3.111  10.026 -0.1405  0.2876 -0.2148
   33TMC2     H  518   3.488   3.142   9.800  0.9937 -0.6212  0.0465
   33TMC2    H1  519   3.810   3.389   9.933 -1.1341 -1.0866  0.9104
   33TMC2    H2  520   3.621   3.466   9.556  1.2660 -2.0217 -1.4579
   33TMC2    C7  521   3.806   3.557   9.742  0.0148  0.1488  0.5455
   33TMC2    C8  522   3.445   3.281   9.567  0.6143 -0.4761 -0.0952
   33TMC2    O1  523   3.890   3.566   9.828  0.6318 -0.2729 -0.0987
   33TMC2    O2  524   3.469   3.309   9.450  0.3734  0.3730  0.4645
   33TMC2    O5  525   3.348   3.194   9.615  0.3598  0.0127  0.1040
   33TMC2    H5  526   3.327   3.213   9.709  1.4843  0.1617  0.3357
   34MPD2     C  527   3.922   2.987  10.404 -0.1335 -0.1947 -0.1930
   34MPD2    C1  528   3.789   3.004  10.377 -0.0908  0.2635  1.0311
   34MPD2    C2  529   3.745   3.060  10.256  0.0410 -0.0226 -0.1669
   34MPD2    C3  530   3.836   3.104  10.163 -0.5298 -0.7345 -0.2624
   34MPD2    C4  531   3.973   3.091  10.190 -0.9392 -0.6371  0.0305
   34MPD2    C5  532   4.010   3.027  10.310  0.0320  0.1876 -0.0713
   34MPD2     H  533   3.640   3.075  10.236  0.7784  2.8294 -1.8251
   34MPD2    H1  534   4.043   3.139  10.123  1.2057  1.3995  3.7306
   34MPD2    H2  535   3.957   2.938  10.494  2.0243  1.4298 -0.1534
   34MPD2    H3  536   4.113   2.999  10.328 -0.9530 -2.7418  0.8864
   34MPD2     N  537   3.794   3.173  10.053 -0.0477  0.2574 -0.0576
   34MPD2    H5  538   3.866   3.218   9.998 -0.5026  0.0864 -0.7933
   34MPD2    N1  539   3.700   3.000  10.483 -0.3811 -0.1161  0.0926
   34MPD2    H7  540   3.738   2.994  10.577 -3.5529  2.0591  1.4915
   35TMC2    C1  541   0.640   4.642  11.394 -0.3138 -0.0861  0.3974
   35TMC2    C2  542   0.610   4.708  11.278 -0.4879 -0.3698 -0.1402
   35TMC2    C3  543   0.506   4.658  11.205  0.2147  0.5345 -0.5695
   35TMC2    C4  544   0.575   4.527  11.433 -0.2187  0.0397 -0.5299
   35TMC2    C5  545   0.478   4.475  11.349  0.3637 -0.3058  0.3311
   35TMC2    C6  546   0.440   4.541  11.236 -0.4993 -0.5497  0.4460
   35TMC2     C  547   0.748   4.698  11.465  0.6683  0.6048  0.1331
   35TMC2     O  548   0.772   0.075  11.428 -0.7959 -0.5921  0.0743
   35TMC2     H  549   0.672   0.049  11.236 -0.1330 -0.4510  0.2351
   35TMC2    H1  550   0.611   4.467  11.515 -0.8569  2.5361  1.5923
   35TMC2    H2  551   0.380   4.499  11.156  1.6766 -0.0271 -1.4686
   35TMC2    C7  552   0.392   4.367  11.397 -0.1031  0.7188  0.7471
   35TMC2    C8  553   0.511   4.695  11.066  0.0326  0.4039  0.5453
   35TMC2    O1  554   0.417   4.307  11.504  0.7704  0.0614  0.3072
   35TMC2    O2  555   0.602   0.019  11.008 -0.4145 -1.0940  0.0443
   35TMC2    O5  556   0.388   4.692  11.003  0.3175 -0.0587  0.8497
   35TMC2    H5  557   0.314   4.669  11.063 -0.7741  0.6006 -0.2576
   36MPD2     C  558   1.178   0.013  11.728 -0.0813  0.1581  0.9245
   36MPD2    C1  559   1.152   4.616  11.731  0.6732 -0.6682 -0.0651
   36MPD2    C2  560   1.033   4.574  11.669 -0.2228  0.4050 -0.3049
   36MPD2    C3  561   0.946   4.665  11.613  0.4940 -0.4644 -0.4547
   36MPD2    C4  562   0.981   0.061  11.617  0.5932  0.1703  0.7711
   36MPD2    C5  563   1.096   0.108  11.680  0.0527  0.2687 -0.5734
   36MPD2     H  564   1.022   4.466  11.665 -0.0444  0.3876 -0.3088
   36MPD2    H1  565   0.919   0.142  11.581 -0.4251 -1.2754 -0.7786
   36MPD2    H2  566   1.276   0.049  11.758  0.4189 -1.2376  1.0089
   36MPD2    H3  567   1.134   0.210  11.678 -1.0334  0.6401 -2.2293
   36MPD2     N  568   0.830   4.614  11.542  0.2034 -0.5498 -0.4584
   36MPD2    H5  569   0.821   4.513  11.530  0.1875 -0.2997 -2.4186
   36MPD2    N1  570   1.253   4.534  11.789  0.0193  0.0039 -0.1546
   36MPD2    H7  571   1.327   4.585  11.836  0.2348 -0.1863 -0.2884
   37TMC2    C1  572   2.651   0.901  11.646  1.2681  0.3205  0.3476
   37TMC2    C2  573   2.575   0.976  11.567 -0.2209 -0.1746  0.5715
   37TMC2    C3  574   2.614   0.987  11.435  0.6366  0.4164  0.4747
   37TMC2    C4  575   2.754   0.823  11.599 -0.0576  0.7285 -0.0794
   37TMC2    C5  576   2.793   0.842  11.472  0.0269 -0.5763  0.5910
   37TMC2    C6  577   2.724   0.931  11.390  0.1314 -0.0749  0.3965
   37TMC2     C  578   2.598   0.876  11.779 -0.1967  0.2649  0.4975
   37TMC2     O  579   2.515   0.956  11.821 -0.1009 -0.2751  0.3934
   37TMC2     H  580   2.484   1.024  11.601  0.6783  0.9472  1.3906
   37TMC2    H1  581   2.800   0.750  11.665 -1.3964  0.6462  0.7632
   37TMC2    H2  582   2.746   0.940  11.284  0.4579  0.7915  0.5401
   37TMC2    C7  583   2.905   0.766  11.419 -0.3789 -0.9942  0.4079
   37TMC2    C8  584   2.555   1.093  11.363 -0.4675 -0.1324  0.4104
   37TMC2    O1  585   2.963   0.686  11.487  0.2062  0.1737  0.3444
   37TMC2    O2  586   2.445   1.136  11.388 -0.7419  0.6814  0.1508
   37TMC2    O5  587   2.652   1.162  11.295 -0.5033  0.4322  0.6930
   37TMC2    H5  588   2.748   1.148  11.311 -0.4201  0.1051 -0.0638
   38MPD2     C  589   2.569   0.560  12.197 -0.1947  0.0234 -0.6062
   38MPD2    C1  590   2.616   0.486  12.088 -0.5286  0.1959 -0.6317
   38MPD2    C2  591   2.633   0.548  11.966  0.7659 -0.1601 -0.7306
   38MPD2    C3  592   2.608   0.685  11.949 -0.4337 -0.5476  0.2917
   38MPD2    C4  593   2.556   0.754  12.053 -0.2788 -0.3618  0.5442
   38MPD2    C5  594   2.532   0.691  12.174  0.0789 -0.0915  0.2796
   38MPD2     H  595   2.643   0.486  11.877  1.2450 -0.2401 -0.6183
   38MPD2    H1  596   2.526   0.858  12.041 -1.7897 -1.0903 -1.8732
   38MPD2    H2  597   2.568   0.531  12.301  0.7009  1.1760 -0.2837
   38MPD2    H3  598   2.500   0.754  12.256 -0.1726  0.7106 -0.4331
   38MPD2     N  599   2.627   0.740  11.822 -0.2301 -0.0325  0.2353
   38MPD2    H5  600   2.681   0.685  11.755 -1.2827 -1.7272  0.7870
   38MPD2    N1  601   2.642   0.347  12.105 -0.0646  0.0447  0.7851
   38MPD2    H7  602   2.693   0.309  12.026 -0.7971  1.6911 -0.4708
   39TMC2    C1  603   1.560   2.044   1.737 -0.3492 -0.2337 -0.4539
   39TMC2    C2  604   1.546   2.127   1.844  0.0057  0.1514  0.2998
   39TMC2    C3  605   1.648   2.151   1.921 -0.3980 -0.9805  0.0900
   39TMC2    C4  606   1.676   1.981   1.715 -0.1224  0.3743 -0.0166
   39TMC2    C5  607   1.793   2.015   1.783 -0.7066  0.5312 -0.0788
   39TMC2    C6  608   1.774   2.100   1.887  0.5567  0.2614  0.5438
   39TMC2     C  609   1.439   1.991   1.679 -0.6344  0.3529 -0.2082
   39TMC2     O  610   1.338   2.053   1.702  0.1969  0.4891 -0.5223
   39TMC2     H  611   1.447   2.164   1.869  0.8597  0.3971  3.2916
   39TMC2    H1  612   1.694   1.919   1.628 -1.5072 -0.4507  0.2790
   39TMC2    H2  613   1.857   2.139   1.944  1.2486  0.3507 -0.5232
   39TMC2    C7  614   1.919   1.939   1.773  0.2701 -0.6591  0.3678
   39TMC2    C8  615   1.645   2.269   2.000  0.4153  0.1151 -0.9491
   39TMC2    O1  616   1.917   1.847   1.696  0.2155  0.2278  0.9060
   39TMC2    O2  617   1.742   2.336   2.027 -0.5398 -0.5164  0.8878
   39TMC2    O5  618   1.544   2.259   2.087  0.6516  0.0821 -0.4425
   39TMC2    H5  619   1.497   2.174   2.075 -3.6793  2.0562  2.5004
   40MPD2     C  620   1.389   1.663   1.514 -0.9109  0.3113  0.7150
   40MPD2    C1  621   1.354   1.793   1.547  0.2357  0.7880  0.5249
   40MPD2    C2  622   1.220   1.835   1.533 -0.1513  0.1712  0.7539
   40MPD2    C3  623   1.128   1.758   1.462 -0.1722 -1.0852  0.3012
   40MPD2    C4  624   1.171   1.635   1.418  0.0831 -0.1762 -0.3613
   40MPD2    C5  625   1.299   1.588   1.444  0.2884 -0.1512  0.0390
   40MPD2     H  626   1.182   1.925   1.578 -0.3574  0.4967 -0.0787
   40MPD2    H1  627   1.106   1.577   1.354 -0.5370 -0.3954  0.4674
   40MPD2    H2  628   1.481   1.612   1.542  0.0370  0.4222 -2.1516
   40MPD2    H3  629   1.331   1.491   1.407  0.0294  0.0592 -0.7349
   40MPD2     N  630   0.990   1.783   1.428  0.0593 -0.0970  0.1128
   40MPD2    H5  631   0.958   1.706   1.371 -0.6034  0.4097 -0.1994
   40MPD2    N1  632   1.454   1.870   1.612 -0.5898  0.8918  0.6117
   40MPD2    H7  633   1.550   1.836   1.605 -0.8505  0.7512 -2.0469
   41TMC2    C1  634   0.342   0.205  13.632  0.3785  0.7903 -0.1709
   41TMC2    C2  635   0.393   0.303  13.716  0.7546 -0.1422  0.1881
   41TMC2    C3  636   0.511   0.360  13.674 -0.1511 -0.5013  0.1015
   41TMC2    C4  637   0.403   0.173  13.513 -0.1240 -0.5501 -0.1645
   41TMC2    C5  638   0.516   0.239  13.473  0.3827  0.2105 -0.1172
   41TMC2    C6  639   0.586   0.327  13.557  0.3274  0.0264 -0.0116
   41TMC2     C  640   0.228   0.121  13.673  1.4230 -0.3433 -0.0154
   41TMC2     O  641   0.177   0.046  13.586 -0.6520  0.4977  0.0962
   41TMC2     H  642   0.340   0.356  13.794  0.7281  2.3489 -1.5416
   41TMC2    H1  643   0.355   0.095  13.454 -1.8481 -0.1611  0.7074
   41TMC2    H2  644   0.685   0.367  13.536  1.2422 -1.3153  1.8090
   41TMC2    C7  645   0.609   0.180  13.372  0.2218  0.2658  1.0852
   41TMC2    C8  646   0.590   0.441  13.768 -0.5683  0.0192  0.0654
   41TMC2    O1  647   0.728   0.206  13.394 -0.2467  0.0784 -0.5651
   41TMC2    O2  648   0.583   0.419  13.891 -0.1466 -0.3406  0.1553
   41TMC2    O5  649   0.572   0.563  13.715 -0.0794  0.4534  0.0071
   41TMC2    H5  650   0.537   0.544  13.625  2.6166 -2.4436 -0.4464
   42MPD2     C  651   0.028   4.684  13.833  0.1522  0.1116  0.3406
   42MPD2    C1  652   0.108   0.049  13.882 -0.4302  0.8495  0.3698
   42MPD2    C2  653   0.105   0.073  14.015 -0.6167  0.8642  0.1388
   42MPD2    C3  654   0.034   4.735  14.103  0.2862 -0.3736 -0.0745
   42MPD2    C4  655   4.699   4.633  14.051  0.3921 -0.2711 -0.0522
   42MPD2    C5  656   4.696   4.607  13.920 -0.4244 -0.5410  0.4331
   42MPD2     H  657   0.178   0.146  14.048  1.1852  0.0157 -1.8994
   42MPD2    H1  658   4.628   4.572  14.105 -0.0094  1.2273  1.0972
   42MPD2    H2  659   0.007   4.667  13.728  0.1127 -1.7340  0.6429
   42MPD2    H3  660   4.646   4.519  13.880  1.5385 -2.8133  3.0391
   42MPD2     N  661   0.021   0.028  14.241  0.2231 -0.6999 -0.0981
   42MPD2    H5  662   4.714   4.697  14.303  0.1061  2.5336  3.3345
   42MPD2    N1  663   0.200   0.126  13.807 -0.8635  0.6776 -0.0113
   42MPD2    H7  664   0.254   0.194  13.860 -0.5826  0.3355  0.1479
   43TMC2    C1  665   1.807   2.974   1.014  0.1779  0.2231 -0.7897
   43TMC2    C2  666   1.673   3.010   1.023 -0.7415 -0.1785  0.9467
   43TMC2    C3  667   1.622   3.089   1.123  0.5271  0.1034 -0.2581
   43TMC2    C4  668   1.886   2.996   1.126  0.8647  0.1791  0.0049
   43TMC2    C5  669   1.831   3.077   1.230  0.6407  0.2795  0.4869
   43TMC2    C6  670   1.699   3.120   1.227  0.7012  0.8249  0.7942
   43TMC2     C  671   1.869   2.893   0.905 -0.3323  0.5780 -0.3539
   43TMC2     O  672   1.973   2.837   0.928  0.8864 -0.0689 -0.2315
   43TMC2     H  673   1.618   3.010   0.930  0.4338  0.0475  0.2516
   43TMC2    H1  674   1.987   2.957   1.122  1.6712  2.4131 -1.4713
   43TMC2    H2  675   1.656   3.186   1.301 -0.4703 -0.1310  0.9752
   43TMC2    C7  676   1.924   3.142   1.316 -0.0641  0.2875 -0.6188
   43TMC2    C8  677   1.486   3.129   1.120  0.1418  0.5344 -0.7732
   43TMC2    O1  678   2.030   3.091   1.331  0.5970 -0.4762  0.2178
   43TMC2    O2  679   1.441   3.221   1.188 -0.2025 -0.0054 -0.3270
   43TMC2    O5  680   1.407   3.051   1.039 -0.1413 -0.7054  0.5221
   43TMC2    H5  681   1.451   2.976   0.994 -0.2557 -0.6883  0.3829
   44MPD2     C  682   1.885   2.718   0.426  0.0836 -0.3021  0.5389
   44MPD2    C1  683   1.972   2.703   0.535  0.2411 -0.0325  0.1316
   44MPD2    C2  684   1.935   2.743   0.656 -0.1181 -0.0667 -0.2136
   44MPD2    C3  685   1.820   2.816   0.673  0.4390 -0.2389 -0.2269
   44MPD2    C4  686   1.724   2.830   0.570 -0.2247  0.4564  0.3722
   44MPD2    C5  687   1.763   2.782   0.445  0.6312 -0.3450  0.2453
   44MPD2     H  688   2.011   2.730   0.733 -0.3642 -0.5479 -0.0491
   44MPD2    H1  689   1.628   2.878   0.584  0.5827  1.5150  2.3147
   44MPD2    H2  690   1.900   2.672   0.329  0.7918  0.4871  0.2707
   44MPD2    H3  691   1.696   2.797   0.361  0.2428 -2.2426  0.2040
   44MPD2     N  692   1.794   2.892   0.791 -0.1423  0.4526  0.0204
   44MPD2    H5  693   1.709   2.947   0.785  0.8092  1.7946 -1.3199
   44MPD2    N1  694   2.101   2.646   0.519  0.6109  0.1901  0.0267
   44MPD2    H7  695   2.173   2.647   0.591  0.5090  0.6951  0.1263
   45TMC2    C1  696   2.682   0.061  10.215 -1.1921 -0.4991  0.0359
   45TMC2    C2  697   2.780   4.727  10.280 -0.2897  0.4050  0.5401
   45TMC2    C3  698   2.865   0.055  10.363  0.1446  0.2213  0.6359
   45TMC2    C4  699   2.668   0.196  10.228 -0.3048  0.3055 -0.3191
   45TMC2    C5  700   2.759   0.264  10.307 -0.0514  0.0324 -0.4945
   45TMC2    C6  701   2.859   0.191  10.371 -0.6163 -0.0387 -0.2226
   45TMC2     C  702   2.595   4.720  10.130  0.5876 -0.0177 -0.2610
   45TMC2     O  703   2.588   4.603  10.164 -0.7054  0.7144  0.0993
   45TMC2     H  704   2.801   4.622  10.264  1.7599  0.7643  0.8679
   45TMC2    H1  705   2.582   0.240  10.180 -0.5893 -1.2360 -1.2129
   45TMC2    H2  706   2.917   0.239  10.449  0.4942  1.9777 -2.2699
   45TMC2    C7  707   2.747   0.405  10.332  0.1588 -0.2928 -0.3067
   45TMC2    C8  708   2.905   4.723  10.488  0.4532  0.7688 -0.4851
   45TMC2    O1  709   2.794   0.431  10.443  0.3358  0.0553 -0.2051
   45TMC2    O2  710   2.977   0.042  10.572  0.2766  0.5225 -0.4410
   45TMC2    O5  711   2.787   4.671  10.518 -0.1171  0.1835  0.6951
   45TMC2    H5  712   2.735   4.634  10.443 -1.6127  1.0684  1.3149
   46MPD2     C  713   2.449   4.588   9.906  0.5163  0.0679 -0.4122
   46MPD2    C1  714   2.481   4.722   9.919  0.5104  0.3571  0.6618
   46MPD2    C2  715   2.422   0.069   9.823  0.2899 -0.0202 -0.7478
   46MPD2    C3  716   2.333   0.034   9.725 -0.0623 -0.4071  0.6001
   46MPD2    C4  717   2.316   4.634   9.701  0.0050  0.5076  0.2083
   46MPD2    C5  718   2.379   4.553   9.792  0.0146  0.4841  0.2564
   46MPD2     H  719   2.439   0.175   9.833  0.6769  0.0119 -1.7203
   46MPD2    H1  720   2.256   4.595   9.620  0.1633 -1.5392  1.0782
   46MPD2    H2  721   2.486   4.518   9.980 -1.7763  0.6461  1.2782
   46MPD2    H3  722   2.378   4.447   9.769  0.0640  0.2699  1.2298
   46MPD2     N  723   2.276   0.132   9.647 -0.0198  0.2365  0.6245
   46MPD2    H5  724   2.299   0.227   9.676  0.0500  0.2805  0.4245
   46MPD2    N1  725   2.553   0.053  10.019 -0.6862  0.6815  0.4583
   46MPD2    H7  726   2.579   0.150  10.003 -1.6765  1.0998  1.3635
   47TMC2    C1  727   4.223   1.168   9.713 -0.0710  0.3920 -0.6449
   47TMC2    C2  728   4.177   1.281   9.652  0.2994 -0.1885  0.2623
   47TMC2    C3  729   4.078   1.270   9.560 -0.8313 -0.6568  0.5068
   47TMC2    C4  730   4.162   1.046   9.687 -0.1993 -0.5460 -0.8783
   47TMC2    C5  731   4.069   1.043   9.585  0.0197  0.2945 -0.5348
   47TMC2    C6  732   4.015   1.157   9.526 -0.0179 -0.6865  0.1077
   47TMC2     C  733   4.320   1.182   9.820  0.0160  0.0134 -0.3008
   47TMC2     O  734   4.366   1.294   9.841  0.5762 -0.4147 -0.0702
   47TMC2     H  735   4.208   1.384   9.666  1.0203 -0.2305 -0.9811
   47TMC2    H1  736   4.192   0.951   9.730  0.9422  0.1621 -0.0923
   47TMC2    H2  737   3.928   1.155   9.461 -0.9222  1.0348  1.2919
   47TMC2    C7  738   4.003   0.920   9.552 -0.3704 -0.6245 -0.7150
   47TMC2    C8  739   4.025   1.392   9.510 -0.4009 -0.8981 -0.1882
   47TMC2    O1  740   4.001   0.833   9.637 -0.6091  0.0381  0.5996
   47TMC2    O2  741   4.037   1.501   9.566 -0.1432 -0.4535 -0.3216
   47TMC2    O5  742   3.980   1.370   9.384 -0.0313  0.0044 -0.4615
   47TMC2    H5  743   4.002   1.280   9.351  1.5988  0.6035 -1.0128
   48MPD2     C  744   4.511   1.146  10.054 -0.3316  0.0810 -0.1140
   48MPD2    C1  745   4.468   1.045   9.968 -0.2283  0.5153 -0.5222
   48MPD2    C2  746   4.507   0.915   9.993 -1.0171 -0.0324  0.1791
   48MPD2    C3  747   4.606   0.881  10.084 -0.4331 -0.0748 -0.2878
   48MPD2    C4  748   4.655   0.981  10.159  0.0179  0.0112 -0.8516
   48MPD2    C5  749   4.616   1.113  10.135 -0.2950 -0.4887  0.1651
   48MPD2     H  750   4.470   0.836   9.929  0.6632  0.5175 -1.4880
   48MPD2    H1  751   4.731   0.970  10.236  1.5671 -0.3943 -2.4454
   48MPD2    H2  752   4.462   1.243  10.052  1.3910  0.9606 -0.1283
   48MPD2    H3  753   4.640   1.187  10.210 -0.2074 -0.5039  0.1516
   48MPD2     N  754   4.632   0.745  10.107 -0.2208  0.1304  0.7484
   48MPD2    H5  755   4.569   0.678  10.065  1.4548  0.0936 -1.6854
   48MPD2    N1  756   4.363   1.060   9.874  0.4086 -0.5289  0.2009
   48MPD2    H7  757   4.316   0.974   9.847 -1.2824 -0.2770  2.3380
   49TMC2    C1  758   2.872   2.568  10.484 -0.4730  0.6987  0.2573
   49TMC2    C2  759   2.818   2.646  10.391  0.5268  0.5101 -0.1892
   49TMC2    C3  760   2.686   2.616  10.362  0.0010 -0.1781 -0.2294
   49TMC2    C4  761   2.822   2.460  10.545  0.2172 -0.1576 -0.2815
   49TMC2    C5  762   2.687   2.438  10.518 -0.1101 -0.1293 -0.0063
   49TMC2    C6  763   2.621   2.511  10.426  0.6830  0.4001  0.0508
   49TMC2     C  764   3.013   2.575  10.499 -0.6945  0.1043 -0.1690
   49TMC2     O  765   3.072   2.611  10.398 -0.3988  0.2801 -0.0629
   49TMC2     H  766   2.869   2.732  10.349  1.5143  0.6028  1.2170
   49TMC2    H1  767   2.875   2.394  10.612  0.3864  0.2884  0.0264
   49TMC2    H2  768   2.516   2.492  10.411  0.7299 -0.9182  1.3788
   49TMC2    C7  769   2.623   2.324  10.571  0.5600  0.3545 -0.4761
   49TMC2    C8  770   2.646   2.652  10.229 -0.1481 -0.6455 -0.0281
   49TMC2    O1  771   2.531   2.278  10.509  0.1463  0.2719  0.2373
   49TMC2    O2  772   2.679   2.752  10.165  0.4424  0.1167 -0.4976
   49TMC2    O5  773   2.578   2.554  10.174 -0.7911 -0.4739 -0.5260
   49TMC2    H5  774   2.563   2.483  10.240 -0.3490 -1.0853 -1.0878
   50MPD2     C  775   3.288   2.629  10.617  0.7387 -0.3903  0.3749
   50MPD2    C1  776   3.174   2.613  10.692 -0.1228 -0.6519  0.0546
   50MPD2    C2  777   3.174   2.607  10.832  0.1098 -0.4200 -0.3602
   50MPD2    C3  778   3.291   2.621  10.895  0.3328 -0.3244  0.2393
   50MPD2    C4  779   3.409   2.639  10.826  0.7751 -0.2618  0.7366
   50MPD2    C5  780   3.407   2.642  10.689  0.4536  0.4268  0.5455
   50MPD2     H  781   3.077   2.609  10.881 -1.2336  0.4333 -3.0429
   50MPD2    H1  782   3.504   2.648  10.878  0.9946  0.5377  0.2056
   50MPD2    H2  783   3.288   2.646  10.510  1.9204  1.8486  0.7357
   50MPD2    H3  784   3.498   2.653  10.633  0.2786 -3.9792 -0.5809
   50MPD2     N  785   3.290   2.633  11.039 -0.5009 -0.6558  0.1880
   50MPD2    H5  786   3.380   2.666  11.072 -0.5251  1.8235 -2.2052
   50MPD2    N1  787   3.048   2.582  10.634  0.5386  0.8471  0.3684
   50MPD2    H7  788   2.968   2.577  10.695  0.7240 -2.3132  0.3650
   51TMC2    C1  789   2.592   1.915   1.957 -0.6701  0.1163  0.0982
   51TMC2    C2  790   2.501   2.000   2.017 -0.0282  0.0529 -0.2116
   51TMC2    C3  791   2.522   2.135   2.015  0.4024 -0.1436  1.0156
   51TMC2    C4  792   2.711   1.964   1.902  0.3484  0.7749 -0.1480
   51TMC2    C5  793   2.726   2.102   1.909  0.5301  0.2565 -0.0841
   51TMC2    C6  794   2.622   2.189   1.944  0.0486 -0.0872 -0.5182
   51TMC2     C  795   2.589   1.771   1.970 -0.1786  0.6065  0.3345
   51TMC2     O  796   2.659   1.714   1.893 -0.1959  0.3606  0.1454
   51TMC2     H  797   2.409   1.959   2.056 -0.6784  1.2106 -0.5355
   51TMC2    H1  798   2.793   1.893   1.891 -0.7142 -0.2414 -1.4754
   51TMC2    H2  799   2.621   2.297   1.939  0.6656 -0.0065  1.1555
   51TMC2    C7  800   2.842   2.160   1.839 -0.5747 -0.2445  0.6317
   51TMC2    C8  801   2.412   2.216   2.065  0.8567  0.0650 -0.0614
   51TMC2    O1  802   2.908   2.080   1.775  0.3086 -0.4324  0.2917
   51TMC2    O2  803   2.305   2.171   2.083  0.1549  1.1021 -0.6027
   51TMC2    O5  804   2.471   2.317   2.129  0.1337  0.0606  0.2305
   51TMC2    H5  805   2.564   2.327   2.100  0.6666 -1.1612  1.4797
   52MPD2     C  806   2.333   1.342   2.089 -0.6581 -0.3219 -0.2396
   52MPD2    C1  807   2.437   1.360   2.005  0.2643  0.6375  0.3001
   52MPD2    C2  808   2.479   1.486   1.986 -0.8242  0.8540 -0.2065
   52MPD2    C3  809   2.435   1.596   2.060 -0.3934  0.2553  0.0657
   52MPD2    C4  810   2.336   1.568   2.148  0.4616 -0.1365 -0.8049
   52MPD2    C5  811   2.291   1.440   2.167 -0.8703 -0.0722 -0.4010
   52MPD2     H  812   2.561   1.509   1.920 -1.0009 -0.6597 -0.9559
   52MPD2    H1  813   2.295   1.645   2.213  1.2219 -0.6098  0.2549
   52MPD2    H2  814   2.279   1.250   2.110  1.9436 -2.0482 -1.1050
   52MPD2    H3  815   2.224   1.428   2.251  0.7873  0.8134  1.0490
   52MPD2     N  816   2.484   1.725   2.052  0.1695  1.0455  0.1403
   52MPD2    H5  817   2.431   1.796   2.102 -0.5442  0.7622 -0.2203
   52MPD2    N1  818   2.498   1.263   1.929 -0.3916  0.2812 -0.3207
   52MPD2    H7  819   2.568   1.295   1.863 -2.1001  2.7049 -0.9433
   53TMC2    C1  820   3.572   0.496  11.209  0.4653 -0.2483 -0.5970
   53TMC2    C2  821   3.643   0.389  11.165 -0.2899  0.1471  0.5014
   53TMC2    C3  822   3.714   0.320  11.261  0.2609  0.1564  0.1821
   53TMC2    C4  823   3.565   0.532  11.341  0.1241 -0.3416  1.0676
   53TMC2    C5  824   3.647   0.471  11.424  0.2924  0.7519 -0.4392
   53TMC2    C6  825   3.709   0.354  11.396 -0.0476 -0.3176  0.8564
   53TMC2     C  826   3.449   0.517  11.126 -0.4659 -0.1241  0.2890
   53TMC2     O  827   3.443   0.463  11.019 -0.5152 -0.1245  0.2834
   53TMC2     H  828   3.640   0.352  11.064 -0.9717  0.3288  0.4537
   53TMC2    H1  829   3.527   0.625  11.383 -0.6810 -0.2232  0.1132
   53TMC2    H2  830   3.793   0.324  11.458  1.2435  2.2323  0.3616
   53TMC2    C7  831   3.604   0.481  11.559 -0.0824 -0.1301 -0.2728
   53TMC2    C8  832   3.793   0.215  11.208  0.9775  0.1826 -0.3695
   53TMC2    O1  833   3.489   0.515  11.588  0.5592  0.2624  0.1979
   53TMC2    O2  834   3.803   0.203  11.085 -0.9632  0.1287 -0.8126
   53TMC2    O5  835   3.775   0.105  11.287 -0.2174  0.4282 -0.4127
   53TMC2    H5  836   3.766   0.122  11.383  0.2290 -2.3285  0.1153
   54MPD2     C  837   3.210   0.621  11.009  0.5601  0.4512  0.9889
   54MPD2    C1  838   3.231   0.616  11.146  0.0096 -0.0215 -0.0531
   54MPD2    C2  839   3.137   0.669  11.234  0.8174 -0.0252  0.5191
   54MPD2    C3  840   3.015   0.713  11.192  0.4165 -0.2087  0.2430
   54MPD2    C4  841   3.000   0.722  11.053  0.6739 -0.5657  0.0432
   54MPD2    C5  842   3.093   0.681  10.964  0.0280  0.0612 -0.3974
   54MPD2     H  843   3.161   0.671  11.340  1.7370 -2.8861  0.3572
   54MPD2    H1  844   2.906   0.763  11.017  0.2439 -0.2896  1.4809
   54MPD2    H2  845   3.282   0.584  10.937  0.6082  2.0834  0.1819
   54MPD2    H3  846   3.074   0.670  10.858 -0.5194  2.0726 -0.5003
   54MPD2     N  847   2.915   0.773  11.279  0.6990  0.4211  0.0722
   54MPD2    H5  848   2.864   0.848  11.233  2.5509  0.4229 -2.0163
   54MPD2    N1  849   3.352   0.573  11.203 -0.2944  0.2382  0.3119
   54MPD2    H7  850   3.364   0.580  11.303 -2.0169  1.0668  0.4493
   55TMC2    C1  851   4.415   3.023   0.156 -0.4285 -0.1275  0.5935
   55TMC2    C2  852   4.474   3.031   0.027 -0.1091  0.4781  0.0329
   55TMC2    C3  853   4.563   2.940  17.728 -0.7204  0.2907  0.5378
   55TMC2    C4  854   4.445   2.917   0.237 -0.0648  0.1987 -0.0221
   55TMC2    C5  855   4.524   2.824   0.180  0.4406 -0.3536  0.1719
   55TMC2    C6  856   4.596   2.841   0.062  0.5678 -0.1182 -0.0354
   55TMC2     C  857   4.341   3.135   0.219  0.1865  0.4206 -0.0759
   55TMC2     O  858   4.297   3.112   0.330 -0.1732 -0.2787  0.3224
   55TMC2     H  859   4.449   3.114  17.708  1.5580  0.3692 -0.7482
   55TMC2    H1  860   4.397   2.904   0.334 -0.7765 -0.8905 -0.5220
   55TMC2    H2  861   4.663   2.769   0.016  0.3120 -0.6137  0.3708
   55TMC2    C7  862   4.540   2.697   0.238 -0.0381  0.8913  0.2118
   55TMC2    C8  863   4.685   2.999  17.684 -0.1006 -0.3648 -0.1929
   55TMC2    O1  864   4.610   2.625   0.172  0.0704  0.4339 -0.2206
   55TMC2    O2  865   0.062   3.006  17.732  0.3474  0.5111  0.5834
   55TMC2    O5  866   4.647   3.047  17.565  0.0008 -0.4315 -0.2177
   55TMC2    H5  867   4.564   3.007  17.533 -0.0357 -1.1299  0.7662
   56MPD2     C  868   4.234   3.458   0.047 -0.9151  0.6203  0.6755
   56MPD2    C1  869   4.242   3.360   0.146  0.0164 -0.2383 -0.2843
   56MPD2    C2  870   4.169   3.378   0.262 -0.4759 -0.5029 -0.5454
   56MPD2    C3  871   4.096   3.492   0.287  0.2113  0.1673 -0.2425
   56MPD2    C4  872   4.072   3.580   0.188  0.1585  0.0383 -0.2754
   56MPD2    C5  873   4.147   3.559   0.073 -0.0246 -0.4495  0.3874
   56MPD2     H  874   4.172   3.306   0.343 -1.7392 -0.9748 -0.9177
   56MPD2    H1  875   4.008   3.667   0.195 -2.5530 -2.2204  3.0433
   56MPD2    H2  876   4.284   3.458  17.697  0.7643 -2.8844  1.5296
   56MPD2    H3  877   4.133   3.639   0.001 -0.6988 -0.3166  0.6662
   56MPD2     N  878   4.043   3.499   0.419  0.5047 -0.0305  0.1839
   56MPD2    H5  879   4.078   3.437   0.491  2.0159 -0.6388 -1.0824
   56MPD2    N1  880   4.326   3.244   0.129 -0.1402 -0.0513 -0.6004
   56MPD2    H7  881   4.381   3.243   0.044  0.3879  0.0944 -0.2619
   57TMC2    C1  882   3.782   3.904  14.068 -0.3099 -0.1900  0.7803
   57TMC2    C2  883   3.800   3.787  14.137 -0.2211 -0.1526 -0.7158
   57TMC2    C3  884   3.846   3.685  14.058  0.5212 -0.0601  0.3092
   57TMC2    C4  885   3.831   3.919  13.942  0.3115 -0.3453 -0.3887
   57TMC2    C5  886   3.886   3.818  13.879 -0.1940  0.2909  0.3283
   57TMC2    C6  887   3.896   3.693  13.936  0.2985 -0.1323 -0.1494
   57TMC2     C  888   3.692   4.004  14.123  0.3108  0.5851  0.1278
   57TMC2     O  889   3.644   4.085  14.045 -0.0181  0.1695  0.0860
   57TMC2     H  890   3.766   3.773  14.239  2.2475  0.8425  0.2607
   57TMC2    H1  891   3.821   4.017  13.896 -0.2876 -0.7233 -1.0652
   57TMC2    H2  892   3.931   3.600  13.892 -2.3543 -1.2710  0.1608
   57TMC2    C7  893   3.941   3.844  13.748  0.3028  0.2866  0.3604
   57TMC2    C8  894   3.862   3.555  14.120 -0.3922 -0.2040  1.1183
   57TMC2    O1  895   3.901   3.939  13.686  0.1183 -0.0273 -0.6118
   57TMC2    O2  896   3.776   3.498  14.191 -0.1163 -0.2587 -0.3124
   57TMC2    O5  897   3.992   3.522  14.122  0.2446 -0.0495 -0.7561
   57TMC2    H5  898   4.042   3.597  14.084  0.3289  0.6976  0.8072
   58MPD2     C  899   3.391   4.212  14.492  0.5709  0.1133 -0.8384
   58MPD2    C1  900   3.376   4.217  14.357 -0.0408 -0.0070  0.5352
   58MPD2    C2  901   3.470   4.150  14.274  0.3675  0.5953  0.9944
   58MPD2    C3  902   3.578   4.077  14.329 -0.5113 -0.6934  0.1217
   58MPD2    C4  903   3.580   4.070  14.467  0.1774 -0.2081 -0.0713
   58MPD2    C5  904   3.495   4.139  14.545 -0.1796  0.3804  0.2787
   58MPD2     H  905   3.444   4.145  14.168 -1.3058  0.9293  1.3887
   58MPD2    H1  906   3.655   4.008  14.515 -0.3821 -0.9571 -0.1704
   58MPD2    H2  907   3.328   4.256  14.569  0.4801 -1.9095  0.2664
   58MPD2    H3  908   3.513   4.130  14.652 -0.4084 -2.5757  0.0665
   58MPD2     N  909   3.671   4.001  14.257 -0.3910 -0.1806 -0.3889
   58MPD2    H5  910   3.739   3.938  14.298 -2.4480 -1.5026  0.9677
   58MPD2    N1  911   3.276   4.287  14.289 -0.0850 -0.5751 -0.2602
   58MPD2    H7  912   3.270   4.274  14.188 -1.7916 -1.5207 -0.0361
   59TMC2    C1  913   1.575   3.731  12.951 -0.6928  0.0495 -0.2558
   59TMC2    C2  914   1.687   3.658  12.997 -0.0245  0.6960 -0.5757
   59TMC2    C3  915   1.748   3.584  12.902 -0.2151  0.0016 -0.1417
   59TMC2    C4  916   1.533   3.731  12.821 -0.1019  0.3549 -0.3360
   59TMC2    C5  917   1.596   3.652  12.738 -0.3210  0.1487 -0.3856
   59TMC2    C6  918   1.701   3.573  12.775 -0.0102 -0.0912  0.1579
   59TMC2     C  919   1.504   3.809  13.050 -0.0390  0.3267 -0.1529
   59TMC2     O  920   1.386   3.840  13.023 -0.3423  1.1549 -0.2144
   59TMC2     H  921   1.710   3.652  13.103  0.9220  1.0977 -0.7622
   59TMC2    H1  922   1.449   3.795  12.796  0.8183  1.8033  0.2513
   59TMC2    H2  923   1.742   3.506  12.700  2.0140  2.2437 -0.8212
   59TMC2    C7  924   1.567   3.663  12.597  0.2117  0.0470 -0.6304
   59TMC2    C8  925   1.840   3.487  12.962 -0.2133  0.3299  0.2574
   59TMC2    O1  926   1.610   3.569  12.529 -0.1358 -0.3494  0.2308
   59TMC2    O2  927   1.796   3.438  13.065  0.4864 -0.2777  0.1801
   59TMC2    O5  928   1.913   3.423  12.867  0.0361 -0.2300  0.1422
   59TMC2    H5  929   1.940   3.482  12.793  0.8151 -0.0423  0.5736
   60MPD2     C  930   1.401   3.882  13.325 -0.3755 -0.8304  0.1263
   60MPD2    C1  931   1.534   3.886  13.283  0.2827  0.2973  0.0567
   60MPD2    C2  932   1.627   3.938  13.375  0.1701 -0.0788 -0.1865
   60MPD2    C3  933   1.591   4.001  13.488  0.0165 -0.1898 -0.6166
   60MPD2    C4  934   1.462   3.988  13.535  0.3761  0.0278  0.2697
   60MPD2    C5  935   1.372   3.917  13.458  1.2177 -0.0818 -0.2821
   60MPD2     H  936   1.728   3.953  13.337 -0.2506  3.9947  0.3058
   60MPD2    H1  937   1.437   4.033  13.630 -3.2908 -0.3604 -0.5122
   60MPD2    H2  938   1.322   3.843  13.262 -1.4370  0.4779  0.6637
   60MPD2    H3  939   1.267   3.908  13.485  1.1847 -1.8623 -1.0033
   60MPD2     N  940   1.675   4.088  13.571  0.2415  0.0204  0.2202
   60MPD2    H5  941   1.633   4.120  13.658 -1.2288  0.9473 -0.8155
   60MPD2    N1  942   1.587   3.843  13.158 -0.8013  0.3541  0.0216
   60MPD2    H7  943   1.688   3.836  13.152 -0.9934 -1.6936 -0.6164
   61TMC2    C1  944   0.919   0.557  15.628 -0.1779  0.1410  0.3178
   61TMC2    C2  945   0.885   0.518  15.754  0.4292  0.8259  0.0550
   61TMC2    C3  946   0.802   0.596  15.830  0.7402  0.4941  0.4728
   61TMC2    C4  947   0.864   0.671  15.579  0.3442  0.2450 -0.3524
   61TMC2    C5  948   0.776   0.747  15.656  0.3663  0.4165  1.2713
   61TMC2    C6  949   0.745   0.713  15.778 -0.5412 -0.1617  0.9303
   61TMC2     C  950   0.978   0.457  15.546  0.8175 -0.3335 -0.3080
   61TMC2     O  951   1.006   0.351  15.596  0.1894  0.6672 -0.1247
   61TMC2     H  952   0.938   0.439  15.806  0.2848 -0.0770 -1.1683
   61TMC2    H1  953   0.882   0.708  15.478  1.0101 -0.5734 -0.5328
   61TMC2    H2  954   0.682   0.785  15.830  0.5824  0.8363  0.9156
   61TMC2    C7  955   0.730   0.874  15.605 -0.4378 -0.1957 -0.1234
   61TMC2    C8  956   0.767   0.568  15.971  0.3542 -0.3109  0.5827
   61TMC2    O1  957   0.785   0.910  15.500  0.3488  0.9126  0.1670
   61TMC2    O2  958   0.788   0.456  16.010  0.0396  0.7684 -0.3447
   61TMC2    O5  959   0.775   0.672  16.051  0.2825  0.2402 -0.0449
   61TMC2    H5  960   0.773   0.767  16.025 -0.9833  0.0218 -0.7503
   62MPD2     C  961   1.031   0.298  15.294 -0.0390  0.3312  0.7500
   62MPD2    C1  962   1.043   0.434  15.297  0.0746 -0.4574 -0.9156
   62MPD2    C2  963   1.081   0.498  15.190  1.2092 -0.1165 -0.3803
   62MPD2    C3  964   1.108   0.435  15.071 -0.0905 -0.0369 -0.6690
   62MPD2    C4  965   1.086   0.300  15.064  0.2571  0.2133  0.3156
   62MPD2    C5  966   1.049   0.230  15.176  0.6249  0.2053 -0.5512
   62MPD2     H  967   1.100   0.605  15.195 -0.8769  0.1883  1.3380
   62MPD2    H1  968   1.094   0.241  14.974 -2.0961 -0.1120  0.3220
   62MPD2    H2  969   1.016   0.239  15.384  1.9729 -0.0123  0.8515
   62MPD2    H3  970   1.040   0.122  15.172 -0.4360  0.3256 -1.6060
   62MPD2     N  971   1.133   0.520  14.961  0.2390 -0.3615 -0.0488
   62MPD2    H5  972   1.146   0.619  14.981  0.7286 -0.3752 -0.2980
   62MPD2    N1  973   1.011   0.507  15.416  0.4647 -0.5439  0.4333
   62MPD2    H7  974   1.012   0.608  15.418 -0.8614 -0.4551 -2.4838
   63TMC2    C1  975   4.545   0.062  11.473 -0.7591  0.4441  0.4241
   63TMC2    C2  976   4.628   0.086  11.574 -0.0556  0.6327 -0.6075
   63TMC2    C3  977   4.712   0.191  11.580  0.4979 -0.6183  0.5459
   63TMC2    C4  978   4.548   0.143  11.366 -0.1473 -0.4758 -0.6067
   63TMC2    C5  979   4.622   0.260  11.380 -0.1179 -0.8548  0.5250
   63TMC2    C6  980   4.701   0.286  11.488 -0.2617  0.0734  0.2625
   63TMC2     C  981   4.481   4.669  11.464  0.4365 -0.4924  0.6228
   63TMC2     O  982   4.487   4.592  11.556 -0.8736  0.0482 -0.4459
   63TMC2     H  983   4.637   0.004  11.645  0.9277  0.8203 -0.5170
   63TMC2    H1  984   4.501   0.130  11.269 -0.7718 -1.2293 -0.2053
   63TMC2    H2  985   0.006   0.385  11.502 -1.3887  0.4698  0.8602
   63TMC2    C7  986   4.607   0.355  11.276  0.1761  0.9185  0.7166
   63TMC2    C8  987   0.060   0.218  11.693  0.6436  0.4444  0.3015
   63TMC2    O1  988   4.516   0.348  11.197  0.5806 -0.4953  0.0483
   63TMC2    O2  989   0.091   0.329  11.732  0.2082 -0.2901 -0.7340
   63TMC2    O5  990   0.079   0.105  11.772  0.3373  0.4443  0.3572
   63TMC2    H5  991   0.068   0.026  11.714  3.4707 -0.7648  1.4153
   64MPD2     C  992   4.285   4.296  11.172  0.4441 -0.0247  0.2106
   64MPD2    C1  993   4.334   4.394  11.088 -0.3553 -0.2925  0.4134
   64MPD2    C2  994   4.373   4.510  11.141 -0.1838 -0.0022 -0.8914
   64MPD2    C3  995   4.391   4.522  11.280  0.6856 -0.3631  0.1027
   64MPD2    C4  996   4.345   4.424  11.369  0.1016 -0.5684  0.4300
   64MPD2    C5  997   4.289   4.314  11.307  0.4759 -0.7056 -0.0979
   64MPD2     H  998   4.403   4.602  11.092  1.4517 -0.0118  0.0711
   64MPD2    H1  999   4.350   4.422  11.477 -0.8257 -2.9643  0.4430
   64MPD2    H2 1000   4.248   4.204  11.129  4.2149 -0.9387 -1.0416
   64MPD2    H3 1001   4.250   4.236  11.371 -0.1182 -0.3959 -0.0789
   64MPD2     N 1002   4.466   4.633  11.331 -0.1416  0.0088 -0.3977
   64MPD2    H5 1003   4.500   4.700  11.263 -0.2421 -0.3272 -0.7725
   64MPD2    N1 1004   4.348   4.379  10.947 -0.2907 -0.6713 -0.3397
   64MPD2    H7 1005   4.388   4.456  10.894 -2.5201 -0.1205 -1.1899
   65TMC2    C1 1006   1.410   0.355  15.726 -0.9777  0.9078  0.2720
   65TMC2    C2 1007   1.419   0.291  15.606 -0.2406  0.2271 -0.0553
   65TMC2    C3 1008   1.382   0.362  15.494 -0.0274  0.0486  0.5459
   65TMC2    C4 1009   1.356   0.477  15.733  0.2999  0.1485  0.0838
   65TMC2    C5 1010   1.314   0.539  15.617  0.0923  0.2729 -0.2295
   65TMC2    C6 1011   1.331   0.484  15.491  0.8481 -0.1347 -0.0227
   65TMC2     C 1012   1.428   0.283  15.855  0.2884  0.0966 -0.2410
   65TMC2     O 1013   1.434   0.350  15.954 -0.1336  0.0878  0.0237
   65TMC2     H 1014   1.470   0.195  15.605  3.8402  2.3732  0.1557
   65TMC2    H1 1015   1.353   0.521  15.832 -2.7091  1.0732 -0.4290
   65TMC2    H2 1016   1.292   0.524  15.398 -1.1070 -1.2313  0.3240
   65TMC2    C7 1017   1.248   0.666  15.620  0.2034 -0.1479  0.0138
   65TMC2    C8 1018   1.365   0.282  15.369  0.3898  0.5546  0.1842
   65TMC2    O1 1019   1.216   0.712  15.514  0.0380 -0.0472  0.7558
   65TMC2    O2 1020   1.369   0.158  15.385 -0.0234 -0.1669  0.7010
   65TMC2    O5 1021   1.407   0.361  15.273 -0.3603  0.3098 -0.4383
   65TMC2    H5 1022   1.404   0.458  15.290 -0.7687  0.1858  0.2075
   66MPD2     C 1023   1.515   0.053  16.030  0.5514  0.3890  0.6398
   66MPD2    C1 1024   1.433   0.044  15.917  0.7251  0.5535  0.2220
   66MPD2    C2 1025   1.368   4.657  15.898  1.2655 -0.3541  0.4401
   66MPD2    C3 1026   1.365   4.561  15.996  0.2828 -0.7782  0.8318
   66MPD2    C4 1027   1.447   4.571  16.108 -0.5217  0.2759 -0.2209
   66MPD2    C5 1028   1.530   4.679  16.114 -0.1673  0.0545 -0.2766
   66MPD2     H 1029   1.308   4.653  15.807  0.4738  0.2180  0.9435
   66MPD2    H1 1030   1.443   4.502  16.192  2.6115 -0.5272 -0.7408
   66MPD2    H2 1031   1.576   0.139  16.054  1.2546 -0.8124  3.2029
   66MPD2    H3 1032   1.589   4.691  16.204  0.5195  1.6231 -0.9422
   66MPD2     N 1033   1.278   4.451  15.991 -0.5295  0.3431  0.4881
   66MPD2    H5 1034   1.284   4.390  16.072  1.9738  1.3974  1.0861
   66MPD2    N1 1035   1.408   0.146  15.826  0.5431  0.4761 -0.2658
   66MPD2    H7 1036   1.344   0.132  15.749  0.2653 -0.0305  0.0590
   67TMC2    C1 1037   1.470   4.286  14.803 -0.7874 -0.2787 -0.0130
   67TMC2    C2 1038   1.386   4.378  14.859 -0.0034  0.2064  0.2650
   67TMC2    C3 1039   1.437   4.467  14.937 -0.7040  0.7712  0.0704
   67TMC2    C4 1040   1.597   4.263  14.854 -0.4729 -0.0791 -0.1396
   67TMC2    C5 1041   1.637   4.348  14.946  0.2025 -0.4357  0.2860
   67TMC2    C6 1042   1.570   4.457  14.989  0.0677 -0.2788 -0.6465
   67TMC2     C 1043   1.426   4.190  14.700  0.6061 -0.1986  0.9046
   67TMC2     O 1044   1.527   4.135  14.650  0.1007  0.4397 -0.1453
   67TMC2     H 1045   1.286   4.384  14.819 -0.0272 -1.1528  0.1435
   67TMC2    H1 1046   1.672   4.197  14.812  0.0433 -1.2273  2.5802
   67TMC2    H2 1047   1.601   4.518  15.073 -0.8809  0.6966 -0.9964
   67TMC2    C7 1048   1.769   4.319  14.997 -0.4738  0.1715 -0.1155
   67TMC2    C8 1049   1.344   4.547  14.999  0.4036 -0.0218 -0.4135
   67TMC2    O1 1050   1.824   4.228  14.942 -0.2069  0.4304  0.2166
   67TMC2    O2 1051   1.225   4.528  14.981  0.2674 -0.3122 -0.4842
   67TMC2    O5 1052   1.401   4.648  15.069 -0.3570 -0.0936 -0.0019
   67TMC2    H5 1053   1.494   4.659  15.038  0.0469 -0.0153  1.2503
   68MPD2     C 1054   1.343   4.051  14.454  0.1568  0.8811 -0.2208
   68MPD2    C1 1055   1.262   4.128  14.531 -0.0028 -0.3165  0.3309
   68MPD2    C2 1056   1.128   4.144  14.496 -0.9246 -0.3803  0.0653
   68MPD2    C3 1057   1.084   4.089  14.373  0.1600 -0.5258  0.8743
   68MPD2    C4 1058   1.162   4.006  14.295 -0.2817 -0.1699 -0.5170
   68MPD2    C5 1059   1.295   3.991  14.337 -0.0062 -0.1789  0.4888
   68MPD2     H 1060   1.067   4.201  14.565 -0.2669 -0.2443  0.5342
   68MPD2    H1 1061   1.130   3.958  14.203 -2.2678  0.1200  0.0139
   68MPD2    H2 1062   1.440   4.016  14.488 -0.1034  0.2638 -0.1189
   68MPD2    H3 1063   1.357   3.932  14.270 -0.5740  0.1100 -0.2803
   68MPD2     N 1064   0.957   4.125  14.318  0.0370  0.0361  0.2387
   68MPD2    H5 1065   0.940   4.104  14.221  1.7411  1.2590 -0.3182
   68MPD2    N1 1066   1.303   4.196  14.654  0.3773 -0.2450  0.6468
   68MPD2    H7 1067   1.234   4.249  14.706  1.2985 -0.3807  1.9999
   69TMC2    C1 1068   2.830   1.231  12.440  0.0590  0.6073 -0.3393
   69TMC2    C2 1069   2.835   1.355  12.496  0.4457  0.1987  0.2318
   69TMC2    C3 1070   2.878   1.449  12.411 -0.2997  0.3831  0.2749
   69TMC2    C4 1071   2.855   1.209  12.310 -0.1182 -0.0008 -0.0916
   69TMC2    C5 1072   2.901   1.304  12.228 -0.0378  0.5919 -0.7542
   69TMC2    C6 1073   2.909   1.430  12.280  0.8462  0.1308 -0.1786
   69TMC2     C 1074   2.869   1.124  12.530 -0.1116  0.5726 -0.1350
   69TMC2     O 1075   2.867   1.152  12.647  0.1297 -0.5229 -0.4084
   69TMC2     H 1076   2.818   1.375  12.601  2.1931 -0.8345  0.7038
   69TMC2    H1 1077   2.838   1.110  12.269  0.5033  0.5989 -1.7929
   69TMC2    H2 1078   2.940   1.513  12.217 -0.7919  2.3344  1.9450
   69TMC2    C7 1079   3.009   1.244  12.140  0.1037  0.6641  0.0298
   69TMC2    C8 1080   2.899   1.582  12.467  0.1175  0.7365  0.5908
   69TMC2    O1 1081   3.059   1.139  12.174 -0.1279 -0.4443 -0.3478
   69TMC2    O2 1082   2.804   1.658  12.471  0.6050  0.1065 -0.2917
   69TMC2    O5 1083   2.963   1.558  12.579  0.7282 -0.2680  0.3064
   69TMC2    H5 1084   3.034   1.495  12.557  0.0370 -1.5285  1.6478
   70MPD2     C 1085   3.130   0.890  12.435 -0.1918  0.1331  0.0400
   70MPD2    C1 1086   3.032   0.937  12.517 -0.3237  0.2542  0.0862
   70MPD2    C2 1087   3.012   0.884  12.642  0.4630 -0.7831 -0.0772
   70MPD2    C3 1088   3.089   0.779  12.685 -0.3044 -0.7436  0.1954
   70MPD2    C4 1089   3.181   0.729  12.598  0.0989  0.8843  0.0736
   70MPD2    C5 1090   3.212   0.786  12.474 -0.1121 -0.0581  0.0217
   70MPD2     H 1091   2.928   0.927  12.696  1.5509 -0.3120  1.2411
   70MPD2    H1 1092   3.244   0.648  12.634  0.1821  0.2518 -1.4898
   70MPD2    H2 1093   3.135   0.922  12.331 -1.1662  1.2994  0.3625
   70MPD2    H3 1094   3.282   0.748  12.400  0.9468 -0.3798  1.1972
   70MPD2     N 1095   3.063   0.711  12.806  0.1783  0.1985 -0.0644
   70MPD2    H5 1096   3.102   0.618  12.818  0.9593  0.5554  0.1648
   70MPD2    N1 1097   2.945   1.032  12.460 -1.0663  0.1406  1.0280
   70MPD2    H7 1098   2.953   1.047  12.359 -1.4475  0.8549  1.1015
   71TMC2    C1 1099   0.899   1.647   1.793 -0.0643  0.3281 -0.0949
   71TMC2    C2 1100   1.008   1.707   1.842  0.3633 -0.0120  0.7309
   71TMC2    C3 1101   0.991   1.812   1.921 -0.0052 -0.4018 -0.2832
   71TMC2    C4 1102   0.775   1.674   1.840  0.5190  0.0279 -0.1354
   71TMC2    C5 1103   0.763   1.785   1.917 -0.6098  0.2039  0.3032
   71TMC2    C6 1104   0.869   1.859   1.952  0.3390 -0.2075  0.0012
   71TMC2     C 1105   0.907   1.556   1.683 -0.0429  0.2928  0.2279
   71TMC2     O 1106   1.020   1.514   1.669  0.1201  0.0802 -0.5948
   71TMC2     H 1107   1.102   1.694   1.789  1.6697  2.1478  2.5516
   71TMC2    H1 1108   0.701   1.596   1.828  0.7986 -0.1610 -0.6518
   71TMC2    H2 1109   0.850   1.948   2.011 -0.7272  0.0864 -0.7985
   71TMC2    C7 1110   0.636   1.812   1.978 -0.4687 -0.6103  0.2918
   71TMC2    C8 1111   1.114   1.873   1.986  0.5260 -0.3955  0.5758
   71TMC2    O1 1112   0.643   1.870   2.084  0.3095 -0.1918  0.4211
   71TMC2    O2 1113   1.208   1.810   2.037  0.3740  0.2381  0.2039
   71TMC2    O5 1114   1.095   2.005   1.995  0.2779 -0.4278 -0.4709
   71TMC2    H5 1115   1.023   2.028   1.932 -0.0462  2.7384  1.0439
   72MPD2     C 1116   0.717   1.343   1.253 -0.2374 -0.5119  0.5465
   72MPD2    C1 1117   0.844   1.330   1.309 -0.5493  0.2505  0.0626
   72MPD2    C2 1118   0.876   1.394   1.425  0.3103  0.3101 -0.4183
   72MPD2    C3 1119   0.784   1.480   1.482  0.3335  0.0488  0.3529
   72MPD2    C4 1120   0.663   1.498   1.424 -0.1998  0.6765 -0.5449
   72MPD2    C5 1121   0.633   1.432   1.312 -0.0657  0.6929 -0.2118
   72MPD2     H 1122   0.974   1.382   1.470  0.7895 -2.6863 -2.2648
   72MPD2    H1 1123   0.590   1.564   1.469 -1.2315 -2.3388  2.2111
   72MPD2    H2 1124   0.701   1.301   1.155  0.0501  1.9979 -0.5847
   72MPD2    H3 1125   0.537   1.449   1.264 -0.8880 -0.6133  0.9579
   72MPD2     N 1126   0.796   1.553   1.602  0.4926 -0.5563  0.1829
   72MPD2    H5 1127   0.720   1.611   1.638  1.6501  0.2559  1.3119
   72MPD2    N1 1128   0.932   1.242   1.249 -0.5838  0.3351 -0.0123
   72MPD2    H7 1129   1.030   1.240   1.273 -0.4914  1.3851 -0.3011
   73TMC2    C1 1130   0.607   3.250  14.300 -0.3259  0.5480  0.6021
   73TMC2    C2 1131   0.498   3.295  14.374 -0.3464 -0.3872  0.1326
   73TMC2    C3 1132   0.521   3.349  14.499 -0.0406  0.3692  0.9167
   73TMC2    C4 1133   0.735   3.254  14.345  0.3989 -0.2393  0.2251
   73TMC2    C5 1134   0.754   3.306  14.467 -0.3871  0.3412  0.6514
   73TMC2    C6 1135   0.653   3.358  14.544 -0.6041 -0.4785  0.4943
   73TMC2     C 1136   0.609   3.295  14.166 -0.0043  0.8286 -0.3758
   73TMC2     O 1137   0.715   3.341  14.129 -0.3103  0.2102 -0.5985
   73TMC2     H 1138   0.394   3.297  14.342 -0.6564 -1.4867  1.0850
   73TMC2    H1 1139   0.814   3.210  14.286  2.1136  2.5259  0.4860
   73TMC2    H2 1140   0.676   3.389  14.645  0.0614  1.1810 -0.1642
   73TMC2    C7 1141   0.876   3.380  14.472 -1.2407 -0.1559  0.4806
   73TMC2    C8 1142   0.415   3.403  14.573  1.1044 -0.3371  0.3553
   73TMC2    O1 1143   0.934   3.410  14.577 -0.3230 -0.1294 -0.1853
   73TMC2    O2 1144   0.297   3.375  14.542 -0.2499 -0.0673 -0.0864
   73TMC2    O5 1145   0.453   3.510  14.640  0.0329  0.1592 -0.3217
   73TMC2    H5 1146   0.544   3.544  14.629  0.0345  0.5574  0.8868
   74MPD2     C 1147   0.444   3.460  13.710 -0.0231 -0.2531  0.6709
   74MPD2    C1 1148   0.550   3.512  13.787 -0.3275  0.2629 -0.1960
   74MPD2    C2 1149   0.561   3.471  13.922 -0.3987 -0.0092  0.2263
   74MPD2    C3 1150   0.470   3.376  13.971  0.7478 -0.3773 -0.4781
   74MPD2    C4 1151   0.367   3.332  13.891 -0.3153  0.3631 -0.0588
   74MPD2    C5 1152   0.352   3.368  13.759 -0.1081  0.0784  0.5901
   74MPD2     H 1153   0.645   3.504  13.984 -0.0847 -3.5598  1.7131
   74MPD2    H1 1154   0.310   3.251  13.933 -0.7039  0.5181 -0.2838
   74MPD2    H2 1155   0.439   3.501  13.610 -0.1548  1.8183  1.5431
   74MPD2    H3 1156   0.267   3.330  13.702 -0.5626 -0.5350  1.6713
   74MPD2     N 1157   0.484   3.306  14.100 -0.1176  0.5509  0.2081
   74MPD2    H5 1158   0.413   3.240  14.131 -0.8697  1.2461 -0.0161
   74MPD2    N1 1159   0.657   3.588  13.725  0.6632 -0.0132  0.1532
   74MPD2    H7 1160   0.643   3.609  13.627  0.7485  0.2100  0.1887
   75TMC2    C1 1161   0.736   4.193  14.317 -0.1155  0.1442  0.5885
   75TMC2    C2 1162   0.622   4.163  14.375 -0.2398  0.7780  0.4167
   75TMC2    C3 1163   0.512   4.157  14.298 -0.3734 -0.8129 -0.1736
   75TMC2    C4 1164   0.749   4.213  14.185  0.0169  0.5623  0.0863
   75TMC2    C5 1165   0.631   4.214  14.108  0.5968 -0.1081 -0.7315
   75TMC2    C6 1166   0.506   4.184  14.163 -0.0730 -0.4152  0.5124
   75TMC2     C 1167   0.857   4.184  14.391  0.2790 -0.0866  0.6304
   75TMC2     O 1168   0.842   4.195  14.514 -0.1054 -0.1373 -0.5009
   75TMC2     H 1169   0.610   4.157  14.483 -1.3809  2.8057  0.4138
   75TMC2    H1 1170   0.836   4.263  14.144 -0.1076 -1.4537 -2.6749
   75TMC2    H2 1171   0.422   4.192  14.095 -1.3729 -0.6710  2.0670
   75TMC2    C7 1172   0.637   4.256  13.969 -0.0225 -0.3308  0.1987
   75TMC2    C8 1173   0.392   4.100  14.368 -0.2338  0.0734  0.3328
   75TMC2    O1 1174   0.601   4.170  13.889 -0.5213 -0.7323  0.4608
   75TMC2    O2 1175   0.374   4.110  14.487  0.0703  0.1492  0.4848
   75TMC2    O5 1176   0.299   4.125  14.276 -0.2923  0.0310 -0.0798
   75TMC2    H5 1177   0.334   4.135  14.185 -1.5868  2.0569 -0.3789
   76TMC2    C1 1178   4.515   0.462  12.110  0.6426 -0.4260 -0.1191
   76TMC2    C2 1179   4.627   0.543  12.114 -0.7623  0.0023  0.1235
   76TMC2    C3 1180   0.013   0.482  12.090 -0.5645 -0.0160  0.8225
   76TMC2    C4 1181   4.522   0.330  12.080  0.7027 -0.5028  0.1377
   76TMC2    C5 1182   4.643   0.277  12.059 -0.3236 -0.8838  0.2309
   76TMC2    C6 1183   0.022   0.351  12.071  0.0174 -0.6104  0.4089
   76TMC2     C 1184   4.381   0.515  12.124 -0.0088  0.2712  0.2814
   76TMC2     O 1185   4.283   0.457  12.078  0.0570  0.2361 -0.1591
   76TMC2     H 1186   4.620   0.651  12.110 -0.6564 -0.0004 -0.1483
   76TMC2    H1 1187   4.433   0.268  12.074  0.4592 -0.0733 -0.6984
   76TMC2    H2 1188   0.120   0.308  12.053  0.6494  0.5342  1.0655
   76TMC2    C7 1189   4.641   0.125  12.056  0.2711  0.2534  0.1563
   76TMC2    C8 1190   0.126   0.535  12.164  0.5672  0.3847  1.1160
   76TMC2    O1 1191   4.545   0.071  11.998 -0.2354  0.3362 -0.8230
   76TMC2    O2 1192   0.198   0.463  12.227  0.2403  0.4540 -0.1761
   76TMC2    O5 1193   0.114   0.669  12.184  0.2494  0.4611  0.4485
   76TMC2    H5 1194   0.062   0.713  12.113 -1.6772 -1.8411  0.4547
   77MPD2     C 1195   4.079   0.927  12.268  0.1474  0.1541 -0.1054
   77MPD2    C1 1196   4.059   0.822  12.183  0.3918  0.2772  0.3649
   77MPD2    C2 1197   4.159   0.729  12.164  0.7447 -0.3490 -0.2063
   77MPD2    C3 1198   4.278   0.729  12.227 -0.4878  0.7107  0.4522
   77MPD2    C4 1199   4.301   0.828  12.320  0.7315 -0.3267  0.3115
   77MPD2    C5 1200   4.205   0.924  12.334  0.3752 -0.1767 -0.6074
   77MPD2     H 1201   4.141   0.656  12.085  0.8707 -0.9240  0.2980
   77MPD2    H1 1202   4.394   0.835  12.374 -0.1268  0.7599  1.6510
   77MPD2    H2 1203   4.004   1.002  12.288  0.9511  0.9774 -0.1669
   77MPD2    H3 1204   4.241   1.007  12.395  2.7417 -0.2583 -1.8718
   77MPD2     N 1205   4.382   0.631  12.207 -0.8614 -0.5525  0.2475
   77MPD2    H5 1206   4.466   0.631  12.265 -0.9015  1.4423  0.2789
   77MPD2    N1 1207   3.946   0.818  12.093 -0.0254  0.2683 -0.5802
   77MPD2    H7 1208   3.951   0.739  12.029 -1.8691  0.1480 -0.5669
   78TMC2    C1 1209   0.909   1.443   2.085 -0.4785 -0.3267 -0.7008
   78TMC2    C2 1210   0.912   1.528   2.195 -0.0420  0.3555 -0.8337
   78TMC2    C3 1211   1.030   1.565   2.245 -0.3682  0.1017  0.3903
   78TMC2    C4 1212   1.024   1.414   2.024  0.4713  0.2712  0.9139
   78TMC2    C5 1213   1.147   1.466   2.067 -0.0909 -0.2407 -0.3569
   78TMC2    C6 1214   1.150   1.537   2.180  0.2744  0.7107 -0.1043
   78TMC2     C 1215   0.792   1.408   2.015 -0.3385  1.4741  0.3978
   78TMC2     O 1216   0.807   1.349   1.910 -0.3377  0.0394  0.2777
   78TMC2     H 1217   0.821   1.559   2.245  1.3353  4.1455 -0.6802
   78TMC2    H1 1218   1.033   1.351   1.937  0.5061 -0.8781  1.7461
   78TMC2    H2 1219   1.237   1.588   2.218  2.3183 -2.5603 -0.3578
   78TMC2    C7 1220   1.270   1.425   2.001 -1.0049 -1.0845 -0.4660
   78TMC2    C8 1221   1.021   1.705   2.284  0.1638 -0.1276  0.4447
   78TMC2    O1 1222   1.268   1.324   1.929 -0.3429 -0.2339 -0.1005
   78TMC2    O2 1223   0.921   1.773   2.263 -0.5829  0.6713  0.5826
   78TMC2    O5 1224   1.111   1.740   2.376  0.3839 -0.2372  0.1718
   78TMC2    H5 1225   1.175   1.671   2.407  0.3463 -0.2460  0.2295
   79MPD1     C 1226   0.302   1.455   1.912 -0.6212  0.1155 -0.2687
   79MPD1    C1 1227   0.407   1.416   1.829  0.0497 -0.6193  0.4382
   79MPD1    C2 1228   0.529   1.388   1.886 -0.1848  0.3971 -0.2733
   79MPD1    C3 1229   0.547   1.422   2.020  1.1876 -0.1678  0.4515
   79MPD1    C4 1230   0.446   1.454   2.100 -0.1162  0.3642  0.3406
   79MPD1    C5 1231   0.318   1.461   2.047  0.0670  0.1407 -0.0058
   79MPD1     H 1232   0.599   1.357   1.809  1.5882 -1.4805  2.1055
   79MPD1    H1 1233   0.457   1.479   2.205  2.5412  1.9184 -0.3111
   79MPD1    H2 1234   0.199   1.462   1.879 -0.6525  2.4171  0.3386
   79MPD1    H3 1235   0.238   1.473   2.119  1.1738  0.5665  1.1493
   79MPD1     N 1236   0.669   1.443   2.075  0.1567 -0.6284 -0.4763
   79MPD1    H5 1237   0.685   1.471   2.171  0.0921  0.4609 -0.7762
   79MPD1    N1 1238   0.379   1.391   1.693 -0.3902 -0.0028  0.2896
   79MPD1    H6 1239   0.457   1.365   1.633 -1.6878 -0.4442 -1.1799
   79MPD1    H7 1240   0.306   1.447   1.652  0.9616  1.4126 -0.1757
   80TMC2    C1 1241   3.255   4.278  11.469  0.0872  0.3657  0.5048
   80TMC2    C2 1242   3.236   4.200  11.354 -0.2478  0.2877 -0.2010
   80TMC2    C3 1243   3.300   4.084  11.343 -0.0960  0.2184  0.0477
   80TMC2    C4 1244   3.351   4.238  11.561  0.0205  0.3894 -0.7534
   80TMC2    C5 1245   3.421   4.124  11.532 -0.0282  0.3216  0.2130
   80TMC2    C6 1246   3.390   4.042  11.430  0.5694 -0.6998  0.1353
   80TMC2     C 1247   3.204   4.417  11.466  0.5850 -0.1209  0.4486
   80TMC2     O 1248   3.186   4.472  11.357 -0.0984 -0.6100 -0.1569
   80TMC2     H 1249   3.162   4.230  11.281 -0.9286  1.1059  0.8231
   80TMC2    H1 1250   3.391   4.309  11.633  2.0938 -1.2709 -0.2762
   80TMC2    H2 1251   3.428   3.940  11.432  0.7875 -0.6494 -1.6802
   80TMC2    C7 1252   3.504   4.071  11.635  0.1811 -0.2599  0.0475
   80TMC2    C8 1253   3.211   3.983  11.288  1.2016 -0.9575 -0.0193
   80TMC2    O1 1254   3.568   3.978  11.592  0.1240 -0.5455 -0.1363
   80TMC2    O2 1255   3.092   4.001  11.270 -0.1587 -0.5582 -0.1964
   80TMC2    O5 1256   3.284   3.872  11.271 -0.5074  0.2801  0.3393
   80TMC2    H5 1257   3.381   3.881  11.272 -0.2407 -2.5631  2.0449
   81MPD2     C 1258   3.057   4.673  11.523  0.1328 -0.0588 -0.2743
   81MPD2    C1 1259   3.092   4.581  11.616 -0.5159 -0.4469 -0.3030
   81MPD2    C2 1260   3.052   4.615  11.744  0.5432 -0.2237  0.1346
   81MPD2    C3 1261   2.989   4.733  11.776 -0.0336 -0.0877  0.4384
   81MPD2    C4 1262   2.963   0.089  11.679  0.1640  0.1726  0.2095
   81MPD2    C5 1263   3.006   0.058  11.555  0.0814  0.1364 -0.5476
   81MPD2     H 1264   3.073   4.533  11.812 -1.6877 -0.3771  0.6332
   81MPD2    H1 1265   2.912   0.184  11.695 -1.5870 -0.8340  0.6510
   81MPD2    H2 1266   3.065   4.654  11.416 -1.4561 -0.2006 -0.3571
   81MPD2    H3 1267   2.995   0.128  11.473  0.4672 -1.3470 -1.8576
   81MPD2     N 1268   2.927   0.023  11.902 -0.2781  0.0419  0.5082
   81MPD2    H5 1269   2.876   0.111  11.907 -0.4981 -0.0649  0.1717
   81MPD2    N1 1270   3.154   4.460  11.588  0.3652 -0.5343 -0.3298
   81MPD2    H7 1271   3.161   4.385  11.656 -3.5948 -0.5951  0.0216
   82TMC2    C1 1272   1.989   3.777  11.209  0.5186 -0.4704 -0.0394
   82TMC2    C2 1273   2.026   3.842  11.330  0.0541 -0.0882 -0.3539
   82TMC2    C3 1274   2.094   3.774  11.424 -0.3929 -0.0520  0.2721
   82TMC2    C4 1275   2.022   3.647  11.180 -0.6694  0.5057 -0.5553
   82TMC2    C5 1276   2.091   3.577  11.278 -0.6819  0.0785 -0.0704
   82TMC2    C6 1277   2.125   3.646  11.393 -0.2231  0.5342 -0.0808
   82TMC2     C 1278   1.862   3.816  11.151 -0.6686  0.3827  0.1292
   82TMC2     O 1279   1.850   3.798  11.031  0.1145  0.3005 -0.2854
   82TMC2     H 1280   2.001   3.947  11.341 -3.0299 -0.9734  1.3026
   82TMC2    H1 1281   1.983   3.602  11.090 -0.6797 -4.2861  1.7930
   82TMC2    H2 1282   2.184   3.591  11.466  0.5744  0.9403 -0.4119
   82TMC2    C7 1283   2.027   3.454  11.312 -0.7936  0.9518  0.1183
   82TMC2    C8 1284   2.156   3.844  11.534 -0.1272  0.0612  0.6664
   82TMC2    O1 1285   2.018   3.429  11.431  0.8577  0.3744 -0.0024
   82TMC2    O2 1286   2.247   3.802  11.607  0.1768  0.8347  0.6044
   82TMC2    O5 1287   2.087   3.951  11.569  0.2266  0.6123  0.0698
   82TMC2    H5 1288   1.996   3.956  11.531 -1.8329 -2.1887  4.6124
   83MPD2     C 1289   1.406   4.046  11.164 -0.4459 -0.7054 -0.2554
   83MPD2    C1 1290   1.474   4.002  11.056 -0.5834 -0.0637  0.6652
   83MPD2    C2 1291   1.599   3.952  11.076  0.3692 -1.0252 -0.6134
   83MPD2    C3 1292   1.651   3.935  11.204 -0.3798 -0.1691  0.3501
   83MPD2    C4 1293   1.575   3.962  11.309 -0.2778 -0.4947 -0.5807
   83MPD2    C5 1294   1.448   4.020  11.289  1.0511 -0.1944 -0.4613
   83MPD2     H 1295   1.664   3.931  10.992  0.0704 -0.9995 -0.8547
   83MPD2    H1 1296   1.612   3.956  11.411 -0.3955 -1.3956 -0.5940
   83MPD2    H2 1297   1.313   4.098  11.145 -0.4561 -0.2866  0.9236
   83MPD2    H3 1298   1.385   4.055  11.369  0.5107  0.0132 -0.9808
   83MPD2     N 1299   1.775   3.878  11.237  0.2695 -0.2853 -0.4783
   83MPD2    H5 1300   1.798   3.867  11.336 -0.0569 -0.0595 -0.3768
   83MPD2    N1 1301   1.437   4.044  10.921 -0.6752  0.4644  0.5278
   83MPD2    H7 1302   1.349   4.095  10.921 -0.2688  1.1486 -2.3497
   84TMC2    C1 1303   3.105   2.710  11.451 -0.2715  0.4794 -0.2994
   84TMC2    C2 1304   3.203   2.794  11.490 -0.8689  0.7024 -0.0306
   84TMC2    C3 1305   3.297   2.813  11.401  0.8781 -0.7679  0.5900
   84TMC2    C4 1306   3.106   2.626  11.345 -0.9023 -0.0483  0.7555
   84TMC2    C5 1307   3.215   2.643  11.263 -0.6776  0.1506 -0.3887
   84TMC2    C6 1308   3.305   2.745  11.285  0.6962  0.0391  0.0992
   84TMC2     C 1309   3.012   2.683  11.557  0.3253 -0.3990  0.9802
   84TMC2     O 1310   3.002   2.760  11.651  0.4459 -0.0743  0.0924
   84TMC2     H 1311   3.203   2.850  11.583  3.4673 -0.1663  0.5304
   84TMC2    H1 1312   3.020   2.569  11.310  1.0584 -0.8586 -2.8094
   84TMC2    H2 1313   3.384   2.771  11.216  0.9661 -1.7947 -0.2959
   84TMC2    C7 1314   3.189   2.600  11.129  0.1592  0.2656  0.3412
   84TMC2    C8 1315   3.396   2.913  11.436  0.1527  0.0486  0.6119
   84TMC2    O1 1316   3.086   2.539  11.098 -0.5514  0.3145  0.8478
   84TMC2    O2 1317   3.444   2.932  11.551  0.0882 -0.3734 -0.1243
   84TMC2    O5 1318   3.396   3.003  11.340 -0.1344  0.4737  0.1876
   84TMC2    H5 1319   3.336   2.983  11.265 -1.9056 -1.7030  2.1984
   85TMC2    C1 1320   3.475   1.175  16.087 -0.2659  0.0243  0.5760
   85TMC2    C2 1321   3.380   1.172  15.993  0.9772  0.5074  0.1584
   85TMC2    C3 1322   3.395   1.235  15.877  0.0704  0.6098 -0.4589
   85TMC2    C4 1323   3.591   1.243  16.074  0.1198  0.2059  0.3089
   85TMC2    C5 1324   3.605   1.310  15.957  0.3660 -0.6787 -0.1503
   85TMC2    C6 1325   3.510   1.307  15.861  0.2306  0.0356 -0.0268
   85TMC2     C 1326   3.463   1.108  16.216 -0.5083 -0.0227  0.4289
   85TMC2     O 1327   3.524   1.159  16.310  0.1594  0.8379 -0.0509
   85TMC2     H 1328   3.289   1.117  16.010  0.4161  1.3255 -0.1540
   85TMC2    H1 1329   3.673   1.253  16.144 -1.3689  0.3448  2.0147
   85TMC2    H2 1330   3.535   1.346  15.763 -2.1279  2.4157  0.3309
   85TMC2    C7 1331   3.735   1.364  15.913  0.3506 -0.4627 -0.0173
   85TMC2    C8 1332   3.287   1.271  15.789 -0.5946  0.4608  0.1348
   85TMC2    O1 1333   3.765   1.351  15.797 -0.1996 -0.3143  0.6318
   85TMC2    O2 1334   3.292   1.235  15.673 -0.1385  0.4492  0.1126
   85TMC2    O5 1335   3.278   1.405  15.821  0.4873  0.4301 -0.4680
   85TMC2    H5 1336   3.283   1.424  15.917  0.4291  0.1801 -0.4145
   86MPD2     C 1337   3.383   0.682  16.491 -0.0437  0.3253 -0.2151
   86MPD2    C1 1338   3.294   0.677  16.383 -0.0523  0.3939 -0.0514
   86MPD2    C2 1339   3.297   0.785  16.293 -1.0734 -0.7656 -0.3080
   86MPD2    C3 1340   3.374   0.897  16.319  0.2418  0.4979 -0.7309
   86MPD2    C4 1341   3.455   0.900  16.432 -0.7569 -0.3816 -0.6179
   86MPD2    C5 1342   3.457   0.792  16.518 -0.7312  0.1873 -0.0703
   86MPD2     H 1343   3.240   0.794  16.201 -2.5037 -0.0229  0.6433
   86MPD2    H1 1344   3.520   0.987  16.438 -0.8422 -0.4122  0.6577
   86MPD2    H2 1345   3.396   0.604  16.565 -0.3429 -0.3594 -0.8784
   86MPD2    H3 1346   3.524   0.779  16.602  0.2296  1.8974 -0.5833
   86MPD2     N 1347   3.385   0.993  16.214  0.1520  0.3712 -0.6204
   86MPD2    H5 1348   3.329   0.976  16.131  1.3441 -0.2089 -1.3231
   86MPD2    N1 1349   3.223   0.568  16.341  0.2866 -0.6459 -0.3343
   86MPD2    H7 1350   3.190   0.545  16.248 -0.7923  2.6760 -0.7741
   87TMC2    C1 1351   1.210   4.033   0.262 -0.0106  0.0398  0.2106
   87TMC2    C2 1352   1.308   4.132   0.270 -0.1615 -0.5268  0.1296
   87TMC2    C3 1353   1.270   4.258   0.250  0.2161 -0.5038 -0.5797
   87TMC2    C4 1354   1.075   4.059   0.266  0.1678 -0.5553 -0.1270
   87TMC2    C5 1355   1.042   4.194   0.252 -0.4768  1.0998  0.1157
   87TMC2    C6 1356   1.136   4.291   0.244  1.0423  0.1495 -0.3793
   87TMC2     C 1357   1.253   3.899   0.290 -0.4290 -0.2454  0.1304
   87TMC2     O 1358   1.365   3.867   0.256 -0.2902 -0.2246 -0.0268
   87TMC2     H 1359   1.412   4.103   0.272 -0.9753 -3.6772 -1.6955
   87TMC2    H1 1360   1.007   3.980   0.236 -0.2974  0.0601 -0.6984
   87TMC2    H2 1361   1.109   4.394   0.263  1.5038 -0.1348  1.8558
   87TMC2    C7 1362   0.907   4.230   0.220 -0.6118 -0.0056 -0.3367
   87TMC2    C8 1363   1.365   4.365   0.272  1.3094 -0.3588  0.1928
   87TMC2    O1 1364   0.900   4.345   0.180  0.3305 -0.5028  0.1092
   87TMC2    O2 1365   1.459   4.334   0.342  0.5136 -0.1634 -0.2483
   87TMC2    O5 1366   1.355   4.464   0.178  0.1870 -0.2496 -0.3932
   87TMC2    H5 1367   1.275   4.449   0.122  0.1650  2.3236 -1.0336
   88MPD2     C 1368   0.607   4.020   0.253  0.4529 -0.1086  0.6986
   88MPD2    C1 1369   0.678   4.128   0.206  0.9750  0.4173 -0.2620
   88MPD2    C2 1370   0.613   4.237   0.147  0.1565 -0.2866  0.1142
   88MPD2    C3 1371   0.474   4.230   0.131 -0.7877  0.7249  0.1509
   88MPD2    C4 1372   0.406   4.124   0.179 -0.0270 -0.6980 -0.7680
   88MPD2    C5 1373   0.470   4.024   0.237 -0.3215  0.0010 -0.7942
   88MPD2     H 1374   0.667   4.326   0.115  1.6783 -1.4792 -0.6265
   88MPD2    H1 1375   0.298   4.122   0.171 -0.0298 -1.4053 -0.5662
   88MPD2    H2 1376   0.652   3.929   0.290  0.6228  0.5268  2.0625
   88MPD2    H3 1377   0.405   3.944   0.273  0.1694  0.6621  1.5247
   88MPD2     N 1378   0.404   4.338   0.080  0.1810  0.2147 -0.1433
   88MPD2    H5 1379   0.303   4.325   0.076  0.0947 -0.0537  2.4564
   88MPD2    N1 1380   0.816   4.129   0.241  0.7998  0.2321  0.1380
   88MPD2    H7 1381   0.846   4.035   0.264 -0.5983 -0.2174  0.0850
   89TMC2    C1 1382   2.655   2.247   1.544  0.1595 -0.1512  0.1861
   89TMC2    C2 1383   2.761   2.235   1.459 -0.9235 -0.9328 -0.6017
   89TMC2    C3 1384   2.829   2.350   1.440 -0.2563  0.3185 -0.4448
   89TMC2    C4 1385   2.611   2.366   1.596 -0.1458  0.2239 -0.3334
   89TMC2    C5 1386   2.679   2.480   1.575 -0.0752 -0.6450 -0.3198
   89TMC2    C6 1387   2.787   2.474   1.489  0.2122 -0.5717  0.3411
   89TMC2     C 1388   2.586   2.120   1.562  0.6775 -0.0666  0.2284
   89TMC2     O 1389   2.645   2.018   1.529  0.0094  0.3578  0.1220
   89TMC2     H 1390   2.786   2.145   1.403  1.7949 -1.3812  1.3516
   89TMC2    H1 1391   2.545   2.364   1.682  1.6851 -0.6439  1.0358
   89TMC2    H2 1392   2.849   2.560   1.465 -1.4971  0.4727 -0.3096
   89TMC2    C7 1393   2.683   2.559   1.693  0.3684  0.2354  0.4190
   89TMC2    C8 1394   2.931   2.359   1.344 -0.4575  0.2149 -0.0415
   89TMC2    O1 1395   2.625   2.527   1.797 -0.0753  0.2462  0.6308
   89TMC2    O2 1396   3.027   2.437   1.354  0.2589 -0.0397  0.1795
   89TMC2    O5 1397   2.885   2.312   1.225 -0.0228  0.0682  0.2662
   89TMC2    H5 1398   2.793   2.277   1.226  0.3915 -1.0504 -0.8960
   90MPD2     C 1399   2.199   1.846   1.758  1.1401 -0.0615 -0.5756
   90MPD2    C1 1400   2.161   1.979   1.753  1.2136  0.3196  0.1135
   90MPD2    C2 1401   2.253   2.070   1.701 -0.4693 -0.6458  0.7692
   90MPD2    C3 1402   2.380   2.031   1.661  0.3472 -0.2279 -0.3802
   90MPD2    C4 1403   2.423   1.900   1.667  0.1000  0.8762 -0.0892
   90MPD2    C5 1404   2.336   1.811   1.726  0.6827  0.2915 -0.5658
   90MPD2     H 1405   2.222   2.174   1.703  0.7470 -0.2931  1.7137
   90MPD2    H1 1406   2.521   1.867   1.635 -1.1286 -2.0275 -0.8482
   90MPD2    H2 1407   2.125   1.773   1.786 -0.6272  1.1526 -2.1047
   90MPD2    H3 1408   2.370   1.708   1.731  2.9343  1.1250  1.2532
   90MPD2     N 1409   2.457   2.138   1.609  0.0262 -0.7124  0.2143
   90MPD2    H5 1410   2.419   2.231   1.600  0.3285 -0.5649  0.4465
   90MPD2    N1 1411   2.024   2.025   1.776  0.0660  0.1497 -0.5345
   90MPD2    H7 1412   2.008   2.124   1.792  0.2391  0.2786 -1.1889
   91TMC2    C1 1413   3.313   1.477  16.318 -0.1976 -0.4207 -0.3623
   91TMC2    C2 1414   3.382   1.476  16.436 -0.5470  0.0986 -0.7856
   91TMC2    C3 1415   3.306   1.440  16.549 -0.0647 -0.5622 -0.1286
   91TMC2    C4 1416   3.180   1.460  16.308  0.0527 -0.3049  0.6572
   91TMC2    C5 1417   3.107   1.433  16.420  0.0257 -0.4854  0.6491
   91TMC2    C6 1418   3.173   1.416  16.537  0.3205  0.2219 -0.0448
   91TMC2     C 1419   3.368   1.533  16.193 -0.0207 -0.1959  0.4808
   91TMC2     O 1420   3.320   1.493  16.085 -0.8184  1.0614  0.1664
   91TMC2     H 1421   3.490   1.471  16.444 -0.4959  0.9543 -0.9342
   91TMC2    H1 1422   3.139   1.451  16.208 -0.7597  0.4443  0.9133
   91TMC2    H2 1423   3.120   1.378  16.624  0.3869 -1.3829 -0.7206
   91TMC2    C7 1424   2.964   1.419  16.407 -0.5667 -0.0895 -0.8452
   91TMC2    C8 1425   3.353   1.456  16.685 -1.2728  0.5527  0.2357
   91TMC2    O1 1426   2.904   1.371  16.502  0.6624  0.3201  0.0249
   91TMC2    O2 1427   3.301   1.407  16.786 -0.3047 -0.1554 -0.0709
   91TMC2    O5 1428   3.455   1.545  16.691  0.1429 -0.4916 -0.4977
   91TMC2    H5 1429   3.471   1.588  16.604  0.1838  0.0117 -0.2383
   92MPD2     C 1430   3.563   1.669  16.005 -0.4014  0.5773 -0.7427
   92MPD2    C1 1431   3.567   1.685  16.137  0.1917 -0.5083 -1.0853
   92MPD2    C2 1432   3.674   1.748  16.198 -0.3918  0.3463  0.2923
   92MPD2    C3 1433   3.786   1.785  16.119  0.2784 -0.4480  0.2631
   92MPD2    C4 1434   3.777   1.776  15.982  0.1506  0.3962 -0.2767
   92MPD2    C5 1435   3.668   1.718  15.926 -0.6564 -0.7877  0.7610
   92MPD2     H 1436   3.672   1.762  16.305  1.7560  0.4789  0.3136
   92MPD2    H1 1437   3.860   1.803  15.917  0.9933  1.4813  1.2522
   92MPD2    H2 1438   3.479   1.614  15.963  0.2572  1.7650 -3.6228
   92MPD2    H3 1439   3.660   1.702  15.819  2.4365 -0.5752  0.5095
   92MPD2     N 1440   3.895   1.838  16.188  0.4768 -0.3602 -0.1630
   92MPD2    H5 1441   3.899   1.843  16.289  0.5969 -2.8943 -0.0379
   92MPD2    N1 1442   3.468   1.624  16.224  0.7773  0.0367 -0.6636
   92MPD2    H7 1443   3.485   1.637  16.323 -0.1954  3.4726 -0.9639
   93TMC2    C1 1444   0.941   2.074  14.385  0.1934  0.4033 -0.3934
   93TMC2    C2 1445   0.863   2.151  14.456 -0.0134 -0.8319 -0.2349
   93TMC2    C3 1446   0.896   2.281  14.465 -1.0171 -0.1551  0.2023
   93TMC2    C4 1447   1.059   2.119  14.322  0.1096 -0.0623 -0.3814
   93TMC2    C5 1448   1.089   2.249  14.331  0.8677  0.6621 -0.4385
   93TMC2    C6 1449   1.006   2.334  14.400  0.1635  0.4792 -0.1163
   93TMC2     C 1450   0.897   1.944  14.354 -0.5201  0.4882 -0.1616
   93TMC2     O 1451   0.984   1.862  14.333  0.1948  0.0331  0.2128
   93TMC2     H 1452   0.766   2.125  14.496  0.0973 -1.2843 -0.2539
   93TMC2    H1 1453   1.123   2.050  14.268  1.7730  0.1638  1.2945
   93TMC2    H2 1454   1.020   2.441  14.403 -0.2923  0.4899  1.6219
   93TMC2    C7 1455   1.212   2.305  14.266 -0.3690 -0.1133 -0.1006
   93TMC2    C8 1456   0.831   2.372  14.556 -0.5716 -0.1666 -0.0073
   93TMC2    O1 1457   1.283   2.237  14.197  0.0428  0.1419  0.4120
   93TMC2    O2 1458   0.885   2.469  14.616 -0.4427  0.5274 -0.0871
   93TMC2    O5 1459   0.704   2.382  14.520 -0.5711 -0.1160  0.0120
   93TMC2    H5 1460   0.695   2.311  14.452 -0.2067  0.2373 -0.4038
   94MPD2     C 1461   0.729   1.695  14.349 -0.3231  0.4946 -0.0333
   94MPD2    C1 1462   0.686   1.817  14.309 -0.3827  0.4161 -0.7720
   94MPD2    C2 1463   0.562   1.834  14.253  0.2689 -0.1572  0.2760
   94MPD2    C3 1464   0.484   1.723  14.234 -0.2569 -0.5672  0.2434
   94MPD2    C4 1465   0.518   1.601  14.289 -0.2736 -0.2394 -0.5500
   94MPD2    C5 1466   0.643   1.589  14.341  0.1458 -0.4895  0.3860
   94MPD2     H 1467   0.528   1.935  14.229 -1.4157 -0.3783  1.7484
   94MPD2    H1 1468   0.446   1.520  14.289  0.3398 -0.7768  1.1485
   94MPD2    H2 1469   0.818   1.683  14.410 -1.1857  0.6840  1.2608
   94MPD2    H3 1470   0.665   1.495  14.390  0.9786 -1.5559 -2.0437
   94MPD2     N 1471   0.362   1.730  14.157  0.3802 -0.4245  0.7312
   94MPD2    H5 1472   0.311   1.644  14.142 -1.3228  0.5687  0.9012
   94MPD2    N1 1473   0.763   1.936  14.337  0.0283 -0.1038 -0.0642
   94MPD2    H7 1474   0.720   2.028  14.342 -0.5378 -0.4914  1.9620
   95TMC2    C1 1475   0.781   4.178  16.821 -0.4980  0.1105  0.2713
   95TMC2    C2 1476   0.707   4.094  16.908 -0.1948 -0.2727  0.2233
   95TMC2    C3 1477   0.703   4.120  17.041  0.5549 -0.6996  0.2481
   95TMC2    C4 1478   0.852   4.280  16.881 -0.1995  0.3734  0.4671
   95TMC2    C5 1479   0.846   4.315  17.013  0.7681  0.1061  0.3586
   95TMC2    C6 1480   0.766   4.235  17.094  0.3837  0.0209  0.3777
   95TMC2     C 1481   0.810   4.146  16.685 -0.2921  0.1424  0.0043
   95TMC2     O 1482   0.852   4.234  16.611 -0.8883  0.1028  0.2156
   95TMC2     H 1483   0.651   4.010  16.869 -1.0057  0.6254 -0.5421
   95TMC2    H1 1484   0.922   4.338  16.822  1.5944 -1.5100  0.7320
   95TMC2    H2 1485   0.765   4.252  17.201  1.6539 -0.4655  0.4723
   95TMC2    C7 1486   0.901   4.435  17.064  0.3183  0.1278 -0.0275
   95TMC2    C8 1487   0.593   4.070  17.119  0.4697 -0.3578  0.7167
   95TMC2    O1 1488   0.923   4.438  17.186 -0.1540 -0.4318 -0.3769
   95TMC2    O2 1489   0.581   3.956  17.158  0.2563  0.0775  0.4714
   95TMC2    O5 1490   0.488   4.128  17.056  0.1651  0.0460  0.0059
   95TMC2    H5 1491   0.511   4.211  17.008 -1.5251 -0.3084 -1.4270
   96MPD2     C 1492   0.765   3.834  16.275  0.0325  0.4613 -0.1116
   96MPD2    C1 1493   0.826   3.957  16.290  0.6738 -0.7747  0.1769
   96MPD2    C2 1494   0.828   4.018  16.413 -0.8738  0.3393 -0.0211
   96MPD2    C3 1495   0.773   3.954  16.523  0.4809  0.0013  0.2507
   96MPD2    C4 1496   0.705   3.836  16.509 -0.8816 -0.2769 -0.0625
   96MPD2    C5 1497   0.700   3.778  16.382 -0.0757 -0.4690 -0.1726
   96MPD2     H 1498   0.878   4.114  16.413  2.1085 -1.2312  1.3598
   96MPD2    H1 1499   0.675   3.782  16.598 -1.0146 -0.4853 -0.2326
   96MPD2    H2 1500   0.751   3.780  16.182  0.9148  1.2707 -0.7104
   96MPD2    H3 1501   0.659   3.678  16.378 -1.1673 -0.0006 -0.6073
   96MPD2     N 1502   0.780   4.014  16.649  0.0323  0.0811  0.0746
   96MPD2    H5 1503   0.754   3.953  16.726  2.6904 -0.6638  0.3815
   96MPD2    N1 1504   0.876   4.009  16.170  0.3065 -0.0736  0.2428
   96MPD2    H7 1505   0.872   3.947  16.090 -0.9464  0.1018  0.1784
   97TMC2    C1 1506   3.140   1.358   0.425 -0.3012 -0.3752  0.9438
   97TMC2    C2 1507   3.086   1.297   0.314 -0.6238 -0.2375  0.6463
   97TMC2    C3 1508   3.084   1.361   0.192 -0.4470  0.0470  0.2843
   97TMC2    C4 1509   3.196   1.479   0.411 -0.6207  0.1832  0.4771
   97TMC2    C5 1510   3.193   1.547   0.288  0.1270  0.0494 -0.9653
   97TMC2    C6 1511   3.139   1.483   0.177 -0.0227 -0.2035 -0.0419
   97TMC2     C 1512   3.084   1.326   0.553  0.9204  0.0018  0.4733
   97TMC2     O 1513   3.051   1.210   0.560  1.0194  0.3325 -0.4223
   97TMC2     H 1514   3.044   1.198   0.318 -0.9208 -0.1443 -0.1685
   97TMC2    H1 1515   3.241   1.529   0.495  0.4643 -1.2852  0.7650
   97TMC2    H2 1516   3.143   1.522   0.076 -0.8668 -3.6313 -1.4224
   97TMC2    C7 1517   3.242   1.682   0.297 -0.1872 -0.1654 -0.5869
   97TMC2    C8 1518   3.088   1.273   0.080  0.1465 -0.5182 -0.5196
   97TMC2    O1 1519   3.337   1.696   0.373  0.6158 -0.1656 -0.4614
   97TMC2    O2 1520   3.050   1.294  17.711  0.0351  0.7494 -0.6033
   97TMC2    O5 1521   3.213   1.231   0.110  0.5456 -0.6113 -0.5080
   97TMC2    H5 1522   3.243   1.231   0.204  0.5963 -0.2196 -0.5270
   98MPD2     C 1523   2.854   1.460   0.988  0.1831  0.1636 -0.6990
   98MPD2    C1 1524   2.817   1.363   0.900 -0.9924  0.0520  0.3434
   98MPD2    C2 1525   2.888   1.359   0.784  0.0342 -0.5077 -0.4992
   98MPD2    C3 1526   2.998   1.443   0.755 -0.4160 -0.6926 -0.0601
   98MPD2    C4 1527   3.023   1.546   0.839  0.1919 -0.0996 -0.0140
   98MPD2    C5 1528   2.955   1.550   0.960 -0.1748 -0.1657  0.2401
   98MPD2     H 1529   2.864   1.275   0.719 -0.5754 -0.2983 -0.5428
   98MPD2    H1 1530   3.095   1.622   0.814  0.4209  0.1701  1.4646
   98MPD2    H2 1531   2.802   1.460   1.083 -0.6318 -0.4775 -1.1490
   98MPD2    H3 1532   2.985   1.625   1.032  1.3382  0.0695 -0.6521
   98MPD2     N 1533   3.074   1.434   0.642  0.0847 -0.2605  0.1749
   98MPD2    H5 1534   3.127   1.518   0.619 -0.4597  0.3152  1.0165
   98MPD2    N1 1535   2.722   1.266   0.948  0.4586  0.3928  0.3616
   98MPD2    H7 1536   2.688   1.294   1.039  0.2511  1.6929 -0.1118
   99TMC2    C1 1537   1.845   3.899   1.705 -0.9160  0.5261 -0.8535
   99TMC2    C2 1538   1.880   3.980   1.806 -0.4147  0.1490  0.1557
   99TMC2    C3 1539   1.824   4.102   1.814 -0.2693  0.6462 -0.0498
   99TMC2    C4 1540   1.759   3.931   1.608 -0.4614  0.4229  0.7688
   99TMC2    C5 1541   1.704   4.063   1.616 -0.2555 -0.1704 -0.0809
   99TMC2    C6 1542   1.732   4.149   1.722 -0.0419  0.3937 -0.4570
   99TMC2     C 1543   1.918   3.772   1.693 -0.5214  0.6765 -0.0341
   99TMC2     O 1544   1.997   3.749   1.782  0.5356  0.1647 -0.0927
   99TMC2     H 1545   1.931   3.938   1.892  1.2231  0.5616 -0.6197
   99TMC2    H1 1546   1.753   3.867   1.521 -0.4290  0.7141  0.5506
   99TMC2    H2 1547   1.694   4.250   1.733 -3.0906 -0.7921  0.0088
   99TMC2    C7 1548   1.606   4.101   1.510 -0.2980  0.6350  0.0313
   99TMC2    C8 1549   1.808   4.139   1.952 -0.2056 -0.3550  0.7645
   99TMC2    O1 1550   1.578   4.217   1.497 -0.2425 -0.4724 -0.4817
   99TMC2    O2 1551   1.891   4.105   2.038  0.0365 -0.1475  0.2536
   99TMC2    O5 1552   1.675   4.159   1.969  0.5625 -0.2554 -0.4221
   99TMC2    H5 1553   1.625   4.154   1.885 -0.9040 -1.3575  0.5150
  100MPD2     C 1554   2.080   3.544   1.591  0.1445 -0.0878 -0.4674
  100MPD2    C1 1555   1.951   3.579   1.543 -0.4610  0.1628 -0.0550
  100MPD2    C2 1556   1.895   3.486   1.456 -0.0597 -0.1056  0.2637
  100MPD2    C3 1557   1.959   3.369   1.425 -0.0431 -0.0163 -0.0746
  100MPD2    C4 1558   2.085   3.344   1.468  0.0779  0.0306  0.3612
  100MPD2    C5 1559   2.150   3.436   1.546 -0.1247 -0.3804  0.2953
  100MPD2     H 1560   1.795   3.505   1.418  0.0174  1.4181  0.8106
  100MPD2    H1 1561   2.139   3.251   1.457 -0.6720 -0.6738  2.6068
  100MPD2    H2 1562   2.128   3.620   1.652 -1.5604  0.6456 -0.0212
  100MPD2    H3 1563   2.254   3.423   1.571 -0.7304 -2.7023  1.6227
  100MPD2     N 1564   1.881   3.272   1.351 -0.4352 -0.3316  0.1974
  100MPD2    H5 1565   1.786   3.291   1.322 -0.9501 -0.6676  1.6495
  100MPD2    N1 1566   1.883   3.692   1.589  0.7864 -0.3691 -0.9387
  100MPD2    H7 1567   1.794   3.707   1.542 -0.6363  2.0762  2.5437
  101TMC2    C1 1568   2.438   4.729  12.946 -0.6184 -0.9391  0.2373
  101TMC2    C2 1569   2.351   0.082  12.880 -0.2020 -0.5471 -0.1609
  101TMC2    C3 1570   2.367   0.109  12.746  0.6533  0.1812  0.4870
  101TMC2    C4 1571   2.544   4.681  12.881  0.2525 -0.2418  0.4118
  101TMC2    C5 1572   2.570   4.725  12.756 -0.6339  0.2057  0.2550
  101TMC2    C6 1573   2.484   0.068  12.682 -0.6530 -0.1663 -0.1246
  101TMC2     C 1574   2.389   4.690  13.078 -0.1729 -0.3745  0.8850
  101TMC2     O 1575   2.282   0.012  13.116  0.0530  0.1526 -0.3471
  101TMC2     H 1576   2.265   0.123  12.932 -0.6268 -0.5201 -0.8907
  101TMC2    H1 1577   2.624   4.624  12.928  1.6667  1.3726 -0.0220
  101TMC2    H2 1578   2.502   0.107  12.582 -1.0423  0.5423  0.0843
  101TMC2    C7 1579   2.710   4.706  12.710 -0.2941  0.4666 -0.3924
  101TMC2    C8 1580   2.327   0.247  12.717 -0.2666  0.5645 -0.5862
  101TMC2    O1 1581   2.777   4.613  12.752 -0.6646  0.2930 -0.1953
  101TMC2    O2 1582   2.350   0.343  12.793  0.5182 -0.2805  0.3228
  101TMC2    O5 1583   2.320   0.259  12.586 -0.1535  0.2271  0.1188
  101TMC2    H5 1584   2.303   0.172  12.544 -0.6212  1.0727 -1.4337
  102MPD2     C 1585   2.603   4.536  13.341 -0.7010  0.0130 -0.2319
  102MPD2    C1 1586   2.487   4.580  13.280  0.5897 -0.4190  0.0532
  102MPD2    C2 1587   2.368   4.546  13.340  0.5047 -0.3458 -0.2179
  102MPD2    C3 1588   2.356   4.477  13.458 -0.2759  0.5008 -0.0965
  102MPD2    C4 1589   2.480   4.429  13.514 -0.1891  0.1852  1.0277
  102MPD2    C5 1590   2.600   4.458  13.453  0.5861 -0.4015 -0.9092
  102MPD2     H 1591   2.275   4.574  13.291  1.4138  1.0217 -1.1673
  102MPD2    H1 1592   2.483   4.371  13.605  0.8611 -0.4423  0.5976
  102MPD2    H2 1593   2.702   4.557  13.304 -1.1017  0.7675 -0.8957
  102MPD2    H3 1594   2.691   4.419  13.498 -0.5596 -1.5031  0.4631
  102MPD2     N 1595   2.229   4.447  13.507 -0.1764  0.6274  0.0310
  102MPD2    H5 1596   2.150   4.460  13.445 -0.5771  1.0869  0.6375
  102MPD2    N1 1597   2.491   4.648  13.154  0.2337  0.6854 -0.6217
  102MPD2    H7 1598   2.580   4.650  13.106  0.9118 -0.3186  0.5728
  103TMC2    C1 1599   0.257   4.405  12.556 -0.4479  0.0869  0.0209
  103TMC2    C2 1600   0.128   4.358  12.585  0.6155 -0.0603  0.5859
  103TMC2    C3 1601   0.093   4.343  12.718  0.6863  0.0578 -0.2676
  103TMC2    C4 1602   0.344   4.447  12.659 -0.0517  0.2024  0.1526
  103TMC2    C5 1603   0.293   4.433  12.788 -0.2244  0.2066 -0.0319
  103TMC2    C6 1604   0.172   4.386  12.818 -0.6059  0.0550 -0.0250
  103TMC2     C 1605   0.266   4.479  12.433  0.1897 -0.3610  0.1058
  103TMC2     O 1606   0.324   4.589  12.435  0.1298 -0.6005  0.0378
  103TMC2     H 1607   0.055   4.337  12.508  1.6439  0.1951 -0.4486
  103TMC2    H1 1608   0.428   4.512  12.639  1.6133 -2.3190 -1.0420
  103TMC2    H2 1609   0.133   4.390  12.919  1.7308  4.1279  0.7040
  103TMC2    C7 1610   0.341   4.526  12.893 -0.8172  0.5614  0.1732
  103TMC2    C8 1611   0.002   4.241  12.747  0.3834  0.2806 -0.2325
  103TMC2    O1 1612   0.263   4.562  12.980 -1.2817  0.3431  0.2485
  103TMC2    O2 1613   4.653   4.220  12.664 -0.1220  0.2272  0.0362
  103TMC2    O5 1614   0.063   4.152  12.822  0.3936 -0.0224  0.3823
  103TMC2    H5 1615   0.140   4.185  12.873  1.8007 -0.8530 -1.2022
  104MPD2     C 1616   0.077   4.398  12.131 -0.2414 -0.6334  0.7620
  104MPD2    C1 1617   0.138   4.479  12.224 -0.0340  0.5633 -0.7750
  104MPD2    C2 1618   0.128   4.614  12.217  0.3122 -0.3132  0.0308
  104MPD2    C3 1619   0.046   4.669  12.117  0.7547  0.3686  0.3901
  104MPD2    C4 1620   4.709   4.586  12.038 -0.2902 -0.1476 -0.4167
  104MPD2    C5 1621   4.732   4.456  12.039 -0.5521  0.1170 -0.3270
  104MPD2     H 1622   0.178   4.682  12.284  0.7096 -1.1555  0.5896
  104MPD2    H1 1623   4.649   4.616  11.952 -0.8807 -0.4263 -0.1017
  104MPD2    H2 1624   0.082   4.291  12.117  0.5806 -0.8549  2.7225
  104MPD2    H3 1625   4.681   4.398  11.962 -0.0910  0.9303 -1.2319
  104MPD2     N 1626   0.008   0.068  12.113  0.1138 -0.3203  0.2000
  104MPD2    H5 1627   0.064   0.127  12.174  2.0824 -1.1736 -0.7680
  104MPD2    N1 1628   0.209   4.413  12.328  0.7203 -0.1872 -0.3291
  104MPD2    H7 1629   0.183   4.316  12.346 -2.2482  0.2059 -2.5337
  105TMC2    C1 1630   1.662   3.206   0.209  0.5020  0.4832  0.1686
  105TMC2    C2 1631   1.612   3.229   0.086  0.3032 -0.0806 -0.6961
  105TMC2    C3 1632   1.478   3.230   0.080  0.4015 -1.0683  0.0481
  105TMC2    C4 1633   1.581   3.190   0.318 -0.4947 -0.8738 -0.7500
  105TMC2    C5 1634   1.442   3.200   0.310 -0.3105 -0.1743 -0.2067
  105TMC2    C6 1635   1.392   3.226   0.188 -1.0110  0.2455 -0.8870
  105TMC2     C 1636   1.804   3.229   0.236 -0.3281  0.0633 -0.8198
  105TMC2     O 1637   1.848   3.179   0.339  0.0339  0.6402 -0.0313
  105TMC2     H 1638   1.675   3.260   0.003  0.3239  0.1387 -0.5993
  105TMC2    H1 1639   1.628   3.183   0.415  0.9252 -0.0323 -1.3756
  105TMC2    H2 1640   1.286   3.236   0.172 -0.7144 -0.1364 -3.1285
  105TMC2    C7 1641   1.384   3.280   0.411 -0.1177  0.4597 -0.4564
  105TMC2    C8 1642   1.414   3.277  17.706 -0.7170 -0.6626  0.3270
  105TMC2    O1 1643   1.403   3.240   0.528  0.1463  0.5740  0.1209
  105TMC2    O2 1644   1.302   3.228  17.689  0.1244 -0.1541 -0.3662
  105TMC2    O5 1645   1.436   3.408  17.710 -0.1837 -0.5195 -0.6273
  105TMC2    H5 1646   1.528   3.433  17.736 -0.6070  0.8647 -0.4521
  106MPD2     C 1647   2.270   3.402   0.095  0.0600 -0.7874  0.0324
  106MPD2    C1 1648   2.176   3.464   0.018  0.3612  0.3570  0.8840
  106MPD2    C2 1649   2.039   3.435   0.032  0.0101 -0.5758  0.5304
  106MPD2    C3 1650   1.995   3.341   0.126 -0.3826 -0.1006 -0.3577
  106MPD2    C4 1651   2.091   3.259   0.184  0.1232  0.4237 -0.1237
  106MPD2    C5 1652   2.226   3.289   0.161  0.2668  0.0358 -0.4614
  106MPD2     H 1653   1.983   3.501  17.711  2.9089  2.2395  0.9036
  106MPD2    H1 1654   2.075   3.177   0.254 -0.2163 -0.1699 -0.8990
  106MPD2    H2 1655   2.375   3.431   0.099 -0.6927  1.5781  2.1468
  106MPD2    H3 1656   2.304   3.233   0.211 -0.6172  0.5735  1.5189
  106MPD2     N 1657   1.859   3.311   0.139  0.0440 -0.3998  0.0392
  106MPD2    H5 1658   1.798   3.364   0.077  3.9929  0.1202 -3.3672
  106MPD2    N1 1659   2.218   3.576  17.687  0.7342 -0.0700  0.6664
  106MPD2    H7 1660   2.150   3.640  17.647  0.3909  0.5675  2.2781
  107TMC2    C1 1661   2.622   2.858  12.215 -0.0927  0.7993  0.0160
  107TMC2    C2 1662   2.607   2.808  12.341 -0.0909 -0.2894 -0.2328
  107TMC2    C3 1663   2.568   2.672  12.346  0.1574 -0.3954 -0.0022
  107TMC2    C4 1664   2.576   2.787  12.105  0.1704 -0.2152  0.2111
  107TMC2    C5 1665   2.518   2.657  12.115  0.1151  0.8645 -0.0750
  107TMC2    C6 1666   2.524   2.604  12.240  0.2565 -0.3866 -0.5472
  107TMC2     C 1667   2.615   3.000  12.209  0.1435  0.6306 -0.0425
  107TMC2     O 1668   2.567   3.042  12.313 -0.0987  0.9732  0.3449
  107TMC2     H 1669   2.638   2.849  12.436  0.1413  1.5178 -1.0882
  107TMC2    H1 1670   2.554   2.848  12.019  1.0667 -1.0380 -0.6039
  107TMC2    H2 1671   2.507   2.497  12.251  0.1719 -0.2347  0.8286
  107TMC2    C7 1672   2.540   2.565  12.006  0.3968 -0.1729 -0.4445
  107TMC2    C8 1673   2.609   2.597  12.457 -0.4390 -0.2984 -0.1561
  107TMC2    O1 1674   2.497   2.454  12.026 -0.1495  0.8123  0.2539
  107TMC2    O2 1675   2.623   2.647  12.568 -0.2750  0.0540 -0.2475
  107TMC2    O5 1676   2.676   2.484  12.415 -0.1386  0.2069  0.0140
  107TMC2    H5 1677   2.701   2.486  12.320 -0.1404 -0.1262  0.0065
  108MPD2     C 1678   2.714   3.225  11.949 -0.5600 -0.3074 -0.2835
  108MPD2    C1 1679   2.656   3.193  12.065 -0.3533  0.1129 -0.7181
  108MPD2    C2 1680   2.595   3.289  12.138  0.8470  0.5188 -0.2345
  108MPD2    C3 1681   2.601   3.420  12.097  0.1883  0.1382 -0.6539
  108MPD2    C4 1682   2.652   3.454  11.973 -0.3645  0.0030  0.1698
  108MPD2    C5 1683   2.700   3.352  11.896 -0.4831  0.6904 -0.1253
  108MPD2     H 1684   2.556   3.268  12.237 -0.2683  0.2740 -0.7199
  108MPD2    H1 1685   2.660   3.556  11.938 -0.9974  0.1837  0.5397
  108MPD2    H2 1686   2.763   3.145  11.895  0.3266 -0.7853  1.2429
  108MPD2    H3 1687   2.735   3.383  11.798  0.2683  1.3689  0.3583
  108MPD2     N 1688   2.547   3.529  12.166  0.3241 -0.3580 -0.0074
  108MPD2    H5 1689   2.541   3.610  12.105 -0.6135 -0.9366 -0.6807
  108MPD2    N1 1690   2.671   3.060  12.097 -0.3633  0.3849 -0.3618
  108MPD2    H7 1691   2.713   2.994  12.033 -0.4704 -0.0755  0.0371
  109TMC2    C1 1692   1.680   0.302   0.930 -0.1666 -0.2607  0.6104
  109TMC2    C2 1693   1.718   0.166   0.922 -0.1777 -0.2909 -0.0684
  109TMC2    C3 1694   1.820   0.131   0.846 -0.6452  0.0609 -0.0594
  109TMC2    C4 1695   1.750   0.394   0.857 -0.2426 -0.4387  0.8035
  109TMC2    C5 1696   1.862   0.354   0.786  0.3375 -0.2453 -0.1365
  109TMC2    C6 1697   1.891   0.219   0.772  0.7221 -0.6881  0.6131
  109TMC2     C 1698   1.582   0.344   1.029 -0.3965 -0.8686  0.6577
  109TMC2     O 1699   1.505   0.255   1.067 -0.1247  0.3031 -0.2469
  109TMC2     H 1700   1.650   0.099   0.974  1.6842 -1.5677  0.7091
  109TMC2    H1 1701   1.722   0.498   0.867  0.7699 -0.2421  1.5912
  109TMC2    H2 1702   1.981   0.176   0.729 -0.4960 -1.7345 -0.8643
  109TMC2    C7 1703   1.965   0.453   0.767 -0.0160  0.5058 -0.1949
  109TMC2    C8 1704   1.852   4.728   0.829  0.6886 -0.2502  0.1639
  109TMC2    O1 1705   1.944   0.564   0.814  0.3896 -0.6152  0.1167
  109TMC2    O2 1706   1.942   4.699   0.753 -0.4045 -0.1081  0.4591
  109TMC2    O5 1707   1.840   4.673   0.955  0.4735  0.3614  0.3750
  109TMC2    H5 1708   1.791   4.724   1.022 -2.0477 -1.6017  0.0409
  110MPD2     C 1709   1.424   0.652   1.408 -0.1085 -0.2188  0.0849
  110MPD2    C1 1710   1.549   0.692   1.368 -0.1008 -0.4216 -0.1591
  110MPD2    C2 1711   1.607   0.630   1.259 -0.6913 -0.6515  0.2412
  110MPD2    C3 1712   1.547   0.523   1.197 -0.0037  0.0050  0.0384
  110MPD2    C4 1713   1.422   0.486   1.238  0.6187 -0.8027  0.1595
  110MPD2    C5 1714   1.357   0.550   1.342  0.7440 -0.9648 -1.5987
  110MPD2     H 1715   1.707   0.660   1.230 -2.2890  3.3860 -1.0210
  110MPD2    H1 1716   1.371   0.411   1.178  3.4312 -2.8936  0.3611
  110MPD2    H2 1717   1.379   0.707   1.490  0.1235  0.7988 -0.4743
  110MPD2    H3 1718   1.257   0.519   1.370  0.4627  2.1263  0.8853
  110MPD2     N 1719   1.608   0.463   1.082 -0.0266  0.6294 -0.6309
  110MPD2    H5 1720   1.703   0.499   1.074  0.6636 -1.1308 -0.4983
  110MPD2    N1 1721   1.616   0.786   1.454 -0.0843 -0.0167 -0.2102
  110MPD2    H7 1722   1.552   0.833   1.517  0.0607  1.0299 -0.8407
  111TMC2    C1 1723   2.369   1.284  11.735 -0.0304  0.5428  0.0311
  111TMC2    C2 1724   2.391   1.358  11.623 -0.1272 -0.6130 -0.6835
  111TMC2    C3 1725   2.514   1.405  11.598  0.2098  0.0905 -0.2487
  111TMC2    C4 1726   2.468   1.276  11.826  0.4509  0.1837  0.5112
  111TMC2    C5 1727   2.591   1.321  11.794 -0.0455 -0.1041 -0.1153
  111TMC2    C6 1728   2.619   1.390  11.682  0.2848  0.2098  0.5799
  111TMC2     C 1729   2.248   1.204  11.743 -0.2808 -0.0740  0.2163
  111TMC2     O 1730   2.183   1.198  11.640 -0.2098 -0.4730  0.1765
  111TMC2     H 1731   2.309   1.391  11.561 -0.9770 -0.4776  0.5242
  111TMC2    H1 1732   2.458   1.213  11.914  0.2547 -0.2388  0.1873
  111TMC2    H2 1733   2.717   1.435  11.676  0.1828  0.1332 -1.5182
  111TMC2    C7 1734   2.697   1.225  11.841  0.1725  0.3640 -0.1407
  111TMC2    C8 1735   2.520   1.502  11.484 -0.0282  0.1561  0.2384
  111TMC2    O1 1736   2.680   1.172  11.948  0.3282 -0.4891 -0.8250
  111TMC2    O2 1737   2.421   1.561  11.443  0.4191 -0.1982  0.2109
  111TMC2    O5 1738   2.645   1.544  11.479 -0.7276  0.5576 -0.3523
  111TMC2    H5 1739   2.705   1.466  11.480 -1.1270  0.2654  0.8375
  112MPD2     C 1740   1.909   0.857  11.913  0.2669 -0.6607 -0.1587
  112MPD2    C1 1741   1.971   0.879  11.786 -0.7488 -0.0622 -0.1920
  112MPD2    C2 1742   2.073   0.972  11.772 -0.1509 -0.3642 -0.7851
  112MPD2    C3 1743   2.111   1.051  11.884  0.2392 -0.7028  0.3589
  112MPD2    C4 1744   2.058   1.020  12.010  0.1677  0.3358  0.4159
  112MPD2    C5 1745   1.960   0.927  12.020 -0.5603 -0.1884 -0.0075
  112MPD2     H 1746   2.118   0.978  11.674  0.3670 -2.1593 -0.6534
  112MPD2    H1 1747   2.100   1.071  12.096  1.2675 -0.3958  0.3115
  112MPD2    H2 1748   1.826   0.792  11.939  0.3560 -0.4437  0.6634
  112MPD2    H3 1749   1.914   0.911  12.117 -3.6146 -0.8079 -1.5798
  112MPD2     N 1750   2.210   1.153  11.869 -0.4819  0.4345 -0.4546
  112MPD2    H5 1751   2.251   1.195  11.952  0.8430 -2.4640  0.3623
  112MPD2    N1 1752   1.947   0.809  11.673  0.1175 -0.0635  0.1219
  112MPD2    H7 1753   2.000   0.818  11.587  1.2932  0.6497  0.9232
  113TMC2    C1 1754   4.702   3.294   0.615  0.0870  0.0542  0.3985
  113TMC2    C2 1755   4.574   3.337   0.630 -0.4276 -0.0152  0.2332
  113TMC2    C3 1756   4.471   3.251   0.620 -0.2171 -0.5572  0.0279
  113TMC2    C4 1757   4.733   3.162   0.581 -0.1678  0.3596  0.2319
  113TMC2    C5 1758   4.627   3.077   0.588  0.4946  0.0348 -0.1650
  113TMC2    C6 1759   4.494   3.117   0.600 -0.1029  0.0403  0.1302
  113TMC2     C 1760   0.072   3.395   0.592 -0.1015 -0.6955 -0.7830
  113TMC2     O 1761   0.033   3.508   0.564 -0.2214 -0.1608  0.2387
  113TMC2     H 1762   4.553   3.443   0.637  2.2365  0.4621  0.8621
  113TMC2    H1 1763   0.098   3.127   0.567  0.1596  1.1634  0.5618
  113TMC2    H2 1764   4.412   3.048   0.583 -2.0064  2.4555 -0.4758
  113TMC2    C7 1765   4.659   2.938   0.603 -0.1165  1.0245  0.4175
  113TMC2    C8 1766   4.338   3.291   0.650 -0.4683  0.5046  1.1513
  113TMC2    O1 1767   4.734   2.892   0.516 -0.7175  0.1652 -0.1438
  113TMC2    O2 1768   4.244   3.217   0.683 -0.3089  0.4855  0.4350
  113TMC2    O5 1769   4.324   3.405   0.577 -0.4725 -0.0143 -0.1437
  113TMC2    H5 1770   4.396   3.424   0.514  0.9629  0.1174  1.5336
  114MPD2     C 1771   0.501   3.582   0.791  0.1834  0.2548  1.0647
  114MPD2    C1 1772   0.422   3.638   0.695 -0.2861  0.2699 -0.0104
  114MPD2    C2 1773   0.311   3.563   0.653 -0.2413  0.2635  0.0581
  114MPD2    C3 1774   0.288   3.435   0.701 -0.2724 -0.2112 -0.4493
  114MPD2    C4 1775   0.370   3.382   0.797 -0.3425 -0.7457  0.3815
  114MPD2    C5 1776   0.470   3.454   0.844  0.7186  0.1269  0.1200
  114MPD2     H 1777   0.252   3.619   0.581  1.8720  2.4673  0.0535
  114MPD2    H1 1778   0.360   3.283   0.840 -2.1020 -0.7544 -0.0372
  114MPD2    H2 1779   0.575   3.639   0.846 -1.0304  2.2646  0.5949
  114MPD2    H3 1780   0.530   3.405   0.920 -0.4553 -0.9115  0.3615
  114MPD2     N 1781   0.188   3.350   0.653 -0.0789 -0.0048 -0.2120
  114MPD2    H5 1782   0.193   3.251   0.672 -2.8828  0.5295  3.2753
  114MPD2    N1 1783   0.440   3.771   0.646  0.7383 -0.0921 -0.7408
  114MPD2    H7 1784   0.357   3.822   0.616  1.1601  1.4527  0.7188
  115TMC2    C1 1785   2.140   1.201   0.276  0.5795  0.8398 -0.2318
  115TMC2    C2 1786   2.262   1.184   0.218  0.0506 -0.1515 -0.4861
  115TMC2    C3 1787   2.356   1.283   0.219 -0.2059  0.0504  0.0852
  115TMC2    C4 1788   2.114   1.314   0.355 -0.0717 -0.2558  0.1209
  115TMC2    C5 1789   2.212   1.413   0.350 -0.5760  0.4425  0.8618
  115TMC2    C6 1790   2.334   1.402   0.281 -0.4536  0.4087 -0.0916
  115TMC2     C 1791   2.038   1.105   0.239 -0.1482  0.5049 -0.4138
  115TMC2     O 1792   2.035   1.074   0.122 -0.0460 -0.1467 -0.4037
  115TMC2     H 1793   2.284   1.102   0.151 -0.1612 -1.2583  0.8078
  115TMC2    H1 1794   2.025   1.332   0.413 -0.4844 -0.8343 -0.3335
  115TMC2    H2 1795   2.414   1.475   0.285  0.6229 -0.7826  0.1803
  115TMC2    C7 1796   2.174   1.547   0.394 -0.8516 -0.1492  0.5453
  115TMC2    C8 1797   2.464   1.270   0.132 -0.6686 -1.0148 -0.2720
  115TMC2    O1 1798   2.140   1.548   0.511 -0.1604 -0.1483  0.1863
  115TMC2    O2 1799   2.495   1.169   0.077 -0.0145 -0.0101  0.2068
  115TMC2    O5 1800   2.456   1.390   0.070  0.2765  0.4611 -0.3054
  115TMC2    H5 1801   2.427   1.464   0.126 -0.0353 -1.0542  1.5170
  116MPD2     C 1802   1.580   0.898   0.311  0.3559  0.0618  0.1464
  116MPD2    C1 1803   1.678   0.865   0.223 -0.4971  0.2992  0.1348
  116MPD2    C2 1804   1.801   0.927   0.231 -0.3500  0.2377 -0.1715
  116MPD2    C3 1805   1.836   1.012   0.336  0.1422 -0.5192  0.6500
  116MPD2    C4 1806   1.733   1.051   0.417 -0.2384  0.2282  0.3704
  116MPD2    C5 1807   1.603   1.000   0.403  0.3757 -0.1125 -0.0757
  116MPD2     H 1808   1.871   0.901   0.152 -0.2951  0.4938 -0.2058
  116MPD2    H1 1809   1.751   1.127   0.492 -0.4054  1.6664 -1.0557
  116MPD2    H2 1810   1.481   0.856   0.300  0.6194 -0.8584  1.2122
  116MPD2    H3 1811   1.520   1.036   0.462  0.3151  0.0554 -0.2639
  116MPD2     N 1812   1.949   1.092   0.345  0.5579 -0.4393  0.1860
  116MPD2    H5 1813   1.963   1.155   0.423  0.2094  0.1865 -0.2553
  116MPD2    N1 1814   1.642   0.761   0.135  0.2971  0.7371 -0.6021
  116MPD2    H7 1815   1.546   0.727   0.141  0.3857  0.9901  1.9316
  117TMC2    C1 1816   0.315   2.563  14.351  0.4322  0.4108 -0.5036
  117TMC2    C2 1817   0.430   2.555  14.276  0.7191 -0.4309  0.0832
  117TMC2    C3 1818   0.514   2.666  14.277  0.1141  0.8198 -0.4628
  117TMC2    C4 1819   0.282   2.666  14.432  0.2340  0.5022 -0.1544
  117TMC2    C5 1820   0.366   2.775  14.420  0.1558 -0.1858 -0.0686
  117TMC2    C6 1821   0.484   2.779  14.347 -0.9680 -0.0418  0.0949
  117TMC2     C 1822   0.212   2.485  14.296 -0.9068  0.6384  0.1841
  117TMC2     O 1823   0.226   2.386  14.225  0.3927  0.2767  0.3933
  117TMC2     H 1824   0.441   2.474  14.205  1.8097 -0.4296  0.2542
  117TMC2    H1 1825   0.202   2.650  14.504  0.3504 -1.4840 -0.4791
  117TMC2    H2 1826   0.551   2.864  14.353 -0.5384 -0.4282  0.8328
  117TMC2    C7 1827   0.301   2.904  14.428  0.7361 -0.2190  0.5074
  117TMC2    C8 1828   0.624   2.659  14.189 -0.3757 -0.1317  0.1494
  117TMC2    O1 1829   0.355   3.008  14.386  0.1057 -0.2143 -0.6896
  117TMC2    O2 1830   0.618   2.589  14.090 -0.2249 -0.0470 -0.4130
  117TMC2    O5 1831   0.727   2.674  14.271 -0.1300 -0.1387  0.2945
  117TMC2    H5 1832   0.698   2.692  14.363 -1.0514 -1.7186  0.3171
  118MPD2     C 1833   4.733   2.993  14.602 -0.0517  0.0232 -0.3232
  118MPD2    C1 1834   0.101   3.013  14.516  0.7444  0.6013 -0.1900
  118MPD2    C2 1835   0.110   3.128  14.447  0.1425 -0.5319  0.4398
  118MPD2    C3 1836   0.010   3.226  14.456  0.1955 -0.6904  0.9886
  118MPD2    C4 1837   4.638   3.204  14.538 -0.3493 -0.5820 -0.5598
  118MPD2    C5 1838   4.637   3.091  14.607  0.2226 -0.4307  0.0117
  118MPD2     H 1839   0.197   3.148  14.384  0.3593 -2.6296  0.0691
  118MPD2    H1 1840   4.559   3.275  14.558 -1.5619 -2.0106 -0.3241
  118MPD2    H2 1841   4.720   2.902  14.659 -2.6872  1.5577  1.4964
  118MPD2    H3 1842   4.550   3.075  14.669  0.1853 -1.2439 -0.2492
  118MPD2     N 1843   0.014   3.348  14.382 -0.6159  0.3800 -0.0808
  118MPD2    H5 1844   4.681   3.420  14.397  0.9199  1.7772  0.4691
  118MPD2    N1 1845   0.185   2.896  14.498 -0.5356 -0.0731 -0.0639
  118MPD2    H7 1846   0.158   2.808  14.541  2.1424 -0.9202 -0.1368
  119TMC2    C1 1847   2.703   4.104  13.400 -0.1177 -0.7703  0.4558
  119TMC2    C2 1848   2.705   4.170  13.280 -0.1094 -0.9206  0.0567
  119TMC2    C3 1849   2.577   4.199  13.230 -0.0489  0.0252 -0.8677
  119TMC2    C4 1850   2.583   4.066  13.459 -0.7799  0.2614 -0.1259
  119TMC2    C5 1851   2.465   4.084  13.392 -0.1873  0.2074 -0.6344
  119TMC2    C6 1852   2.459   4.149  13.275  0.3736 -1.1195  0.2200
  119TMC2     C 1853   2.783   4.157  13.499 -0.1781  0.0347  0.1459
  119TMC2     O 1854   2.737   4.172  13.613 -0.2700 -0.6127  0.3175
  119TMC2     H 1855   2.797   4.195  13.230  0.2106 -0.8656  0.6791
  119TMC2    H1 1856   2.602   4.012  13.551 -1.2518 -1.4806 -1.0599
  119TMC2    H2 1857   2.369   4.166  13.217  1.4871  0.1977 -1.1249
  119TMC2    C7 1858   2.344   4.024  13.446 -1.0355  0.0171 -0.7158
  119TMC2    C8 1859   2.577   4.252  13.096 -0.1856 -0.4490  0.9256
  119TMC2    O1 1860   2.237   4.075  13.410  0.2775  0.3789  0.2232
  119TMC2    O2 1861   2.662   4.330  13.062 -0.2647 -0.3393  0.0312
  119TMC2    O5 1862   2.522   4.164  13.013  0.0681  0.1200  0.5015
  119TMC2    H5 1863   2.474   4.097  13.066  0.0432 -0.8692 -0.7644
  120MPD2     C 1864   3.202   4.415  13.638 -0.5063 -0.8251  0.7696
  120MPD2    C1 1865   3.086   4.403  13.709  0.8832  0.5417 -0.2033
  120MPD2    C2 1866   2.985   4.315  13.653  0.2488 -0.5368  0.6388
  120MPD2    C3 1867   3.002   4.265  13.525 -0.4060 -0.7193  0.4694
  120MPD2    C4 1868   3.126   4.279  13.462  0.2715  0.2483 -0.3313
  120MPD2    C5 1869   3.225   4.358  13.517  0.2417 -0.0227 -0.1513
  120MPD2     H 1870   2.895   4.305  13.712 -0.1682 -1.4191 -0.1397
  120MPD2    H1 1871   3.145   4.233  13.365 -0.6228  2.1456 -1.4201
  120MPD2    H2 1872   3.283   4.454  13.699  1.7520  1.8175 -3.8922
  120MPD2    H3 1873   3.315   4.363  13.457  1.1851  0.2086  1.2968
  120MPD2     N 1874   2.907   4.202  13.448 -0.6782  0.0468 -0.1002
  120MPD2    H5 1875   2.941   4.170  13.358  1.0249  1.0970  0.1620
  120MPD2    N1 1876   3.078   4.457  13.842 -0.9929 -0.5772 -0.3717
  120MPD2    H7 1877   3.164   4.505  13.865  0.3631 -3.3960  0.5500
  121TMC2    C1 1878   4.690   0.653  14.395 -0.1668  0.0973  0.2902
  121TMC2    C2 1879   0.000   0.604  14.276 -0.6149  0.2636  0.7151
  121TMC2    C3 1880   4.653   0.529  14.204  0.4040 -0.0042 -0.4531
  121TMC2    C4 1881   4.565   0.627  14.440 -0.1722  0.6910 -0.7107
  121TMC2    C5 1882   4.487   0.544  14.361 -0.8495 -0.1164  0.8401
  121TMC2    C6 1883   4.525   0.491  14.241 -0.1032 -0.4139  0.7655
  121TMC2     C 1884   0.002   0.787  14.433 -0.3925  0.0522  0.5083
  121TMC2     O 1885   4.693   0.834  14.539 -0.3394  0.9653  0.4456
  121TMC2     H 1886   0.097   0.627  14.232 -1.5589  1.8071 -0.5623
  121TMC2    H1 1887   4.530   0.672  14.533  1.9441 -0.1410  0.4853
  121TMC2    H2 1888   4.454   0.451  14.170  2.0473 -1.0098 -1.0326
  121TMC2    C7 1889   4.347   0.564  14.370  0.7092 -0.1435  0.1699
  121TMC2    C8 1890   4.672   0.515  14.063 -0.7902 -0.2336  0.5538
  121TMC2    O1 1891   4.305   0.661  14.432  0.5730 -0.2540 -0.0250
  121TMC2    O2 1892   4.586   0.567  13.991  0.4469 -0.3081  0.1167
  121TMC2    O5 1893   4.676   0.377  14.066  0.3762 -0.7722 -0.6644
  121TMC2    H5 1894   0.002   0.356  14.138  0.3141 -0.2067 -0.4399
  122MPD2     C 1895   0.084   1.068  14.404 -0.1169 -1.0445 -0.0806
  122MPD2    C1 1896   0.079   0.983  14.299 -0.2221 -0.3828 -0.3259
  122MPD2    C2 1897   0.091   1.028  14.172 -0.0773 -0.3758 -0.3151
  122MPD2    C3 1898   0.094   1.165  14.148 -1.0717  0.0702 -0.9244
  122MPD2    C4 1899   0.092   1.252  14.254 -0.2651  0.2429 -0.2834
  122MPD2    C5 1900   0.079   1.208  14.381 -0.8827 -0.2123  0.4796
  122MPD2     H 1901   0.076   0.955  14.093 -1.0765 -0.2605 -0.2351
  122MPD2    H1 1902   0.070   1.358  14.245  2.4435  0.6570 -1.9215
  122MPD2    H2 1903   0.094   1.041  14.509 -1.6014  0.1123  0.3622
  122MPD2    H3 1904   0.077   1.272  14.468  0.6344  0.3808  0.0760
  122MPD2     N 1905   0.088   1.216  14.022  0.1833  0.0816  0.2531
  122MPD2    H5 1906   0.075   1.317  14.019 -3.5323 -0.4510 -1.5405
  122MPD2    N1 1907   0.045   0.843  14.313 -0.5919  0.2982 -0.0085
  122MPD2    H7 1908   0.038   0.789  14.228 -0.4777  2.3571 -1.3194
  123TMC2    C1 1909   3.789   3.904   9.947 -0.3996  0.5046 -0.5582
  123TMC2    C2 1910   3.842   4.030   9.967 -0.3353  0.3186  0.0232
  123TMC2    C3 1911   3.775   4.139   9.905 -0.2678  0.1224 -0.3355
  123TMC2    C4 1912   3.672   3.885   9.874  0.5116 -0.2520 -0.1581
  123TMC2    C5 1913   3.619   3.993   9.813 -0.5819  0.3566  0.4116
  123TMC2    C6 1914   3.663   4.122   9.836 -0.3260  0.7464 -0.1538
  123TMC2     C 1915   3.824   3.809  10.050  0.9813 -0.0723 -0.2094
  123TMC2     O 1916   3.924   3.826  10.119 -0.6087 -0.6630 -0.5335
  123TMC2     H 1917   3.922   4.057  10.035 -0.8663  2.0495 -0.0473
  123TMC2    H1 1918   3.639   3.786   9.845 -0.0995  0.5313 -2.1506
  123TMC2    H2 1919   3.593   4.205   9.824 -0.0944  0.8728 -0.6342
  123TMC2    C7 1920   3.488   3.983   9.779  0.3332  0.5168 -0.3677
  123TMC2    C8 1921   3.836   4.268   9.895 -0.1603  0.0753 -0.1464
  123TMC2    O1 1922   3.428   3.892   9.840  0.0414 -0.1416  0.3671
  123TMC2    O2 1923   3.896   4.320   9.988  0.0327 -0.6141 -1.0516
  123TMC2    O5 1924   3.816   4.315   9.772  0.0055 -0.9167 -0.1301
  123TMC2    H5 1925   3.773   4.245   9.719 -0.7229 -0.8751  0.4170
  124MPD2     C 1926   3.686   3.391  10.305  0.4332 -0.1888  0.7187
  124MPD2    C1 1927   3.586   3.419  10.219 -0.1709  0.0965 -0.3815
  124MPD2    C2 1928   3.605   3.523  10.124 -0.2246  0.0140  0.0158
  124MPD2    C3 1929   3.719   3.603  10.132  0.0986  0.2723  0.2897
  124MPD2    C4 1930   3.817   3.569  10.223  0.0440 -0.1564  0.0476
  124MPD2    C5 1931   3.808   3.462  10.302  0.7222 -1.0742 -0.4524
  124MPD2     H 1932   3.532   3.537  10.046 -0.7021  0.4688  0.5451
  124MPD2    H1 1933   3.910   3.626  10.224 -0.0376 -0.0462  1.1560
  124MPD2    H2 1934   3.671   3.312  10.378 -2.1371 -0.8431 -0.5368
  124MPD2    H3 1935   3.886   3.437  10.373 -1.0315 -0.0769  1.8351
  124MPD2     N 1936   3.723   3.718  10.059 -0.1170  0.1957  0.2746
  124MPD2    H5 1937   3.637   3.739  10.008 -0.5606  0.9952  1.3487
  124MPD2    N1 1938   3.465   3.351  10.231  0.1358  0.7231 -0.5064
  124MPD2    H7 1939   3.458   3.282  10.305 -2.1543  1.2611 -0.2049
  125TMC2    C1 1940   3.366   0.207   9.673 -0.2808  0.4771 -0.4281
  125TMC2    C2 1941   3.369   0.271   9.793 -0.0716 -0.4146  0.1082
  125TMC2    C3 1942   3.436   0.392   9.798  0.6737 -0.1211  0.3552
  125TMC2    C4 1943   3.430   0.247   9.563 -0.5468 -0.4398 -0.3310
  125TMC2    C5 1944   3.518   0.349   9.579  0.3139 -0.3352  0.5314
  125TMC2    C6 1945   3.514   0.432   9.694 -0.3958  0.8689  0.2326
  125TMC2     C 1946   3.326   0.065   9.682 -0.4744  0.6178  0.3663
  125TMC2     O 1947   3.282   0.019   9.578  0.4591 -0.2053  1.1824
  125TMC2     H 1948   3.315   0.225   9.875  0.3029 -0.5072  0.3021
  125TMC2    H1 1949   3.434   0.176   9.481 -1.4754 -1.1123  0.1912
  125TMC2    H2 1950   3.561   0.529   9.703  1.1894  0.3549 -2.6320
  125TMC2    C7 1951   3.575   0.408   9.457 -0.8765  0.1134  0.2973
  125TMC2    C8 1952   3.420   0.474   9.917  0.0224  0.9091  0.0459
  125TMC2    O1 1953   3.528   0.380   9.353 -0.0672 -0.2922  0.5064
  125TMC2    O2 1954   3.492   0.564   9.960  0.1604 -0.4449  0.5912
  125TMC2    O5 1955   3.287   0.471   9.928 -0.2755 -0.3029 -0.1472
  125TMC2    H5 1956   3.238   0.423   9.858 -2.4250 -1.7892  2.3531
  126MPD1     C 1957   3.310   4.349   9.933  0.1897 -0.6261  0.4425
  126MPD1    C1 1958   3.410   4.425   9.983  0.3239 -0.2297  0.0031
  126MPD1    C2 1959   3.440   4.553   9.942 -0.3497  0.5516  0.1738
  126MPD1    C3 1960   3.358   4.609   9.846 -0.0374  0.4954  0.6504
  126MPD1    C4 1961   3.257   4.532   9.789  0.1936 -0.1880 -0.3747
  126MPD1    C5 1962   3.239   4.398   9.825  0.2201 -0.4355  0.6101
  126MPD1     H 1963   3.525   4.606   9.982  0.6030 -0.4886 -0.4841
  126MPD1    H1 1964   3.200   4.565   9.704 -0.6779 -1.4273 -0.2716
  126MPD1    H2 1965   3.276   4.258   9.981 -1.2439 -0.0580  0.4825
  126MPD1    H3 1966   3.153   4.345   9.785 -0.9971  0.8106  1.5544
  126MPD1     N 1967   3.381   0.004   9.801 -0.2864 -0.5127 -0.1450
  126MPD1    H5 1968   3.448   0.058   9.855 -2.0988 -0.9059  2.5295
  126MPD1    N1 1969   3.473   4.365  10.095 -0.1288 -0.1943  0.2958
  126MPD1    H6 1970   3.566   4.397  10.121 -0.2043 -0.2583  0.6493
  126MPD1    H7 1971   3.459   4.266  10.116 -0.5038 -0.2680 -0.3019
  127TMC2    C1 1972   4.459   4.243   9.868 -0.1518 -0.4849 -0.1534
  127TMC2    C2 1973   4.559   4.156   9.844 -0.5454 -0.0744  0.0676
  127TMC2    C3 1974   4.532   4.046   9.770  0.2394 -0.7578  0.7371
  127TMC2    C4 1975   4.332   4.227   9.825  0.2932  0.5588 -0.4083
  127TMC2    C5 1976   4.301   4.111   9.750  0.5334  0.1753  0.0991
  127TMC2    C6 1977   4.400   4.018   9.722  0.1678 -0.1790 -0.3460
  127TMC2     C 1978   4.501   4.367   9.934 -0.0941 -0.1925  0.5361
  127TMC2     O 1979   4.612   4.410   9.914 -0.2693  0.0411  1.0274
  127TMC2     H 1980   4.659   4.177   9.879 -0.1921 -1.9336  0.1389
  127TMC2    H1 1981   4.249   4.295   9.837 -0.5678 -0.4815 -0.5414
  127TMC2    H2 1982   4.377   3.927   9.667  2.5774  0.1489 -1.9012
  127TMC2    C7 1983   4.167   4.104   9.687 -0.5222 -0.4082 -0.3659
  127TMC2    C8 1984   4.643   3.948   9.766  0.7194 -0.0932 -0.3824
  127TMC2    O1 1985   4.103   4.208   9.671 -0.0760  0.0245 -0.2798
  127TMC2    O2 1986   0.021   3.979   9.789  0.7562  0.5326  0.1990
  127TMC2    O5 1987   4.605   3.822   9.763  0.6385  0.0639 -0.2951
  127TMC2    H5 1988   4.508   3.811   9.757  0.9731 -2.4000 -1.2049
  128MPD2     C 1989   4.284   4.554  10.158  0.0085 -0.2698 -0.0112
  128MPD2    C1 1990   4.397   4.536  10.084  1.3502 -0.9256 -0.2661
  128MPD2    C2 1991   4.497   4.637  10.076 -0.1084 -0.4324 -0.6026
  128MPD2    C3 1992   4.491   0.018  10.151 -1.1196  0.7532  0.2992
  128MPD2    C4 1993   4.385   0.023  10.237  0.5015  0.5068 -0.1011
  128MPD2    C5 1994   4.282   4.661  10.242 -0.3543 -0.7154 -0.0237
  128MPD2     H 1995   4.578   4.610  10.010 -1.1417 -3.3675 -0.6942
  128MPD2    H1 1996   4.382   0.104  10.308 -0.2385 -2.0256  2.7299
  128MPD2    H2 1997   4.210   4.478  10.183 -0.6845  0.1029 -0.9252
  128MPD2    H3 1998   4.190   4.663  10.299  0.0061  1.9788  0.4685
  128MPD2     N 1999   4.596   0.114  10.141 -0.9442 -0.5378 -0.3925
  128MPD2    H5 2000   4.675   0.091  10.082  0.4523  1.2218  0.7923
  128MPD2    N1 2001   4.396   4.419  10.008 -0.2104 -0.2715 -1.0770
  128MPD2    H7 2002   4.315   4.359  10.013  0.0957 -0.6264 -0.3507
  129TMC2    C1 2003   2.858   0.077   1.287  0.7811  0.8154  0.9446
  129TMC2    C2 2004   2.957   0.101   1.374  0.6559  0.1380 -0.5992
  129TMC2    C3 2005   3.024   4.736   1.428 -0.2232 -0.2074 -0.1911
  129TMC2    C4 2006   2.837   4.685   1.241 -0.0127 -0.1262  0.5049
  129TMC2    C5 2007   2.901   4.581   1.299  0.1118  0.8088  0.1158
  129TMC2    C6 2008   2.989   4.605   1.393  0.3493  0.9447  0.1052
  129TMC2     C 2009   2.738   0.161   1.285  0.2082 -0.3596 -0.4730
  129TMC2     O 2010   2.643   0.101   1.231  0.1881 -0.0724  0.1049
  129TMC2     H 2011   2.979   0.201   1.411 -1.1237  0.3317 -0.0930
  129TMC2    H1 2012   2.775   4.666   1.154 -0.4590  2.8553  0.1552
  129TMC2    H2 2013   3.047   4.524   1.437 -2.4716 -0.4282  1.2529
  129TMC2    C7 2014   2.848   4.451   1.280  0.8422  0.3147  0.0745
  129TMC2    C8 2015   3.140   0.018   1.507 -0.6141 -0.2228 -0.2909
  129TMC2    O1 2016   2.740   4.438   1.229  0.6906  0.5915 -0.1132
  129TMC2    O2 2017   3.219   4.663   1.506 -0.9745 -0.0261  0.3243
  129TMC2    O5 2018   3.127   0.128   1.586 -0.6031 -0.3629 -0.2867
  129TMC2    H5 2019   3.040   0.173   1.581 -0.1572  0.4351 -0.9517
  130MPD2     C 2020   2.510   0.350   1.348 -0.3722 -0.5804 -0.3964
  130MPD2    C1 2021   2.642   0.365   1.385  0.2669 -0.4155  0.2589
  130MPD2    C2 2022   2.668   0.477   1.466 -0.3913 -0.6724  0.3973
  130MPD2    C3 2023   2.571   0.555   1.523 -0.4118 -0.1449  0.2572
  130MPD2    C4 2024   2.441   0.540   1.478  0.6867  0.2798  0.3962
  130MPD2    C5 2025   2.414   0.435   1.392 -0.1937 -0.8639  0.5909
  130MPD2     H 2026   2.773   0.487   1.490 -0.6350  1.7273  0.4652
  130MPD2    H1 2027   2.364   0.608   1.512 -0.2278 -0.7622  0.4059
  130MPD2    H2 2028   2.482   0.273   1.278 -0.4139 -0.2049 -0.7885
  130MPD2    H3 2029   2.311   0.432   1.356  0.1540 -1.4325 -0.3380
  130MPD2     N 2030   2.607   0.655   1.613 -0.7454 -0.2503 -0.0910
  130MPD2    H5 2031   2.705   0.677   1.631 -1.2449  1.2360  0.8867
  130MPD2    N1 2032   2.752   0.284   1.346 -0.4391  0.2727  0.5615
  130MPD2    H7 2033   2.844   0.306   1.383  0.7797 -0.6805 -1.9239
  131TMC2    C1 2034   3.026   4.326  10.119 -0.0734 -0.4697 -0.3622
  131TMC2    C2 2035   3.114   4.395  10.191 -0.6058  0.3875 -0.6196
  131TMC2    C3 2036   3.129   4.529  10.178  0.0843  0.0273 -0.4954
  131TMC2    C4 2037   2.947   4.390  10.027  0.4518  0.5830 -0.1750
  131TMC2    C5 2038   2.955   4.531  10.029  0.2999  0.2337  0.4265
  131TMC2    C6 2039   3.044   4.599  10.098 -0.1817 -0.0256  0.3387
  131TMC2     C 2040   3.014   4.179  10.149  0.0553  0.1366 -0.0590
  131TMC2     O 2041   3.119   4.119  10.164 -0.2770 -0.4206  0.2263
  131TMC2     H 2042   3.165   4.339  10.269 -0.9944 -0.4462 -0.9656
  131TMC2    H1 2043   2.865   4.339   9.978  0.7573 -1.0051  0.9755
  131TMC2    H2 2044   3.072   4.704  10.100 -0.0010 -0.0961  1.5045
  131TMC2    C7 2045   2.899   4.589   9.909 -0.1664 -0.1481  0.1315
  131TMC2    C8 2046   3.204   4.595  10.282  0.0142  0.8110  0.5731
  131TMC2    O1 2047   2.832   4.512   9.843 -0.2495  0.4632  0.3720
  131TMC2    O2 2048   3.154   4.694  10.337 -0.2977  0.2807 -0.6787
  131TMC2    O5 2049   3.336   4.562  10.267  0.0217  0.3257  0.1388
  131TMC2    H5 2050   3.347   4.500  10.192 -0.7165  1.8437 -1.2224
  132MPD2     C 2051   2.698   3.986  10.181  0.3120  0.9146  0.3001
  132MPD2    C1 2052   2.838   4.009  10.172 -0.2054 -0.4826 -0.8202
  132MPD2    C2 2053   2.917   3.899  10.194 -0.2772  0.4188 -0.7919
  132MPD2    C3 2054   2.870   3.779  10.229  0.3874 -0.6472 -0.0325
  132MPD2    C4 2055   2.732   3.753  10.237  0.3677  0.6198 -0.5373
  132MPD2    C5 2056   2.652   3.860  10.220 -0.2185  0.4733  0.8058
  132MPD2     H 2057   3.022   3.912  10.214 -1.2539  1.9977  3.4567
  132MPD2    H1 2058   2.690   3.663  10.280  0.6255 -0.0156 -1.5882
  132MPD2    H2 2059   2.626   4.063  10.157 -0.2874  0.2446 -0.0680
  132MPD2    H3 2060   2.546   3.853  10.243 -0.0891 -0.2940  1.1641
  132MPD2     N 2061   2.961   3.679  10.254 -0.2472  0.2235  0.3340
  132MPD2    H5 2062   3.059   3.702  10.244 -0.5922  1.9460  1.0153
  132MPD2    N1 2063   2.886   4.136  10.146  0.2271 -0.2863 -0.0476
  132MPD2    H7 2064   2.817   4.210  10.145 -0.1211 -0.6302 -2.0349
  133TMC2    C1 2065   2.405   1.193   9.724 -0.1150  0.1955 -0.3075
  133TMC2    C2 2066   2.408   1.188   9.859 -0.5240 -0.9017 -0.1719
  133TMC2    C3 2067   2.469   1.289   9.928 -0.3832  0.2787 -0.8773
  133TMC2    C4 2068   2.446   1.294   9.649  0.4223 -0.7969  0.0347
  133TMC2    C5 2069   2.488   1.404   9.725  0.2745  0.1674  0.2287
  133TMC2    C6 2070   2.510   1.400   9.862  0.0902 -0.0950  0.5367
  133TMC2     C 2071   2.368   1.062   9.663 -0.2773 -0.3531 -0.2445
  133TMC2     O 2072   2.294   0.988   9.722 -0.0862  0.1034 -0.1937
  133TMC2     H 2073   2.373   1.098   9.909  2.0208 -0.2958  2.7178
  133TMC2    H1 2074   2.421   1.293   9.544 -0.8953  1.2229  0.3296
  133TMC2    H2 2075   2.568   1.474   9.916  1.0787  1.1399 -2.1618
  133TMC2    C7 2076   2.537   1.521   9.655 -0.0487  0.5398  0.9623
  133TMC2    C8 2077   2.531   1.285  10.060  0.4229  0.7341  0.2368
  133TMC2    O1 2078   2.554   1.504   9.535  0.5588  0.1145 -0.2450
  133TMC2    O2 2079   2.627   1.355  10.086 -0.0158  0.4324 -0.0391
  133TMC2    O5 2080   2.473   1.191  10.140 -0.0080 -0.4712 -0.4456
  133TMC2    H5 2081   2.402   1.139  10.096 -0.5131 -0.8900  0.8652
  134MPD2     C 2082   2.535   0.905   9.368 -0.5608  0.1665  0.5014
  134MPD2    C1 2083   2.441   0.920   9.465  0.0759 -0.7739  0.7538
  134MPD2    C2 2084   2.358   0.815   9.488  0.3493  1.2781 -0.0198
  134MPD2    C3 2085   2.363   0.702   9.404 -0.1907  0.0285 -0.6104
  134MPD2    C4 2086   2.449   0.697   9.295 -0.3951 -0.0411 -0.5043
  134MPD2    C5 2087   2.540   0.797   9.281 -0.4872  0.6254  0.4027
  134MPD2     H 2088   2.286   0.819   9.569 -1.1012 -0.1311 -1.2256
  134MPD2    H1 2089   2.454   0.615   9.224  1.8005 -0.6211  0.3434
  134MPD2    H2 2090   2.609   0.983   9.355  1.0773 -1.3239  0.8952
  134MPD2    H3 2091   2.609   0.802   9.198 -1.8053 -0.3215 -0.7363
  134MPD2     N 2092   2.283   0.588   9.417 -0.2473 -0.3553  0.1315
  134MPD2    H5 2093   2.293   0.525   9.338 -1.1051 -1.0634  0.5833
  134MPD2    N1 2094   2.440   1.037   9.547  0.9168  0.2971 -0.2442
  134MPD2    H7 2095   2.515   1.100   9.522  0.6579  1.3892  1.6895
  135TMC2    C1 2096   3.583   2.071   9.642 -0.4430  0.5520 -0.1059
  135TMC2    C2 2097   3.474   2.061   9.565 -0.2655  0.1885 -0.7159
  135TMC2    C3 2098   3.386   1.954   9.588 -0.5455  0.5857  0.9236
  135TMC2    C4 2099   3.597   1.997   9.758 -0.1792 -0.2965  0.1791
  135TMC2    C5 2100   3.500   1.906   9.785 -0.2287  0.7165  0.0030
  135TMC2    C6 2101   3.396   1.873   9.696  0.5334  0.2315  0.1631
  135TMC2     C 2102   3.687   2.159   9.602  0.1952  0.4306  0.9885
  135TMC2     O 2103   3.654   2.254   9.533  0.5724 -0.2027 -0.6361
  135TMC2     H 2104   3.465   2.135   9.485 -0.5920  1.4697  0.5004
  135TMC2    H1 2105   3.664   2.035   9.833 -2.6632  1.2010  1.6520
  135TMC2    H2 2106   3.323   1.793   9.711  0.8229 -0.1929 -0.7079
  135TMC2    C7 2107   3.538   1.815   9.895  0.1929 -0.5434 -0.0468
  135TMC2    C8 2108   3.265   1.963   9.510 -0.1088 -0.7060  0.3414
  135TMC2    O1 2109   3.652   1.821   9.928 -0.1753  0.4396 -0.2145
  135TMC2    O2 2110   3.191   1.867   9.499 -0.4867  0.2934 -0.7740
  135TMC2    O5 2111   3.222   2.088   9.520 -1.2539  0.5563 -0.4730
  135TMC2    H5 2112   3.293   2.146   9.558 -1.2603 -0.7973  1.6235
  136MPD2     C 2113   3.946   2.300   9.571  0.1566  0.2716 -0.5700
  136MPD2    C1 2114   3.934   2.163   9.598 -0.6967  0.5569  0.7280
  136MPD2    C2 2115   4.056   2.092   9.605 -0.4083 -0.4288  0.1964
  136MPD2    C3 2116   4.182   2.155   9.589 -0.5969  0.2185  0.3050
  136MPD2    C4 2117   4.189   2.288   9.577  1.0369 -0.8524 -0.5303
  136MPD2    C5 2118   4.070   2.356   9.575 -0.1728  0.9737 -0.3896
  136MPD2     H 2119   4.047   1.984   9.611  0.4868 -0.6625 -2.7671
  136MPD2    H1 2120   4.280   2.343   9.562  0.5706  0.1568  0.3676
  136MPD2    H2 2121   3.860   2.364   9.558  0.8856  1.0379 -1.5503
  136MPD2    H3 2122   4.078   2.464   9.570 -0.2330  1.0460  1.0173
  136MPD2     N 2123   4.307   2.086   9.591 -0.6482 -0.3255  0.5448
  136MPD2    H5 2124   4.394   2.135   9.570 -1.4777  1.4119  1.1460
  136MPD2    N1 2125   3.810   2.096   9.618  0.2872 -0.7506  0.1115
  136MPD2    H7 2126   3.816   1.999   9.649  1.6924 -0.5560  0.4900
  137TMC2    C1 2127   3.997   0.829   9.986 -0.9508  0.5203 -0.2194
  137TMC2    C2 2128   4.082   0.891  10.077 -0.4347  0.4098 -0.0800
  137TMC2    C3 2129   4.083   1.029  10.078 -1.4282  0.5581 -0.3207
  137TMC2    C4 2130   3.913   0.902   9.906 -0.4990 -0.1124 -0.0894
  137TMC2    C5 2131   3.913   1.037   9.916  0.3161  0.2374 -0.1796
  137TMC2    C6 2132   4.006   1.106   9.993  0.5536  0.4308  0.0779
  137TMC2     C 2133   3.971   0.693  10.001  0.4929 -0.5173 -0.1796
  137TMC2     O 2134   3.993   0.647  10.110 -0.0314  0.4301 -0.2681
  137TMC2     H 2135   4.150   0.831  10.136 -1.2454 -0.1580  0.2828
  137TMC2    H1 2136   3.838   0.844   9.852  1.2739 -1.4876 -1.0608
  137TMC2    H2 2137   4.011   1.214   9.985 -2.6440  0.4398 -2.0062
  137TMC2    C7 2138   3.827   1.116   9.830 -0.7363  0.3317  0.1907
  137TMC2    C8 2139   4.188   1.078  10.157 -0.1189 -0.1691  0.3246
  137TMC2    O1 2140   3.856   1.237   9.812 -0.7915  0.6087  0.6861
  137TMC2    O2 2141   4.210   1.201  10.143  0.1367  0.2251 -0.4124
  137TMC2    O5 2142   4.179   1.011  10.274  0.4987  0.2674  0.2522
  137TMC2    H5 2143   4.228   1.062  10.342  1.2890 -0.6339  0.3570
  138MPD2     C 2144   3.888   0.443   9.746  0.6387 -0.1595 -0.2803
  138MPD2    C1 2145   3.886   0.510   9.867  0.2701  0.6227 -0.3061
  138MPD2    C2 2146   3.827   0.451   9.972  0.0361  0.3864  0.4090
  138MPD2    C3 2147   3.763   0.331   9.951  0.3040 -0.2724 -0.2354
  138MPD2    C4 2148   3.770   0.264   9.829  0.0044 -0.3020 -0.3563
  138MPD2    C5 2149   3.835   0.316   9.727 -0.5193  0.3415 -0.0176
  138MPD2     H 2150   3.807   0.504  10.064  0.2565 -0.7749  1.1261
  138MPD2    H1 2151   3.722   0.167   9.819  1.3513 -0.8048 -1.8845
  138MPD2    H2 2152   3.949   0.483   9.666 -0.2888 -0.4107 -1.1135
  138MPD2    H3 2153   3.858   0.255   9.640 -1.7420 -4.2705  2.8837
  138MPD2     N 2154   3.689   0.285  10.061 -0.2169  0.4071  0.3483
  138MPD2    H5 2155   3.692   0.345  10.143 -3.7359 -0.6498  1.2456
  138MPD2    N1 2156   3.952   0.633   9.883  0.2861 -0.6581 -0.2623
  138MPD2    H7 2157   3.976   0.681   9.797 -1.9190 -2.0757 -1.6949
  139TMC2    C1 2158   4.506   3.639  13.670  1.1043  0.3392 -0.1874
  139TMC2    C2 2159   4.543   3.679  13.541  0.0428 -0.4733 -0.4024
  139TMC2    C3 2160   4.519   3.809  13.503 -0.6037 -0.0133 -0.2680
  139TMC2    C4 2161   4.448   3.733  13.756  0.1911 -0.5295 -0.2748
  139TMC2    C5 2162   4.404   3.848  13.700 -0.1447  0.3143 -0.2169
  139TMC2    C6 2163   4.436   3.886  13.573  0.6308  0.6389  0.5668
  139TMC2     C 2164   4.550   3.509  13.699 -0.7116 -0.2777  0.4031
  139TMC2     O 2165   4.587   3.436  13.606  0.6643  0.1521  0.1630
  139TMC2     H 2166   4.602   3.620  13.472  0.8010 -0.2601  0.0650
  139TMC2    H1 2167   4.413   3.707  13.855  0.6401  2.9964  0.8145
  139TMC2    H2 2168   4.407   3.982  13.532 -2.4216 -1.8084 -3.0886
  139TMC2    C7 2169   4.329   3.952  13.767  0.2161  1.0737 -0.1687
  139TMC2    C8 2170   4.610   3.862  13.412  0.5706  0.5729 -0.2064
  139TMC2    O1 2171   4.279   4.040  13.699 -0.0713  0.6840  0.2092
  139TMC2    O2 2172   4.647   3.791  13.321  0.0457  0.7304  0.1928
  139TMC2    O5 2173   4.691   3.962  13.469 -1.1527  0.0782  0.2275
  139TMC2    H5 2174   4.657   3.994  13.556 -0.2014  0.1460  0.5701
  140MPD2     C 2175   4.581   3.326  14.008 -1.0361 -0.6030  0.6174
  140MPD2    C1 2176   4.610   3.358  13.880  0.3875 -0.3697  0.3345
  140MPD2    C2 2177   4.702   3.280  13.808  0.0890  0.2685  0.1360
  140MPD2    C3 2178   0.018   3.171  13.865  0.2083 -0.4245  0.2353
  140MPD2    C4 2179   4.716   3.127  13.990 -0.5816  0.2447 -0.2966
  140MPD2    C5 2180   4.631   3.208  14.060  0.0294 -0.4576 -0.1620
  140MPD2     H 2181   4.736   3.304  13.708  0.0207 -1.3402 -0.2852
  140MPD2    H1 2182   0.031   3.049  14.045 -1.2462  0.7807  1.0673
  140MPD2    H2 2183   4.528   3.395  14.073 -0.9077  0.3780 -0.3315
  140MPD2    H3 2184   4.615   3.194  14.166 -0.6535  0.6143 -0.1185
  140MPD2     N 2185   0.108   3.095  13.781 -0.0657 -0.3377  0.0840
  140MPD2    H5 2186   0.125   3.116  13.684  2.5272  1.8056  0.9854
  140MPD2    N1 2187   4.547   3.481  13.831 -0.5152  0.2927  0.8006
  140MPD2    H7 2188   4.496   3.537  13.898 -0.8979 -0.5495  1.2120
  141TMC2    C1 2189   0.060   0.129  14.452 -0.8087 -0.7644 -0.5519
  141TMC2    C2 2190   0.112   0.014  14.514  0.4409 -0.7701 -1.1560
  141TMC2    C3 2191   0.178   0.036  14.633 -0.4923  0.2741 -0.9988
  141TMC2    C4 2192   0.066   0.252  14.515 -0.4320  0.4428  0.1425
  141TMC2    C5 2193   0.124   0.257  14.637  0.7014 -0.0593 -0.4823
  141TMC2    C6 2194   0.198   0.159  14.689 -0.1127 -0.2635  0.2923
  141TMC2     C 2195   0.065   0.141  14.309 -0.3368  0.2654  0.0828
  141TMC2     O 2196   0.109   0.242  14.260 -0.2308  0.5229  0.1387
  141TMC2     H 2197   0.117   4.652  14.470 -0.2887 -1.5282  0.4448
  141TMC2    H1 2198   0.017   0.341  14.476 -2.3895  0.3244  2.3072
  141TMC2    H2 2199   0.230   0.153  14.793 -1.4592  2.0969  0.8439
  141TMC2    C7 2200   0.146   0.394  14.686 -0.2855  0.7320  0.0143
  141TMC2    C8 2201   0.255   4.665  14.704  0.3946 -0.2451 -0.2206
  141TMC2    O1 2202   0.065   0.481  14.658  0.1777  0.8863 -0.2948
  141TMC2    O2 2203   0.360   4.696  14.762  0.1016  0.3729  0.1586
  141TMC2    O5 2204   0.237   4.553  14.632  0.0519 -1.0683  0.6266
  141TMC2    H5 2205   0.142   4.530  14.637 -0.0887 -0.3845  1.0911
  142TMC2    C1 2206   2.669   3.662   9.859 -0.2404  0.7733 -0.0569
  142TMC2    C2 2207   2.558   3.743   9.872  0.3157  0.3481  0.1853
  142TMC2    C3 2208   2.574   3.878   9.854 -0.2447  0.0484 -0.8299
  142TMC2    C4 2209   2.792   3.718   9.835 -0.4661  0.2778  0.2759
  142TMC2    C5 2210   2.805   3.854   9.810 -0.1125  0.1287  0.1338
  142TMC2    C6 2211   2.694   3.934   9.820 -0.9036  0.4315  0.0320
  142TMC2     C 2212   2.648   3.528   9.914 -0.2419 -0.1238 -0.5787
  142TMC2     O 2213   2.531   3.493   9.929  0.2995 -0.1119  0.0522
  142TMC2     H 2214   2.464   3.708   9.913 -1.5937  4.0567 -1.0640
  142TMC2    H1 2215   2.879   3.654   9.824  1.1799  2.3557  1.1582
  142TMC2    H2 2216   2.695   4.042   9.827 -2.9457  0.2759  2.7863
  142TMC2    C7 2217   2.937   3.897   9.780  0.3600 -0.6022 -0.4835
  142TMC2    C8 2218   2.462   3.957   9.884  0.2284 -0.0603 -0.3570
  142TMC2    O1 2219   3.034   3.820   9.795  0.1176  0.0066  0.4006
  142TMC2    O2 2220   2.470   4.074   9.922  0.3003 -0.3602 -0.2267
  142TMC2    O5 2221   2.369   3.912   9.803 -0.1768 -0.1040 -0.3723
  142TMC2    H5 2222   2.397   3.829   9.761 -2.1095 -0.9313 -0.0251
  143MPD2     C 2223   2.807   3.072  10.086  1.1685  0.4965 -0.5081
  143MPD2    C1 2224   2.686   3.119  10.049  0.3333  0.0233  0.3520
  143MPD2    C2 2225   2.665   3.241   9.997  0.5079 -0.4396  0.8610
  143MPD2    C3 2226   2.780   3.325   9.985 -0.0380 -0.6240 -0.6562
  143MPD2    C4 2227   2.905   3.280  10.018 -0.3427  0.8024  0.2205
  143MPD2    C5 2228   2.919   3.150  10.071 -0.2449 -0.1573  0.5891
  143MPD2     H 2229   2.565   3.273   9.972  1.4957  1.7420 -0.3095
  143MPD2    H1 2230   2.989   3.349  10.018 -0.0236  0.4081  3.2731
  143MPD2    H2 2231   2.829   2.977  10.132  0.1440  0.3186 -0.3951
  143MPD2    H3 2232   3.012   3.105  10.103  0.0905 -0.8188 -1.3362
  143MPD2     N 2233   2.764   3.459   9.944 -0.5247 -0.5828  0.5772
  143MPD2    H5 2234   2.855   3.498   9.920 -1.3394  0.6612 -0.4297
  143MPD2    N1 2235   2.582   3.022  10.064  0.6039  0.2463 -0.6434
  143MPD2    H7 2236   2.605   2.942  10.122  1.3044  1.0381  0.1591
  144TMC2    C1 2237   0.960   2.408   0.865 -0.1901  0.3855  0.5693
  144TMC2    C2 2238   1.060   2.320   0.837 -0.0761 -0.2100  0.3958
  144TMC2    C3 2239   1.172   2.320   0.920 -0.0614  0.4990  0.0239
  144TMC2    C4 2240   0.968   2.495   0.972 -0.2290 -0.0254  0.4304
  144TMC2    C5 2241   1.085   2.494   1.045 -0.0455 -0.1942 -0.4992
  144TMC2    C6 2242   1.189   2.403   1.024 -0.3129 -0.4322  0.1672
  144TMC2     C 2243   0.861   2.436   0.761 -0.3985 -0.2839  0.0563
  144TMC2     O 2244   0.844   2.357   0.673  0.2379 -0.3080  0.1536
  144TMC2     H 2245   1.056   2.266   0.743  0.2631 -1.5358  1.1453
  144TMC2    H1 2246   0.879   2.551   0.999 -0.4014 -0.1637  0.1477
  144TMC2    H2 2247   1.272   2.404   1.094 -0.5059  0.5776  0.3776
  144TMC2    C7 2248   1.096   2.576   1.170 -0.1355 -0.0034 -0.4236
  144TMC2    C8 2249   1.243   2.196   0.922 -0.6253 -0.3316  0.4187
  144TMC2    O1 2250   1.181   2.532   1.251 -0.0827 -0.4049 -0.1358
  144TMC2    O2 2251   1.177   2.095   0.899  0.1648  0.6289  0.4190
  144TMC2    O5 2252   1.360   2.206   0.987 -0.0895 -0.3828 -0.1365
  144TMC2    H5 2253   1.411   2.288   0.969 -1.2629  0.1716 -0.9672
  145MPD2     C 2254   0.456   2.688   0.557 -0.2747  0.1895  0.4181
  145MPD2    C1 2255   0.502   2.559   0.540 -0.4361  0.0560  0.9057
  145MPD2    C2 2256   0.611   2.519   0.609  0.5928  0.1653 -0.1591
  145MPD2    C3 2257   0.670   2.596   0.712 -0.5112 -0.0912 -0.3544
  145MPD2    C4 2258   0.611   2.726   0.731 -0.4012  0.2414 -0.1721
  145MPD2    C5 2259   0.506   2.767   0.653 -0.0814 -0.0677  0.0832
  145MPD2     H 2260   0.652   2.421   0.586 -2.3322 -0.8832 -0.8486
  145MPD2    H1 2261   0.647   2.789   0.811  0.1359 -1.7261  1.1289
  145MPD2    H2 2262   0.375   2.730   0.498  0.6650 -1.8143 -2.2799
  145MPD2    H3 2263   0.462   2.865   0.660 -0.3205 -0.1517 -0.2417
  145MPD2     N 2264   0.787   2.555   0.783  0.2595 -0.1965  0.1031
  145MPD2    H5 2265   0.818   2.628   0.846  0.5662 -0.3831  0.1636
  145MPD2    N1 2266   0.440   2.473   0.447  0.3621 -0.4682  0.1253
  145MPD2    H7 2267   0.472   2.378   0.432 -0.5866 -0.7949  0.1615
  146TMC2    C1 2268   2.158   1.453  12.725  0.3816 -0.4979 -0.8823
  146TMC2    C2 2269   2.128   1.523  12.608 -0.3123  0.2339  0.1081
  146TMC2    C3 2270   2.103   1.442  12.498 -0.1766 -0.4496 -0.3159
  146TMC2    C4 2271   2.162   1.316  12.734  0.6361  0.6063  0.5142
  146TMC2    C5 2272   2.144   1.243  12.615 -0.0489  0.4671  0.0089
  146TMC2    C6 2273   2.102   1.306  12.502 -0.6649  0.8354  0.0930
  146TMC2     C 2274   2.160   1.534  12.849  0.2337  0.3486  0.7305
  146TMC2     O 2275   2.141   1.655  12.836  0.0397  0.1127  0.2241
  146TMC2     H 2276   2.142   1.631  12.612 -1.5751  0.5154 -3.2218
  146TMC2    H1 2277   2.209   1.266  12.818  0.2190  0.8481  0.8910
  146TMC2    H2 2278   2.080   1.247  12.414 -0.0635  1.3494 -0.3997
  146TMC2    C7 2279   2.211   1.117  12.593 -0.0748 -0.0283 -0.1080
  146TMC2    C8 2280   2.134   1.496  12.362 -0.5163  0.2216  0.5801
  146TMC2    O1 2281   2.232   1.104  12.477 -0.1222 -0.4865 -0.5785
  146TMC2    O2 2282   2.124   1.428  12.264  0.2225 -0.0295 -0.2440
  146TMC2    O5 2283   2.210   1.607  12.385  0.2025  0.2586  0.2333
  146TMC2    H5 2284   2.194   1.644  12.474 -1.1985  2.3314 -0.8851
  147MPD2     C 2285   2.376   0.649  12.699  0.5241  0.1087 -0.6989
  147MPD2    C1 2286   2.300   0.690  12.810 -0.3673 -0.0993 -0.4402
  147MPD2    C2 2287   2.244   0.814  12.806 -0.2133  0.6590  0.1121
  147MPD2    C3 2288   2.267   0.897  12.701 -0.1728 -0.2474  0.2613
  147MPD2    C4 2289   2.342   0.856  12.594  0.0100 -0.2124 -0.2361
  147MPD2    C5 2290   2.395   0.734  12.593 -0.3303 -0.4049 -0.3773
  147MPD2     H 2291   2.178   0.855  12.882  0.5960 -0.6113  1.4747
  147MPD2    H1 2292   2.355   0.915  12.504  0.3623 -2.2310 -1.4963
  147MPD2    H2 2293   2.428   0.554  12.685 -0.9045 -0.8602  0.5790
  147MPD2    H3 2294   2.468   0.699  12.521 -3.0917  0.4741 -3.5849
  147MPD2     N 2295   2.207   1.026  12.697 -0.1247 -0.3116  0.5770
  147MPD2    H5 2296   2.155   1.053  12.780 -0.0228  0.3134  0.4348
  147MPD2    N1 2297   2.284   0.599  12.909 -0.6927 -0.0744  0.3163
  147MPD2    H7 2298   2.322   0.508  12.889 -0.5821 -0.4506  2.1971
  148TMC2    C1 2299   2.117   0.053  10.699  0.6522  0.7418  0.2423
  148TMC2    C2 2300   2.075   0.117  10.812 -0.0232 -0.0701 -0.0648
  148TMC2    C3 2301   2.105   0.047  10.924 -0.2633  0.2477 -0.0761
  148TMC2    C4 2302   2.184   4.668  10.698 -0.6948 -0.0313 -0.0197
  148TMC2    C5 2303   2.217   4.614  10.825 -0.1905 -0.4990 -0.4006
  148TMC2    C6 2304   2.167   4.666  10.938  0.0207 -0.3781 -0.6508
  148TMC2     C 2305   2.028   0.084  10.580  0.6888  0.0526  0.1664
  148TMC2     O 2306   1.976   0.193  10.583 -0.2256 -0.6903  0.2006
  148TMC2     H 2307   2.036   0.217  10.803 -2.3230 -1.0186 -0.6561
  148TMC2    H1 2308   2.214   4.622  10.605  1.1522  1.0185  0.0573
  148TMC2    H2 2309   2.193   4.633  11.038 -1.4955 -3.0136 -1.1323
  148TMC2    C7 2310   2.255   4.471  10.822 -0.2225 -0.9180 -0.0022
  148TMC2    C8 2311   2.069   0.099  11.054  0.9914  0.0287 -0.4783
  148TMC2    O1 2312   2.294   4.428  10.713  0.1684  0.0615 -0.2875
  148TMC2    O2 2313   2.155   0.138  11.131 -0.5252 -0.0838 -0.6532
  148TMC2    O5 2314   1.957   0.168  11.018 -0.2213  0.0032  0.2024
  148TMC2    H5 2315   1.900   0.116  10.957 -0.5583  0.1732  0.3770
  149MPD2     C 2316   1.856   0.106  10.334 -0.1443  0.9555  0.2706
  149MPD2    C1 2317   1.918   4.726  10.376 -0.5544  0.3134  0.0513
  149MPD2    C2 2318   1.899   4.608  10.311  0.6012 -0.4913  0.2139
  149MPD2    C3 2319   1.816   4.595  10.200 -0.2120  0.5284  0.1231
  149MPD2    C4 2320   1.749   4.713  10.156 -0.1513  0.2465 -0.0287
  149MPD2    C5 2321   1.776   0.097  10.225  0.1997  0.2127 -0.1064
  149MPD2     H 2322   1.962   4.527  10.346  0.6987 -0.9142 -0.9313
  149MPD2    H1 2323   1.684   4.709  10.070 -0.6318  1.4889  0.2869
  149MPD2    H2 2324   1.881   0.204  10.373  1.6608  0.2014  0.9832
  149MPD2    H3 2325   1.733   0.188  10.184  0.0608  0.0895 -0.2326
  149MPD2     N 2326   1.783   4.474  10.132 -0.1655 -0.0635  0.7115
  149MPD2    H5 2327   1.728   4.485  10.047  0.1157 -3.0650  0.1261
  149MPD2    N1 2328   2.000   4.720  10.492 -0.0285  0.7415  0.0737
  149MPD2    H7 2329   2.030   4.627  10.519  1.6158  2.0671  2.8678
  150TMC2    C1 2330   4.427   3.985  12.428  0.4309  0.4209 -0.1090
  150TMC2    C2 2331   4.380   4.040  12.310 -0.1619 -0.0616  1.0687
  150TMC2    C3 2332   4.468   4.097  12.221 -0.2864  0.0959 -0.4991
  150TMC2    C4 2333   4.557   4.002  12.463 -0.6111 -0.5086 -0.0749
  150TMC2    C5 2334   4.645   4.046  12.364  0.7237  0.3197  0.1282
  150TMC2    C6 2335   4.598   4.101  12.243  0.0378  0.4695  0.3369
  150TMC2     C 2336   4.349   3.889  12.509  0.2999 -0.1305 -0.5157
  150TMC2     O 2337   4.397   3.850  12.616  0.0483 -0.4237  0.5678
  150TMC2     H 2338   4.273   4.031  12.299  0.0157 -0.3546 -0.3717
  150TMC2    H1 2339   4.585   3.973  12.563  1.4910 -2.9919 -1.3867
  150TMC2    H2 2340   4.663   4.159  12.179  1.8131 -1.9365 -0.0231
  150TMC2    C7 2341   0.050   4.067  12.384  0.1139  0.2008  0.2968
  150TMC2    C8 2342   4.436   4.117  12.082 -0.5027  0.0068  0.2046
  150TMC2    O1 2343   0.115   4.140  12.306 -0.2440  0.2121  0.0634
  150TMC2    O2 2344   4.508   4.079  11.991 -0.2120 -0.3222 -0.0452
  150TMC2    O5 2345   4.311   4.164  12.071  0.2586 -0.3298 -0.9129
  150TMC2    H5 2346   4.288   4.208  12.156 -2.2567 -1.1886 -1.1538
  151MPD2     C 2347   4.004   3.518  12.553 -0.3641  0.1094  0.2427
  151MPD2    C1 2348   3.976   3.593  12.446 -0.3531  0.2329  0.1754
  151MPD2    C2 2349   4.062   3.692  12.408  0.1742 -0.7567  0.7201
  151MPD2    C3 2350   4.168   3.716  12.490 -0.6804  0.6453 -0.7870
  151MPD2    C4 2351   4.208   3.628  12.590 -0.1586  0.3467 -0.2972
  151MPD2    C5 2352   4.120   3.531  12.619  0.6191 -0.0848  0.2909
  151MPD2     H 2353   4.047   3.763  12.327  0.4190  1.8154  2.9488
  151MPD2    H1 2354   4.301   3.630  12.647  0.7849 -1.2400 -1.7692
  151MPD2    H2 2355   3.938   3.437  12.584  0.8422 -0.7892  0.4468
  151MPD2    H3 2356   4.142   3.467  12.704  0.9204 -1.0103 -0.4868
  151MPD2     N 2357   4.238   3.832  12.449  0.0111 -0.3029 -0.3786
  151MPD2    H5 2358   4.215   3.869  12.357 -1.9869  1.0055  0.6370
  151MPD2    N1 2359   3.853   3.563  12.391 -0.1652 -0.0072  0.0259
  151MPD2    H7 2360   3.806   3.478  12.419 -2.6272  1.4213  0.2283
  152TMC2    C1 2361   4.165   3.812  12.917  0.0143 -0.5975 -0.2219
  152TMC2    C2 2362   4.250   3.708  12.908 -0.7017 -0.3431 -0.2530
  152TMC2    C3 2363   4.378   3.725  12.954  0.4284  1.2349  0.1172
  152TMC2    C4 2364   4.201   3.932  12.981 -0.7150  0.1100  0.2283
  152TMC2    C5 2365   4.328   3.941  13.032 -0.0749 -0.3245 -0.0574
  152TMC2    C6 2366   4.427   3.843  13.018 -0.3282  0.3897  0.2129
  152TMC2     C 2367   4.023   3.800  12.881  0.0094  0.6055  0.5905
  152TMC2     O 2368   3.946   3.901  12.878 -0.1617  0.0945 -0.0085
  152TMC2     H 2369   4.211   3.622  12.855  1.6545 -1.5188 -0.0616
  152TMC2    H1 2370   4.134   4.015  12.995  0.8847  1.2769  1.0093
  152TMC2    H2 2371   4.525   3.837  13.063  0.2497 -1.1336 -1.2301
  152TMC2    C7 2372   4.354   4.052  13.118 -0.1078  0.4488 -0.2397
  152TMC2    C8 2373   4.468   3.620  12.922 -0.5633  0.1375  0.0921
  152TMC2    O1 2374   4.262   4.106  13.185 -0.4165  0.3604 -0.8737
  152TMC2    O2 2375   4.431   3.508  12.891  0.0702  0.0188  0.1286
  152TMC2    O5 2376   4.575   3.678  12.858 -0.0921  0.2230  0.2090
  152TMC2    H5 2377   4.592   3.774  12.874 -1.2285  0.4788 -0.1119
  153MPD2     C 2378   3.808   3.503  12.893  0.4273  0.0677  0.0549
  153MPD2    C1 2379   3.850   3.628  12.846 -0.1323  0.2729 -0.7010
  153MPD2    C2 2380   3.764   3.690  12.760  0.1794 -0.4267 -0.3768
  153MPD2    C3 2381   3.634   3.642  12.738  0.3127  0.2628 -0.3010
  153MPD2    C4 2382   3.596   3.520  12.793 -0.0628  0.2971 -0.3318
  153MPD2    C5 2383   3.687   3.446  12.863 -0.7737  0.6785 -0.1590
  153MPD2     H 2384   3.789   3.786  12.716 -0.0918 -0.2787 -0.2154
  153MPD2    H1 2385   3.504   3.466  12.771 -0.4570  0.5791  0.6182
  153MPD2    H2 2386   3.880   3.442  12.947 -0.2686 -1.0728 -0.3202
  153MPD2    H3 2387   3.672   3.340  12.878  0.2385  0.6479  0.6522
  153MPD2     N 2388   3.543   3.717  12.659 -0.5580  0.1832  0.2847
  153MPD2    H5 2389   3.575   3.805  12.619 -1.3899  0.6597  0.6759
  153MPD2    N1 2390   3.976   3.671  12.878  0.0268 -0.5989 -0.2255
  153MPD2    H7 2391   4.048   3.605  12.906  1.1048  0.8808  0.4880
  154TMC2    C1 2392   0.543   3.577   0.370 -0.3077  0.7029  0.2679
  154TMC2    C2 2393   0.638   3.654   0.315 -0.0175 -0.2653  0.3979
  154TMC2    C3 2394   0.763   3.640   0.375 -0.2771  0.0454  0.1935
  154TMC2    C4 2395   0.576   3.487   0.467  0.4275  0.5051 -0.1103
  154TMC2    C5 2396   0.700   3.484   0.526 -0.1139 -0.8438  0.2982
  154TMC2    C6 2397   0.795   3.570   0.485 -0.4870  0.1490 -0.1529
  154TMC2     C 2398   0.422   3.557   0.287  0.1930 -0.3172  0.0918
  154TMC2     O 2399   0.378   3.662   0.239  0.3947 -0.4937  0.6139
  154TMC2     H 2400   0.603   3.728   0.244  1.3976 -2.2910 -2.4013
  154TMC2    H1 2401   0.515   3.410   0.513  1.1170 -0.3256 -0.5934
  154TMC2    H2 2402   0.897   3.562   0.521 -0.1300 -0.4761 -1.2735
  154TMC2    C7 2403   0.751   3.366   0.594 -0.4051  0.0656  0.2705
  154TMC2    C8 2404   0.851   3.754   0.342  0.6385  0.1834 -0.1842
  154TMC2    O1 2405   0.694   3.261   0.580  0.4300 -0.6655  0.1582
  154TMC2    O2 2406   0.875   3.843   0.423  0.5191  0.6111  0.5252
  154TMC2    O5 2407   0.871   3.757   0.210 -0.3894  0.1085  0.2833
  154TMC2    H5 2408   0.848   3.672   0.166  0.0317 -0.8597  1.9330
  155MPD2     C 2409   0.215   3.255   0.275 -0.2218  0.4264  0.5440
  155MPD2    C1 2410   0.237   3.392   0.274 -0.6584 -0.0678  0.7108
  155MPD2    C2 2411   0.134   3.483   0.262  0.1247 -0.1493 -0.4695
  155MPD2    C3 2412   0.001   3.446   0.253  0.8465  0.3231  0.1250
  155MPD2    C4 2413   4.716   3.309   0.262  0.0023 -0.5845  0.6099
  155MPD2    C5 2414   0.082   3.216   0.266  0.0123  0.1697  0.4904
  155MPD2     H 2415   0.155   3.589   0.260  1.0338 -0.3284  0.0464
  155MPD2    H1 2416   4.613   3.276   0.260 -0.6120  1.2758  0.8563
  155MPD2    H2 2417   0.286   3.173   0.268  0.5095  1.0202  0.9630
  155MPD2    H3 2418   0.071   3.108   0.269 -2.1972  0.3826 -0.2714
  155MPD2     N 2419   4.642   3.550   0.230 -0.4289 -0.2654  0.6613
  155MPD2    H5 2420   4.667   3.643   0.199 -1.9068 -0.2562 -0.5025
  155MPD2    N1 2421   0.371   3.429   0.298  0.1937 -0.0958 -0.9940
  155MPD2    H7 2422   0.431   3.353   0.329  0.3240  0.5249  0.2504
  156TMC2    C1 2423   4.332   1.065  11.948  0.2462 -0.7034  0.5114
  156TMC2    C2 2424   4.383   0.934  11.926 -0.6221  0.4109  1.0944
  156TMC2    C3 2425   4.351   0.886  11.801 -0.8056 -0.7005 -0.6137
  156TMC2    C4 2426   4.261   1.140  11.859  0.8098  0.3332  0.4011
  156TMC2    C5 2427   4.231   1.080  11.740 -0.5493 -0.0347  0.9004
  156TMC2    C6 2428   4.277   0.951  11.706  0.2190  0.0388 -0.1114
  156TMC2     C 2429   4.368   1.130  12.078 -0.8518 -0.2814  0.1482
  156TMC2     O 2430   4.319   1.234  12.108 -0.0347  0.7815  0.2919
  156TMC2     H 2431   4.430   0.873  12.002 -1.3115  1.0408  2.0196
  156TMC2    H1 2432   4.210   1.234  11.879 -1.8492 -0.9359 -0.5150
  156TMC2    H2 2433   4.259   0.913  11.606  2.0582 -1.5329  0.1622
  156TMC2    C7 2434   4.154   1.161  11.646 -0.9060  0.2902  0.0071
  156TMC2    C8 2435   4.371   0.746  11.779 -0.1946 -0.7339 -0.2822
  156TMC2    O1 2436   4.117   1.267  11.688 -0.2561 -0.5163 -0.4472
  156TMC2    O2 2437   4.281   0.671  11.739  0.2613 -0.0355 -0.1066
  156TMC2    O5 2438   4.485   0.722  11.834 -0.1262 -0.1163  0.4156
  156TMC2    H5 2439   4.543   0.800  11.846  1.2523 -0.8063 -1.7797
  157MPD2     C 2440   4.640   1.032  12.313 -0.4087 -0.6208  0.0184
  157MPD2    C1 2441   4.532   1.110  12.264  0.3844  0.1073  0.1257
  157MPD2    C2 2442   4.495   1.222  12.334 -0.3958 -0.6590 -1.2590
  157MPD2    C3 2443   4.561   1.255  12.448  1.0484  0.5831 -0.3940
  157MPD2    C4 2444   4.670   1.180  12.493  0.0757 -0.2847  1.0514
  157MPD2    C5 2445   4.709   1.065  12.430  0.5844  0.7817 -0.6104
  157MPD2     H 2446   4.425   1.296  12.297 -2.7772 -2.3385 -0.0369
  157MPD2    H1 2447   4.725   1.209  12.582  1.6657 -1.1445  0.3529
  157MPD2    H2 2448   4.674   0.939  12.270 -1.4169  0.4083 -2.9740
  157MPD2    H3 2449   0.050   0.997  12.463 -1.4071 -0.4198  1.6172
  157MPD2     N 2450   4.521   1.381  12.496 -0.0305  0.4246  0.3387
  157MPD2    H5 2451   4.462   1.437  12.435  1.0538 -0.1425 -1.2190
  157MPD2    N1 2452   4.473   1.067  12.143  0.0504  0.0588 -0.0430
  157MPD2    H7 2453   4.515   0.988  12.095 -0.9496 -0.4430 -0.1158
  158TMC2    C1 2454   4.476   0.171  13.147  0.0491 -0.7395  0.5660
  158TMC2    C2 2455   4.511   0.199  13.017  0.6264  0.5475 -0.2793
  158TMC2    C3 2456   4.420   0.220  12.923  0.9657 -0.3496 -0.0713
  158TMC2    C4 2457   4.347   0.187  13.187 -0.7228  0.1789 -0.0364
  158TMC2    C5 2458   4.262   0.230  13.094 -0.3449 -0.5143 -0.7258
  158TMC2    C6 2459   4.289   0.239  12.958  0.0523  0.2903 -0.3538
  158TMC2     C 2460   4.582   0.176  13.247  0.2959  0.7367 -0.1710
  158TMC2     O 2461   4.694   0.203  13.208  0.3415 -0.4858 -0.1263
  158TMC2     H 2462   4.613   0.188  12.982  0.1047  0.5432 -1.7743
  158TMC2    H1 2463   4.317   0.206  13.290 -2.4231  1.4827 -0.7788
  158TMC2    H2 2464   4.223   0.278  12.881  1.0144 -1.8092 -2.2357
  158TMC2    C7 2465   4.124   0.240  13.138  0.3131  0.1209  0.4620
  158TMC2    C8 2466   4.464   0.302  12.807  0.8879  0.2460 -0.6520
  158TMC2    O1 2467   4.049   0.287  13.053  0.3809  0.3578 -0.1701
  158TMC2    O2 2468   4.575   0.288  12.757 -0.0030 -0.9652 -0.5256
  158TMC2    O5 2469   4.409   0.420  12.827  0.1071  0.7633 -0.2076
  158TMC2    H5 2470   4.318   0.423  12.865  0.9015 -2.1294  1.8575
  159MPD2     C 2471   4.655   0.314  13.730  0.2423  0.3532  0.8177
  159MPD2    C1 2472   4.560   0.214  13.734 -0.4110  0.2860 -0.5241
  159MPD2    C2 2473   4.529   0.147  13.619 -0.6765 -0.2489  0.4604
  159MPD2    C3 2474   4.592   0.183  13.497 -0.1953 -0.4207 -0.1330
  159MPD2    C4 2475   4.696   0.275  13.501 -0.3321  0.1426 -0.1072
  159MPD2    C5 2476   4.720   0.337  13.619  0.1448 -0.2064 -0.0285
  159MPD2     H 2477   4.474   0.054  13.609  2.2242 -2.0431  1.1858
  159MPD2    H1 2478   0.008   0.318  13.414  2.7536 -1.7876  0.6952
  159MPD2    H2 2479   4.678   0.378  13.815  1.3868  0.4869  0.3993
  159MPD2    H3 2480   0.053   0.421  13.615 -0.6696  0.4261 -0.9894
  159MPD2     N 2481   4.538   0.144  13.373  0.1928 -0.0942 -0.7135
  159MPD2    H5 2482   4.454   0.087  13.376  0.7555 -0.8368  0.7135
  159MPD2    N1 2483   4.503   0.181  13.857  1.0332 -0.2812  0.0127
  159MPD2    H7 2484   4.526   0.231  13.942  1.1587  0.4222 -0.4395
  160TMC2    C1 2485   4.282   2.955   1.689 -0.3403 -0.1359 -0.0299
  160TMC2    C2 2486   4.338   2.914   1.804  0.4167  0.0579  1.0877
  160TMC2    C3 2487   4.476   2.891   1.800  0.5068  0.5133  0.0565
  160TMC2    C4 2488   4.338   2.947   1.564 -0.2860  0.2946  0.3801
  160TMC2    C5 2489   4.469   2.908   1.569 -0.3003 -0.3255 -0.5802
  160TMC2    C6 2490   4.539   2.885   1.680  0.3362  0.4867 -0.3452
  160TMC2     C 2491   4.138   2.976   1.689  0.5219 -0.1496 -0.5639
  160TMC2     O 2492   4.074   2.926   1.780  1.0364 -0.3373  0.4076
  160TMC2     H 2493   4.288   2.923   1.900  1.1499  0.9526  1.3873
  160TMC2    H1 2494   4.282   2.974   1.476  0.7999 -0.4605 -0.5399
  160TMC2    H2 2495   4.631   2.828   1.673  0.9586  1.4014  0.4213
  160TMC2    C7 2496   4.546   2.925   1.449  0.4138  0.5992 -0.3730
  160TMC2    C8 2497   4.534   2.834   1.922  0.1027 -0.1994 -0.1712
  160TMC2    O1 2498   4.639   2.848   1.435 -0.8178 -0.4502 -0.2635
  160TMC2    O2 2499   4.465   2.789   2.013 -0.5096 -0.1338  0.5530
  160TMC2    O5 2500   4.670   2.825   1.911 -0.1584 -0.4139 -0.3677
  160TMC2    H5 2501   4.700   2.872   1.831 -2.6471  2.8103  0.5737
  161MPD2     C 2502   3.858   3.093   1.664 -0.3456  0.3506  0.8147
  161MPD2    C1 2503   3.955   3.104   1.574 -0.1838  0.1421 -0.2346
  161MPD2    C2 2504   3.941   3.179   1.457 -0.1745 -0.1476 -0.2483
  161MPD2    C3 2505   3.819   3.247   1.443  0.0183 -0.1239  0.1712
  161MPD2    C4 2506   3.717   3.226   1.536  1.1296 -0.4813  0.3144
  161MPD2    C5 2507   3.740   3.155   1.647 -0.2532  0.2377  0.2393
  161MPD2     H 2508   4.029   3.185   1.394 -1.6029  1.5081 -2.1083
  161MPD2    H1 2509   3.623   3.278   1.520  1.2766 -0.5271 -0.7132
  161MPD2    H2 2510   3.863   3.030   1.752 -0.3639  1.2938  1.4934
  161MPD2    H3 2511   3.669   3.158   1.729  0.5138  0.9152  0.8850
  161MPD2     N 2512   3.785   3.337   1.334 -0.2982 -0.3073  0.2483
  161MPD2    H5 2513   3.691   3.374   1.319  0.1385 -0.3214 -2.4447
  161MPD2    N1 2514   4.084   3.054   1.590  0.4132  0.2892  0.2926
  161MPD2    H7 2515   4.151   3.095   1.526  0.8568 -0.2917  0.3915
  162TMC2    C1 2516   1.475   4.529   1.308  0.2265 -0.0129 -0.0303
  162TMC2    C2 2517   1.371   4.609   1.355  0.5555  0.5082  0.5097
  162TMC2    C3 2518   1.383   4.664   1.480 -0.9326  0.2695 -0.3403
  162TMC2    C4 2519   1.580   4.496   1.385  0.1136 -0.1322 -0.0573
  162TMC2    C5 2520   1.585   4.551   1.512 -0.1856 -0.3528 -0.1485
  162TMC2    C6 2521   1.490   4.630   1.562  0.0480 -0.3836  1.1124
  162TMC2     C 2522   1.496   4.511   1.160 -0.3104 -0.3100 -0.1472
  162TMC2     O 2523   1.586   4.438   1.129 -0.0135  0.3304 -0.1269
  162TMC2     H 2524   1.277   4.624   1.303  1.6751 -0.2375 -1.7264
  162TMC2    H1 2525   1.663   4.445   1.338  0.8479 -1.0373  2.2179
  162TMC2    H2 2526   1.494   4.670   1.662  0.3562  0.4886  0.7525
  162TMC2    C7 2527   1.714   4.549   1.578 -0.3877 -0.6178 -0.2371
  162TMC2    C8 2528   1.267   4.702   1.548  0.4362  0.3215 -0.2539
  162TMC2    O1 2529   1.762   4.656   1.619  0.0761  0.4906  0.1160
  162TMC2    O2 2530   1.246   4.679   1.663  0.0789 -0.0334 -0.3778
  162TMC2    O5 2531   1.243   0.080   1.483  0.4022 -0.1293 -0.0873
  162TMC2    H5 2532   1.290   0.094   1.398  1.3192 -2.1908  0.0649
  163MPD2     C 2533   1.425   4.704   0.690  0.0782 -0.5675 -0.2718
  163MPD2    C1 2534   1.510   4.602   0.734 -0.7022 -1.3778 -0.1802
  163MPD2    C2 2535   1.506   4.558   0.863 -0.1977  0.2192  0.5477
  163MPD2    C3 2536   1.421   4.628   0.953  0.2698 -0.1028 -0.9795
  163MPD2    C4 2537   1.333   4.719   0.906  0.3870  0.0714 -0.0511
  163MPD2    C5 2538   1.330   0.011   0.776  0.1082  0.6550 -0.8414
  163MPD2     H 2539   1.571   4.477   0.892 -2.8533 -1.5651  1.5420
  163MPD2    H1 2540   1.260   0.036   0.966 -0.8369 -0.6840 -0.8638
  163MPD2    H2 2541   1.426   0.002   0.588 -0.9879 -0.8206 -0.3693
  163MPD2    H3 2542   1.259   0.087   0.747  0.5722  1.8016  0.9849
  163MPD2     N 2543   1.420   4.601   1.092  0.3786  0.5123  0.1939
  163MPD2    H5 2544   1.353   4.663   1.136  0.4522  2.0090 -1.7937
  163MPD2    N1 2545   1.614   4.567   0.643 -0.2819 -0.3491 -0.5505
  163MPD2    H7 2546   1.611   4.614   0.553 -2.7089 -2.6485 -1.6683
  164TMC2    C1 2547   2.428   4.092  11.352 -0.6828  0.0545 -0.3091
  164TMC2    C2 2548   2.430   4.046  11.483  0.5640  0.7497 -0.1942
  164TMC2    C3 2549   2.413   4.139  11.577  0.5133 -0.1908  0.0783
  164TMC2    C4 2550   2.402   4.218  11.304 -0.1397  0.3180 -0.2772
  164TMC2    C5 2551   2.385   4.310  11.403 -0.6424  0.3586  0.4196
  164TMC2    C6 2552   2.399   4.271  11.537 -0.6537  0.0599  0.0366
  164TMC2     C 2553   2.472   3.990  11.265  0.8856 -0.3514  0.7159
  164TMC2     O 2554   2.460   3.876  11.307  0.4738 -0.0191  0.3524
  164TMC2     H 2555   2.454   3.942  11.507 -1.4255  0.1952 -0.5873
  164TMC2    H1 2556   2.388   4.237  11.198 -0.3152  1.7011 -0.0117
  164TMC2    H2 2557   2.395   4.352  11.609 -0.8566 -2.6622  3.0658
  164TMC2    C7 2558   2.321   4.430  11.365 -0.1088  0.4704 -0.4990
  164TMC2    C8 2559   2.438   4.103  11.709  0.1716 -0.0819 -0.3740
  164TMC2    O1 2560   2.261   4.432  11.253 -0.7183 -0.1044 -0.2966
  164TMC2    O2 2561   2.502   4.007  11.748  0.6380  0.6682  0.0158
  164TMC2    O5 2562   2.397   4.200  11.789  0.2162  0.7426 -0.0034
  164TMC2    H5 2563   2.327   4.255  11.748 -0.1919  2.2839  2.7676
  165TMC2    C1 2564   3.388   2.193   1.436  0.2616 -0.3682  0.1994
  165TMC2    C2 2565   3.393   2.084   1.348  0.0730  0.0843  0.6226
  165TMC2    C3 2566   3.515   2.067   1.273  0.0656  0.4105 -0.3622
  165TMC2    C4 2567   3.497   2.274   1.444 -0.1873  0.0090 -0.6891
  165TMC2    C5 2568   3.614   2.244   1.373  0.0740 -0.2641  0.4678
  165TMC2    C6 2569   3.623   2.142   1.285  0.5614 -0.3339  0.7910
  165TMC2     C 2570   3.269   2.218   1.520  0.4676  0.2996 -0.2754
  165TMC2     O 2571   3.187   2.123   1.527  0.4926 -0.2827 -0.3330
  165TMC2     H 2572   3.309   2.016   1.338  0.1489  0.0951 -0.0657
  165TMC2    H1 2573   3.496   2.359   1.512 -0.1605  0.1624 -0.8828
  165TMC2    H2 2574   3.722   2.115   1.250 -0.5125 -3.7347  0.4207
  165TMC2    C7 2575   3.741   2.325   1.387 -0.4819 -0.2415  0.2226
  165TMC2    C8 2576   3.520   1.947   1.189  0.4612  0.1258  0.7961
  165TMC2    O1 2577   3.840   2.280   1.333 -0.5198  0.0337  0.3248
  165TMC2    O2 2578   3.626   1.905   1.145 -0.4629  0.2605  0.7777
  165TMC2    O5 2579   3.395   1.930   1.133 -0.4935 -0.4607 -0.9133
  165TMC2    H5 2580   3.326   1.991   1.167  0.6869  0.1261  0.4292
  166MPD2     C 2581   2.965   2.495   1.831 -0.2084  0.1120 -0.3432
  166MPD2    C1 2582   2.958   2.368   1.795 -0.1938  0.3259 -0.4837
  166MPD2    C2 2583   3.051   2.320   1.698 -0.1532  0.1173 -0.0545
  166MPD2    C3 2584   3.150   2.399   1.648 -0.2035  0.4034  0.1209
  166MPD2    C4 2585   3.148   2.535   1.684  0.4067  0.1199  0.6136
  166MPD2    C5 2586   3.050   2.583   1.765  0.5684 -1.0998 -0.1915
  166MPD2     H 2587   3.034   2.221   1.657  2.0399 -0.4075  0.3080
  166MPD2    H1 2588   3.223   2.605   1.649 -1.8080  1.6959 -0.9529
  166MPD2    H2 2589   2.888   2.535   1.896 -0.8369  0.3383 -1.2184
  166MPD2    H3 2590   3.062   2.688   1.787  1.8431 -1.4365  0.7348
  166MPD2     N 2591   3.259   2.350   1.572 -0.0300 -0.4026  0.2391
  166MPD2    H5 2592   3.334   2.409   1.538 -0.1569  0.5174  1.5680
  166MPD2    N1 2593   2.858   2.294   1.855  0.2366  0.7418  0.3992
  166MPD2    H7 2594   2.802   2.353   1.916  0.3121  0.2064  0.9929
  167TMC2    C1 2595   1.952   0.195  13.124 -0.4599  0.5808  0.0843
  167TMC2    C2 2596   1.871   0.245  13.222 -0.3421  0.1906 -0.6092
  167TMC2    C3 2597   1.834   0.159  13.320 -0.1960 -0.5810  0.2920
  167TMC2    C4 2598   1.991   0.070  13.115 -0.9226  0.6760 -0.5712
  167TMC2    C5 2599   1.950   4.723  13.225  0.4031  0.2092 -0.6221
  167TMC2    C6 2600   1.874   0.031  13.330  0.3528  0.5521  0.6759
  167TMC2     C 2601   1.976   0.290  13.018  0.2392  0.3469 -0.3174
  167TMC2     O 2602   1.973   0.410  13.037  0.0143 -0.1602 -0.0629
  167TMC2     H 2603   1.830   0.345  13.217 -0.4457  0.1725 -0.1494
  167TMC2    H1 2604   2.054   0.031  13.035 -2.5296  0.4512 -1.7260
  167TMC2    H2 2605   1.814   4.704  13.394  2.3238 -1.9073  0.0511
  167TMC2    C7 2606   1.984   4.582  13.228  0.1165  0.2647 -0.2657
  167TMC2    C8 2607   1.745   0.197  13.426  0.9489 -0.1130 -0.5575
  167TMC2    O1 2608   1.991   4.532  13.340  0.2419 -0.0295 -0.3409
  167TMC2    O2 2609   1.665   0.124  13.475 -0.5695 -0.8231  0.8075
  167TMC2    O5 2610   1.746   0.336  13.433 -0.2646  0.6245  0.1010
  167TMC2    H5 2611   1.830   0.370  13.395 -0.5649  0.6683 -0.5219
  168MPD2     C 2612   2.020   0.431  12.765  0.0193  0.3821  0.0756
  168MPD2    C1 2613   2.001   0.298  12.773 -0.3965  0.6479  0.3062
  168MPD2    C2 2614   1.987   0.228  12.654 -0.4315 -0.3821 -0.1661
  168MPD2    C3 2615   1.994   0.298  12.531 -0.6718 -0.2714 -0.0370
  168MPD2    C4 2616   2.018   0.432  12.529 -0.2427 -0.3157 -0.1803
  168MPD2    C5 2617   2.029   0.498  12.648 -0.3022 -0.0583 -0.0312
  168MPD2     H 2618   1.959   0.123  12.649  1.0251 -0.7733 -0.4254
  168MPD2    H1 2619   2.013   0.491  12.438 -2.2662  1.0659  0.8300
  168MPD2    H2 2620   2.049   0.493  12.849  1.5712  0.7064 -0.6886
  168MPD2    H3 2621   2.065   0.600  12.650 -2.5328  0.7576 -0.7469
  168MPD2     N 2622   1.948   0.237  12.411 -0.0722  0.1448 -0.4169
  168MPD2    H5 2623   1.946   0.297  12.329  0.9668 -1.2689 -1.4736
  168MPD2    N1 2624   1.978   0.227  12.891  0.4362 -0.1596  0.3572
  168MPD2    H7 2625   1.976   0.126  12.881  0.4616  0.0197 -1.3613
  169MPD1     C 2626   4.517   0.366   9.226 -0.2872  0.1110 -0.4256
  169MPD1    C1 2627   4.558   0.293   9.335 -0.5878 -0.3108  0.3171
  169MPD1    C2 2628   4.514   0.163   9.342 -0.3191  0.1836 -0.4468
  169MPD1    C3 2629   4.451   0.098   9.237  0.0055  0.1394 -0.5162
  169MPD1    C4 2630   4.433   0.167   9.122 -0.0027  0.3656  0.0557
  169MPD1    C5 2631   4.461   0.302   9.118  0.0147  1.0457 -0.4032
  169MPD1     H 2632   4.540   0.107   9.431  2.0421  2.7988  0.5484
  169MPD1    H1 2633   4.386   0.139   9.028  2.1997  0.5284 -1.1138
  169MPD1    H2 2634   4.549   0.467   9.207  0.5811  0.1508  1.2255
  169MPD1    H3 2635   4.448   0.360   9.028  2.5737 -0.8143 -1.9815
  169MPD1     N 2636   4.422   4.699   9.248 -0.1227 -0.1047 -0.0339
  169MPD1    H5 2637   4.408   4.665   9.342  3.0414  0.7044  0.7215
  169MPD1    N1 2638   4.605   0.363   9.447  0.8147  0.4385 -0.1496
  169MPD1    H6 2639   4.674   0.432   9.421  0.0830  1.1532 -0.1952
  169MPD1    H7 2640   4.652   0.291   9.502  0.5551  0.8299  0.5916
  170MPD1     C 2641   2.821   1.383  13.031  0.9250  0.6741  0.3937
  170MPD1    C1 2642   2.810   1.288  13.131  0.9922  0.6607  0.5942
  170MPD1    C2 2643   2.851   1.331  13.250  0.4025  0.3944 -0.1442
  170MPD1    C3 2644   2.889   1.463  13.283  0.2715 -0.5334  0.0556
  170MPD1    C4 2645   2.896   1.557  13.180  0.2797  0.1803  0.2780
  170MPD1    C5 2646   2.864   1.511  13.058  0.0842  0.4080 -0.8623
  170MPD1     H 2647   2.864   1.256  13.327  0.6352 -1.0006 -1.5384
  170MPD1    H1 2648   2.921   1.661  13.198  1.2877 -0.2678  1.4878
  170MPD1    H2 2649   2.804   1.349  12.930  1.7309 -1.5886  1.0286
  170MPD1    H3 2650   2.868   1.575  12.970 -0.7236  0.8494 -0.5732
  170MPD1     N 2651   2.919   1.484  13.411  0.5620 -0.0404 -0.2622
  170MPD1    H5 2652   2.915   1.409  13.479  0.6217  0.3785  0.2064
  170MPD1    N1 2653   2.779   1.152  13.103 -0.3781  0.1297 -0.0736
  170MPD1    H6 2654   2.723   1.137  13.019 -0.1188 -1.4060  0.0296
  170MPD1    H7 2655   2.750   1.100  13.185 -0.7792 -0.1874 -0.4230
  171MPD1     C 2656   1.786   3.078  15.462 -0.0812 -0.3496  0.6146
  171MPD1    C1 2657   1.704   2.981  15.417  0.5559 -0.4868 -0.5883
  171MPD1    C2 2658   1.674   2.876  15.493 -0.3389 -0.2725  0.2898
  171MPD1    C3 2659   1.696   2.892  15.631  0.4509  0.6705  0.3127
  171MPD1    C4 2660   1.744   3.008  15.687  0.4700 -0.6230 -0.1350
  171MPD1    C5 2661   1.802   3.101  15.595  0.1992  0.9968  0.0562
  171MPD1     H 2662   1.637   2.783  15.451 -1.4630 -0.2824  1.2941
  171MPD1    H1 2663   1.762   3.024  15.793 -0.8964 -1.3610  0.2038
  171MPD1    H2 2664   1.833   3.147  15.393 -3.6791 -0.6013 -2.0455
  171MPD1    H3 2665   1.856   3.189  15.626  1.7298 -0.0825  0.4449
  171MPD1     N 2666   1.676   2.786  15.718 -0.6820 -0.4152 -0.9519
  171MPD1    H5 2667   1.700   2.805  15.815  0.6607  0.5542 -1.4633
  171MPD1    N1 2668   1.694   2.971  15.280  0.0908 -0.4907  0.1760
  171MPD1    H6 2669   1.684   3.062  15.234 -4.0050 -1.2729 -0.4602
  171MPD1    H7 2670   1.624   2.899  15.263  0.6500 -0.2589 -3.2325
  172MPD1     C 2671   0.781   2.047  17.606  0.1593 -0.3747  0.2655
  172MPD1    C1 2672   0.763   2.181  17.585 -0.5080  0.3685  1.0005
  172MPD1    C2 2673   0.760   2.265  17.693  0.5832 -0.0322 -0.2499
  172MPD1    C3 2674   0.780   2.224   0.072 -0.1243 -0.1800  0.8815
  172MPD1    C4 2675   0.807   2.093   0.095 -0.3728 -0.4849  0.7023
  172MPD1    C5 2676   0.803   2.004  17.732  0.2789  0.3189 -0.1954
  172MPD1     H 2677   0.741   2.369  17.667  2.4281  0.4856  0.5052
  172MPD1    H1 2678   0.811   2.044   0.192 -0.2047 -1.9572 -0.0396
  172MPD1    H2 2679   0.777   1.975  17.525 -3.0310 -2.5959  2.3958
  172MPD1    H3 2680   0.815   1.902   0.019 -0.3673  1.4844  3.7135
  172MPD1     N 2681   0.792   2.309   0.184 -0.3727  0.0288  0.2030
  172MPD1    H5 2682   0.819   2.271   0.274  0.2622  0.2320  0.1049
  172MPD1    N1 2683   0.749   2.236  17.458  0.0176 -0.1660 -0.2776
  172MPD1    H6 2684   0.723   2.167  17.388  1.4840 -2.0709  1.0621
  172MPD1    H7 2685   0.673   2.304  17.466 -0.5214 -0.3439 -3.7358
  173MPD1     C 2686   2.849   2.817  14.288 -0.5984  0.0733  0.4167
  173MPD1    C1 2687   2.735   2.781  14.221 -0.0669 -0.1492  0.1402
  173MPD1    C2 2688   2.684   2.652  14.253 -0.8120  0.2907 -0.3069
  173MPD1    C3 2689   2.753   2.569  14.332  0.2024 -0.5802  0.1899
  173MPD1    C4 2690   2.877   2.610  14.384  0.4497  1.1870 -0.0022
  173MPD1    C5 2691   2.917   2.736  14.368 -0.0953 -0.8334  0.2181
  173MPD1     H 2692   2.593   2.623  14.202 -2.3152 -2.8449  4.2261
  173MPD1    H1 2693   2.931   2.546  14.452 -1.0782 -1.3242 -1.1634
  173MPD1    H2 2694   2.889   2.918  14.287 -0.4210  0.0060  0.6653
  173MPD1    H3 2695   3.000   2.777  14.425 -0.5919  0.6021 -0.0754
  173MPD1     N 2696   2.692   2.446  14.357  0.2544 -0.1273 -0.1273
  173MPD1    H5 2697   2.604   2.424  14.313 -0.5994  0.3098  1.3574
  173MPD1    N1 2698   2.656   2.876  14.151 -0.5633  0.0902  0.6220
  173MPD1    H6 2699   2.725   2.933  14.102 -1.9820  2.1101  0.9790
  173MPD1    H7 2700   2.601   2.822  14.084  0.0488  1.5062 -1.0173
  174MPD1     C 2701   2.991   1.650  14.905  0.5407 -0.2403  0.2417
  174MPD1    C1 2702   2.865   1.687  14.936 -0.1985 -0.1827 -0.4393
  174MPD1    C2 2703   2.793   1.764  14.853 -0.0015 -0.3225 -0.1335
  174MPD1    C3 2704   2.845   1.810  14.735  0.3194 -0.5222 -0.1597
  174MPD1    C4 2705   2.964   1.769  14.695 -0.9390 -0.1900  0.1107
  174MPD1    C5 2706   3.041   1.689  14.781 -0.2751  0.1665 -0.3076
  174MPD1     H 2707   2.698   1.802  14.889  0.7082 -0.7650  2.2088
  174MPD1    H1 2708   2.997   1.793  14.594 -1.5666 -2.1053 -0.5554
  174MPD1    H2 2709   3.054   1.600  14.978  0.1185  0.0941  0.8381
  174MPD1    H3 2710   3.138   1.657  14.745  1.1172  3.6890  0.3196
  174MPD1     N 2711   2.776   1.902  14.650  0.1918  0.4980 -0.0171
  174MPD1    H5 2712   2.813   1.943  14.565 -0.1136 -1.4596 -1.1067
  174MPD1    N1 2713   2.809   1.654  15.056 -0.1623  0.6817 -0.1091
  174MPD1    H6 2714   2.715   1.623  15.032  0.0203 -0.8261  1.0867
  174MPD1    H7 2715   2.858   1.570  15.088 -2.8579 -1.2588 -1.0583
  175MPD1     C 2716   0.533   3.434  15.457 -0.0096 -0.0751  0.3623
  175MPD1    C1 2717   0.552   3.299  15.481  0.3157  0.7101 -0.3113
  175MPD1    C2 2718   0.540   3.251  15.613  0.4343  0.1159  1.0133
  175MPD1    C3 2719   0.522   3.337  15.715  0.3597 -1.0333  0.1016
  175MPD1    C4 2720   0.514   3.472  15.692  0.2182  0.0988  0.6821
  175MPD1    C5 2721   0.525   3.519  15.562 -0.1199  0.6616 -0.1193
  175MPD1     H 2722   0.547   3.145  15.633 -2.9950 -0.6773 -2.2472
  175MPD1    H1 2723   0.508   3.539  15.777 -0.8436 -0.1628  0.8157
  175MPD1    H2 2724   0.544   3.479  15.359 -1.4195  0.2882  0.3749
  175MPD1    H3 2725   0.523   3.626  15.543 -0.3043  0.2500 -2.5133
  175MPD1     N 2726   0.517   3.310  15.855 -0.2649 -0.1810 -0.3913
  175MPD1    H5 2727   0.518   3.394  15.913 -0.8812 -0.8669  0.6029
  175MPD1    N1 2728   0.559   3.205  15.368 -0.3572 -0.7478  0.2606
  175MPD1    H6 2729   0.610   3.119  15.387  1.5315 -0.4663 -3.5630
  175MPD1    H7 2730   0.580   3.250  15.279  2.2427  2.1446  2.3335
  176MPD1     C 2731   2.124   0.146  17.086  0.5400  0.6007  0.7886
  176MPD1    C1 2732   2.097   0.267  17.025  0.7977 -0.5421 -0.3513
  176MPD1    C2 2733   2.079   0.379  17.104 -0.5206  0.2666  0.6751
  176MPD1    C3 2734   2.070   0.371  17.240  0.1175  0.3564 -0.2033
  176MPD1    C4 2735   2.067   0.244  17.298  0.0189  0.0604  0.1992
  176MPD1    C5 2736   2.102   0.137  17.223  1.0462  0.1692  0.4553
  176MPD1     H 2737   2.065   0.474  17.053  1.1469 -0.3152 -0.8327
  176MPD1    H1 2738   2.061   0.232  17.405 -0.4808 -0.9198  0.0596
  176MPD1    H2 2739   2.150   0.056  17.031 -0.5778  1.5050 -1.2269
  176MPD1    H3 2740   2.111   0.038  17.267 -0.8515  0.8919  2.4250
  176MPD1     N 2741   2.052   0.486  17.316 -0.0375 -0.0654  0.6173
  176MPD1    H5 2742   2.037   0.575  17.269  0.4882  0.4102  1.3476
  176MPD1    N1 2743   2.107   0.283  16.885 -0.3622  0.0589 -0.0550
  176MPD1    H6 2744   2.081   0.206  16.823 -0.0239 -1.6917  1.9693
  176MPD1    H7 2745   2.045   0.354  16.847 -3.0067 -0.7519  2.7114
  177MPD1     C 2746   0.444   0.020  10.683  0.7601 -0.0593  0.6388
  177MPD1    C1 2747   0.309   4.732  10.691 -0.0467 -0.1680 -0.9512
  177MPD1    C2 2748   0.234   0.067  10.605  0.4483 -0.7079 -0.4244
  177MPD1    C3 2749   0.290   0.173  10.530  0.7658 -0.5749  0.2819
  177MPD1    C4 2750   0.430   0.199  10.536 -0.2907  0.0977  0.5515
  177MPD1    C5 2751   0.508   0.117  10.616  0.4321  0.6068  0.8688
  177MPD1     H 2752   0.129   0.044  10.588 -0.6539  0.8151  4.4422
  177MPD1    H1 2753   0.473   0.284  10.486 -0.3591 -0.2979 -0.1826
  177MPD1    H2 2754   0.511   4.711  10.755  0.1879 -0.4922  0.8943
  177MPD1    H3 2755   0.610   0.151  10.625  0.5111  0.4042  0.7447
  177MPD1     N 2756   0.209   0.233  10.433 -0.1625  0.2044  0.2391
  177MPD1    H5 2757   0.123   0.182  10.415 -1.2427  2.3655 -0.7131
  177MPD1    N1 2758   0.258   4.619  10.754 -0.3074  0.5612 -0.0155
  177MPD1    H6 2759   0.156   4.622  10.765 -0.2742  1.0623  0.1683
  177MPD1    H7 2760   0.301   4.593  10.842  0.8901  1.8460 -0.2129
  178MPD1     C 2761   2.627   1.002   0.482 -0.4611  0.0561  0.4863
  178MPD1    C1 2762   2.760   1.003   0.482 -0.5472 -0.4975  0.1666
  178MPD1    C2 2763   2.829   0.985   0.369  0.3468  0.1481 -0.9207
  178MPD1    C3 2764   2.758   0.967   0.250  0.1243 -0.4509 -0.5960
  178MPD1    C4 2765   2.620   0.963   0.248 -0.3840 -0.3957  0.2070
  178MPD1    C5 2766   2.552   0.995   0.369 -0.1807  0.2472  0.3913
  178MPD1     H 2767   2.936   0.997   0.363  0.3217  1.8294  1.8298
  178MPD1    H1 2768   2.563   0.960   0.156 -0.7960  0.9503  0.4114
  178MPD1    H2 2769   2.568   1.008   0.573 -1.3109  0.0133 -0.0537
  178MPD1    H3 2770   2.445   1.012   0.377 -0.8918 -3.7663 -0.4637
  178MPD1     N 2771   2.829   0.963   0.126  0.0081 -0.5783  0.2721
  178MPD1    H5 2772   2.762   0.964   0.049 -1.3061  1.9912  1.4501
  178MPD1    N1 2773   2.828   0.972   0.602  0.1538 -0.0727  0.1666
  178MPD1    H6 2774   2.917   1.020   0.594  0.5985 -0.6889  1.3977
  178MPD1    H7 2775   2.777   1.034   0.665  1.3169 -1.3963  2.4204
  179MPD1     C 2776   2.886   4.091  15.863  0.3490  0.2462  0.5141
  179MPD1    C1 2777   2.927   4.024  15.974  0.3336  0.3380  0.3614
  179MPD1    C2 2778   2.826   3.985  16.061 -0.2258 -0.0214  0.1290
  179MPD1    C3 2779   2.694   3.977  16.018  0.3711  0.4762 -0.0842
  179MPD1    C4 2780   2.660   4.032  15.896 -0.1204  0.1500 -0.4327
  179MPD1    C5 2781   2.759   4.079  15.818  0.3065  0.4152  0.2993
  179MPD1     H 2782   2.853   3.943  16.157  0.1959  0.0395  0.0387
  179MPD1    H1 2783   2.557   4.032  15.863  0.1473  1.1560 -1.2725
  179MPD1    H2 2784   2.950   4.143  15.792  1.3444  0.1805  1.3586
  179MPD1    H3 2785   2.733   4.118  15.719  1.0403 -2.9427 -1.2021
  179MPD1     N 2786   2.594   3.902  16.088  0.1267 -0.5268 -0.0792
  179MPD1    H5 2787   2.504   3.886  16.046 -2.0575  5.5665  2.3543
  179MPD1    N1 2788   3.058   4.041  16.023  0.2418 -0.7679  0.8386
  179MPD1    H6 2789   3.079   3.976  16.098 -1.8536 -2.7119 -0.2535
  179MPD1    H7 2790   3.137   4.048  15.960 -0.2463 -3.6105 -0.1033
  180MPD1     C 2791   3.407   0.786  15.147  0.4907  0.4258 -0.1649
  180MPD1    C1 2792   3.396   0.868  15.035 -0.1525 -0.5326 -0.0097
  180MPD1    C2 2793   3.292   0.849  14.945 -0.5839 -0.6510  0.4918
  180MPD1    C3 2794   3.195   0.749  14.962  0.0218  0.0871 -0.6582
  180MPD1    C4 2795   3.204   0.668  15.073 -0.3903  0.6070  0.1967
  180MPD1    C5 2796   3.308   0.689  15.162  0.5139 -0.3265 -0.7958
  180MPD1     H 2797   3.285   0.914  14.859  1.7781 -0.7886  0.1853
  180MPD1    H1 2798   3.135   0.588  15.096  1.0835 -0.3718  1.1751
  180MPD1    H2 2799   3.479   0.802  15.227  0.1299 -0.0495  0.2540
  180MPD1    H3 2800   3.303   0.616  15.242 -3.5103  0.4727 -0.3236
  180MPD1     N 2801   3.087   0.754  14.871  0.4153  0.3038  0.3498
  180MPD1    H5 2802   3.106   0.810  14.789 -1.3809 -1.0242 -0.9722
  180MPD1    N1 2803   3.478   0.986  15.017 -0.1873 -0.8761  0.6381
  180MPD1    H6 2804   3.474   1.020  14.921  4.5593  0.6487  0.9802
  180MPD1    H7 2805   3.575   0.976  15.047  0.2861  0.1021 -0.5831
  181MPD1     C 2806   3.369   2.202   9.902  0.1123  0.3771 -0.2913
  181MPD1    C1 2807   3.417   2.298   9.810  0.0330 -0.0385  0.2460
  181MPD1    C2 2808   3.545   2.347   9.822 -0.2677  0.2217 -0.1021
  181MPD1    C3 2809   3.635   2.312   9.923  0.0152  0.0173  0.1902
  181MPD1    C4 2810   3.584   2.224  10.022 -0.0113  0.3347  0.6441
  181MPD1    C5 2811   3.459   2.168  10.004 -0.5964  0.6063 -0.0530
  181MPD1     H 2812   3.581   2.405   9.737 -0.2700  0.1103 -0.1787
  181MPD1    H1 2813   3.646   2.188  10.103  0.1612  0.2775  0.4868
  181MPD1    H2 2814   3.268   2.167   9.882  0.0198  1.5213 -1.8259
  181MPD1    H3 2815   3.436   2.086  10.071 -3.9923  1.8253  0.2257
  181MPD1     N 2816   3.770   2.356   9.931  0.6353 -1.0128 -0.2181
  181MPD1    H5 2817   3.825   2.319  10.008 -0.4080 -1.2716  0.4129
  181MPD1    N1 2818   3.327   2.336   9.706  0.3105  0.1736  0.7045
  181MPD1    H6 2819   3.358   2.420   9.656  3.1262  0.2389  2.5368
  181MPD1    H7 2820   3.231   2.343   9.741  0.1492  2.4231 -0.1535
  182MPD1     C 2821   0.899   2.280   1.913 -0.4062 -0.2056  0.1596
  182MPD1    C1 2822   0.884   2.178   1.817 -0.3550  0.4186  0.2478
  182MPD1    C2 2823   0.756   2.138   1.789  0.2754 -0.8231 -0.0330
  182MPD1    C3 2824   0.646   2.212   1.823  0.0096 -0.0866  0.2909
  182MPD1    C4 2825   0.668   2.311   1.915 -0.0219 -0.2391 -0.2594
  182MPD1    C5 2826   0.790   2.348   1.961 -0.7611  0.0404 -0.3258
  182MPD1     H 2827   0.753   2.064   1.711  0.1012 -2.2114  1.2925
  182MPD1    H1 2828   0.589   2.368   1.962 -0.6995 -0.5616 -1.0176
  182MPD1    H2 2829   0.993   2.309   1.960 -1.0227  1.9616  0.0496
  182MPD1    H3 2830   0.799   2.439   2.018 -0.0560 -0.8434  0.9667
  182MPD1     N 2831   0.513   2.196   1.766  0.3254 -0.2660 -0.3748
  182MPD1    H5 2832   0.441   2.255   1.806  0.0854 -0.0761 -1.0921
  182MPD1    N1 2833   0.994   2.108   1.759  0.3527  0.1934 -0.8071
  182MPD1    H6 2834   0.963   2.074   1.668 -0.9337  0.7127 -0.5578
  182MPD1    H7 2835   1.080   2.161   1.746  0.7366 -0.5414 -1.2909
  183MPD1     C 2836   1.646   1.335   9.951 -0.5128  0.0244 -0.3936
  183MPD1    C1 2837   1.517   1.280   9.956  0.1500  0.4767  0.0342
  183MPD1    C2 2838   1.416   1.367   9.968  0.6138  0.1382 -0.3366
  183MPD1    C3 2839   1.437   1.508   9.974 -0.1159  0.8332 -0.0003
  183MPD1    C4 2840   1.568   1.559   9.974 -0.0903 -0.6002 -0.0359
  183MPD1    C5 2841   1.670   1.471   9.967  0.0334 -0.3666 -0.1893
  183MPD1     H 2842   1.314   1.332   9.969  0.5397  0.3652 -0.0694
  183MPD1    H1 2843   1.595   1.664   9.983 -1.5902 -0.3419  1.3623
  183MPD1    H2 2844   1.740   1.282   9.936  0.1322  0.9081  0.4963
  183MPD1    H3 2845   1.774   1.498   9.956  0.1996  0.1250  2.4770
  183MPD1     N 2846   1.317   1.590   9.989 -0.0843 -0.2253 -0.4083
  183MPD1    H5 2847   1.231   1.536   9.983 -2.2221  3.2947 -1.8591
  183MPD1    N1 2848   1.496   1.142   9.924  0.0803  0.5109  0.4244
  183MPD1    H6 2849   1.409   1.122   9.972 -0.0374  1.5677  0.6448
  183MPD1    H7 2850   1.568   1.079   9.960  0.5451  0.5783 -0.3705
  184MPD1     C 2851   3.706   4.617  10.352 -0.0609 -0.0519  0.0976
  184MPD1    C1 2852   3.770   4.573  10.243 -0.0777  0.0276  0.3645
  184MPD1    C2 2853   3.866   4.659  10.181 -0.4307 -0.1342 -0.2567
  184MPD1    C3 2854   3.906   0.046  10.235  0.1547  0.3444  0.5693
  184MPD1    C4 2855   3.849   0.080  10.353 -0.7863 -0.1431  0.5362
  184MPD1    C5 2856   3.753   4.734  10.407 -0.0342 -0.0311 -0.6017
  184MPD1     H 2857   3.923   4.624  10.096  0.6313  0.4219  0.2267
  184MPD1    H1 2858   3.874   0.176  10.397 -0.7435 -0.5096  1.3107
  184MPD1    H2 2859   3.633   4.556  10.403  0.6534 -0.9145  0.0851
  184MPD1    H3 2860   3.695   0.041  10.487 -0.7761 -0.5394 -0.8662
  184MPD1     N 2861   4.006   0.131  10.173 -0.1571 -0.8103  0.1236
  184MPD1    H5 2862   4.021   0.219  10.220  1.3462 -1.1590  0.2978
  184MPD1    N1 2863   3.730   4.452  10.176  0.3711 -0.0704 -0.3911
  184MPD1    H6 2864   3.711   4.375  10.240 -0.9011  0.8122  0.3118
  184MPD1    H7 2865   3.799   4.425  10.106 -1.3532  0.8011 -2.4383
  185MPD1     C 2866   4.110   0.313   9.220  0.8530 -0.4160 -0.1645
  185MPD1    C1 2867   4.092   0.431   9.278 -0.0898 -0.1788 -0.4103
  185MPD1    C2 2868   4.107   0.438   9.417  0.2723  0.8693  0.1766
  185MPD1    C3 2869   4.142   0.329   9.494  0.4041  0.6748 -0.9547
  185MPD1    C4 2870   4.146   0.208   9.429 -0.3190  1.0322  1.2537
  185MPD1    C5 2871   4.133   0.202   9.295 -0.3843  0.6111  0.0096
  185MPD1     H 2872   4.089   0.531   9.470  0.4953  0.3427  1.1619
  185MPD1    H1 2873   4.157   0.117   9.488  2.6788  2.9471  3.6523
  185MPD1    H2 2874   4.104   0.307   9.111 -0.6786  2.3510 -0.2300
  185MPD1    H3 2875   4.127   0.104   9.249  0.4487  0.1390  0.8943
  185MPD1     N 2876   4.179   0.327   9.634  0.5328 -0.2325 -0.7016
  185MPD1    H5 2877   4.194   0.237   9.680  1.1419  0.3275  0.1892
  185MPD1    N1 2878   4.079   0.549   9.195  0.0787 -0.2353 -0.2661
  185MPD1    H6 2879   4.038   0.625   9.249 -0.0878  0.2793 -1.1319
  185MPD1    H7 2880   4.037   0.539   9.103  0.4341  0.1604 -0.4647
  186MPD1     C 2881   3.201   3.756  16.176 -0.0452 -0.0277  0.6554
  186MPD1    C1 2882   3.086   3.790  16.243 -0.6470 -0.2545 -0.3449
  186MPD1    C2 2883   3.085   3.900  16.329  0.3582 -0.5631 -0.0017
  186MPD1    C3 2884   3.197   3.978  16.347  0.0759  0.0382  0.2082
  186MPD1    C4 2885   3.315   3.936  16.289 -0.7727 -0.1413  0.1747
  186MPD1    C5 2886   3.317   3.828  16.199  0.0514 -0.0836 -0.1378
  186MPD1     H 2887   2.991   3.931  16.373  0.1316  0.1002 -0.9633
  186MPD1    H1 2888   3.409   3.986  16.307  0.2277 -2.1001  0.3446
  186MPD1    H2 2889   3.201   3.673  16.107 -2.4315 -0.9130  1.7325
  186MPD1    H3 2890   3.410   3.788  16.161  0.1749  0.5292 -0.4802
  186MPD1     N 2891   3.205   4.091  16.431 -0.2626 -0.1512 -0.5484
  186MPD1    H5 2892   3.290   4.147  16.435 -0.9133  0.7686  0.4376
  186MPD1    N1 2893   2.976   3.703  16.244 -0.1107 -0.2806 -0.4103
  186MPD1    H6 2894   2.893   3.758  16.263 -0.8524 -1.0275 -1.4878
  186MPD1    H7 2895   2.960   3.664  16.152  1.3287 -1.7225 -0.0527
  187MPD1     C 2896   2.826   1.647   0.485 -0.0150  0.5286 -0.6869
  187MPD1    C1 2897   2.880   1.744   0.408 -0.6355  0.1167 -0.1644
  187MPD1    C2 2898   2.866   1.724   0.266 -0.6849 -0.2345  0.5829
  187MPD1    C3 2899   2.817   1.604   0.211  0.3050 -0.5315  0.6356
  187MPD1    C4 2900   2.780   1.507   0.299 -0.0164  0.5180  0.0687
  187MPD1    C5 2901   2.787   1.532   0.434 -0.3707  0.1195  0.4532
  187MPD1     H 2902   2.894   1.809   0.204  0.2826 -0.1924  1.0756
  187MPD1    H1 2903   2.751   1.408   0.265 -1.5789  0.6948  0.8924
  187MPD1    H2 2904   2.828   1.653   0.593  1.9986 -1.6424 -0.5994
  187MPD1    H3 2905   2.758   1.467   0.516  1.6920  0.3478  1.3655
  187MPD1     N 2906   2.799   1.586   0.071 -1.1098 -0.1587 -0.1826
  187MPD1    H5 2907   2.751   1.504   0.036  0.2637 -0.8792 -0.4125
  187MPD1    N1 2908   2.927   1.865   0.464  0.3563  0.8539 -0.2901
  187MPD1    H6 2909   2.967   1.853   0.557  1.7881  0.5495 -0.9438
  187MPD1    H7 2910   3.005   1.896   0.406 -0.7919 -0.4866 -2.5192
  188MPD1     C 2911   2.029   1.431  10.837 -0.3488 -0.4391 -0.8292
  188MPD1    C1 2912   2.150   1.385  10.874  0.5169  0.2543 -0.2685
  188MPD1    C2 2913   2.194   1.269  10.817 -0.5640 -0.9433 -0.0953
  188MPD1    C3 2914   2.106   1.198  10.734 -0.3464  0.1198  0.5031
  188MPD1    C4 2915   1.972   1.241  10.726 -0.0702 -0.1189  0.2393
  188MPD1    C5 2916   1.933   1.350  10.787 -0.1968  0.0737 -0.4744
  188MPD1     H 2917   2.295   1.232  10.834 -0.7295 -1.1513  0.4163
  188MPD1    H1 2918   1.900   1.177  10.676  0.7233  0.9132 -2.2181
  188MPD1    H2 2919   1.997   1.524  10.882 -1.4194 -0.9413 -0.5733
  188MPD1    H3 2920   1.834   1.394  10.782 -0.8549 -1.2931  0.4791
  188MPD1     N 2921   2.140   1.084  10.662 -0.6848 -0.6100 -0.0913
  188MPD1    H5 2922   2.075   1.060  10.589  0.5054  0.6230 -1.5698
  188MPD1    N1 2923   2.236   1.474  10.935 -0.2202 -0.6652  0.0079
  188MPD1    H6 2924   2.315   1.428  10.980 -1.0017 -2.2362 -0.2330
  188MPD1    H7 2925   2.184   1.528  11.003 -3.1017 -1.3594 -1.6401
  189MPD1     C 2926   4.193   2.095   0.529 -0.4513  0.0985 -0.3723
  189MPD1    C1 2927   4.111   2.017   0.608  0.4841 -0.4335  0.4315
  189MPD1    C2 2928   4.002   2.073   0.664 -0.6225 -0.0029 -0.3176
  189MPD1    C3 2929   3.968   2.200   0.629 -0.0629 -0.2005  0.1913
  189MPD1    C4 2930   4.046   2.282   0.548 -0.4433 -0.4089  0.5788
  189MPD1    C5 2931   4.166   2.230   0.509  0.3638 -0.2051 -0.6627
  189MPD1     H 2932   3.949   2.017   0.740  1.1350 -1.7951 -0.4270
  189MPD1    H1 2933   4.012   2.382   0.526 -0.6719  0.0655  3.0816
  189MPD1    H2 2934   4.296   2.068   0.508  0.1256  2.9515 -1.2262
  189MPD1    H3 2935   4.240   2.292   0.461  0.5633 -0.8997 -1.2683
  189MPD1     N 2936   3.833   2.242   0.663 -0.1967  0.3698 -0.3375
  189MPD1    H5 2937   3.768   2.172   0.696  0.9343  0.3171  1.8180
  189MPD1    N1 2938   4.159   1.893   0.650  0.2088 -0.1900 -0.1827
  189MPD1    H6 2939   4.084   1.833   0.686  0.0433  1.1266  1.7057
  189MPD1    H7 2940   4.188   1.843   0.566 -1.5634 -0.5526 -0.5817
  190MPD1     C 2941   2.228   0.295  15.505  0.1873 -0.3829 -0.3678
  190MPD1    C1 2942   2.239   0.322  15.637 -0.2421 -1.0048  0.3526
  190MPD1    C2 2943   2.366   0.336  15.697  0.3366  0.3487  0.1088
  190MPD1    C3 2944   2.475   0.339  15.614 -0.2570 -0.1715  0.3834
  190MPD1    C4 2945   2.466   0.302  15.484  0.0983 -0.2014  0.3185
  190MPD1    C5 2946   2.340   0.286  15.429  0.3808  0.0497  0.2134
  190MPD1     H 2947   2.372   0.337  15.806  3.2735  1.6036 -0.0570
  190MPD1    H1 2948   2.551   0.294  15.417 -0.0044  0.1948  0.1435
  190MPD1    H2 2949   2.136   0.274  15.453 -0.7277  0.9691  0.6957
  190MPD1    H3 2950   2.331   0.268  15.322  2.8492 -3.1393  0.5644
  190MPD1     N 2951   2.595   0.370  15.682 -0.1567 -0.0293  0.2807
  190MPD1    H5 2952   2.585   0.393  15.781 -0.4913 -0.8085  0.4247
  190MPD1    N1 2953   2.126   0.318  15.716  0.4939  0.4614 -0.2498
  190MPD1    H6 2954   2.049   0.351  15.658  0.6785  0.8369 -0.2818
  190MPD1    H7 2955   2.138   0.376  15.799 -0.3567  1.3994 -0.7779
  191MPD1     C 2956   2.167   2.106  13.346 -0.1857  0.3503 -0.4031
  191MPD1    C1 2957   2.126   2.153  13.222 -0.1249  0.5488  0.2156
  191MPD1    C2 2958   2.029   2.258  13.222 -0.1324  0.0099  0.0216
  191MPD1    C3 2959   1.981   2.310  13.335  0.3989  0.4273  0.3088
  191MPD1    C4 2960   2.015   2.258  13.459  0.1058 -0.2490  0.5472
  191MPD1    C5 2961   2.112   2.161  13.462 -0.1794  0.2993 -0.2737
  191MPD1     H 2962   1.991   2.302  13.130 -0.2466  1.8792  0.9554
  191MPD1    H1 2963   1.990   2.301  13.555  0.3355 -1.1441  1.0057
  191MPD1    H2 2964   2.228   2.019  13.367 -0.6232  0.1540  0.0624
  191MPD1    H3 2965   2.142   2.135  13.563  1.3189  0.8705 -0.5809
  191MPD1     N 2966   1.921   2.438  13.334  0.0603  0.6189 -0.2668
  191MPD1    H5 2967   1.917   2.477  13.241 -1.1197  0.3459 -0.3344
  191MPD1    N1 2968   2.142   2.068  13.111 -0.3105  0.0547  0.0061
  191MPD1    H6 2969   2.152   2.117  13.022 -3.0111  2.1930  0.8601
  191MPD1    H7 2970   2.218   2.001  13.112 -0.7854 -0.4685  1.7825
  192MPD1     C 2971   1.427   3.252  13.851  0.5734  0.6301  0.2294
  192MPD1    C1 2972   1.380   3.129  13.817 -0.0738 -0.5699 -0.0846
  192MPD1    C2 2973   1.465   3.043  13.752 -0.3854  0.1478 -1.0584
  192MPD1    C3 2974   1.576   3.086  13.684 -0.4381 -0.2219 -0.4518
  192MPD1    C4 2975   1.618   3.216  13.710 -0.1180 -0.2689  0.6209
  192MPD1    C5 2976   1.548   3.298  13.795  0.2778  0.1169  0.0513
  192MPD1     H 2977   1.429   2.941  13.742 -0.8455  0.0501  1.6146
  192MPD1    H1 2978   1.700   3.268  13.661 -0.1487  0.4802  1.3649
  192MPD1    H2 2979   1.368   3.311  13.920  0.2079 -2.5245  2.6024
  192MPD1    H3 2980   1.584   3.398  13.813  0.4926  0.1321 -0.4505
  192MPD1     N 2981   1.663   3.010  13.599 -0.6722 -0.4768  0.4648
  192MPD1    H5 2982   1.744   3.056  13.558 -0.0063  0.7430  3.1753
  192MPD1    N1 2983   1.266   3.093  13.889  0.3573 -0.5546 -0.0004
  192MPD1    H6 2984   1.226   3.010  13.847 -0.7596  0.2542 -0.5218
  192MPD1    H7 2985   1.193   3.164  13.889 -1.0482 -2.0039  1.5334
  193MPD1     C 2986   1.342   2.132  16.721  0.5186 -0.6664 -0.2444
  193MPD1    C1 2987   1.397   2.183  16.840 -0.1978  0.1461 -0.8115
  193MPD1    C2 2988   1.460   2.304  16.833  0.4368  0.6164  0.3799
  193MPD1    C3 2989   1.480   2.369  16.715 -0.2253 -0.4749 -0.4629
  193MPD1    C4 2990   1.431   2.317  16.596  0.4693  0.0895  0.0515
  193MPD1    C5 2991   1.357   2.200  16.607 -0.0571  0.5969  0.3776
  193MPD1     H 2992   1.483   2.355  16.926 -1.0969 -0.3433  1.2893
  193MPD1    H1 2993   1.429   2.372  16.503  3.7348 -0.7711 -0.5397
  193MPD1    H2 2994   1.300   2.032  16.722 -2.8505  0.7439  0.6758
  193MPD1    H3 2995   1.312   2.160  16.518 -1.7227 -1.1441  2.0071
  193MPD1     N 2996   1.554   2.489  16.694  1.0208 -0.2678  0.8470
  193MPD1    H5 2997   1.569   2.516  16.598 -0.5818  1.9037  1.1991
  193MPD1    N1 2998   1.354   2.125  16.961 -0.3436  0.6928 -0.0544
  193MPD1    H6 2999   1.324   2.028  16.950 -0.4312  0.5637  1.3920
  193MPD1    H7 3000   1.420   2.137  17.037 -0.7452 -0.3371  0.4570
  194MPD1     C 3001   3.688   0.510  17.524  0.5129  0.3738  0.4008
  194MPD1    C1 3002   3.709   0.475  17.394 -1.3415 -0.1147  0.0483
  194MPD1    C2 3003   3.797   0.366  17.367 -0.6646 -0.6450  0.0137
  194MPD1    C3 3004   3.835   0.279  17.467  0.1263 -0.5175  0.3380
  194MPD1    C4 3005   3.796   0.310  17.598  0.0228 -0.2958  0.5237
  194MPD1    C5 3006   3.734   0.429  17.625  0.4651 -0.2426 -0.1603
  194MPD1     H 3007   3.831   0.347  17.266  0.6727 -2.7379  0.8761
  194MPD1    H1 3008   3.811   0.236  17.676  1.4614 -0.7830 -0.2081
  194MPD1    H2 3009   3.625   0.593  17.554 -3.2353 -1.9053 -1.0696
  194MPD1    H3 3010   3.725   0.459  17.729 -2.7155  0.9310 -0.7395
  194MPD1     N 3011   3.908   0.164  17.456 -0.7284  0.4241 -0.9971
  194MPD1    H5 3012   3.935   0.114  17.540  2.2474  2.3515 -0.8241
  194MPD1    N1 3013   3.653   0.552  17.289 -0.2673 -0.0373  0.2985
  194MPD1    H6 3014   3.624   0.493  17.211  2.8508 -1.1379 -0.0076
  194MPD1    H7 3015   3.568   0.598  17.323  0.0189  0.7593 -0.0495
  195MPD1     C 3016   1.498   1.147   1.410  0.3155 -0.5205  0.0011
  195MPD1    C1 3017   1.408   1.050   1.366  0.5564 -0.1632  0.8257
  195MPD1    C2 3018   1.425   0.986   1.245  0.1896  0.4981  0.8115
  195MPD1    C3 3019   1.539   1.007   1.173 -0.2408 -0.1852 -0.1508
  195MPD1    C4 3020   1.633   1.098   1.219  0.1426  1.1279  0.3536
  195MPD1    C5 3021   1.605   1.178   1.327 -0.2418  0.2126  0.2962
  195MPD1     H 3022   1.345   0.915   1.225  0.6835  0.2195 -0.2280
  195MPD1    H1 3023   1.721   1.113   1.158 -0.2204 -2.5141 -1.0434
  195MPD1    H2 3024   1.480   1.215   1.492 -1.5816  2.2653 -2.7253
  195MPD1    H3 3025   1.687   1.240   1.360  0.2944 -1.2943  1.8066
  195MPD1     N 3026   1.568   0.928   1.059 -0.1122  0.6694 -0.0116
  195MPD1    H5 3027   1.656   0.954   1.015 -1.0578  1.6257 -1.3351
  195MPD1    N1 3028   1.289   1.043   1.434  0.0940 -0.4023 -0.1459
  195MPD1    H6 3029   1.283   1.085   1.527  2.0477 -0.1485 -0.1407
  195MPD1    H7 3030   1.241   0.953   1.426  1.5264 -1.2245  0.6405
  196MPD1     C 3031   0.984   1.002   0.258  0.5219  0.7508 -0.3431
  196MPD1    C1 3032   0.899   0.947   0.349  0.0309  0.2103 -0.1778
  196MPD1    C2 3033   0.925   0.962   0.479  0.1018  0.1308  0.8135
  196MPD1    C3 3034   1.032   1.027   0.530  0.0510  0.0257 -0.3553
  196MPD1    C4 3035   1.120   1.079   0.439  0.8451 -0.0716  0.0652
  196MPD1    C5 3036   1.099   1.067   0.302 -0.3311 -0.4961 -0.2165
  196MPD1     H 3037   0.856   0.924   0.554 -1.3527 -0.9320 -1.0616
  196MPD1    H1 3038   1.209   1.132   0.470  0.6811 -0.3710  1.0526
  196MPD1    H2 3039   0.964   1.006   0.151  0.1234 -0.0358 -0.3035
  196MPD1    H3 3040   1.170   1.108   0.231 -0.0829  1.0734  0.9178
  196MPD1     N 3041   1.066   1.047   0.666  0.0625 -0.3459  0.2510
  196MPD1    H5 3042   1.145   1.108   0.686 -1.6421  0.7803  3.5812
  196MPD1    N1 3043   0.783   0.886   0.303  0.7094  0.5248  0.8957
  196MPD1    H6 3044   0.795   0.827   0.221  1.3092  0.7583  0.8179
  196MPD1    H7 3045   0.737   0.823   0.369 -0.3866 -1.1442 -1.4515
  197MPD1     C 3046   0.210   3.979  17.553  0.3991 -0.5936  0.0263
  197MPD1    C1 3047   0.155   3.914  17.442  0.4707 -0.0473  0.7504
  197MPD1    C2 3048   0.228   3.819  17.370  0.4658  0.0852  0.4879
  197MPD1    C3 3049   0.335   3.757  17.435  1.0487  0.1991 -0.4122
  197MPD1    C4 3050   0.380   3.804  17.556  0.4984  0.1472 -1.7957
  197MPD1    C5 3051   0.319   3.925  17.596 -0.5122  0.4059 -0.0409
  197MPD1     H 3052   0.191   3.787  17.273  1.9587 -1.1478  0.3155
  197MPD1    H1 3053   0.465   3.773  17.614  0.8006  3.7747 -0.3200
  197MPD1    H2 3054   0.161   4.068  17.591  1.1889  0.6291 -1.8133
  197MPD1    H3 3055   0.358   3.974  17.685 -0.2784 -1.6100  0.9721
  197MPD1     N 3056   0.414   3.645  17.390  0.0369 -1.1942  0.2074
  197MPD1    H5 3057   0.505   3.632  17.433 -1.4187  1.3055  4.0083
  197MPD1    N1 3058   0.039   3.960  17.383 -0.4568  0.0292  0.3231
  197MPD1    H6 3059   4.721   4.024  17.441 -1.8511 -0.5581 -0.3512
  197MPD1    H7 3060   4.714   3.891  17.341  2.0139 -0.3675 -2.6481
  198MPD1     C 3061   2.309   1.494  14.880 -0.0140 -0.1239 -0.1456
  198MPD1    C1 3062   2.391   1.602  14.893  0.0340  0.5568 -0.7651
  198MPD1    C2 3063   2.442   1.628  15.018 -0.0798 -0.3044  0.3554
  198MPD1    C3 3064   2.395   1.569  15.137  0.3994  0.4895 -0.7824
  198MPD1    C4 3065   2.298   1.470  15.118  0.6779  0.2045 -0.2716
  198MPD1    C5 3066   2.272   1.423  14.992  1.0998 -0.1898 -0.4960
  198MPD1     H 3067   2.512   1.708  15.040  1.4931 -1.2968 -0.9732
  198MPD1    H1 3068   2.238   1.428  15.198 -1.3041  1.3084 -1.1580
  198MPD1    H2 3069   2.264   1.454  14.790  1.1099 -0.3907 -0.5951
  198MPD1    H3 3070   2.203   1.341  14.974  0.2936  0.2408  0.6326
  198MPD1     N 3071   2.452   1.612  15.263 -0.1695  0.2107  0.1480
  198MPD1    H5 3072   2.498   1.702  15.265  0.0289 -0.0208  4.3923
  198MPD1    N1 3073   2.432   1.663  14.780  0.2845 -0.4139  0.3975
  198MPD1    H6 3074   2.359   1.661  14.710  2.3286  0.4349 -1.7507
  198MPD1    H7 3075   2.463   1.759  14.797 -0.4120 -0.0425 -0.4330
  199MPD1     C 3076   4.388   3.394  10.279  0.0118  0.5730 -0.4047
  199MPD1    C1 3077   4.255   3.356  10.261 -0.3504 -0.1854  0.0146
  199MPD1    C2 3078   4.205   3.367  10.137  0.8979  0.0444 -0.1951
  199MPD1    C3 3079   4.292   3.380  10.029 -0.2799 -0.1355  0.5249
  199MPD1    C4 3080   4.427   3.396  10.046  0.3128  0.5109  0.0769
  199MPD1    C5 3081   4.469   3.420  10.175  0.2303 -0.1504 -0.2959
  199MPD1     H 3082   4.097   3.352  10.132  0.8057  0.4722  0.4841
  199MPD1    H1 3083   4.488   3.419   9.959 -1.7591  1.2341 -1.1974
  199MPD1    H2 3084   4.426   3.409  10.380  0.9921  1.0153 -0.8324
  199MPD1    H3 3085   4.571   3.451  10.192  0.0521  0.5815 -0.5805
  199MPD1     N 3086   4.243   3.381   9.898 -0.2089  0.1210 -0.0567
  199MPD1    H5 3087   4.305   3.416   9.825  0.1683  2.7274  1.4997
  199MPD1    N1 3088   4.169   3.347  10.369 -0.5586  0.0746  0.7388
  199MPD1    H6 3089   4.223   3.305  10.444 -1.8045  0.9312  2.1275
  199MPD1    H7 3090   4.086   3.294  10.344 -1.2296  0.8285  1.3518
  200MPD1     C 3091   3.147   2.704  15.434  0.2168  0.3674 -0.0426
  200MPD1    C1 3092   3.279   2.714  15.447 -0.5941 -0.2857 -0.3262
  200MPD1    C2 3093   3.356   2.737  15.339  0.7370  0.2936  0.4590
  200MPD1    C3 3094   3.296   2.764  15.210 -0.0521  0.5453  0.2553
  200MPD1    C4 3095   3.161   2.760  15.200  0.3761  0.2764  0.4774
  200MPD1    C5 3096   3.089   2.727  15.312 -0.1720  0.0119 -0.4054
  200MPD1     H 3097   3.464   2.748  15.346  0.8735 -0.1314 -0.8152
  200MPD1    H1 3098   3.108   2.768  15.106  0.4989 -1.7623  0.2213
  200MPD1    H2 3099   3.074   2.678  15.509 -0.9227 -0.2667 -1.3651
  200MPD1    H3 3100   2.983   2.708  15.309 -0.6973  2.8441  0.0856
  200MPD1     N 3101   3.366   2.793  15.088 -0.6606 -0.9490 -0.1413
  200MPD1    H5 3102   3.311   2.792  15.003 -0.9369 -1.7671  0.0473
  200MPD1    N1 3103   3.340   2.677  15.568 -0.2188 -0.2505 -0.7298
  200MPD1    H6 3104   3.416   2.741  15.590 -1.4727  0.3282  1.9193
  200MPD1    H7 3105   3.273   2.692  15.644 -0.0565 -1.7424 -0.2953
  201MPD1     C 3106   1.066   2.168  12.907  0.2923 -0.5225  0.0215
  201MPD1    C1 3107   1.166   2.166  12.817  0.1741  0.3091  0.2325
  201MPD1    C2 3108   1.281   2.091  12.845 -0.4376 -0.9542 -1.2121
  201MPD1    C3 3109   1.294   2.025  12.966 -0.4085 -0.7872 -0.0166
  201MPD1    C4 3110   1.199   2.042  13.060 -0.6143  0.8557  0.2692
  201MPD1    C5 3111   1.084   2.116  13.039  0.0863  0.2557 -0.3967
  201MPD1     H 3112   1.359   2.086  12.770  1.3089 -0.7688  0.6066
  201MPD1    H1 3113   1.209   1.998  13.158  1.2689  2.8292  0.9506
  201MPD1    H2 3114   0.973   2.219  12.884  1.0627  0.1672 -1.5708
  201MPD1    H3 3115   1.020   2.143  13.122 -1.0955 -1.6916 -0.6925
  201MPD1     N 3116   1.412   1.957  12.988  0.0240 -0.7049  0.6234
  201MPD1    H5 3117   1.463   1.939  12.902  1.0008  0.2220  1.0067
  201MPD1    N1 3118   1.146   2.221  12.689  0.0224 -0.3767  0.2230
  201MPD1    H6 3119   1.230   2.241  12.635  1.3777  0.4234  2.6566
  201MPD1    H7 3120   1.082   2.300  12.682  0.0561 -0.3168  0.5824
  202MPD1     C 3121   0.410   0.060  10.055  0.1370  0.0449 -0.4090
  202MPD1    C1 3122   0.437   0.115   9.930  0.5173 -0.5489  0.3312
  202MPD1    C2 3123   0.478   0.245   9.936  0.7193  0.2592  0.8457
  202MPD1    C3 3124   0.512   0.311  10.057 -0.9535  1.1494  0.4458
  202MPD1    C4 3125   0.505   0.239  10.173  0.2298  0.6777  0.1427
  202MPD1    C5 3126   0.449   0.113  10.172 -0.2629 -1.1259  1.1491
  202MPD1     H 3127   0.453   0.301   9.847 -2.7660 -1.1868  0.9488
  202MPD1    H1 3128   0.525   0.278  10.272  1.2327  0.0338  0.2000
  202MPD1    H2 3129   0.378   4.694  10.066 -0.0163  0.1880  0.4890
  202MPD1    H3 3130   0.422   0.067  10.266 -2.2299 -0.7752  0.7486
  202MPD1     N 3131   0.565   0.443  10.055 -0.0527 -1.0499  0.5461
  202MPD1    H5 3132   0.591   0.488  10.143 -0.8994  0.8077 -0.1378
  202MPD1    N1 3133   0.365   0.070   9.819 -0.2530 -0.3978 -0.1886
  202MPD1    H6 3134   0.409   0.105   9.734 -1.9614  0.3172 -0.7783
  202MPD1    H7 3135   0.357   4.705   9.817  1.2921 -0.5414  1.2333
  203MPD1     C 3136   4.128   2.401  12.910 -0.0682  0.1960 -0.1035
  203MPD1    C1 3137   4.175   2.310  12.814 -0.0887  0.1573  0.3067
  203MPD1    C2 3138   4.287   2.248  12.835  0.1446 -0.6066 -0.0479
  203MPD1    C3 3139   4.370   2.286  12.937  0.8038 -0.1177 -0.3691
  203MPD1    C4 3140   4.331   2.382  13.023 -0.0619 -0.7011  0.4359
  203MPD1    C5 3141   4.209   2.440  13.011  0.4439  0.4824  0.7572
  203MPD1     H 3142   4.317   2.173  12.762 -0.5928  0.2550 -1.2362
  203MPD1    H1 3143   4.398   2.423  13.098 -0.8546 -0.5763  1.0751
  203MPD1    H2 3144   4.037   2.457  12.890 -0.2636 -0.3004 -0.6073
  203MPD1    H3 3145   4.178   2.513  13.084 -3.7645 -1.4236  0.8933
  203MPD1     N 3146   4.495   2.228  12.936  0.0309 -0.1220  0.2147
  203MPD1    H5 3147   4.495   2.146  12.877  0.3058 -0.2900  0.4468
  203MPD1    N1 3148   4.095   2.274  12.702  0.0353  0.4687 -0.5160
  203MPD1    H6 3149   4.156   2.252  12.623  0.7242 -0.9160  0.3994
  203MPD1    H7 3150   4.025   2.342  12.674  0.0533  1.0406  0.8205
  204MPD1     C 3151   3.519   3.901  17.437 -0.4454  0.7338 -0.2582
  204MPD1    C1 3152   3.646   3.942  17.415 -0.3446 -0.1115  0.6626
  204MPD1    C2 3153   3.752   3.856  17.407 -0.1759 -0.0230 -0.0094
  204MPD1    C3 3154   3.731   3.722  17.425  0.2089 -0.0742  0.0781
  204MPD1    C4 3155   3.601   3.675  17.437 -0.0301 -0.4238 -0.3544
  204MPD1    C5 3156   3.493   3.768  17.446  0.1135 -0.1249  0.3736
  204MPD1     H 3157   3.851   3.896  17.393 -0.5607  1.5648  1.8420
  204MPD1    H1 3158   3.574   3.571  17.429  1.0509 -0.8037  0.7410
  204MPD1    H2 3159   3.437   3.969  17.455  0.6425  1.7955  0.6588
  204MPD1    H3 3160   3.392   3.735  17.468  0.8073 -1.4619  1.5919
  204MPD1     N 3161   3.849   3.647  17.428  0.8263 -0.4935  0.8402
  204MPD1    H5 3162   3.937   3.696  17.417  0.9157 -0.6604  0.8096
  204MPD1    N1 3163   3.673   4.079  17.423  0.1046 -0.1927  0.9458
  204MPD1    H6 3164   3.736   4.107  17.348 -1.3453 -1.0519 -0.5849
  204MPD1    H7 3165   3.582   4.121  17.407 -1.1042 -3.0314  0.3564
  205MPD1     C 3166   0.036   2.022  17.098  0.4553  0.3242 -0.0695
  205MPD1    C1 3167   4.685   2.128  17.073 -0.2245 -0.1858 -0.1186
  205MPD1    C2 3168   4.613   2.178  17.175  0.4424 -0.5320  0.6238
  205MPD1    C3 3169   4.663   2.163  17.306  0.2233 -0.3702  0.3074
  205MPD1    C4 3170   0.032   2.082  17.330  0.4982 -0.2615  0.2612
  205MPD1    C5 3171   0.075   2.000  17.227  0.0737 -0.1404 -0.5548
  205MPD1     H 3172   4.536   2.249  17.148  0.1960 -0.8320  0.5403
  205MPD1    H1 3173   0.068   2.067  17.431  0.4298  0.4146  0.3846
  205MPD1    H2 3174   0.091   1.971  17.020 -0.7415  0.9693 -1.3415
  205MPD1    H3 3175   0.155   1.932  17.251  0.0818  0.6390  1.5466
  205MPD1     N 3176   4.604   2.216  17.427  0.3752  0.3085 -0.7741
  205MPD1    H5 3177   4.661   2.215  17.511 -0.8930 -2.7158  0.0756
  205MPD1    N1 3178   4.652   2.163  16.935  0.3948  0.3951  0.3186
  205MPD1    H6 3179   4.647   2.265  16.931  0.9880  0.3305 -1.9613
  205MPD1    H7 3180   4.729   2.130  16.877  0.7983  1.9098 -0.0195
  206MPD1     C 3181   4.707   0.587  17.578 -0.3041 -0.1057  0.1228
  206MPD1    C1 3182   0.028   0.500  17.490  0.1512 -0.4459  0.0819
  206MPD1    C2 3183   4.700   0.457  17.379 -0.0753 -0.7519 -0.4488
  206MPD1    C3 3184   4.569   0.499  17.348 -0.4867  0.1469 -0.3093
  206MPD1    C4 3185   4.514   0.593  17.432 -0.8757 -0.1476 -0.4340
  206MPD1    C5 3186   4.589   0.643  17.540  0.2802 -0.1901  0.0978
  206MPD1     H 3187   0.011   0.383  17.316  0.9065 -0.2791 -0.2557
  206MPD1    H1 3188   4.419   0.639  17.409 -0.0962  0.9398 -1.4336
  206MPD1    H2 3189   0.024   0.623  17.664  0.0260  0.8527 -0.4892
  206MPD1    H3 3190   4.539   0.719  17.599  2.1397 -0.8176  2.4961
  206MPD1     N 3191   4.494   0.463  17.232 -0.2928  0.0307 -0.0551
  206MPD1    H5 3192   4.401   0.503  17.226 -0.0608  0.0030 -3.7787
  206MPD1    N1 3193   0.150   0.445  17.525 -0.0467 -0.1450 -0.1052
  206MPD1    H6 3194   0.215   0.521  17.548  0.2601 -0.6147  0.5636
  206MPD1    H7 3195   0.187   0.396  17.444  1.4925  0.0794  0.4563
  207MPD1     C 3196   1.775   2.838   9.525  0.6461 -0.0484  0.2781
  207MPD1    C1 3197   1.778   2.732   9.610 -0.6246  0.0296  0.5172
  207MPD1    C2 3198   1.882   2.731   9.705 -0.0536  0.2196 -0.4067
  207MPD1    C3 3199   1.957   2.844   9.735 -0.1242 -0.3696 -0.1213
  207MPD1    C4 3200   1.938   2.957   9.657  0.2777  0.0800 -0.2422
  207MPD1    C5 3201   1.855   2.951   9.548  0.2166 -0.3203  0.1966
  207MPD1     H 3202   1.885   2.644   9.770  0.8762  1.4993  1.2635
  207MPD1    H1 3203   2.001   3.044   9.670 -1.2100  0.9690  0.9698
  207MPD1    H2 3204   1.709   2.839   9.440  1.9937 -0.9655 -0.7900
  207MPD1    H3 3205   1.864   3.030   9.475  1.3973  0.7041  1.4600
  207MPD1     N 3206   2.043   2.854   9.841  0.3305 -0.6524  0.6210
  207MPD1    H5 3207   2.101   2.937   9.847  1.1937 -1.1486 -1.0098
  207MPD1    N1 3208   1.703   2.620   9.583  0.4878  0.1936  0.4595
  207MPD1    H6 3209   1.606   2.635   9.557  0.7415  0.2630 -0.4277
  207MPD1    H7 3210   1.688   2.554   9.659 -1.9170  0.9558  0.6237
  208MPD1     C 3211   0.652   1.576   0.424  0.0365  0.5449  0.0804
  208MPD1    C1 3212   0.636   1.628   0.550 -0.2710 -0.3487  0.7404
  208MPD1    C2 3213   0.501   1.638   0.606  0.2299 -0.3325  0.9979
  208MPD1    C3 3214   0.397   1.573   0.538 -0.1649  0.7030 -0.1124
  208MPD1    C4 3215   0.419   1.516   0.410  0.5745  0.1410 -0.1268
  208MPD1    C5 3216   0.547   1.517   0.362 -0.1577  0.2010 -0.5782
  208MPD1     H 3217   0.474   1.682   0.701 -0.1171 -1.0171  1.2150
  208MPD1    H1 3218   0.347   1.463   0.349  1.0695  2.3484 -2.5862
  208MPD1    H2 3219   0.750   1.560   0.381 -1.3224 -1.7175 -2.2651
  208MPD1    H3 3220   0.552   1.481   0.260  1.6179  0.1163 -0.4588
  208MPD1     N 3221   0.274   1.570   0.599 -0.3203 -0.0722  0.8614
  208MPD1    H5 3222   0.266   1.620   0.687 -1.3362  0.6288  0.3718
  208MPD1    N1 3223   0.740   1.700   0.613  0.3807  0.4390  0.1533
  208MPD1    H6 3224   0.741   1.694   0.714 -0.8367 -0.2813  0.1207
  208MPD1    H7 3225   0.832   1.669   0.580  0.2878  0.0809  0.2405
  209MPD1     C 3226   2.310   2.028  11.570 -0.2444  0.6090 -0.1197
  209MPD1    C1 3227   2.306   2.002  11.437 -0.0362 -0.7457 -0.2148
  209MPD1    C2 3228   2.302   2.107  11.352 -0.4527  0.0643 -0.6443
  209MPD1    C3 3229   2.328   2.238  11.397  0.2516  0.4107  0.3332
  209MPD1    C4 3230   2.347   2.266  11.530 -0.6829  0.3813  0.7522
  209MPD1    C5 3231   2.333   2.155  11.611 -0.3721  0.4520  0.1650
  209MPD1     H 3232   2.300   2.090  11.245  1.2170  1.3058 -0.8837
  209MPD1    H1 3233   2.376   2.362  11.571 -0.0044  0.3352  0.3873
  209MPD1    H2 3234   2.288   1.946  11.638  0.9750  0.2097 -0.2169
  209MPD1    H3 3235   2.326   2.180  11.716  1.7447  1.6602 -0.0034
  209MPD1     N 3236   2.341   2.339  11.300 -0.3356 -0.5305  0.0427
  209MPD1    H5 3237   2.356   2.316  11.202 -1.1029 -1.1049  0.0610
  209MPD1    N1 3238   2.272   1.872  11.391 -0.2303 -0.0628  0.1573
  209MPD1    H6 3239   2.309   1.855  11.298 -0.0489 -0.4541  0.3017
  209MPD1    H7 3240   2.321   1.804  11.449  1.4594  0.4133 -0.7228
  210MPD1     C 3241   3.017   3.097  11.367 -0.4082  0.1793  0.3544
  210MPD1    C1 3242   3.034   3.037  11.243  0.1437 -0.5024 -0.2669
  210MPD1    C2 3243   2.958   2.924  11.214 -0.0913 -0.1131  0.2373
  210MPD1    C3 3244   2.846   2.889  11.295  0.7012 -0.5111 -0.3038
  210MPD1    C4 3245   2.829   2.960  11.415  0.0087  0.1136 -0.3856
  210MPD1    C5 3246   2.911   3.064  11.452  0.2277 -0.3622  0.6046
  210MPD1     H 3247   2.984   2.862  11.128 -0.9859  1.3557 -1.0882
  210MPD1    H1 3248   2.739   2.945  11.473  0.2091  0.1359 -0.0696
  210MPD1    H2 3249   3.080   3.177  11.405 -1.0245  1.3658 -1.1202
  210MPD1    H3 3250   2.897   3.122  11.542 -2.9283  0.8160 -0.6385
  210MPD1     N 3251   2.752   2.795  11.265  0.4866  0.0769  0.4086
  210MPD1    H5 3252   2.672   2.785  11.326 -0.8030  0.0043 -1.2784
  210MPD1    N1 3253   3.154   3.067  11.163 -0.3626 -0.1118 -0.0403
  210MPD1    H6 3254   3.135   3.058  11.063 -2.1578  0.0504  0.2853
  210MPD1    H7 3255   3.214   3.146  11.185  0.2849 -0.9163  1.1223
  211MPD1     C 3256   4.566   1.691  16.912  0.3243  0.6101 -0.3248
  211MPD1    C1 3257   4.436   1.654  16.886 -0.2441 -0.2879 -0.5584
  211MPD1    C2 3258   4.378   1.706  16.765 -1.0380  0.6691  0.5416
  211MPD1    C3 3259   4.434   1.812  16.693 -0.0828  0.4088  0.8823
  211MPD1    C4 3260   4.563   1.852  16.736 -0.0842 -0.0166 -0.0219
  211MPD1    C5 3261   4.627   1.788  16.840  0.0797 -0.4900  0.3436
  211MPD1     H 3262   4.277   1.672  16.746  0.0145 -1.9588 -0.2340
  211MPD1    H1 3263   4.612   1.927  16.675 -1.3269 -0.1324 -1.1402
  211MPD1    H2 3264   4.614   1.639  16.993 -3.0063  0.5515  1.6116
  211MPD1    H3 3265   4.720   1.828  16.878 -0.7918  1.0208  0.8732
  211MPD1     N 3266   4.371   1.869  16.575 -0.2583  0.2782  0.3887
  211MPD1    H5 3267   4.421   1.953  16.547 -0.6460  0.1526 -0.6745
  211MPD1    N1 3268   4.375   1.549  16.954  0.5396  0.0538  0.5385
  211MPD1    H6 3269   4.274   1.561  16.957  0.4117 -0.2946 -3.1289
  211MPD1    H7 3270   4.412   1.535  17.048  3.1270  0.7748 -0.3826
  212MPD1     C 3271   3.895   0.430  16.710 -0.8377 -0.4864 -0.1888
  212MPD1    C1 3272   3.764   0.466  16.729 -0.3297  0.7657  1.1027
  212MPD1    C2 3273   3.687   0.408  16.829  0.2555 -0.0525 -0.3019
  212MPD1    C3 3274   3.746   0.317  16.916  0.4426  0.1664  0.1786
  212MPD1    C4 3275   3.878   0.275  16.895  0.6325 -0.5442 -0.0642
  212MPD1    C5 3276   3.946   0.329  16.793  0.3550 -0.1541  0.0069
  212MPD1     H 3277   3.586   0.441  16.847  0.6243 -0.7272  3.0226
  212MPD1    H1 3278   3.924   0.193  16.950  2.0311  1.5083  1.8546
  212MPD1    H2 3279   3.949   0.447  16.618 -0.4168  1.2898  0.4004
  212MPD1    H3 3280   4.050   0.304  16.774  1.3800  2.0293  2.7657
  212MPD1     N 3281   3.688   0.258  17.030 -0.5144 -0.3517  0.4189
  212MPD1    H5 3282   3.740   0.190  17.085  1.2743  1.8559  1.5088
  212MPD1    N1 3283   3.703   0.564  16.643 -0.8085 -0.3061 -0.4382
  212MPD1    H6 3284   3.765   0.637  16.606  0.7839 -1.6266 -0.3598
  212MPD1    H7 3285   3.628   0.615  16.689 -1.3012 -2.1535  0.8091
  213MPD1     C 3286   2.049   0.808  15.689 -0.0161 -0.1317  1.1433
  213MPD1    C1 3287   2.092   0.877  15.575  0.0863 -0.3349  0.4888
  213MPD1    C2 3288   1.986   0.927  15.497 -0.1760  0.2960 -0.4139
  213MPD1    C3 3289   1.863   0.941  15.550 -0.6350 -0.0273  0.4558
  213MPD1    C4 3290   1.839   0.919  15.686 -0.6778 -0.6615  0.0731
  213MPD1    C5 3291   1.929   0.838  15.749 -0.3147 -0.0965  0.0748
  213MPD1     H 3292   2.004   0.956  15.394 -1.1537  2.1679 -0.0493
  213MPD1    H1 3293   1.743   0.952  15.724 -0.9398 -2.4041  0.9188
  213MPD1    H2 3294   2.120   0.757  15.753  0.0513 -0.3361  0.9083
  213MPD1    H3 3295   1.902   0.799  15.847 -0.8887 -0.2377 -0.1358
  213MPD1     N 3296   1.756   0.976  15.456 -0.6177  0.2674 -0.2707
  213MPD1    H5 3297   1.795   0.990  15.363  0.4866  0.9222  0.2886
  213MPD1    N1 3298   2.206   0.824  15.512  0.6642  0.1029  0.0818
  213MPD1    H6 3299   2.282   0.811  15.578 -2.0587 -1.0125  2.9851
  213MPD1    H7 3300   2.233   0.894  15.443 -0.6605  1.1368  0.6077
  214MPD1     C 3301   1.576   0.360  14.811  0.1661 -0.6482  0.6262
  214MPD1    C1 3302   1.505   0.355  14.928  0.2631  0.4813 -0.2421
  214MPD1    C2 3303   1.474   0.469  14.995 -1.2807 -0.6832  0.4941
  214MPD1    C3 3304   1.541   0.586  14.960  0.0160 -1.0214 -0.3759
  214MPD1    C4 3305   1.612   0.593  14.841  0.4200 -0.6678  0.0360
  214MPD1    C5 3306   1.629   0.478  14.771  0.2754 -0.0927  0.8540
  214MPD1     H 3307   1.396   0.473  15.070  0.0991 -0.2863  1.9024
  214MPD1    H1 3308   1.652   0.690  14.818 -0.2380  0.1117  2.1567
  214MPD1    H2 3309   1.590   0.270  14.752 -0.2952 -1.4346  1.7190
  214MPD1    H3 3310   1.693   0.484  14.684 -1.2474  0.0766 -0.2745
  214MPD1     N 3311   1.522   0.705  15.026  0.2627  0.3425 -0.3361
  214MPD1    H5 3312   1.564   0.786  14.982  1.9243 -2.6533 -4.2459
  214MPD1    N1 3313   1.442   0.237  14.958 -0.2935  0.4867  0.1966
  214MPD1    H6 3314   1.420   0.229  15.057 -1.6503 -2.6239 -0.3641
  214MPD1    H7 3315   1.502   0.157  14.939  1.0388  1.0796  1.8927
  215MPD1     C 3316   1.542   1.621  11.318 -0.1516  0.0062  0.3269
  215MPD1    C1 3317   1.507   1.718  11.403 -0.5910 -0.1544 -0.0144
  215MPD1    C2 3318   1.588   1.831  11.424  0.3940 -0.7025 -0.5091
  215MPD1    C3 3319   1.692   1.859  11.341 -0.1251  0.0198 -0.2586
  215MPD1    C4 3320   1.728   1.757  11.249 -0.5644 -0.2764 -0.8482
  215MPD1    C5 3321   1.665   1.639  11.253  0.9084  0.1915 -0.6552
  215MPD1     H 3322   1.567   1.887  11.514  0.3348  0.5209 -1.2824
  215MPD1    H1 3323   1.815   1.766  11.185  0.2614  2.7482  0.7178
  215MPD1    H2 3324   1.490   1.526  11.308 -0.5218  0.2844 -0.3764
  215MPD1    H3 3325   1.705   1.568  11.181  1.2815  1.0717 -1.3147
  215MPD1     N 3326   1.749   1.991  11.348 -0.0681 -0.1454  0.4846
  215MPD1    H5 3327   1.707   2.055  11.415 -2.2049 -1.5775  0.5562
  215MPD1    N1 3328   1.403   1.693  11.496 -0.2425  0.7967  0.3866
  215MPD1    H6 3329   1.385   1.774  11.555  0.7869  1.1438  0.2224
  215MPD1    H7 3330   1.315   1.674  11.447 -0.2439 -0.3660  0.8513
  216MPD1     C 3331   2.661   4.694   0.766 -0.1109 -0.7799  0.7020
  216MPD1    C1 3332   2.757   0.053   0.796  1.0391  0.5157 -0.1401
  216MPD1    C2 3333   2.846   0.089   0.692 -0.3394 -0.8117 -0.1454
  216MPD1    C3 3334   2.820   0.033   0.565  0.1673  0.4860  0.0274
  216MPD1    C4 3335   2.720   4.682   0.529 -0.2395 -0.0762 -0.3612
  216MPD1    C5 3336   2.642   4.647   0.633 -0.5685  0.1288 -0.4672
  216MPD1     H 3337   2.936   0.147   0.708 -1.1868  1.3246 -3.0876
  216MPD1    H1 3338   2.699   4.668   0.423  1.3948  1.5168 -0.9132
  216MPD1    H2 3339   2.587   4.665   0.840  0.6732 -0.7328  1.5143
  216MPD1    H3 3340   2.558   4.584   0.604 -1.0112 -0.8308  2.9232
  216MPD1     N 3341   2.915   0.074   0.474  0.3296  0.1668 -0.4902
  216MPD1    H5 3342   3.003   0.109   0.510  0.0893  0.1394  0.1313
  216MPD1    N1 3343   2.778   0.092   0.928 -0.2822 -0.9185 -0.6447
  216MPD1    H6 3344   2.709   0.070   0.999  1.2317 -0.8887  0.8306
  216MPD1    H7 3345   2.821   0.184   0.934 -0.6841 -0.8120  0.5793
  217MPD1     C 3346   0.488   1.945   9.995 -0.6296 -0.1229 -0.1007
  217MPD1    C1 3347   0.413   2.048   9.950 -0.1708 -0.0870  0.4846
  217MPD1    C2 3348   0.297   2.025   9.876  0.4498 -0.0736  0.1306
  217MPD1    C3 3349   0.260   1.893   9.852 -0.4722  0.2446  0.3455
  217MPD1    C4 3350   0.336   1.783   9.897 -0.5400 -0.3348 -0.9230
  217MPD1    C5 3351   0.445   1.817   9.975  0.1989  0.0732 -0.2193
  217MPD1     H 3352   0.232   2.106   9.845 -0.8572 -1.4424 -0.6610
  217MPD1    H1 3353   0.304   1.680   9.888  1.5674 -0.8034 -2.9664
  217MPD1    H2 3354   0.579   1.950  10.054 -0.5888  0.1379 -0.1872
  217MPD1    H3 3355   0.504   1.740  10.024  1.3157  0.4769 -0.9351
  217MPD1     N 3356   0.137   1.866   9.787  0.2931 -0.2707  0.5025
  217MPD1    H5 3357   0.109   1.769   9.777  2.9711 -1.1009  0.8812
  217MPD1    N1 3358   0.456   2.176   9.974  0.0858  0.3490  0.4968
  217MPD1    H6 3359   0.496   2.188  10.066 -0.9695 -0.4160  1.0583
  217MPD1    H7 3360   0.383   2.245   9.957 -2.0731 -1.9212  0.5387
  218MPD1     C 3361   1.464   2.846  13.219 -0.4010  0.9071 -0.3429
  218MPD1    C1 3362   1.556   2.941  13.190 -0.3443  0.4942  0.1361
  218MPD1    C2 3363   1.667   2.904  13.104 -0.7258 -0.0583  0.3363
  218MPD1    C3 3364   1.699   2.777  13.077  0.9339 -0.2195  0.3043
  218MPD1    C4 3365   1.616   2.683  13.131  0.4197  0.5986  0.4025
  218MPD1    C5 3366   1.495   2.715  13.192 -0.3804  0.4457 -0.4819
  218MPD1     H 3367   1.726   2.984  13.063 -0.4435  0.6084  2.0698
  218MPD1    H1 3368   1.644   2.579  13.117 -0.7728  0.7076 -2.9306
  218MPD1    H2 3369   1.366   2.854  13.263  0.8349  0.2561  2.5767
  218MPD1    H3 3370   1.432   2.633  13.226 -3.1968  1.6312 -2.8005
  218MPD1     N 3371   1.811   2.743  12.997 -0.1767  0.5228 -0.8200
  218MPD1    H5 3372   1.836   2.816  12.931  0.6771 -0.4184 -1.5368
  218MPD1    N1 3373   1.533   3.075  13.219 -0.2024  0.1574 -0.0832
  218MPD1    H6 3374   1.621   3.126  13.217 -0.1901  0.2055  1.5778
  218MPD1    H7 3375   1.491   3.078  13.312 -0.1645  1.0678 -0.0921
  219MPD1     C 3376   2.333   3.301  12.667 -0.0539 -0.0456 -0.0924
  219MPD1    C1 3377   2.378   3.199  12.593  0.1588 -0.7039  0.0887
  219MPD1    C2 3378   2.331   3.072  12.617  0.0686  0.2377  0.4596
  219MPD1    C3 3379   2.211   3.058  12.684 -0.2090  0.0088  0.3930
  219MPD1    C4 3380   2.151   3.165  12.743  0.5389 -0.3896 -0.7052
  219MPD1    C5 3381   2.214   3.285  12.738 -0.1796  0.1352 -0.4867
  219MPD1     H 3382   2.388   3.001  12.558  0.4839  0.6926  0.3089
  219MPD1    H1 3383   2.065   3.138  12.803  0.1380 -0.0817 -1.1443
  219MPD1    H2 3384   2.374   3.401  12.661  0.7690 -0.3962 -0.2905
  219MPD1    H3 3385   2.180   3.367  12.799 -2.6964 -0.6561 -0.8282
  219MPD1     N 3386   2.150   2.930  12.710 -0.6345  0.2223 -0.2271
  219MPD1    H5 3387   2.071   2.934  12.773 -1.7611  1.4436 -1.7088
  219MPD1    N1 3388   2.498   3.212  12.522 -0.3495 -0.2922  0.2568
  219MPD1    H6 3389   2.509   3.299  12.471 -1.4222 -0.9037 -1.0214
  219MPD1    H7 3390   2.522   3.135  12.459 -2.1733  1.4491 -2.5674
  220MPD1     C 3391   1.360   3.269   9.886  0.7490  0.0689  0.1389
  220MPD1    C1 3392   1.465   3.271   9.979 -0.5067  0.0436  0.9049
  220MPD1    C2 3393   1.465   3.164  10.071 -0.1386 -0.4476 -0.4129
  220MPD1    C3 3394   1.351   3.081  10.081 -0.0123  0.2239  0.5663
  220MPD1    C4 3395   1.247   3.091   9.990 -0.0778 -0.3636 -1.4843
  220MPD1    C5 3396   1.250   3.183   9.894  0.0457 -0.0784 -0.3833
  220MPD1     H 3397   1.549   3.142  10.135 -1.0238 -1.6668  0.3209
  220MPD1    H1 3398   1.161   3.025   9.989 -0.1782 -0.2380  0.4745
  220MPD1    H2 3399   1.361   3.350   9.814  0.8503 -1.3289 -1.4253
  220MPD1    H3 3400   1.164   3.193   9.829  0.3860 -2.6932 -1.2172
  220MPD1     N 3401   1.350   2.981  10.179  0.2316 -0.3283  0.0740
  220MPD1    H5 3402   1.439   2.977  10.227  1.0522 -0.5837 -1.4425
  220MPD1    N1 3403   1.576   3.352   9.958  0.0259  0.6760 -0.1964
  220MPD1    H6 3404   1.619   3.406  10.032  1.9341  0.2485 -0.9791
  220MPD1    H7 3405   1.563   3.424   9.887 -2.0664 -1.2579 -1.7822
  221MPD1     C 3406   4.666   1.184  17.317 -0.4591  0.7928  0.3093
  221MPD1    C1 3407   4.735   1.132  17.209 -0.4473  0.1988 -0.3289
  221MPD1    C2 3408   4.701   1.170  17.083 -0.5558 -0.1244 -0.7065
  221MPD1    C3 3409   4.579   1.237  17.068  0.4185  0.0619 -0.7706
  221MPD1    C4 3410   4.505   1.270  17.175  0.5379 -0.2110 -0.0330
  221MPD1    C5 3411   4.544   1.248  17.302  0.1032 -0.2972  0.2337
  221MPD1     H 3412   0.039   1.152  17.006  0.7611 -0.6013  0.7011
  221MPD1    H1 3413   4.419   1.334  17.164  1.8069  1.6294  0.7837
  221MPD1    H2 3414   4.706   1.175  17.418 -1.1456 -0.3627  0.4759
  221MPD1    H3 3415   4.493   1.297  17.384 -0.3058  1.7035 -1.1933
  221MPD1     N 3416   4.525   1.284  16.945 -0.0504 -0.0556 -0.0965
  221MPD1    H5 3417   4.426   1.306  16.944  0.0533  0.4219  0.3651
  221MPD1    N1 3418   0.132   1.095  17.221  0.8737 -0.0685  0.1358
  221MPD1    H6 3419   0.151   1.030  17.144  0.7656 -0.2838  0.2923
  221MPD1    H7 3420   0.152   1.044  17.307  3.0658  1.3424  0.4570
  222MPD1     C 3421   4.110   0.186   1.194  0.2962  0.0740  0.4629
  222MPD1    C1 3422   4.007   0.093   1.226 -0.1531 -0.2044 -0.5653
  222MPD1    C2 3423   3.885   0.128   1.178  0.7778 -0.1390  0.1437
  222MPD1    C3 3424   3.858   0.239   1.091  0.4555 -0.3432 -0.3894
  222MPD1    C4 3425   3.959   0.322   1.059  0.2556  0.1561  0.5102
  222MPD1    C5 3426   4.079   0.290   1.105  0.1514  0.5546 -0.0684
  222MPD1     H 3427   3.799   0.063   1.196  0.2224  1.0525  1.7570
  222MPD1    H1 3428   3.945   0.396   0.980  0.5028  0.2489  0.5545
  222MPD1    H2 3429   4.212   0.162   1.220  0.4852 -1.2929 -1.5455
  222MPD1    H3 3430   4.164   0.343   1.065  1.0228  0.6837  1.9329
  222MPD1     N 3431   3.736   0.261   1.027  0.0367 -0.2857 -0.1046
  222MPD1    H5 3432   3.739   0.343   0.968 -0.0436 -1.8508 -2.2967
  222MPD1    N1 3433   4.035   4.713   1.295  0.0625  0.1991  0.6194
  222MPD1    H6 3434   4.120   4.724   1.351 -0.5987  0.7253  1.5307
  222MPD1    H7 3435   3.956   4.692   1.356 -0.7897 -1.6506 -1.1231
  223MPD1     C 3436   3.164   4.340   0.484  0.3379  0.2166  0.2684
  223MPD1    C1 3437   3.293   4.332   0.519  0.0333  0.4943 -0.0601
  223MPD1    C2 3438   3.346   4.441   0.588  0.3694  0.0328  0.2057
  223MPD1    C3 3439   3.265   4.546   0.628  0.3490 -0.2925 -0.0178
  223MPD1    C4 3440   3.129   4.548   0.587 -0.7238 -0.6056  0.8154
  223MPD1    C5 3441   3.088   4.440   0.516 -0.0951  0.2927 -0.5879
  223MPD1     H 3442   3.453   4.445   0.603  0.7240 -1.0255 -2.0025
  223MPD1    H1 3443   3.053   4.616   0.624  1.1822  1.7036  0.5341
  223MPD1    H2 3444   3.109   4.262   0.433 -0.5692  1.0148  0.0177
  223MPD1    H3 3445   2.980   4.441   0.507 -0.3066 -0.3728  2.0158
  223MPD1     N 3446   3.318   4.648   0.707  0.0801 -1.7270  0.3658
  223MPD1    H5 3447   3.415   4.639   0.736 -0.2571  0.4757  2.1805
  223MPD1    N1 3448   3.375   4.231   0.462 -0.1424  0.3195 -0.1341
  223MPD1    H6 3449   3.323   4.144   0.455 -0.2530  0.6131 -3.1077
  223MPD1    H7 3450   3.455   4.212   0.522 -1.4341 -0.7624  1.2180
  224MPD1     C 3451   0.648   2.311  10.287 -0.2278 -0.0049  0.9336
  224MPD1    C1 3452   0.683   2.181  10.278  0.3467 -0.4847  0.0006
  224MPD1    C2 3453   0.590   2.081  10.303 -0.0415 -0.6051  0.5445
  224MPD1    C3 3454   0.462   2.115  10.322  0.8454 -0.1597 -0.1943
  224MPD1    C4 3455   0.422   2.245  10.347  0.0966  0.4970  0.2709
  224MPD1    C5 3456   0.519   2.342  10.328  0.1943  0.5194  0.2730
  224MPD1     H 3457   0.618   1.979  10.280  0.6635 -0.4935  0.9159
  224MPD1    H1 3458   0.318   2.265  10.370  0.5418  2.1584  0.8263
  224MPD1    H2 3459   0.716   2.392  10.263 -1.4123  0.0582 -2.1650
  224MPD1    H3 3460   0.499   2.447  10.346 -1.9511  0.3560 -1.0743
  224MPD1     N 3461   0.353   2.018  10.327  0.4974 -0.3230  1.2183
  224MPD1    H5 3462   0.258   2.049  10.346  1.0884  2.0155  0.4311
  224MPD1    N1 3463   0.810   2.149  10.219 -0.4424 -0.1420  0.5399
  224MPD1    H6 3464   0.855   2.069  10.262 -0.1927 -1.8427 -2.9020
  224MPD1    H7 3465   0.876   2.226  10.233 -1.1514  0.4201  0.8088
  225MPD1     C 3466   2.022   3.194  12.427 -0.2660  0.5185 -0.2959
  225MPD1    C1 3467   1.939   3.105  12.360 -0.4865 -0.1245 -0.8243
  225MPD1    C2 3468   1.808   3.140  12.340 -0.7217 -0.2780 -0.1261
  225MPD1    C3 3469   1.754   3.248  12.407  0.5138 -0.0841  0.4373
  225MPD1    C4 3470   1.835   3.338  12.477 -0.4082 -0.7744  0.2613
  225MPD1    C5 3471   1.968   3.303  12.488 -0.1498 -0.0794 -0.4856
  225MPD1     H 3472   1.743   3.069  12.290  0.2063 -1.0056 -0.3074
  225MPD1    H1 3473   1.799   3.426  12.530 -0.5259 -0.3231 -0.5713
  225MPD1    H2 3474   2.130   3.184  12.434 -0.3823 -1.8302 -2.0565
  225MPD1    H3 3475   2.036   3.377  12.531  0.5093 -0.5297 -0.7644
  225MPD1     N 3476   1.612   3.265  12.425  0.2940 -0.0395 -0.3486
  225MPD1    H5 3477   1.590   3.348  12.479  0.6833  1.8632 -3.0986
  225MPD1    N1 3478   1.998   3.003  12.290  0.4332  0.6279  0.2536
  225MPD1    H6 3479   1.928   2.932  12.271  1.7804 -0.6488  0.1220
  225MPD1    H7 3480   2.080   2.958  12.330 -0.0065 -0.5743 -0.2092
  226MPD1     C 3481   1.966   2.806  10.360 -0.7855  0.1495  0.6362
  226MPD1    C1 3482   1.965   2.921  10.284  0.1462  0.8428  0.3930
  226MPD1    C2 3483   1.876   2.928  10.177 -0.5616 -0.7197 -0.4418
  226MPD1    C3 3484   1.791   2.830  10.139 -0.1422  0.9610  0.5401
  226MPD1    C4 3485   1.792   2.714  10.217 -0.3947  0.0514  0.9692
  226MPD1    C5 3486   1.882   2.701  10.321 -0.1733 -0.0571 -0.1241
  226MPD1     H 3487   1.881   3.020  10.121 -0.2065  0.5835  1.7369
  226MPD1    H1 3488   1.734   2.626  10.191 -0.5822  0.2203  0.8264
  226MPD1    H2 3489   2.040   2.775  10.432 -0.9997  1.9371  1.6195
  226MPD1    H3 3490   1.901   2.604  10.365  0.3807 -1.1107 -2.6833
  226MPD1     N 3491   1.708   2.853  10.026 -0.0326 -0.0025 -0.2018
  226MPD1    H5 3492   1.716   2.942   9.978  0.4196  0.3615  0.5450
  226MPD1    N1 3493   2.066   3.015  10.289  0.1339 -0.1849 -0.1641
  226MPD1    H6 3494   2.101   3.027  10.384  1.3073 -1.3669 -0.4462
  226MPD1    H7 3495   2.022   3.106  10.272  0.6761 -0.1517 -1.4430
  227MPD1     C 3496   1.849   3.400   9.436 -0.2583 -0.2055 -0.4426
  227MPD1    C1 3497   1.856   3.410   9.576 -0.2772 -0.1030 -0.4928
  227MPD1    C2 3498   1.778   3.316   9.655 -0.3070  0.2056  0.2553
  227MPD1    C3 3499   1.683   3.231   9.595  0.4651  0.0774 -0.1046
  227MPD1    C4 3500   1.676   3.233   9.458  0.0401  0.0863  0.1169
  227MPD1    C5 3501   1.765   3.310   9.377  0.3276 -0.4343 -0.0673
  227MPD1     H 3502   1.784   3.318   9.763 -0.3688  0.8055  0.2524
  227MPD1    H1 3503   1.605   3.180   9.397 -1.4135  0.3197  1.6233
  227MPD1    H2 3504   1.917   3.461   9.378 -2.5646  2.1190 -0.7285
  227MPD1    H3 3505   1.733   3.314   9.274 -1.1901  2.0584  0.4962
  227MPD1     N 3506   1.598   3.148   9.669  0.4064 -0.1010  0.5278
  227MPD1    H5 3507   1.619   3.134   9.767 -0.7874 -2.0802  0.5071
  227MPD1    N1 3508   1.953   3.505   9.627  0.7098 -0.4023 -0.1880
  227MPD1    H6 3509   1.965   3.577   9.556  2.4454  0.3126  0.8578
  227MPD1    H7 3510   1.903   3.546   9.705  1.9871  1.7607 -0.5148
  228MPD1     C 3511   2.934   0.038  13.059 -0.0282 -0.6944 -0.3670
  228MPD1    C1 3512   2.891   0.129  12.965 -0.3693 -0.0846  1.0239
  228MPD1    C2 3513   2.775   0.200  12.987  1.1075 -0.8646  0.0546
  228MPD1    C3 3514   2.696   0.178  13.097 -0.1959  0.2498  0.4863
  228MPD1    C4 3515   2.739   0.086  13.188 -0.5173 -0.0872 -0.3697
  228MPD1    C5 3516   2.855   0.018  13.171  0.6110  0.6566 -0.2036
  228MPD1     H 3517   2.743   0.269  12.909  1.7354 -1.0910 -0.4085
  228MPD1    H1 3518   2.679   0.058  13.274 -1.5549 -0.6434 -1.2828
  228MPD1    H2 3519   3.023   4.712  13.049 -1.1063 -2.2884  0.0933
  228MPD1    H3 3520   2.887   4.691  13.252  1.1617  0.3796 -0.6351
  228MPD1     N 3521   2.574   0.253  13.110 -0.3246  0.4458 -0.5414
  228MPD1    H5 3522   2.555   0.318  13.034  1.7122  0.8903 -0.6567
  228MPD1    N1 3523   2.964   0.154  12.849 -0.0914  0.3149 -0.1192
  228MPD1    H6 3524   2.907   0.116  12.773  2.8754 -3.0513 -0.6445
  228MPD1    H7 3525   3.050   0.099  12.842 -0.4642 -0.3784  0.7156
  229MPD1     C 3526   2.818   4.208  14.677 -0.6233 -0.4514  0.5058
  229MPD1    C1 3527   2.741   4.220  14.785 -0.2426 -0.0087  0.5711
  229MPD1    C2 3528   2.780   4.156  14.905 -0.5009 -0.6255 -0.2140
  229MPD1    C3 3529   2.886   4.070  14.912  0.6030  0.4810  0.0720
  229MPD1    C4 3530   2.956   4.052  14.794 -0.8092  0.2491 -0.0031
  229MPD1    C5 3531   2.924   4.120  14.683 -0.1732  0.1168 -0.8643
  229MPD1     H 3532   2.727   4.170  14.999 -0.5305 -0.8592 -0.1960
  229MPD1    H1 3533   3.033   3.977  14.783 -1.3708 -0.4727  0.9232
  229MPD1    H2 3534   2.794   4.258  14.584 -0.0146  0.8259  1.0299
  229MPD1    H3 3535   2.983   4.106  14.594  0.7288  1.2541 -0.4365
  229MPD1     N 3536   2.922   3.995  15.024 -0.2972  0.0376  0.6196
  229MPD1    H5 3537   2.998   3.928  15.017  0.0640  0.6910 -1.6660
  229MPD1    N1 3538   2.645   4.318  14.790 -0.4714 -0.0766 -0.4421
  229MPD1    H6 3539   2.601   4.342  14.702 -1.0692 -0.1531 -0.1645
  229MPD1    H7 3540   2.579   4.272  14.852  0.0285 -1.4431 -0.9406
  230MPD1     C 3541   3.460   3.879  15.924  0.9129  0.2515 -0.3818
  230MPD1    C1 3542   3.473   3.768  15.846  0.7988  0.2069  0.0722
  230MPD1    C2 3543   3.397   3.753  15.732 -0.1268  0.1892  0.2989
  230MPD1    C3 3544   3.302   3.849  15.690 -0.4213 -0.2417 -0.2924
  230MPD1    C4 3545   3.293   3.970  15.761  0.2144  0.5256 -0.1615
  230MPD1    C5 3546   3.382   3.983  15.870 -0.3095 -0.2382 -0.4052
  230MPD1     H 3547   3.403   3.664  15.671 -0.1260  0.2985  0.1391
  230MPD1    H1 3548   3.216   4.047  15.750 -0.1191 -0.0855 -2.0462
  230MPD1    H2 3549   3.512   3.889  16.019 -1.2605 -1.0695  0.9495
  230MPD1    H3 3550   3.363   4.078  15.920 -2.0839 -2.0907  2.4109
  230MPD1     N 3551   3.229   3.824  15.577 -0.0599 -0.5208 -0.0370
  230MPD1    H5 3552   3.258   3.741  15.525  0.6938 -1.0495  1.2332
  230MPD1    N1 3553   3.539   3.660  15.900  0.2415  0.7996  0.3149
  230MPD1    H6 3554   3.612   3.692  15.964 -0.1280 -1.0797  1.7058
  230MPD1    H7 3555   3.584   3.615  15.821 -0.9973 -2.2833  1.3591
  231MPD1     C 3556   1.322   1.230  15.447  0.6311 -0.5432 -0.6539
  231MPD1    C1 3557   1.243   1.210  15.333  0.1863 -0.2016 -0.8161
  231MPD1    C2 3558   1.296   1.269  15.218 -0.1871 -0.3817 -0.6345
  231MPD1    C3 3559   1.404   1.353  15.218 -0.2671  0.2623 -0.3676
  231MPD1    C4 3560   1.471   1.376  15.329  0.0905 -0.5822 -0.6779
  231MPD1    C5 3561   1.436   1.303  15.447 -0.4161  0.1904 -0.1073
  231MPD1     H 3562   1.251   1.252  15.121  0.2161  0.5585 -0.9812
  231MPD1    H1 3563   1.567   1.426  15.334 -0.2718  0.1974 -1.5279
  231MPD1    H2 3564   1.293   1.191  15.544 -0.7627 -1.4537 -1.4400
  231MPD1    H3 3565   1.498   1.303  15.535 -0.3516 -1.0345 -0.1621
  231MPD1     N 3566   1.441   1.406  15.091 -0.0117 -0.2326 -0.6059
  231MPD1    H5 3567   1.396   1.371  15.006 -2.1204 -1.7288  1.1228
  231MPD1    N1 3568   1.138   1.117  15.327  0.0536 -0.6335 -0.3339
  231MPD1    H6 3569   1.089   1.125  15.417  2.0274  0.7100  0.6370
  231MPD1    H7 3570   1.072   1.139  15.253 -1.1234  0.7082  1.0991
  232MPD1     C 3571   3.047   3.685   0.474  0.5818  0.3120  0.1139
  232MPD1    C1 3572   2.930   3.674   0.546 -0.4460  0.2887 -0.5207
  232MPD1    C2 3573   2.873   3.554   0.553  0.5024  0.6123  0.1246
  232MPD1    C3 3574   2.928   3.449   0.490 -0.4198  0.2476  0.2159
  232MPD1    C4 3575   3.049   3.461   0.410  0.4087 -1.3014 -0.6380
  232MPD1    C5 3576   3.110   3.582   0.405 -0.2467  0.3693 -0.7464
  232MPD1     H 3577   2.781   3.529   0.606  2.4062 -2.0904  2.1820
  232MPD1    H1 3578   3.104   3.379   0.366 -0.1649 -2.5860  1.0475
  232MPD1    H2 3579   3.094   3.783   0.478  2.5481 -0.6980  1.5526
  232MPD1    H3 3580   3.208   3.597   0.360 -0.5333 -2.0411 -2.1510
  232MPD1     N 3581   2.874   3.331   0.512 -0.6598 -0.1548  0.3015
  232MPD1    H5 3582   2.798   3.331   0.579 -0.0377 -0.3823  1.0093
  232MPD1    N1 3583   2.886   3.780   0.625  0.3774  0.6167 -0.3198
  232MPD1    H6 3584   2.785   3.778   0.634  0.4798 -0.1434  0.8080
  232MPD1    H7 3585   2.907   3.870   0.582 -0.9293  0.9031 -0.3449
  233MPD1     C 3586   3.391   2.391   2.388  0.0661  0.7765 -0.6495
  233MPD1    C1 3587   3.468   2.498   2.350  0.2119 -0.7176  0.2107
  233MPD1    C2 3588   3.582   2.474   2.276  0.5930 -0.2199 -0.0936
  233MPD1    C3 3589   3.618   2.350   2.225 -0.2475  0.5674  0.5205
  233MPD1    C4 3590   3.526   2.247   2.255 -0.3201 -0.7137  0.3531
  233MPD1    C5 3591   3.428   2.268   2.346 -0.1914  0.4943  0.4416
  233MPD1     H 3592   3.655   2.552   2.256  2.2312 -1.1123  2.3422
  233MPD1    H1 3593   3.545   2.145   2.223  2.5530 -0.1124  0.0892
  233MPD1    H2 3594   3.309   2.412   2.456 -0.0352  0.3882 -0.6504
  233MPD1    H3 3595   3.371   2.185   2.386  0.3219  1.6219  3.4822
  233MPD1     N 3596   3.723   2.324   2.131 -0.6411  0.1484 -0.3694
  233MPD1    H5 3597   3.738   2.233   2.088  0.3613  0.3897 -0.5308
  233MPD1    N1 3598   3.444   2.624   2.406  0.4583 -0.0302  0.1659
  233MPD1    H6 3599   3.477   2.699   2.346  0.7472 -0.6549 -0.4511
  233MPD1    H7 3600   3.346   2.649   2.417 -0.5185 -2.4337 -2.7991
  234MPD1     C 3601   4.630   0.072   9.811  1.1408  0.7765  0.1378
  234MPD1    C1 3602   0.019   0.109   9.855  0.2320  0.7008 -0.1069
  234MPD1    C2 3603   0.058   0.244   9.855  0.3534  0.3647 -0.3567
  234MPD1    C3 3604   4.711   0.334   9.805 -0.5745 -0.2927  0.2049
  234MPD1    C4 3605   4.595   0.296   9.747 -1.0377 -0.0638 -0.6150
  234MPD1    C5 3606   4.553   0.163   9.750 -0.2920  0.2832  0.1528
  234MPD1     H 3607   0.151   0.275   9.900 -0.7659  1.2438  1.3492
  234MPD1    H1 3608   4.522   0.361   9.701 -0.5556 -0.2544 -1.6558
  234MPD1    H2 3609   4.597   4.706   9.819  1.0678  0.8557  0.8321
  234MPD1    H3 3610   4.453   0.142   9.713 -0.3698  0.7732  0.0826
  234MPD1     N 3611   0.011   0.470   9.799  0.2697  0.3884 -0.1187
  234MPD1    H5 3612   0.106   0.498   9.819 -0.0017  0.9872  0.3357
  234MPD1    N1 3613   0.095   0.020   9.930 -0.3539  0.8424  0.0649
  234MPD1    H6 3614   0.082   4.659   9.905  0.6331  1.2092 -1.9713
  234MPD1    H7 3615   0.193   0.048   9.924 -0.2329  0.6840  1.2913
  235MPD1     C 3616   2.746   2.808  10.717  0.6347 -0.1609 -0.6224
  235MPD1    C1 3617   2.669   2.863  10.615  0.1280  0.5863 -0.6571
  235MPD1    C2 3618   2.713   2.974  10.540 -0.9771  0.2727 -0.0152
  235MPD1    C3 3619   2.849   2.995  10.544  0.5258  0.3474  0.3560
  235MPD1    C4 3620   2.928   2.933  10.638 -0.7194 -0.1788 -0.1472
  235MPD1    C5 3621   2.874   2.847  10.732  0.2912 -0.1616 -0.5629
  235MPD1     H 3622   2.658   3.021  10.459  0.9080 -0.0230 -1.4551
  235MPD1    H1 3623   3.036   2.935  10.643 -0.6444  0.7399 -2.1009
  235MPD1    H2 3624   2.710   2.734  10.787 -1.1017  0.4910 -0.8279
  235MPD1    H3 3625   2.942   2.789  10.793 -2.9432 -0.8289  2.4149
  235MPD1     N 3626   2.902   3.104  10.467  0.0753 -0.0674  0.4733
  235MPD1    H5 3627   2.848   3.173  10.416  0.9571  0.0719 -0.2748
  235MPD1    N1 3628   2.533   2.824  10.622  0.4304  0.1431  0.1785
  235MPD1    H6 3629   2.521   2.731  10.659  2.0346  0.3265  1.1780
  235MPD1    H7 3630   2.483   2.818  10.533  2.0669 -0.5506 -0.7043
  236MPD1     C 3631   1.581   4.330   9.343 -0.4945  0.4556 -0.2193
  236MPD1    C1 3632   1.554   4.207   9.397 -0.0676  0.3486  0.1629
  236MPD1    C2 3633   1.608   4.170   9.522 -0.6692 -0.2780 -0.5261
  236MPD1    C3 3634   1.676   4.264   9.599  0.2843  0.0052  0.1615
  236MPD1    C4 3635   1.698   4.388   9.542 -0.4154 -0.0222  0.2386
  236MPD1    C5 3636   1.648   4.424   9.418 -0.6039 -0.4012  0.2657
  236MPD1     H 3637   1.582   4.072   9.562 -0.2191 -0.2809 -0.2438
  236MPD1    H1 3638   1.754   4.465   9.593  0.6474  0.2358 -1.3151
  236MPD1    H2 3639   1.553   4.360   9.243 -2.6017 -0.8747 -0.0303
  236MPD1    H3 3640   1.673   4.523   9.381 -0.5170 -0.1896  0.8915
  236MPD1     N 3641   1.726   4.238   9.730  0.3175 -0.2040  0.2472
  236MPD1    H5 3642   1.776   4.311   9.780  0.8630 -0.9027  0.7186
  236MPD1    N1 3643   1.501   4.112   9.308 -0.1028  0.1002  0.1546
  236MPD1    H6 3644   1.444   4.043   9.356  0.7113  0.6983  1.9781
  236MPD1    H7 3645   1.450   4.157   9.233 -0.9867 -1.9338 -0.4736
  237MPD1     C 3646   1.928   3.640  15.702 -0.0905 -0.4903 -0.3203
  237MPD1    C1 3647   1.857   3.584  15.808 -0.0665  0.3944 -0.0007
  237MPD1    C2 3648   1.766   3.478  15.774 -0.0352 -0.2061  0.4813
  237MPD1    C3 3649   1.738   3.444  15.646 -1.0982  0.0021  0.3317
  237MPD1    C4 3650   1.807   3.509  15.543 -0.2352 -0.2752 -0.3131
  237MPD1    C5 3651   1.909   3.601  15.575  0.5764 -0.1785 -0.4098
  237MPD1     H 3652   1.722   3.420  15.855  2.0144 -1.2430  0.8602
  237MPD1    H1 3653   1.789   3.483  15.440 -2.1336  1.1232 -0.3399
  237MPD1    H2 3654   2.013   3.704  15.719 -0.2681  0.2197 -2.0503
  237MPD1    H3 3655   1.984   3.631  15.503  0.7413 -1.4126 -0.7514
  237MPD1     N 3656   1.627   3.364  15.624  0.2103 -0.1857  0.2535
  237MPD1    H5 3657   1.574   3.326  15.702  1.4505 -3.1343 -0.3466
  237MPD1    N1 3658   1.894   3.606  15.942  0.1259 -0.5710  0.6791
  237MPD1    H6 3659   1.820   3.584  16.007  0.5518 -0.7216  1.1080
  237MPD1    H7 3660   1.919   3.703  15.963  0.8795 -0.5522 -0.3027
  238MPD1     C 3661   3.464   0.892  15.624  0.2004 -0.0091  0.1346
  238MPD1    C1 3662   3.387   0.775  15.626 -0.3244 -0.4572 -0.0996
  238MPD1    C2 3663   3.272   0.772  15.545  0.5177 -0.0022 -0.5511
  238MPD1    C3 3664   3.245   0.869  15.444 -0.3441 -1.1973 -0.0572
  238MPD1    C4 3665   3.341   0.967  15.441  0.2706 -0.3780 -0.6521
  238MPD1    C5 3666   3.438   0.985  15.528  0.6012  0.2637 -0.4488
  238MPD1     H 3667   3.192   0.701  15.561 -0.8444  1.3807 -1.1624
  238MPD1    H1 3668   3.319   1.048  15.372  1.5214  1.1706  0.7723
  238MPD1    H2 3669   3.548   0.906  15.691 -0.7171 -0.4544  1.3791
  238MPD1    H3 3670   3.499   1.074  15.533  1.7536 -0.5923  0.9209
  238MPD1     N 3671   3.128   0.883  15.362 -0.3033  0.1696 -0.0398
  238MPD1    H5 3672   3.126   0.962  15.298 -1.1724  0.9621  0.9559
  238MPD1    N1 3673   3.397   0.677  15.725 -0.2712 -0.3183 -0.9338
  238MPD1    H6 3674   3.492   0.669  15.762 -0.5897  0.9461  0.1528
  238MPD1    H7 3675   3.360   0.583  15.712  0.6356 -0.6033 -1.4637
  239MPD1     C 3676   3.156   1.507  15.512  0.4069 -0.4451 -0.2401
  239MPD1    C1 3677   3.256   1.488  15.424  0.9049 -0.1087  0.0608
  239MPD1    C2 3678   3.260   1.579  15.315  0.0874 -0.3168 -0.3782
  239MPD1    C3 3679   3.175   1.683  15.304  1.2611  0.3469  0.2594
  239MPD1    C4 3680   3.076   1.705  15.402  0.4847  0.2750 -0.1681
  239MPD1    C5 3681   3.075   1.613  15.504  0.1908 -0.2409 -0.3528
  239MPD1     H 3682   3.340   1.556  15.245 -0.5868  0.2655 -1.3367
  239MPD1    H1 3683   3.007   1.788  15.392  2.5778  2.0127 -0.1222
  239MPD1    H2 3684   3.138   1.445  15.599 -1.1881 -1.6702 -1.4408
  239MPD1    H3 3685   3.001   1.635  15.580  1.0561  1.0420  0.1251
  239MPD1     N 3686   3.163   1.772  15.195 -0.8775 -0.0233  0.3906
  239MPD1    H5 3687   3.085   1.836  15.209 -1.3172 -0.5653  0.4382
  239MPD1    N1 3688   3.325   1.366  15.424 -0.6925  0.6145 -0.2098
  239MPD1    H6 3689   3.422   1.372  15.395  0.0334  1.6821  2.4576
  239MPD1    H7 3690   3.308   1.314  15.510  0.9599  0.4836  0.0421
  240MPD1     C 3691   2.846   2.020  14.182  0.6226  0.2435  0.6537
  240MPD1    C1 3692   2.931   1.938  14.244  0.6150  0.2499 -0.5826
  240MPD1    C2 3693   2.884   1.828  14.313  0.3957  0.7409  0.4487
  240MPD1    C3 3694   2.754   1.804  14.329  0.7386  0.1665  0.0191
  240MPD1    C4 3695   2.670   1.890  14.268 -0.4039  0.2822 -0.3925
  240MPD1    C5 3696   2.713   1.996  14.197 -0.2804 -0.0686  0.6430
  240MPD1     H 3697   2.951   1.762  14.368 -0.0197 -0.3117 -0.3006
  240MPD1    H1 3698   2.563   1.873  14.273 -0.4145 -0.0541 -1.7340
  240MPD1    H2 3699   2.875   2.108  14.125 -1.0315 -0.7037 -1.6367
  240MPD1    H3 3700   2.636   2.046  14.140  1.3928  1.1008 -0.5674
  240MPD1     N 3701   2.716   1.692  14.407  0.1593  0.7738 -0.1053
  240MPD1    H5 3702   2.792   1.638  14.447 -1.5636 -1.4563  0.1149
  240MPD1    N1 3703   3.068   1.964  14.243  0.7271  0.6773 -0.1450
  240MPD1    H6 3704   3.102   1.979  14.148  0.5907  1.5862 -0.0570
  240MPD1    H7 3705   3.138   1.909  14.291 -1.3182 -2.0726 -0.3180
  241MPD1     C 3706   2.802   1.369  15.310  1.0821  0.9784 -0.2350
  241MPD1    C1 3707   2.897   1.374  15.205 -0.1860 -0.3573  0.0223
  241MPD1    C2 3708   2.852   1.362  15.079  0.3084 -0.1377  0.2291
  241MPD1    C3 3709   2.725   1.343  15.045  0.2589  1.1112  0.6348
  241MPD1    C4 3710   2.631   1.340  15.146 -0.2670  0.1888  0.5340
  241MPD1    C5 3711   2.671   1.348  15.281  0.2139 -0.6462  0.2358
  241MPD1     H 3712   2.920   1.371  14.996 -0.7183 -1.4245 -0.7481
  241MPD1    H1 3713   2.525   1.327  15.124 -0.1750  0.5943 -0.1412
  241MPD1    H2 3714   2.834   1.366  15.414  1.7914  0.7377 -0.4589
  241MPD1    H3 3715   2.597   1.348  15.360 -0.5231  0.6349 -0.4455
  241MPD1     N 3716   2.682   1.340  14.913  0.8326 -0.0935  0.0481
  241MPD1    H5 3717   2.581   1.329  14.903  0.7570  0.5878  0.0698
  241MPD1    N1 3718   3.035   1.382  15.227 -0.3967  0.3815 -0.1618
  241MPD1    H6 3719   3.076   1.401  15.136 -1.7424  1.1848 -0.5994
  241MPD1    H7 3720   3.074   1.446  15.296  0.7969 -0.4546 -0.0645
  242MPD1     C 3721   2.289   4.152  16.342 -0.5053 -0.1057 -0.0107
  242MPD1    C1 3722   2.206   4.182  16.237 -0.5177  0.4089  0.6761
  242MPD1    C2 3723   2.255   4.244  16.129 -0.4215 -0.1921  0.6697
  242MPD1    C3 3724   2.393   4.276  16.118  0.3391  0.0645  0.1127
  242MPD1    C4 3725   2.479   4.248  16.227  0.0875  0.1018 -0.0151
  242MPD1    C5 3726   2.422   4.189  16.341  0.7137 -0.4115  0.6027
  242MPD1     H 3727   2.183   4.266  16.050  0.2120 -1.9796 -0.3972
  242MPD1    H1 3728   2.584   4.276  16.223  0.5401 -1.8203 -1.6589
  242MPD1    H2 3729   2.258   4.099  16.431  0.3240  0.3441  0.5464
  242MPD1    H3 3730   2.482   4.169  16.429  0.5035 -0.3095  0.7690
  242MPD1     N 3731   2.454   4.334  16.002  0.2106  0.0775 -0.1690
  242MPD1    H5 3732   2.554   4.350  16.011  0.3871  0.1438 -2.1882
  242MPD1    N1 3733   2.065   4.156  16.251 -0.3736  0.1349  0.0934
  242MPD1    H6 3734   2.024   4.100  16.325 -0.7437 -1.5359 -1.3645
  242MPD1    H7 3735   2.019   4.143  16.161  1.0845 -0.1789 -0.6157
  243MPD1     C 3736   3.443   2.884   0.218 -0.6166 -0.0578 -0.5235
  243MPD1    C1 3737   3.531   2.973   0.159  0.4466  0.4465 -0.2548
  243MPD1    C2 3738   3.651   2.925   0.109 -0.0975 -0.3112  0.6678
  243MPD1    C3 3739   3.667   2.783   0.098  0.5743 -0.5059 -0.3596
  243MPD1    C4 3740   3.570   2.699   0.157  0.5372  0.0529  0.2746
  243MPD1    C5 3741   3.460   2.751   0.208  0.0205 -0.0252 -0.1963
  243MPD1     H 3742   3.730   2.994   0.082 -0.4333 -1.0794 -2.3347
  243MPD1    H1 3743   3.576   2.591   0.155 -0.8563 -0.0325  0.4345
  243MPD1    H2 3744   3.351   2.913   0.267 -1.5283 -1.3270 -1.5089
  243MPD1    H3 3745   3.386   2.687   0.254  0.8917 -0.6349  0.3577
  243MPD1     N 3746   3.780   2.726   0.028 -0.1078 -0.0520  0.5744
  243MPD1    H5 3747   3.845   2.795  17.738  0.4599  0.6071  2.8845
  243MPD1    N1 3748   3.519   3.108   0.179  0.3669 -0.1035  0.1420
  243MPD1    H6 3749   3.423   3.120   0.210  0.6284 -0.8908  1.2411
  243MPD1    H7 3750   3.546   3.167   0.100 -1.4665 -0.2640 -0.5995
  244MPD1     C 3751   4.292   1.848  17.344  0.1807 -0.0556  0.1388
  244MPD1    C1 3752   4.288   1.955  17.254 -0.3436 -0.4737  0.3185
  244MPD1    C2 3753   4.235   2.075  17.290  0.2428 -0.0847 -0.5177
  244MPD1    C3 3754   4.202   2.100  17.423 -0.1995 -0.2012 -0.2939
  244MPD1    C4 3755   4.235   2.006  17.520 -0.1798  0.1289  0.8140
  244MPD1    C5 3756   4.275   1.878  17.480 -0.1233 -0.0177 -0.1058
  244MPD1     H 3757   4.221   2.147  17.211 -1.1197 -0.1933 -0.3772
  244MPD1    H1 3758   4.221   2.025  17.626 -0.7734  0.5473  0.6656
  244MPD1    H2 3759   4.335   1.750  17.323 -1.5974 -0.9903  0.8145
  244MPD1    H3 3760   4.313   1.813  17.559  0.9786  1.2603  0.4084
  244MPD1     N 3761   4.153   2.228  17.457 -0.0852  0.0322  0.1501
  244MPD1    H5 3762   4.141   2.295  17.382 -1.1928 -1.3311 -0.9031
  244MPD1    N1 3763   4.304   1.913  17.121 -0.3474 -0.9284  0.0375
  244MPD1    H6 3764   4.319   1.985  17.051 -0.5952 -0.5828  0.3410
  244MPD1    H7 3765   4.371   1.837  17.116  0.9383  0.1621  0.7699
  245MPD1     C 3766   0.684   3.931  13.426 -0.3088  0.2596  0.0347
  245MPD1    C1 3767   0.743   3.917  13.306  0.4745 -0.3699 -0.4146
  245MPD1    C2 3768   0.871   3.974  13.286 -0.4597 -0.4945  0.5152
  245MPD1    C3 3769   0.934   4.056  13.386  0.7842  0.2626 -0.5815
  245MPD1    C4 3770   0.859   4.078  13.501 -0.5332  0.5575  0.6295
  245MPD1    C5 3771   0.736   4.021  13.518  0.2262  0.1900 -0.6052
  245MPD1     H 3772   0.916   3.953  13.190 -2.8383 -0.4116 -0.5960
  245MPD1    H1 3773   0.897   4.134  13.585 -0.7691 -0.2833  1.2972
  245MPD1    H2 3774   0.588   3.885  13.448  0.2915 -0.8762  0.2775
  245MPD1    H3 3775   0.684   4.056  13.607 -0.7307 -0.1647 -1.0281
  245MPD1     N 3776   1.055   4.116  13.352  0.0048  0.6636 -0.0684
  245MPD1    H5 3777   1.100   4.095  13.264 -2.7533 -0.7307 -1.1486
  245MPD1    N1 3778   0.687   3.829  13.219 -0.0799  0.0100 -0.2127
  245MPD1    H6 3779   0.587   3.832  13.239 -0.0017 -0.3467  0.2324
  245MPD1    H7 3780   0.702   3.862  13.124  0.8409 -0.5752 -0.2721
  246MPD1     C 3781   2.671   2.014   9.574 -0.4799  0.6093 -0.7544
  246MPD1    C1 3782   2.594   2.003   9.687 -0.0370  0.2025  0.2613
  246MPD1    C2 3783   2.562   1.880   9.738  0.3113  0.0116 -0.1823
  246MPD1    C3 3784   2.573   1.766   9.662  0.5477  0.6397 -1.0533
  246MPD1    C4 3785   2.630   1.787   9.535 -0.0485  0.3925  0.5922
  246MPD1    C5 3786   2.698   1.900   9.508  0.8561 -0.2945 -0.1332
  246MPD1     H 3787   2.516   1.867   9.835 -2.2887  1.2290 -1.2503
  246MPD1    H1 3788   2.656   1.707   9.467  1.2550  2.6066 -1.5146
  246MPD1    H2 3789   2.734   2.099   9.549  1.2684 -0.1414  1.1251
  246MPD1    H3 3790   2.755   1.907   9.415  0.0034  1.5137 -0.5161
  246MPD1     N 3791   2.532   1.644   9.717  0.2548 -0.0482  0.2966
  246MPD1    H5 3792   2.486   1.642   9.808 -0.4850 -0.4043 -0.0842
  246MPD1    N1 3793   2.564   2.110   9.773  0.3270  0.5544 -0.1427
  246MPD1    H6 3794   2.554   2.193   9.714  0.6112 -0.6843 -1.9343
  246MPD1    H7 3795   2.470   2.093   9.808  1.3954 -1.2113  1.8578
  247MPD1     C 3796   1.132   0.149  16.971 -0.2747 -0.7270 -0.1348
  247MPD1    C1 3797   1.077   0.099  16.852 -0.1346 -0.4556  0.7329
  247MPD1    C2 3798   1.008   4.715  16.851 -0.2233 -0.5880  0.7364
  247MPD1    C3 3799   0.982   4.646  16.969 -0.4590 -0.4462 -0.0560
  247MPD1    C4 3800   1.028   4.702  17.086  0.2091 -0.1879 -0.1240
  247MPD1    C5 3801   1.112   0.075  17.083 -0.0763  0.2671  0.5364
  247MPD1     H 3802   0.983   4.674  16.753  0.0239  0.7510  0.1183
  247MPD1    H1 3803   1.028   4.650  17.181 -1.5463  0.2123  0.0911
  247MPD1    H2 3804   1.191   0.239  16.987 -1.4280 -0.2070  1.2247
  247MPD1    H3 3805   1.156   0.101  17.179 -1.1289 -0.5526  1.2293
  247MPD1     N 3806   0.914   4.525  16.958  0.7571 -0.4368  0.2971
  247MPD1    H5 3807   0.885   4.500  16.864 -0.6461 -1.8741  1.1056
  247MPD1    N1 3808   1.109   0.165  16.733  0.5559  0.5622  0.5307
  247MPD1    H6 3809   1.140   0.257  16.763  2.8048 -0.5840  1.6801
  247MPD1    H7 3810   1.187   0.127  16.681 -0.4181  0.6644 -1.0045
  248MPD1     C 3811   1.129   3.118   0.814 -0.0814  0.0488  0.3152
  248MPD1    C1 3812   1.119   3.237   0.880  0.7943 -0.8048 -0.0051
  248MPD1    C2 3813   1.026   3.330   0.839  0.5010  0.1262 -0.1781
  248MPD1    C3 3814   0.924   3.293   0.753 -0.5467  0.1308 -0.2922
  248MPD1    C4 3815   0.920   3.155   0.711  0.2019  0.5583 -0.4209
  248MPD1    C5 3816   1.035   3.082   0.734  0.1973  0.0876 -1.4702
  248MPD1     H 3817   1.029   3.431   0.878 -0.5635 -0.4045  1.2773
  248MPD1    H1 3818   0.840   3.116   0.649  0.6290 -0.0801 -0.5710
  248MPD1    H2 3819   1.206   3.044   0.835  0.4685  0.4633 -0.2295
  248MPD1    H3 3820   1.040   2.978   0.707 -0.7254 -0.3279 -0.0655
  248MPD1     N 3821   0.838   3.395   0.700  0.1480 -0.2657 -0.1184
  248MPD1    H5 3822   0.867   3.489   0.723 -0.5521  0.0119 -0.3720
  248MPD1    N1 3823   1.226   3.275   0.959 -0.3137  0.4122  0.8446
  248MPD1    H6 3824   1.218   3.366   1.004 -0.9223  0.5047  0.5538
  248MPD1    H7 3825   1.271   3.205   1.017  1.8893  1.8041  0.7990
  249MPD1     C 3826   2.491   2.075  10.996 -0.1964  0.8582  0.3987
  249MPD1    C1 3827   2.579   2.175  11.028  0.2033 -0.1294 -0.0928
  249MPD1    C2 3828   2.620   2.252  10.926 -0.8921 -0.3410 -0.4057
  249MPD1    C3 3829   2.603   2.225  10.793  0.0371  0.0115  0.0911
  249MPD1    C4 3830   2.509   2.130  10.762 -0.1265  0.3431  0.0511
  249MPD1    C5 3831   2.451   2.060  10.865  0.2143  0.3527  0.3289
  249MPD1     H 3832   2.676   2.343  10.947 -0.9469 -0.6712  1.1656
  249MPD1    H1 3833   2.480   2.113  10.659  0.7379 -0.7520 -0.0067
  249MPD1    H2 3834   2.455   2.002  11.068  1.7566  0.5341  1.0416
  249MPD1    H3 3835   2.369   1.994  10.838  1.0155 -1.1622  1.6146
  249MPD1     N 3836   2.660   2.311  10.701  0.0228  0.0772  0.0963
  249MPD1    H5 3837   2.715   2.383  10.746  0.9058  0.5867 -1.8337
  249MPD1    N1 3838   2.613   2.198  11.160  0.3470 -0.0761  0.5699
  249MPD1    H6 3839   2.696   2.256  11.168  1.9314 -2.1413 -0.7654
  249MPD1    H7 3840   2.638   2.119  11.219 -0.8703 -1.2793 -0.5235
  250MPD2     C 3841   4.373   2.545  13.665  0.3894 -0.3417  0.0779
  250MPD2    C1 3842   4.296   2.623  13.580 -0.2606  0.2310  1.0488
  250MPD2    C2 3843   4.188   2.564  13.514  0.6604  0.0381 -0.9666
  250MPD2    C3 3844   4.166   2.431  13.522 -0.7336 -0.3943  1.0100
  250MPD2    C4 3845   4.249   2.349  13.602  0.1662 -0.1848 -1.0051
  250MPD2    C5 3846   4.349   2.408  13.676  0.6219 -0.8460 -0.5915
  250MPD2     H 3847   4.121   2.628  13.457 -0.6313 -0.0308  0.4665
  250MPD2    H1 3848   4.238   2.241  13.606 -1.0263  0.0294  1.2428
  250MPD2    H2 3849   4.464   2.580  13.713  0.9138 -2.1230  0.3751
  250MPD2    H3 3850   4.409   2.339  13.733 -0.4166 -0.7010  0.6793
  250MPD2     N 3851   4.068   2.364  13.448 -0.1109 -0.6754 -0.0275
  250MPD2    H5 3852   4.067   2.263  13.457 -2.7063 -0.6984 -0.4663
  250MPD2    N1 3853   4.340   2.764  13.571  0.5047  0.3277 -0.7536
  250MPD2    H7 3854   4.429   2.785  13.614  0.1073  2.3400 -0.9172
  251TMC3    C1 3855   4.335   3.001  13.496 -0.2763  0.0711  0.1956
  251TMC3    C2 3856   4.256   3.104  13.459  0.1474  0.0125  0.7492
  251TMC3    C3 3857   4.322   3.224  13.426 -0.6305  0.2598  0.0259
  251TMC3    C4 3858   4.471   3.004  13.508 -0.2505 -0.6639  0.1702
  251TMC3    C5 3859   4.530   3.119  13.474  0.1736  0.3537 -0.9881
  251TMC3    C6 3860   4.464   3.230  13.436  0.6104  0.4704  0.5249
  251TMC3     C 3861   4.268   2.869  13.510 -0.7436 -0.5311  0.0748
  251TMC3     O 3862   4.169   2.857  13.446 -0.3044 -0.0765  0.3474
  251TMC3     H 3863   4.150   3.085  13.442  0.0911  0.3635  0.7078
  251TMC3    H1 3864   4.524   2.914  13.535 -2.0385 -1.0721  2.3201
  251TMC3    H2 3865   4.507   3.328  13.418 -0.6710  1.0963  0.8979
  251TMC3    C7 3866   4.669   3.114  13.457  0.0079  0.5234 -0.7574
  251TMC3    C8 3867   4.253   3.337  13.484  0.3203 -0.4118 -0.4371
  251TMC3    O1 3868   4.730   3.009  13.480 -0.2747 -0.1256  0.1811
  251TMC3    O2 3869   4.199   3.314  13.593  0.4182  0.2922 -0.3043
  252TMC3    C1 3870   4.381   4.481   9.181  0.0595 -0.3524  0.1691
  252TMC3    C2 3871   4.470   4.446   9.280  0.0125 -1.0040  0.6529
  252TMC3    C3 3872   4.444   4.327   9.342  0.0133 -0.4960  0.1688
  252TMC3    C4 3873   4.271   4.402   9.148  0.5023 -0.3122 -0.0996
  252TMC3    C5 3874   4.251   4.289   9.220 -0.2313  0.7006  0.4353
  252TMC3    C6 3875   4.333   4.248   9.319  0.0295  0.1006 -0.2230
  252TMC3     C 3876   4.362   4.621   9.149  0.2470  0.1716  0.2488
  252TMC3     O 3877   4.319   4.655   9.043 -0.1338 -0.5053 -0.4618
  252TMC3     H 3878   4.555   4.503   9.314 -0.2606 -0.6739  0.7849
  252TMC3    H1 3879   4.192   4.444   9.088  1.6978 -0.8525 -2.0405
  252TMC3    H2 3880   4.349   4.143   9.342 -0.6678  0.1639  0.5476
  252TMC3    C7 3881   4.151   4.202   9.165 -0.3024 -0.0577  0.0950
  252TMC3    C8 3882   4.550   4.269   9.433  0.3733 -0.0663 -0.0372
  252TMC3    O1 3883   4.082   4.233   9.069 -0.1736  0.4023 -0.0535
  252TMC3    O2 3884   4.511   4.188   9.519  0.5273  0.1908  0.5748
  253MPD2     C 3885   0.804   2.845  15.097  0.2649 -0.0371 -0.2110
  253MPD2    C1 3886   0.674   2.803  15.084 -0.0069  0.7388 -0.3758
  253MPD2    C2 3887   0.590   2.800  15.197 -0.4287  0.6265 -0.3297
  253MPD2    C3 3888   0.637   2.836  15.323  0.1512  1.2294 -0.5004
  253MPD2    C4 3889   0.774   2.875  15.329  0.2508  0.6005 -0.2127
  253MPD2    C5 3890   0.850   2.879  15.217  0.9678 -0.4490  0.0480
  253MPD2     H 3891   0.484   2.775  15.189 -0.2208 -0.0404 -0.9989
  253MPD2    H1 3892   0.815   2.895  15.427  2.1851 -0.7230 -0.7591
  253MPD2    H2 3893   0.872   2.854  15.013 -0.8130  1.4471 -0.9197
  253MPD2    H3 3894   0.953   2.910  15.228  1.1266 -0.8351 -0.3806
  253MPD2     N 3895   0.565   2.827  15.440 -0.0388  0.0539 -0.7014
  253MPD2    H5 3896   0.621   2.831  15.525  1.1695 -1.3271 -1.4140
  253MPD2    N1 3897   0.609   2.785  14.956 -0.2805 -0.0839 -0.3967
  253MPD2    H7 3898   0.509   2.767  14.968 -0.5238 -0.1868 -2.5166
  254TMC3    C1 3899   0.373   2.830  15.579 -0.3456  0.3544  0.1069
  254TMC3    C2 3900   0.257   2.893  15.605 -0.5998  0.7271 -0.2222
  254TMC3    C3 3901   0.187   2.858  15.716 -0.0883  0.3597 -0.2728
  254TMC3    C4 3902   0.444   2.746  15.667 -0.0632 -0.2919 -0.1706
  254TMC3    C5 3903   0.370   2.721  15.779 -0.0768 -0.2241  0.2187
  254TMC3    C6 3904   0.240   2.766  15.801  0.5217  0.5326  0.7330
  254TMC3     C 3905   0.430   2.839  15.444 -0.4576 -0.0756  0.3206
  254TMC3     O 3906   0.356   2.875  15.355  0.0864 -0.1508  0.0125
  254TMC3     H 3907   0.210   2.958  15.533  0.6357 -0.4538 -2.0773
  254TMC3    H1 3908   0.535   2.693  15.642  0.3051  0.4496 -0.4031
  254TMC3    H2 3909   0.197   2.756  15.900  0.1104  0.4991  0.5512
  254TMC3    C7 3910   0.447   2.684  15.905 -0.2184 -0.1712  0.3797
  254TMC3    C8 3911   0.092   2.951  15.782  0.3770  0.2619 -0.6997
  254TMC3    O1 3912   0.381   2.638  15.993  0.1666  0.2952  0.2781
  254TMC3    O2 3913   0.033   2.912  15.881  0.2199 -0.4586 -0.0032
  255MPD2     C 3914   2.888   0.595  10.000 -0.4414  0.2247  0.3695
  255MPD2    C1 3915   2.944   0.638  10.115 -0.2020 -0.6687  0.2053
  255MPD2    C2 3916   3.030   0.551  10.183  0.3504  0.1050 -0.0548
  255MPD2    C3 3917   3.049   0.423  10.141 -1.1294  0.5920 -0.1109
  255MPD2    C4 3918   2.970   0.372  10.039  0.5508  0.1154 -0.4165
  255MPD2    C5 3919   2.887   0.460   9.969 -0.0121  0.1855  0.3628
  255MPD2     H 3920   3.070   0.584  10.278  0.4091 -1.3378  0.4184
  255MPD2    H1 3921   2.976   0.270  10.004  0.8799  0.2615 -0.7887
  255MPD2    H2 3922   2.828   0.664   9.943  1.1941  2.8743  1.8428
  255MPD2    H3 3923   2.831   0.427   9.882 -1.4801  0.8824  1.0486
  255MPD2     N 3924   3.149   0.348  10.205 -0.2506  0.1652 -0.0065
  255MPD2    H5 3925   3.211   0.402  10.265 -0.9729 -0.7813  1.5895
  255MPD2    N1 3926   2.924   0.776  10.139  0.1683  0.1987 -0.2758
  255MPD2    H7 3927   2.851   0.821  10.084  0.1341  1.3324  0.7064
  256TMC3    C1 3928   2.952   0.995  10.240 -0.3483  0.5463  1.1230
  256TMC3    C2 3929   3.063   1.078  10.260  0.5274  0.1428 -0.3292
  256TMC3    C3 3930   3.076   1.192  10.187 -0.9048  0.2739  0.1190
  256TMC3    C4 3931   2.851   1.033  10.156  0.0188 -0.3958  0.2248
  256TMC3    C5 3932   2.863   1.141  10.079  0.1084  0.2013  0.6785
  256TMC3    C6 3933   2.975   1.218  10.096  0.2137  0.2591  0.1050
  256TMC3     C 3934   2.989   0.855  10.235 -0.4289  0.0161 -1.0124
  256TMC3     O 3935   3.073   0.824  10.314  0.2720  0.0980 -0.1590
  256TMC3     H 3936   3.146   1.053  10.325  0.8567  0.3535 -0.6705
  256TMC3    H1 3937   2.756   0.982  10.147 -1.3513  1.8984  1.5397
  256TMC3    H2 3938   2.987   1.308  10.038  0.8578  0.0784 -0.0436
  256TMC3    C7 3939   2.805   1.136   9.950 -0.6632  0.2827  0.9621
  256TMC3    C8 3940   3.214   1.228  10.157 -0.2168  1.5671 -0.4932
  256TMC3    O1 3941   2.750   1.031   9.929 -0.0408  0.2262 -0.0296
  256TMC3    O2 3942   3.300   1.142  10.181  0.5774 -0.0258  0.5138
  257MPD2     C 3943   3.072   2.380  13.829  0.3790 -0.3139  0.6712
  257MPD2    C1 3944   3.017   2.329  13.711  0.2932  0.1773  0.5094
  257MPD2    C2 3945   3.007   2.189  13.695 -0.4377 -0.0540  0.3279
  257MPD2    C3 3946   3.054   2.101  13.795  1.1302 -0.4230  0.2822
  257MPD2    C4 3947   3.106   2.150  13.913 -0.0418  0.5898  0.7133
  257MPD2    C5 3948   3.107   2.286  13.930 -0.4743  0.4495  0.1045
  257MPD2     H 3949   2.964   2.157  13.601 -1.7594 -0.6883  1.1482
  257MPD2    H1 3950   3.148   2.081  13.985 -0.1833  1.2956  1.4583
  257MPD2    H2 3951   3.087   2.486  13.845 -2.3543  0.0806  0.5410
  257MPD2    H3 3952   3.145   2.322  14.025 -0.6381  1.1169 -0.0795
  257MPD2     N 3953   3.043   1.963  13.765  0.4979 -0.5102  0.3940
  257MPD2    H5 3954   3.008   1.940  13.673  0.7017  1.1513 -0.0892
  257MPD2    N1 3955   2.984   2.428  13.614 -0.1418 -0.1386  0.1817
  257MPD2    H7 3956   3.032   2.517  13.623  1.3195 -1.0137  1.0021
  258TMC3    C1 3957   3.056   1.724  13.786  0.5447  0.4987  0.0412
  258TMC3    C2 3958   2.985   1.720  13.670 -0.5472  0.1707  0.2758
  258TMC3    C3 3959   3.002   1.611  13.595 -0.4435 -0.3515  0.3465
  258TMC3    C4 3960   3.143   1.623  13.828 -0.5702  0.1277 -0.2844
  258TMC3    C5 3961   3.150   1.510  13.751 -0.8878 -0.5828 -0.1029
  258TMC3    C6 3962   3.086   1.508  13.630 -0.3144  0.9104  0.6143
  258TMC3     C 3963   3.073   1.855  13.850  0.6564 -0.5987  0.5202
  258TMC3     O 3964   3.125   1.853  13.963  0.5925 -0.0555 -0.3346
  258TMC3     H 3965   2.901   1.786  13.651 -1.9171 -1.0013  2.2248
  258TMC3    H1 3966   3.215   1.642  13.907  1.2692 -0.2586 -1.8716
  258TMC3    H2 3967   3.099   1.427  13.560 -0.4782 -0.8342  2.6153
  258TMC3    C7 3968   3.216   1.393  13.804 -0.0840 -0.0529  0.6692
  258TMC3    C8 3969   2.941   1.608  13.466 -0.1326  0.1208 -0.3634
  258TMC3    O1 3970   3.231   1.299  13.721  0.6531 -0.7964  0.1063
  258TMC3    O2 3971   2.918   1.722  13.424 -0.0316  0.7935 -0.1219
  259MPD2     C 3972   1.787   3.964   0.286 -0.2238  0.7212 -0.5046
  259MPD2    C1 3973   1.784   3.850   0.367  0.1312 -0.1203  0.6080
  259MPD2    C2 3974   1.903   3.777   0.383 -0.7685  0.1511 -0.3304
  259MPD2    C3 3975   2.020   3.819   0.328  0.8797  0.2106 -0.3792
  259MPD2    C4 3976   2.022   3.947   0.278  0.4659  0.0172  0.6167
  259MPD2    C5 3977   1.908   4.018   0.253  0.4773  0.4984 -1.0680
  259MPD2     H 3978   1.898   3.688   0.444  0.8989 -0.1859 -0.6865
  259MPD2    H1 3979   2.118   3.991   0.255  1.1473 -2.5233 -1.3574
  259MPD2    H2 3980   1.700   4.021   0.254 -3.0726 -2.7616  1.0693
  259MPD2    H3 3981   1.918   4.110   0.197 -0.1031  0.4024 -1.3313
  259MPD2     N 3982   2.139   3.750   0.358  0.3450 -0.1553  0.1742
  259MPD2    H5 3983   2.124   3.666   0.412  1.7204 -0.2574  0.3893
  259MPD2    N1 3984   1.662   3.821   0.429  0.7789 -0.0933  0.6743
  259MPD2    H7 3985   1.609   3.906   0.445  3.4670  1.8063 -0.5658
  260TMC3    C1 3986   2.370   3.696   0.341 -0.2321 -0.1399 -0.8941
  260TMC3    C2 3987   2.470   3.688   0.253  0.2614  1.6446  0.3978
  260TMC3    C3 3988   2.581   3.614   0.288  0.0691  0.7840 -0.1738
  260TMC3    C4 3989   2.373   3.615   0.450 -0.6168 -0.2370  0.0274
  260TMC3    C5 3990   2.482   3.538   0.478 -0.5209  0.7398  0.1990
  260TMC3    C6 3991   2.596   3.547   0.406 -0.5712  0.2628  0.0989
  260TMC3     C 3992   2.267   3.782   0.312 -0.4137  0.6670  0.5098
  260TMC3     O 3993   2.311   3.869   0.236  0.0149  0.2194  0.0641
  260TMC3     H 3994   2.474   3.737   0.156  0.0403 -0.8785 -0.9144
  260TMC3    H1 3995   2.294   3.624   0.524  1.1011  1.3049  1.7138
  260TMC3    H2 3996   2.679   3.480   0.428 -0.7822  0.1670  0.6095
  260TMC3    C7 3997   2.458   3.392   0.518  0.0454  0.4109  0.6157
  260TMC3    C8 3998   2.620   3.535   0.173 -0.1436  0.5506 -0.1033
  260TMC3    O1 3999   2.518   3.301   0.462 -0.4544  0.1204  0.5746
  260TMC3    O2 4000   2.634   3.596   0.066  0.0750 -0.0861 -0.1584
  261MPD2     C 4001   3.391   2.087  13.049 -0.4112 -0.2359  0.2829
  261MPD2    C1 4002   3.449   2.218  13.029  0.0707  0.0388 -0.4487
  261MPD2    C2 4003   3.395   2.307  12.936 -0.2510  0.4489  0.0591
  261MPD2    C3 4004   3.297   2.260  12.854  0.2109  0.1557  0.7773
  261MPD2    C4 4005   3.242   2.142  12.876  0.0872  0.8814  0.5485
  261MPD2    C5 4006   3.283   2.055  12.973  0.1005 -0.0257  0.5981
  261MPD2     H 4007   3.432   2.407  12.916 -0.4843  0.8621  1.7500
  261MPD2    H1 4008   3.174   2.091  12.809  1.5028  0.3420 -0.4785
  261MPD2    H2 4009   3.426   2.015  13.123 -2.0663 -0.8205  0.4927
  261MPD2    H3 4010   3.240   1.956  12.978 -0.1087  0.0204 -0.1910
  261MPD2     N 4011   3.257   2.332  12.744 -0.2194  0.0306  0.9795
  261MPD2    H5 4012   3.198   2.279  12.681 -1.1722  3.2701 -0.8345
  261MPD2    N1 4013   3.571   2.251  13.088 -0.3196  0.2671  0.4825
  261MPD2    H7 4014   3.610   2.341  13.064 -1.6402  0.9092  0.8086
  262TMC3    C1 4015   3.254   2.513  12.587  0.8481 -0.0049 -0.0922
  262TMC3    C2 4016   3.249   2.649  12.572 -0.1179  0.0747 -0.8119
  262TMC3    C3 4017   3.282   2.706  12.457 -0.5706 -0.3111 -0.2787
  262TMC3    C4 4018   3.290   2.428  12.483  0.4949 -0.0525  0.2750
  262TMC3    C5 4019   3.320   2.494  12.361  0.2103  0.4625  0.2701
  262TMC3    C6 4020   3.326   2.630  12.351  0.4128 -0.0437 -0.4156
  262TMC3     C 4021   3.267   2.469  12.727 -0.3778 -0.2571  0.0822
  262TMC3     O 4022   3.286   2.561  12.807  0.4525  0.2445 -0.1088
  262TMC3     H 4023   3.217   2.699  12.662  1.0570 -1.1235  0.2752
  262TMC3    H1 4024   3.316   2.324  12.493 -1.2489 -0.2298  2.7628
  262TMC3    H2 4025   3.352   2.687  12.262 -2.4091 -1.1991 -2.0265
  262TMC3    C7 4026   3.382   2.416  12.262 -0.4698  0.1190 -0.3904
  262TMC3    C8 4027   3.295   2.852  12.439  0.0135  0.3192  0.5443
  262TMC3    O1 4028   3.351   2.299  12.258 -0.2303 -0.4540 -0.0357
  262TMC3    O2 4029   3.368   2.888  12.347 -0.3994 -0.1369 -0.2376
  263MPD2     C 4030   4.397   2.047  11.760  0.2662  0.4397 -0.3252
  263MPD2    C1 4031   4.522   2.040  11.700  0.7222  0.5846  1.0622
  263MPD2    C2 4032   4.532   2.067  11.566 -0.1388 -0.0393 -0.6785
  263MPD2    C3 4033   4.427   2.102  11.487  0.1738 -0.3260 -0.4270
  263MPD2    C4 4034   4.302   2.119  11.547  0.0096  0.5644  0.1312
  263MPD2    C5 4035   4.285   2.088  11.681 -0.4382  0.0438 -0.4030
  263MPD2     H 4036   4.628   2.059  11.517  1.9029  0.5743  3.1959
  263MPD2    H1 4037   4.216   2.155  11.492 -0.5273 -0.7909  0.0920
  263MPD2    H2 4038   4.378   2.011  11.860 -1.3023 -0.5865 -0.9786
  263MPD2    H3 4039   4.187   2.097  11.726 -0.0071  0.7469  0.3851
  263MPD2     N 4040   4.445   2.124  11.348 -0.8388  0.1400 -0.4707
  263MPD2    H5 4041   4.543   2.129  11.323 -0.9595 -2.7617 -1.4850
  263MPD2    N1 4042   4.631   1.985  11.774  0.1865 -0.8882  0.6788
  263MPD2    H7 4043   4.613   1.951  11.868  0.1437  0.7652  1.2590
  264TMC3    C1 4044   4.427   2.189  11.136  0.1350  0.1247  0.2913
  264TMC3    C2 4045   4.480   2.315  11.131  0.8172 -0.5468  0.0008
  264TMC3    C3 4046   4.552   2.339  11.019  0.3323  0.0092  0.2347
  264TMC3    C4 4047   4.432   2.098  11.034 -0.3455  0.3106  0.5005
  264TMC3    C5 4048   4.516   2.131  10.929  0.3451  0.9354  0.0166
  264TMC3    C6 4049   4.585   2.248  10.919  0.5847  0.4853  0.1395
  264TMC3     C 4050   4.348   2.157  11.255 -0.1509  0.1129  0.2593
  264TMC3     O 4051   4.223   2.141  11.252 -0.3106  0.4047 -0.6824
  264TMC3     H 4052   4.456   2.401  11.192  1.2608 -0.9125  0.6824
  264TMC3    H1 4053   4.395   1.998  11.050  0.6892 -0.1491 -0.0307
  264TMC3    H2 4054   4.646   2.281  10.836 -0.3814  1.7005 -0.0884
  264TMC3    C7 4055   4.566   2.015  10.860 -0.3082  0.0468  0.7916
  264TMC3    C8 4056   4.637   2.460  11.028 -0.3165  0.2645  0.6538
  264TMC3    O1 4057   4.497   1.913  10.868  0.6366 -0.2221  0.0764
  264TMC3    O2 4058   4.695   2.492  10.925  0.6856  0.9194  0.1218
  265MPD2     C 4059   1.905   1.990  15.911 -0.4313 -0.2772 -0.0405
  265MPD2    C1 4060   1.873   2.062  15.796 -0.1876  0.1126  0.3566
  265MPD2    C2 4061   1.927   2.018  15.674 -0.6450  0.4814 -0.1615
  265MPD2    C3 4062   2.001   1.900  15.663 -0.2411  0.0272  0.1955
  265MPD2    C4 4063   2.023   1.830  15.778 -0.2476 -0.3016 -0.6494
  265MPD2    C5 4064   1.988   1.885  15.897  0.3902  0.1089 -0.2070
  265MPD2     H 4065   1.910   2.077  15.584  0.7483  2.1241  0.6408
  265MPD2    H1 4066   2.077   1.736  15.774 -0.7817 -0.6701  0.8778
  265MPD2    H2 4067   1.881   2.017  16.012  0.3141 -3.1733  0.9333
  265MPD2    H3 4068   2.007   1.833  15.991 -0.5039 -3.3138 -1.9232
  265MPD2     N 4069   2.061   1.840  15.551  0.1159 -0.3794  0.7252
  265MPD2    H5 4070   2.094   1.744  15.556 -0.5555 -0.6843 -0.6300
  265MPD2    N1 4071   1.807   2.188  15.799  0.8193 -0.4998 -0.4454
  265MPD2    H7 4072   1.817   2.250  15.719  1.6129 -0.5835 -0.4100
  266TMC3    C1 4073   1.678   2.360  15.893 -0.5032 -0.0265 -0.3637
  266TMC3    C2 4074   1.626   2.406  16.006 -0.0530 -0.2405 -0.9734
  266TMC3    C3 4075   1.593   2.538  16.015 -0.0075 -0.5435 -0.2323
  266TMC3    C4 4076   1.696   2.435  15.781  0.9597  0.3441  0.4610
  266TMC3    C5 4077   1.655   2.569  15.794 -0.5590  0.1457 -0.5570
  266TMC3    C6 4078   1.590   2.619  15.902  0.1501 -0.2002  0.1758
  266TMC3     C 4079   1.733   2.227  15.904  0.5704  0.3303  0.4505
  266TMC3     O 4080   1.694   2.164  16.000 -0.0354 -0.3313 -0.1098
  266TMC3     H 4081   1.613   2.347  16.096  1.1151  0.3443 -0.4188
  266TMC3    H1 4082   1.709   2.392  15.683  0.0173 -0.7389  0.8008
  266TMC3    H2 4083   1.556   2.722  15.905 -0.6407 -0.4346 -0.8605
  266TMC3    C7 4084   1.674   2.657  15.677  0.1389  0.3754  0.1499
  266TMC3    C8 4085   1.546   2.588  16.140  1.3954 -0.4246  0.5154
  266TMC3    O1 4086   1.706   2.607  15.572 -0.2310 -0.7323  0.0332
  266TMC3    O2 4087   1.489   2.513  16.217  0.4387 -0.8352  0.7058
  267MPD2     C 4088   3.799   0.333   0.686  0.1775  0.4808 -0.2524
  267MPD2    C1 4089   3.798   0.206   0.629  0.0007 -0.4234 -0.2555
  267MPD2    C2 4090   3.688   0.170   0.556 -0.8295 -0.0244  0.0853
  267MPD2    C3 4091   3.578   0.257   0.547  0.2216  0.2783  1.1733
  267MPD2    C4 4092   3.579   0.382   0.607  0.6216  0.4931  0.7302
  267MPD2    C5 4093   3.689   0.420   0.676  0.5638 -0.1875 -1.0421
  267MPD2     H 4094   3.685   0.086   0.488  1.1856 -0.2533  0.3008
  267MPD2    H1 4095   3.498   0.453   0.600 -0.9447 -1.6123 -2.5448
  267MPD2    H2 4096   3.889   0.383   0.722  1.3399 -1.4267 -0.5348
  267MPD2    H3 4097   3.702   0.522   0.712  1.4094 -0.8695  0.5951
  267MPD2     N 4098   3.473   0.208   0.461  0.6585 -0.1655 -0.3962
  267MPD2    H5 4099   3.487   0.123   0.408  2.0197 -0.0632 -0.2258
  267MPD2    N1 4100   3.912   0.125   0.639 -0.0758  0.2684 -0.4042
  267MPD2    H7 4101   3.994   0.165   0.684 -0.1173 -1.7610  1.4809
  268TMC3    C1 4102   4.057   4.680   0.629 -0.2408  0.1366  0.8036
  268TMC3    C2 4103   4.165   0.014   0.578  0.1535 -0.3946  0.2118
  268TMC3    C3 4104   4.285   4.697   0.605  0.2175 -0.5229  0.3751
  268TMC3    C4 4105   4.072   4.558   0.691 -0.0946  0.4565 -0.4385
  268TMC3    C5 4106   4.197   4.518   0.727  0.1813 -0.7699  0.0146
  268TMC3    C6 4107   4.307   4.585   0.680  0.3335 -0.0501 -0.1068
  268TMC3     C 4108   3.923   4.728   0.604  0.0632 -0.8987  0.4692
  268TMC3     O 4109   3.841   4.653   0.557  0.0800  0.1328 -0.1134
  268TMC3     H 4110   4.148   0.107   0.524  0.9658 -1.0310 -1.1349
  268TMC3    H1 4111   3.982   4.514   0.731 -0.1172  2.2023  1.3832
  268TMC3    H2 4112   4.401   4.532   0.680  0.7678  0.7295 -0.2243
  268TMC3    C7 4113   4.235   4.380   0.733 -0.1604  1.0866  0.5446
  268TMC3    C8 4114   4.377   4.714   0.504 -0.1893  0.6578 -0.8019
  268TMC3    O1 4115   4.344   4.350   0.782 -0.6304 -0.0322 -0.0777
  268TMC3    O2 4116   4.497   4.716   0.527 -0.7617 -0.0969 -0.2572
  269MPD2     C 4117   4.558   3.025  15.559 -1.0043 -0.4558 -0.9976
  269MPD2    C1 4118   4.511   3.029  15.684  0.2859  0.4278  0.3526
  269MPD2    C2 4119   4.493   3.148  15.753  0.7215  0.0765  0.3314
  269MPD2    C3 4120   4.524   3.266  15.691  0.2067  0.1705  0.4671
  269MPD2    C4 4121   4.565   3.261  15.562 -1.3381 -0.5234  0.0719
  269MPD2    C5 4122   4.583   3.147  15.495  0.6691 -0.4693 -0.3712
  269MPD2     H 4123   4.461   3.142  15.856  2.0136  1.2663  0.8136
  269MPD2    H1 4124   4.580   3.353  15.507 -4.1462  0.5645  1.1614
  269MPD2    H2 4125   4.573   2.931  15.507 -1.2916 -1.4603  0.7056
  269MPD2    H3 4126   4.629   3.156  15.397  0.8663 -1.9476 -0.4030
  269MPD2     N 4127   4.538   3.382  15.768 -0.8305 -0.0161 -0.2915
  269MPD2    H5 4128   4.503   3.375  15.863  1.7068  1.4561  0.7398
  269MPD2    N1 4129   4.483   2.900  15.746  0.5972 -0.2577  0.6615
  269MPD2    H7 4130   4.531   2.819  15.707  0.3866  0.6456 -1.5049
  270TMC3    C1 4131   4.411   2.733  15.892 -0.5283  0.8476  0.1838
  270TMC3    C2 4132   4.306   2.664  15.833  0.1867 -0.2175 -0.0159
  270TMC3    C3 4133   4.334   2.546  15.767 -0.5906  0.3977 -0.5588
  270TMC3    C4 4134   4.531   2.669  15.891  0.3023  0.3104  0.3495
  270TMC3    C5 4135   4.557   2.554  15.821 -0.1876  0.5201 -0.4630
  270TMC3    C6 4136   4.454   2.487  15.753 -0.3901  0.2509 -0.0629
  270TMC3     C 4137   4.414   2.876  15.858 -0.4368 -0.2346 -0.1370
  270TMC3     O 4138   4.318   2.943  15.893  0.1921 -0.0271  0.3535
  270TMC3     H 4139   4.208   2.709  15.826  0.2610  0.2837  2.3470
  270TMC3    H1 4140   4.619   2.726  15.918  0.8761 -0.5666  0.3326
  270TMC3    H2 4141   4.457   2.387  15.711  1.3295 -0.0877  0.8931
  270TMC3    C7 4142   4.700   2.508  15.820 -0.0359 -0.1364 -0.4931
  270TMC3    C8 4143   4.228   2.499  15.681  0.6790 -0.4391 -0.2938
  270TMC3    O1 4144   0.036   2.559  15.902 -0.1215 -0.3601 -0.1598
  270TMC3    O2 4145   4.111   2.538  15.705  0.2924 -0.6577  0.2280
  271MPD2     C 4146   3.793   3.035  14.175  0.2565  0.5939 -0.2890
  271MPD2    C1 4147   3.720   2.917  14.169  0.2964  0.0854  0.2204
  271MPD2    C2 4148   3.596   2.920  14.094  0.3302  0.4739 -0.1653
  271MPD2    C3 4149   3.550   3.031  14.023 -0.0052  0.2568  0.2472
  271MPD2    C4 4150   3.628   3.146  14.030  0.0963  0.3132  0.0407
  271MPD2    C5 4151   3.744   3.146  14.104  0.0833  1.2630  0.4481
  271MPD2     H 4152   3.536   2.829  14.097 -1.0183  1.3715  0.4715
  271MPD2    H1 4153   3.610   3.232  13.966 -0.1729  0.7194  0.6617
  271MPD2    H2 4154   3.897   3.040  14.207  0.1839  1.4604 -0.1758
  271MPD2    H3 4155   3.797   3.240  14.107  0.8736  0.7826  1.5363
  271MPD2     N 4156   3.443   3.042  13.931  0.5335 -0.3699  0.4328
  271MPD2    H5 4157   3.418   3.134  13.897 -0.7817 -0.9122 -0.0768
  271MPD2    N1 4158   3.764   2.793  14.223  0.8343  0.6062 -0.0324
  271MPD2    H7 4159   3.698   2.716  14.227  3.0579 -1.3567 -2.1411
  272TMC3    C1 4160   3.917   2.647  14.316  0.9184  0.0843  0.0073
  272TMC3    C2 4161   4.043   2.595  14.320  0.0893 -0.4357 -0.5335
  272TMC3    C3 4162   4.083   2.501  14.414 -0.4545 -0.1728  0.0316
  272TMC3    C4 4163   3.821   2.599  14.398  0.1310  0.2407  0.1863
  272TMC3    C5 4164   3.866   2.505  14.486 -0.5453 -0.2128  0.2219
  272TMC3    C6 4165   3.995   2.457  14.501 -0.4903 -0.3751  0.3285
  272TMC3     C 4166   3.893   2.774  14.268 -0.3412 -0.3987  0.0987
  272TMC3     O 4167   3.994   2.835  14.246 -0.0888 -0.2343 -0.2277
  272TMC3     H 4168   4.115   2.627  14.245  0.5842 -1.3277 -0.4450
  272TMC3    H1 4169   3.717   2.631  14.403 -0.3131 -1.3981  1.5417
  272TMC3    H2 4170   4.012   2.373  14.568  1.2864  1.4260  2.1230
  272TMC3    C7 4171   3.780   2.503  14.599 -0.0305  0.0329  0.6343
  272TMC3    C8 4172   4.224   2.459  14.407 -0.7125  0.1440  0.0369
  272TMC3    O1 4173   3.663   2.503  14.577 -0.0281 -0.1793 -0.4144
  272TMC3    O2 4174   4.282   2.488  14.307  0.2755  0.2601 -0.0150
  273MPD2     C 4175   0.542   0.224  12.069  0.1832  0.2590 -1.1662
  273MPD2    C1 4176   0.585   0.353  12.071  0.2426 -0.0040 -0.0377
  273MPD2    C2 4177   0.510   0.440  11.994  0.1304 -0.0512 -0.0785
  273MPD2    C3 4178   0.398   0.404  11.914 -0.0519 -0.0886  0.8424
  273MPD2    C4 4179   0.350   0.276  11.940 -0.6391 -0.2002 -0.3804
  273MPD2    C5 4180   0.427   0.189  12.012 -0.4712 -0.7982 -0.0576
  273MPD2     H 4181   0.558   0.536  11.981 -0.7040 -0.0423 -3.0490
  273MPD2    H1 4182   0.265   0.238  11.883 -0.2923 -1.1026 -0.3017
  273MPD2    H2 4183   0.591   0.142  12.121  0.6013  0.7427 -0.8014
  273MPD2    H3 4184   0.379   0.093  12.025  0.6486 -1.2116  0.9806
  273MPD2     N 4185   0.325   0.486  11.820  0.3759 -0.1968  0.4506
  273MPD2    H5 4186   0.242   0.442  11.779  0.1748  1.2924 -0.7766
  273MPD2    N1 4187   0.697   0.383  12.149 -0.3999  0.4397 -0.5346
  273MPD2    H7 4188   0.738   0.310  12.206  0.7211 -0.0291 -1.9535
  274TMC3    C1 4189   0.282   0.690  11.684  0.4522 -0.4323 -0.4078
  274TMC3    C2 4190   0.144   0.663  11.669  0.3062  0.3759 -0.1590
  274TMC3    C3 4191   0.066   0.751  11.609 -0.4131  0.0607 -0.0888
  274TMC3    C4 4192   0.331   0.806  11.639  0.6567 -0.1625  0.3531
  274TMC3    C5 4193   0.243   0.897  11.583 -0.1405 -0.5797 -1.1571
  274TMC3    C6 4194   0.120   0.859  11.550  0.0027 -0.1775  0.6338
  274TMC3     C 4195   0.369   0.607  11.771 -0.0926 -0.4122  0.4993
  274TMC3     O 4196   0.470   0.672  11.798 -0.3723  0.0787  0.3828
  274TMC3     H 4197   0.108   0.564  11.694 -2.7385  1.6839  0.6704
  274TMC3    H1 4198   0.438   0.818  11.628  0.3193  1.6512 -1.0526
  274TMC3    H2 4199   0.058   0.943  11.523 -0.4831 -0.6249  0.3520
  274TMC3    C7 4200   0.265   1.037  11.627 -0.6141 -0.6659 -0.0659
  274TMC3    C8 4201   4.688   0.697  11.557 -0.1799 -0.2027 -1.0058
  274TMC3    O1 4202   0.187   1.121  11.589 -0.1421 -0.3106 -0.1392
  274TMC3    O2 4203   4.661   0.579  11.576 -0.0964 -0.2398  0.0240
  275MPD2     C 4204   0.002   4.111  15.134 -0.1329  0.2063 -0.2618
  275MPD2    C1 4205   0.044   3.985  15.098 -0.2186  0.6866 -0.0928
  275MPD2    C2 4206   4.688   3.887  15.070 -0.9817 -1.0751  0.2841
  275MPD2    C3 4207   4.551   3.918  15.080  0.1514  0.3906  0.5202
  275MPD2    C4 4208   4.517   4.047  15.109  0.0999  0.3106  0.0074
  275MPD2    C5 4209   4.603   4.141  15.130  0.4359  0.0617 -0.3217
  275MPD2     H 4210   4.727   3.793  15.033 -0.2436 -1.1586  1.2879
  275MPD2    H1 4211   4.412   4.075  15.100  0.2648  0.4821 -1.3525
  275MPD2    H2 4212   0.069   4.195  15.153  0.1126 -0.4165  1.6330
  275MPD2    H3 4213   4.566   4.242  15.145  1.7588  0.6034 -0.6800
  275MPD2     N 4214   4.447   3.825  15.035  0.3060  0.5667 -0.2796
  275MPD2    H5 4215   4.352   3.861  15.040  0.0408 -0.5731  2.6220
  275MPD2    N1 4216   0.182   3.948  15.101 -0.6307  0.6421 -0.0068
  275MPD2    H7 4217   0.203   3.849  15.086  2.9524  1.3124  0.5458
  276TMC3    C1 4218   0.416   3.994  15.083  0.2155 -0.2998 -0.7597
  276TMC3    C2 4219   0.438   3.877  15.016 -0.0000 -0.1490 -0.2903
  276TMC3    C3 4220   0.565   3.865  14.961  0.0078  0.2531 -0.0393
  276TMC3    C4 4221   0.510   4.089  15.105 -0.5476  0.3031 -1.1068
  276TMC3    C5 4222   0.633   4.078  15.045 -0.4791  0.1080 -0.0284
  276TMC3    C6 4223   0.654   3.972  14.962 -0.0523  0.3618 -0.2423
  276TMC3     C 4224   0.286   4.042  15.123  0.0404  0.1306  0.0056
  276TMC3     O 4225   0.283   4.161  15.143  0.1853 -0.0264  0.0477
  276TMC3     H 4226   0.363   3.801  14.995 -0.1266 -0.4406  1.2542
  276TMC3    H1 4227   0.492   4.155  15.189  0.1346 -0.6962 -0.1778
  276TMC3    H2 4228   0.749   3.973  14.910 -0.4960 -1.0007 -1.0699
  276TMC3    C7 4229   0.732   4.094  15.147 -0.9954 -0.3334  0.0584
  276TMC3    C8 4230   0.634   3.741  14.977  0.1137  0.1716  0.6189
  276TMC3    O1 4231   0.722   4.190  15.220  0.0076 -0.5888 -0.5308
  276TMC3    O2 4232   0.755   3.758  14.993 -0.2987  0.9208 -0.0037
  277MPD2     C 4233   2.359   2.973  13.535 -0.1109 -0.2234 -1.0149
  277MPD2    C1 4234   2.224   3.000  13.558 -0.0952 -0.1120  0.4048
  277MPD2    C2 4235   2.141   2.909  13.632 -0.1403 -0.6107  0.1555
  277MPD2    C3 4236   2.191   2.778  13.658  0.0292 -0.0801  0.7661
  277MPD2    C4 4237   2.324   2.747  13.618  0.1931  0.7642  0.2703
  277MPD2    C5 4238   2.401   2.845  13.560  0.4151 -0.5694 -0.0835
  277MPD2     H 4239   2.034   2.929  13.636  0.1963  0.9890  1.0641
  277MPD2    H1 4240   2.379   2.655  13.639 -2.7978 -0.8726  0.9053
  277MPD2    H2 4241   2.422   3.049  13.491  0.0622  0.3743  0.2362
  277MPD2    H3 4242   2.505   2.821  13.537  0.5105 -1.0542  0.8722
  277MPD2     N 4243   2.095   2.686  13.712 -0.0932 -0.0372 -0.4391
  277MPD2    H5 4244   2.010   2.724  13.752 -0.7021 -1.7848 -0.0751
  277MPD2    N1 4245   2.179   3.127  13.519  0.0692  0.1143 -0.9254
  277MPD2    H7 4246   2.251   3.186  13.479  1.1327 -0.2338  0.4670
  278TMC3    C1 4247   2.031   2.482  13.812 -0.6946  0.2010 -0.3899
  278TMC3    C2 4248   2.023   2.342  13.806  0.2744  0.2882  0.1779
  278TMC3    C3 4249   1.924   2.286  13.883 -0.1379 -0.4972  0.2248
  278TMC3    C4 4250   1.948   2.552  13.895 -0.0413 -0.0792 -0.7802
  278TMC3    C5 4251   1.854   2.489  13.975  0.4516  0.0339  0.6967
  278TMC3    C6 4252   1.846   2.352  13.976  0.7335  0.3918 -0.3710
  278TMC3     C 4253   2.121   2.554  13.720  0.4691 -0.7294 -0.0541
  278TMC3     O 4254   2.209   2.495  13.657 -0.0590  0.3591 -0.0533
  278TMC3     H 4255   2.090   2.294  13.735 -0.4008  0.5824 -0.6679
  278TMC3    H1 4256   1.966   2.657  13.917  0.8093 -0.8031  1.9794
  278TMC3    H2 4257   1.775   2.299  14.040 -0.7900 -0.1213 -2.4862
  278TMC3    C7 4258   1.760   2.576  14.050 -0.5584 -0.5928  0.6666
  278TMC3    C8 4259   1.925   2.137  13.890  0.0901  0.3321 -0.2559
  278TMC3    O1 4260   1.802   2.691  14.073 -0.2386  0.0828 -0.5182
  278TMC3    O2 4261   1.894   2.089  13.996 -0.2905  0.0223 -0.3347
  279MPD2     C 4262   1.189   2.224   0.244 -0.0449  0.0731  0.0797
  279MPD2    C1 4263   1.202   2.351   0.278  0.2901 -0.5737 -0.1141
  279MPD2    C2 4264   1.199   2.451   0.182  0.1280 -0.4424  0.9791
  279MPD2    C3 4265   1.168   2.417   0.052 -0.0187 -1.2309  0.8598
  279MPD2    C4 4266   1.165   2.280   0.021 -0.4969 -0.0988 -0.3329
  279MPD2    C5 4267   1.174   2.183   0.112 -0.4597  0.0491  0.5373
  279MPD2     H 4268   1.218   2.552   0.216  0.0372  0.7449 -2.5676
  279MPD2    H1 4269   1.148   2.245  17.666 -2.3819 -2.0504  0.6643
  279MPD2    H2 4270   1.193   2.148   0.321 -0.7168  0.8963  0.9324
  279MPD2    H3 4271   1.171   2.078   0.083 -2.1058  0.2424 -0.0490
  279MPD2     N 4272   1.149   2.514  17.692 -0.6729  0.0323  0.4423
  279MPD2    H5 4273   1.115   2.479  17.603 -3.9121  1.8967  0.9396
  279MPD2    N1 4274   1.201   2.384   0.415  0.0675  0.1148 -0.7270
  279MPD2    H7 4275   1.232   2.303   0.468 -1.0801  0.1424  0.0052
  280TMC3    C1 4276   1.016   2.547   0.421  0.4151  0.2112 -0.4082
  280TMC3    C2 4277   0.931   2.452   0.362  0.2833 -0.2099  0.7854
  280TMC3    C3 4278   0.811   2.500   0.313 -0.1363 -0.0498 -0.4002
  280TMC3    C4 4279   0.992   2.681   0.433  1.0053 -0.4244 -0.7463
  280TMC3    C5 4280   0.869   2.720   0.384 -0.2981  0.1253 -0.0909
  280TMC3    C6 4281   0.773   2.631   0.336 -0.4433  0.0622 -0.1472
  280TMC3     C 4282   1.144   2.495   0.477  0.6876 -0.4253 -0.4120
  280TMC3     O 4283   1.164   2.526   0.591  0.0952  0.5712 -0.5113
  280TMC3     H 4284   0.975   2.354   0.346 -0.8267 -0.9112  2.0390
  280TMC3    H1 4285   1.058   2.744   0.490 -1.2530  1.8703 -0.6782
  280TMC3    H2 4286   0.677   2.661   0.294  0.1369  0.9312 -0.8744
  280TMC3    C7 4287   0.850   2.862   0.370  0.0278  0.5668  0.2606
  280TMC3    C8 4288   0.764   2.441   0.186 -0.5763 -0.0957 -0.3862
  280TMC3    O1 4289   0.934   2.938   0.412 -0.3321  0.1920  0.0994
  280TMC3    O2 4290   0.716   2.512   0.101  0.2382  0.0076  0.0514
  281TMC3    C1 4291   0.222   2.905  13.715  0.1049 -0.0475 -0.0734
  281TMC3    C2 4292   0.300   2.984  13.634 -0.4372  0.9345  0.3555
  281TMC3    C3 4293   0.335   2.937  13.506 -0.6160  0.0655 -1.1330
  281TMC3    C4 4294   0.186   2.783  13.673  0.3148 -0.1988 -0.0710
  281TMC3    C5 4295   0.223   2.734  13.550  0.4250  0.5285 -0.2797
  281TMC3    C6 4296   0.299   2.807  13.470 -0.1822 -0.0209 -0.5087
  281TMC3     C 4297   0.132   2.964  13.812  0.0605  0.0078  0.9056
  281TMC3     O 4298   0.064   2.888  13.880 -0.3359  0.5792 -0.7374
  281TMC3     H 4299   0.334   3.083  13.661 -2.1730  1.7346 -0.4057
  281TMC3    H1 4300   0.133   2.721  13.744  0.0635  0.8901  0.6932
  281TMC3    H2 4301   0.342   2.764  13.381 -0.3842  0.3870 -0.8022
  281TMC3    C7 4302   0.159   2.616  13.492 -0.1619 -0.1816  0.0066
  281TMC3    C8 4303   0.450   2.992  13.435  0.2217 -0.2678 -0.6211
  281TMC3    O1 4304   0.141   2.609  13.373 -0.1570 -0.4775  0.1085
  281TMC3    O2 4305   0.539   2.917  13.405  0.4612  0.8106 -0.1031
  282MPD2     C 4306   2.080   4.258  15.393 -0.1896 -0.4112  0.0190
  282MPD2    C1 4307   1.992   4.355  15.429  0.3452 -0.6416 -0.2164
  282MPD2    C2 4308   1.893   4.391  15.341 -0.3411  0.5372  1.1446
  282MPD2    C3 4309   1.897   4.340  15.211 -0.0476 -0.1156  0.5257
  282MPD2    C4 4310   1.996   4.253  15.175  0.3531 -0.0769  0.6236
  282MPD2    C5 4311   2.086   4.203  15.271 -0.0152  0.9380 -0.5260
  282MPD2     H 4312   1.821   4.464  15.377  0.0273  1.6931 -0.4772
  282MPD2    H1 4313   2.005   4.228  15.070 -2.5728 -1.0029  0.6008
  282MPD2    H2 4314   2.167   4.224  15.448  0.9665  2.4597 -0.0339
  282MPD2    H3 4315   2.169   4.136  15.252 -2.4553 -2.6478  1.4279
  282MPD2     N 4316   1.794   4.376  15.118  0.6114 -0.1432 -0.4389
  282MPD2    H5 4317   1.726   4.440  15.156 -1.1232 -1.7912 -0.7502
  282MPD2    N1 4318   1.971   4.400  15.562  0.3740  0.3553 -0.1805
  282MPD2    H7 4319   1.905   4.475  15.579 -0.7876 -0.7503  0.2879
  283TMC3    C1 4320   1.965   4.388  15.794  0.2883 -0.1646  0.1500
  283TMC3    C2 4321   1.974   4.522  15.814  0.4862  0.2277  0.2940
  283TMC3    C3 4322   1.931   4.567  15.933 -0.3473  0.0966  0.1427
  283TMC3    C4 4323   1.900   4.299  15.878 -0.0961  0.8431  0.4509
  283TMC3    C5 4324   1.861   4.350  15.997  0.2024 -0.3459 -0.3856
  283TMC3    C6 4325   1.872   4.482  16.025 -0.2970  0.0170  0.4345
  283TMC3     C 4326   2.024   4.338  15.670 -0.4765  0.3743 -0.3773
  283TMC3     O 4327   2.082   4.226  15.685  0.0120  0.4789  0.0524
  283TMC3     H 4328   2.034   4.586  15.750  0.2807  0.2979  0.1704
  283TMC3    H1 4329   1.883   4.199  15.840 -2.5919  0.5072  2.4645
  283TMC3    H2 4330   1.820   4.524  16.111 -0.9151  0.2773 -0.0682
  283TMC3    C7 4331   1.744   4.284  16.049  1.0120 -0.5768  0.0899
  283TMC3    C8 4332   1.916   4.711  15.947 -0.1682  0.8782  0.2979
  283TMC3    O1 4333   1.709   4.293  16.166  0.2584  0.1129 -0.4527
  283TMC3    O2 4334   1.872   0.010  16.058 -0.5967 -0.0803  0.4008
  284MPD2     C 4335   4.515   3.640  12.288  0.3309 -0.0164  0.4183
  284MPD2    C1 4336   4.640   3.699  12.266 -0.1440 -0.4671 -0.2217
  284MPD2    C2 4337   0.005   3.691  12.360 -0.3686 -0.1049 -0.4755
  284MPD2    C3 4338   4.719   3.624  12.476 -0.3471 -0.0964  0.9804
  284MPD2    C4 4339   4.593   3.582  12.510 -0.3158 -0.0275  0.3936
  284MPD2    C5 4340   4.496   3.580  12.407 -0.2144  0.2700 -0.5706
  284MPD2     H 4341   0.101   3.737  12.338 -1.0582  1.2458 -0.6774
  284MPD2    H1 4342   4.573   3.535  12.606  1.0070  2.7715  2.0539
  284MPD2    H2 4343   4.434   3.630  12.216 -0.5699 -2.4523  1.7646
  284MPD2    H3 4344   4.401   3.530  12.425 -0.8716  1.9820  0.7395
  284MPD2     N 4345   0.091   3.597  12.562  0.5729  0.4389 -0.0650
  284MPD2    H5 4346   0.067   3.531  12.635  0.0739 -2.0955 -2.5372
  284MPD2    N1 4347   4.681   3.755  12.145  0.0253  0.4166 -0.5757
  284MPD2    H7 4348   0.040   3.785  12.129  0.5281 -0.0380  1.5047
  285TMC3    C1 4349   4.668   3.777  11.920  0.0356 -0.5210 -0.0749
  285TMC3    C2 4350   0.058   3.721  11.908 -0.0297  0.5226  0.0775
  285TMC3    C3 4351   0.127   3.731  11.791  0.4037 -0.3359  0.3125
  285TMC3    C4 4352   4.613   3.851  11.819  0.2485 -0.2576 -0.7789
  285TMC3    C5 4353   4.690   3.866  11.707 -0.2672  0.5736 -0.2195
  285TMC3    C6 4354   0.079   3.812  11.690 -0.2460 -0.0507  0.1867
  285TMC3     C 4355   4.595   3.769  12.040  0.2014 -0.7959  0.3099
  285TMC3     O 4356   4.477   3.767  12.033 -0.0630 -0.0940 -0.5547
  285TMC3     H 4357   0.087   3.639  11.972 -1.6926 -0.8319 -0.9069
  285TMC3    H1 4358   4.520   3.906  11.819  1.1941  1.3505 -0.7685
  285TMC3    H2 4359   0.140   3.825  11.601  2.2804  1.5976  2.1961
  285TMC3    C7 4360   4.653   3.974  11.623  0.3045 -0.4014  0.4431
  285TMC3    C8 4361   0.244   3.650  11.769  0.0656 -0.7745  0.0970
  285TMC3    O1 4362   4.533   3.998  11.605 -0.4430  0.4857  0.1852
  285TMC3    O2 4363   0.294   3.604  11.872  0.0118  0.4257 -0.3973
  286MPD2     C 4364   0.353   2.548   1.550  0.0531  0.0993 -0.4580
  286MPD2    C1 4365   0.284   2.459   1.469  0.9866 -0.3791 -0.1062
  286MPD2    C2 4366   0.356   2.359   1.414 -0.1003  0.3543  0.4013
  286MPD2    C3 4367   0.498   2.345   1.421 -0.7567  0.4569  0.2313
  286MPD2    C4 4368   0.558   2.434   1.508 -0.4001 -0.3325 -0.3358
  286MPD2    C5 4369   0.491   2.538   1.564 -0.5139  0.0734  0.3346
  286MPD2     H 4370   0.297   2.288   1.358  0.3703 -0.1868  0.5930
  286MPD2    H1 4371   0.665   2.431   1.521 -0.2291  0.5134 -1.5486
  286MPD2    H2 4372   0.309   2.633   1.601 -1.6141 -0.9133 -0.2121
  286MPD2    H3 4373   0.550   2.614   1.615  0.1937  0.3161 -0.8410
  286MPD2     N 4374   0.565   2.225   1.385 -0.0117 -0.2189  0.1541
  286MPD2    H5 4375   0.661   2.217   1.417  0.4442  3.1915 -0.3479
  286MPD2    N1 4376   0.141   2.465   1.450  0.2708 -0.0032 -0.0988
  286MPD2    H7 4377   0.102   2.404   1.379  2.2591  0.2310 -1.4042
  287TMC3    C1 4378   0.601   2.015   1.296  0.1195 -0.1929 -0.4521
  287TMC3    C2 4379   0.584   1.921   1.202  0.8241 -1.2081 -0.3017
  287TMC3    C3 4380   0.669   1.818   1.191  0.3145  1.2669  0.6417
  287TMC3    C4 4381   0.710   1.998   1.385 -0.3434  0.2498 -0.6634
  287TMC3    C5 4382   0.786   1.891   1.377  0.1215 -0.4964  0.3363
  287TMC3    C6 4383   0.775   1.798   1.277  0.4559  0.0547  0.2795
  287TMC3     C 4384   0.513   2.127   1.302 -0.0047  0.5605 -0.2240
  287TMC3     O 4385   0.411   2.121   1.241  0.6463 -0.7060  0.1193
  287TMC3     H 4386   0.511   1.944   1.125  0.9777 -1.9741 -0.6748
  287TMC3    H1 4387   0.732   2.066   1.466 -1.4434 -2.5929  2.0121
  287TMC3    H2 4388   0.842   1.713   1.269  1.8688  1.2063 -0.0093
  287TMC3    C7 4389   0.914   1.891   1.452 -0.0243 -0.1342 -0.5921
  287TMC3    C8 4390   0.664   1.735   1.081  0.6474 -0.1905  0.3204
  287TMC3    O1 4391   0.956   1.998   1.494 -0.8086 -0.0970  0.4431
  287TMC3    O2 4392   0.554   1.723   1.026 -0.0459 -0.2173  0.2413
  288TMC3    C1 4393   2.608   2.034  14.574  0.2896 -0.5975 -0.6014
  288TMC3    C2 4394   2.472   2.054  14.562  0.6817 -0.1501 -0.2692
  288TMC3    C3 4395   2.426   2.175  14.526 -0.3638  0.3019  0.2628
  288TMC3    C4 4396   2.695   2.127  14.522 -0.5651  0.1992  0.0618
  288TMC3    C5 4397   2.645   2.245  14.484 -0.2334  0.6844 -0.3795
  288TMC3    C6 4398   2.514   2.275  14.489  0.0087 -0.2475 -0.5888
  288TMC3     C 4399   2.643   1.932  14.675  0.5097 -0.3678 -0.4319
  288TMC3     O 4400   2.556   1.897  14.757  0.2688  0.5128 -0.1312
  288TMC3     H 4401   2.413   1.982  14.618  0.4968 -1.9932 -2.8287
  288TMC3    H1 4402   2.799   2.106  14.503 -0.6710 -0.6091  0.3570
  288TMC3    H2 4403   2.481   2.378  14.480  0.6707 -0.1530 -1.8494
  288TMC3    C7 4404   2.736   2.352  14.450  0.6358  0.4585 -0.5505
  288TMC3    C8 4405   2.287   2.213  14.551 -0.1189  0.3636  0.2309
  288TMC3    O1 4406   2.847   2.336  14.494 -0.5160 -0.3851 -0.3727
  288TMC3    O2 4407   2.254   2.330  14.528 -0.0403 -0.2503 -0.6818
  289MPD2     C 4408   2.201   1.011  14.786  0.2159  0.8264  0.3896
  289MPD2    C1 4409   2.197   1.100  14.680  0.0288 -0.0734 -0.0043
  289MPD2    C2 4410   2.082   1.114  14.605  0.6214  0.6358  0.0031
  289MPD2    C3 4411   1.965   1.035  14.628 -0.4968 -0.8669  0.0600
  289MPD2    C4 4412   1.971   0.951  14.737 -0.3479 -0.0097 -0.8908
  289MPD2    C5 4413   2.087   0.933  14.806 -0.3849  0.4548  0.1891
  289MPD2     H 4414   2.066   1.187  14.526 -0.6055  0.0071 -0.3224
  289MPD2    H1 4415   1.882   0.890  14.748 -0.2340  0.2835  1.6697
  289MPD2    H2 4416   2.279   0.999  14.860  1.8569 -0.9515 -1.5930
  289MPD2    H3 4417   2.083   0.857  14.883  0.7714  1.4878  1.2680
  289MPD2     N 4418   1.847   1.041  14.557 -0.7870  0.0652 -0.3944
  289MPD2    H5 4419   1.768   0.992  14.598 -0.0353 -0.6395  0.1918
  289MPD2    N1 4420   2.313   1.176  14.660 -0.4286  0.5159 -0.7907
  289MPD2    H7 4421   2.392   1.134  14.708 -1.6562 -0.8861 -0.0005
  290TMC3    C1 4422   1.685   1.124  14.393  0.6342 -0.3417 -0.0487
  290TMC3    C2 4423   1.673   1.225  14.302 -0.2258 -0.4875  0.5543
  290TMC3    C3 4424   1.601   1.211  14.191  0.0430 -0.2183  0.0721
  290TMC3    C4 4425   1.611   1.007  14.372  0.1508 -0.3852  0.0304
  290TMC3    C5 4426   1.530   1.001  14.263  0.0543 -0.2493  0.3958
  290TMC3    C6 4427   1.520   1.100  14.170  0.5802 -0.5174  0.0048
  290TMC3     C 4428   1.824   1.122  14.445 -0.3273 -0.3130 -0.2840
  290TMC3     O 4429   1.912   1.164  14.373 -0.7076  0.6851  0.1058
  290TMC3     H 4430   1.733   1.314  14.317 -0.0361 -0.5508  0.1841
  290TMC3    H1 4431   1.618   0.930  14.449  0.5035  1.8940  2.2750
  290TMC3    H2 4432   1.458   1.091  14.082 -0.0684 -0.9775  0.5084
  290TMC3    C7 4433   1.440   0.888  14.238 -0.1627 -0.3179 -0.3823
  290TMC3    C8 4434   1.569   1.329  14.117  0.1944  0.0633  0.5805
  290TMC3    O1 4435   1.363   0.887  14.143 -0.0758  0.1309 -0.3746
  290TMC3    O2 4436   1.530   1.312  14.001 -0.0995 -0.3399  0.0435
  291MPD2     C 4437   0.908   0.589   0.384  0.1489  0.0330 -0.0404
  291MPD2    C1 4438   1.023   0.633   0.330  0.2685 -0.5183 -0.7612
  291MPD2    C2 4439   1.139   0.642   0.405 -0.8405 -0.0489 -0.2318
  291MPD2    C3 4440   1.146   0.597   0.538  0.2710 -0.0504  0.5492
  291MPD2    C4 4441   1.027   0.551   0.592 -0.7310 -0.3457  0.3265
  291MPD2    C5 4442   0.911   0.547   0.516 -0.0020  0.0792  0.3421
  291MPD2     H 4443   1.222   0.683   0.350 -1.3813 -1.4868 -2.1332
  291MPD2    H1 4444   1.018   0.532   0.698  0.9014  1.5442  0.8118
  291MPD2    H2 4445   0.811   0.576   0.340 -0.4023  2.2757  0.5178
  291MPD2    H3 4446   0.816   0.517   0.559  0.5209  1.0079  2.1700
  291MPD2     N 4447   1.260   0.620   0.616 -0.2415 -0.0408 -0.2868
  291MPD2    H5 4448   1.250   0.594   0.714  1.5454  2.9540  0.7021
  291MPD2    N1 4449   1.035   0.665   0.189  0.2637  0.4189 -0.4672
  291MPD2    H7 4450   1.131   0.669   0.156  0.2912 -0.8745 -0.5568
  292TMC3    C1 4451   0.977   0.664  17.697 -0.0841 -0.0975  0.4131
  292TMC3    C2 4452   0.882   0.654  17.607  0.8460 -0.4323  0.6969
  292TMC3    C3 4453   0.902   0.595  17.487 -0.0333 -0.5643  0.6368
  292TMC3    C4 4454   1.105   0.614  17.661 -0.4429  0.1168 -0.1864
  292TMC3    C5 4455   1.129   0.568  17.534  0.3233 -0.0990 -0.3249
  292TMC3    C6 4456   1.028   0.562  17.441  0.1318  0.0950 -0.1642
  292TMC3     C 4457   0.930   0.673   0.091 -0.5335 -0.2253  0.0881
  292TMC3     O 4458   0.810   0.673   0.106 -0.4248  0.0894  0.0085
  292TMC3     H 4459   0.783   0.695  17.623  0.9700 -0.2406  0.9528
  292TMC3    H1 4460   1.191   0.614  17.727 -0.1277 -0.4690 -0.5978
  292TMC3    H2 4461   1.056   0.530  17.341 -0.3935 -0.4626 -0.1336
  292TMC3    C7 4462   1.234   0.479  17.521  0.6680 -0.2167  0.4795
  292TMC3    C8 4463   0.789   0.583  17.400  0.4531 -0.7389  0.2689
  292TMC3    O1 4464   1.268   0.428  17.624  0.0617  0.1604  0.3916
  292TMC3    O2 4465   0.786   0.641  17.294  0.8130 -0.0652 -0.1752
  293MPD2     C 4466   3.409   2.609  13.100 -0.0092  0.0610 -0.3980
  293MPD2    C1 4467   3.306   2.535  13.157  0.1132 -0.2367 -0.3308
  293MPD2    C2 4468   3.317   2.488  13.286  0.3505 -0.9793  0.1992
  293MPD2    C3 4469   3.437   2.493  13.356 -0.0759  0.4844 -0.2306
  293MPD2    C4 4470   3.547   2.544  13.289 -0.1525 -0.4169 -0.5927
  293MPD2    C5 4471   3.531   2.596  13.163  0.1064  0.1986  0.1081
  293MPD2     H 4472   3.237   2.433  13.333  0.4186 -0.9780  0.3159
  293MPD2    H1 4473   3.646   2.547  13.333 -0.3681 -0.9860 -0.0650
  293MPD2    H2 4474   3.394   2.643  12.998  2.1120 -1.3137 -1.1773
  293MPD2    H3 4475   3.621   2.636  13.118  1.5814 -1.4553  1.5597
  293MPD2     N 4476   3.459   2.445  13.487  0.2322 -0.0120 -0.3161
  293MPD2    H5 4477   3.555   2.455  13.518  0.7641 -2.1847 -1.2549
  293MPD2    N1 4478   3.195   2.542  13.075  0.2335  0.6244 -0.5841
  293MPD2    H7 4479   3.214   2.578  12.982  0.3303 -1.8934 -1.5420
  294TMC3    C1 4480   2.983   2.503  12.992 -0.5791  0.4988  0.1529
  294TMC3    C2 4481   2.916   2.390  12.947 -0.2602 -0.0778 -0.0252
  294TMC3    C3 4482   2.847   2.394  12.831 -0.0059 -0.1925 -0.1454
  294TMC3    C4 4483   2.989   2.626  12.920 -0.1576 -0.1966  0.4880
  294TMC3    C5 4484   2.921   2.619  12.802  0.0283 -0.8348  0.0988
  294TMC3    C6 4485   2.854   2.508  12.757  0.5351  0.0450  0.0441
  294TMC3     C 4486   3.077   2.482  13.102 -0.4434  0.5989 -0.0317
  294TMC3     O 4487   3.046   2.396  13.186 -0.3361  0.2952  0.4641
  294TMC3     H 4488   2.926   2.297  13.001  0.5358  0.5896  0.9868
  294TMC3    H1 4489   3.042   2.717  12.949 -0.4154  0.1465 -0.1132
  294TMC3    H2 4490   2.808   2.505  12.659 -0.4303 -0.4831  0.5169
  294TMC3    C7 4491   2.917   2.741  12.724  0.0534 -0.5721  0.4384
  294TMC3    C8 4492   2.775   2.281  12.771  0.0683 -0.7754 -0.8264
  294TMC3    O1 4493   2.894   2.837  12.796  0.4200  0.1489  0.0191
  294TMC3    O2 4494   2.833   2.174  12.761 -0.3334  0.6258  0.3480
  295MPD2     C 4495   3.093   1.461   1.449  0.3346  0.1422 -0.2344
  295MPD2    C1 4496   3.089   1.336   1.403 -1.0127 -0.2945  0.2358
  295MPD2    C2 4497   3.041   1.234   1.478 -0.0263 -0.6958 -0.1843
  295MPD2    C3 4498   2.994   1.259   1.607 -0.6524  1.5547  0.1298
  295MPD2    C4 4499   3.009   1.385   1.656  0.0747  0.9445  0.1052
  295MPD2    C5 4500   3.058   1.486   1.581 -0.7314 -0.1764  1.1056
  295MPD2     H 4501   3.040   1.136   1.431 -0.6084 -0.6143 -0.3502
  295MPD2    H1 4502   2.985   1.420   1.756 -0.8307  1.8987 -0.4528
  295MPD2    H2 4503   3.131   1.543   1.389  0.9399  0.7484  0.9757
  295MPD2    H3 4504   3.068   1.585   1.624  2.7441 -0.6157  1.3920
  295MPD2     N 4505   2.916   1.173   1.688 -0.0331 -0.0890 -0.1503
  295MPD2    H5 4506   2.895   1.216   1.778  1.0706  0.4055 -0.1316
  295MPD2    N1 4507   3.138   1.304   1.273  0.1526 -0.6332 -0.4877
  295MPD2    H7 4508   3.126   1.207   1.245  0.8968 -0.5933 -0.9512
  296TMC3    C1 4509   2.762   1.011   1.738 -0.5782 -0.6389  0.8007
  296TMC3    C2 4510   2.684   1.089   1.819  0.3652  0.3983 -0.0363
  296TMC3    C3 4511   2.558   1.051   1.852  0.4821  0.3029 -0.5442
  296TMC3    C4 4512   2.706   0.888   1.702  0.8251 -0.2852 -0.0913
  296TMC3    C5 4513   2.587   0.842   1.742  0.3642  0.2223  0.0589
  296TMC3    C6 4514   2.511   0.925   1.827 -0.8924 -0.3268  0.4255
  296TMC3     C 4515   2.864   1.060   1.642 -0.1032  0.2831  0.0560
  296TMC3     O 4516   2.886   1.001   1.537  0.3880 -0.1382 -0.1207
  296TMC3     H 4517   2.706   1.195   1.824 -0.7525  0.6741 -0.9460
  296TMC3    H1 4518   2.757   0.841   1.619 -0.7639  0.2347 -1.3482
  296TMC3    H2 4519   2.408   0.898   1.851 -1.0559  0.6246  0.8042
  296TMC3    C7 4520   2.522   0.722   1.694  0.0170 -0.7735 -0.2284
  296TMC3    C8 4521   2.469   1.129   1.934 -0.5725  0.3942  0.5300
  296TMC3    O1 4522   2.405   0.696   1.732 -0.2290  0.7435 -1.5074
  296TMC3    O2 4523   2.378   1.076   2.000 -0.3108 -0.2638 -0.6636
  297MPD2     C 4524   0.752   2.988  16.572 -0.1368  0.3933  0.0193
  297MPD2    C1 4525   0.774   3.004  16.435  0.6305  0.7572 -0.6249
  297MPD2    C2 4526   0.899   3.037  16.382  0.1113 -0.1840  0.2385
  297MPD2    C3 4527   1.001   3.066  16.480  0.2579  0.6031 -0.1980
  297MPD2    C4 4528   0.979   3.053  16.614 -0.2567 -0.7736 -0.1891
  297MPD2    C5 4529   0.859   3.010  16.660  0.8201  0.6842 -0.2261
  297MPD2     H 4530   0.922   3.034  16.276 -2.8209  1.9945 -0.4476
  297MPD2    H1 4531   1.052   3.066  16.693 -0.7456  0.6809  0.0269
  297MPD2    H2 4532   0.656   2.969  16.619  0.2607 -0.2789  0.5507
  297MPD2    H3 4533   0.839   3.011  16.767  2.5109  2.8547  0.0516
  297MPD2     N 4534   1.131   3.111  16.442 -0.2176  0.4683 -0.4414
  297MPD2    H5 4535   1.189   3.138  16.520 -0.0871 -0.2828 -0.2708
  297MPD2    N1 4536   0.672   3.010  16.335 -0.2869  0.5369  0.0525
  297MPD2    H7 4537   0.711   3.035  16.245  0.8289 -0.2553  0.3045
  298TMC3    C1 4538   0.464   3.086  16.262 -0.1424 -0.3202 -0.5635
  298TMC3    C2 4539   0.505   3.081  16.135 -0.0414 -0.1005 -0.3520
  298TMC3    C3 4540   0.480   3.193  16.058 -0.5439  0.6459  0.4034
  298TMC3    C4 4541   0.385   3.193  16.316 -0.0485  0.0839  0.9691
  298TMC3    C5 4542   0.366   3.303  16.241  0.3221  0.2248  0.1112
  298TMC3    C6 4543   0.401   3.297  16.106 -0.7272  0.3850 -0.3479
  298TMC3     C 4544   0.536   3.014  16.363 -0.8312 -0.8594  0.0671
  298TMC3     O 4545   0.479   2.986  16.470 -0.4490  0.2578 -0.4764
  298TMC3     H 4546   0.561   3.000  16.090 -0.7290 -1.1605  0.7025
  298TMC3    H1 4547   0.351   3.184  16.418 -0.2993 -0.2189  0.8581
  298TMC3    H2 4548   0.382   3.380  16.039 -0.0790 -0.0054 -1.0145
  298TMC3    C7 4549   0.286   3.403  16.304  0.6247 -0.0820  0.7754
  298TMC3    C8 4550   0.519   3.185  15.916 -0.3008  0.1055 -0.1680
  298TMC3    O1 4551   0.225   3.366  16.403  0.8958  0.3614  0.1066
  298TMC3    O2 4552   0.571   3.085  15.864 -0.3357  0.4492 -0.2939
  299MPD2     C 4553   1.205   2.788  10.871 -0.7090 -0.5543 -0.2702
  299MPD2    C1 4554   1.304   2.872  10.819 -0.4942 -0.5389  0.0110
  299MPD2    C2 4555   1.264   2.954  10.711  0.0856  0.6197 -0.5377
  299MPD2    C3 4556   1.138   2.941  10.646 -0.0816  0.5136  0.6916
  299MPD2    C4 4557   1.048   2.857  10.702  0.1455 -0.5868 -0.4439
  299MPD2    C5 4558   1.079   2.788  10.815  0.1150  0.4425  0.3403
  299MPD2     H 4559   1.341   3.016  10.667  2.4197 -0.9469  1.2732
  299MPD2    H1 4560   0.947   2.855  10.662 -0.3607  0.8741  0.7718
  299MPD2    H2 4561   1.221   2.732  10.962 -0.9884  0.5155  0.4292
  299MPD2    H3 4562   1.013   2.715  10.860 -1.0190  1.2267 -0.0447
  299MPD2     N 4563   1.096   3.018  10.538  0.2025  0.0007 -0.7752
  299MPD2    H5 4564   1.000   3.018  10.503  0.8460  0.8667 -2.5461
  299MPD2    N1 4565   1.432   2.876  10.875 -0.5552 -0.1276  0.5829
  299MPD2    H7 4566   1.452   2.811  10.950  0.9586 -1.7316 -1.2118
  300TMC3    C1 4567   1.116   3.182  10.367 -0.6578 -0.0305 -0.0041
  300TMC3    C2 4568   1.190   3.279  10.301  0.4395 -0.3131  0.6520
  300TMC3    C3 4569   1.134   3.366  10.214  1.1713  0.3462  0.1624
  300TMC3    C4 4570   0.987   3.167  10.340 -0.2518 -0.1041  0.0653
  300TMC3    C5 4571   0.937   3.252  10.243 -0.4167 -0.6054  0.2149
  300TMC3    C6 4572   1.003   3.353  10.185  0.3301 -0.1309  0.4989
  300TMC3     C 4573   1.177   3.108  10.472 -0.1497  0.0413  0.2555
  300TMC3     O 4574   1.294   3.137  10.490  0.6167 -0.0316  0.0601
  300TMC3     H 4575   1.294   3.288  10.331  0.5409  0.0641  0.1937
  300TMC3    H1 4576   0.927   3.077  10.353 -1.9423  1.2040  1.3993
  300TMC3    H2 4577   0.947   3.419  10.120  0.5502 -2.1268 -1.6897
  300TMC3    C7 4578   0.796   3.228  10.213  0.0449 -0.3929  0.4720
  300TMC3    C8 4579   1.180   3.503  10.233  0.0724  0.5295 -0.0982
  300TMC3    O1 4580   0.761   3.262  10.099  0.1103  0.1312 -0.0395
  300TMC3    O2 4581   1.300   3.517  10.270  0.1556 -0.3682  0.5717
  301MPD2     C 4582   3.902   4.244   1.054 -0.7896  0.1363  0.0168
  301MPD2    C1 4583   3.773   4.186   1.072  0.5818  0.0661  0.0295
  301MPD2    C2 4584   3.760   4.046   1.046  0.3404 -0.1427  0.1772
  301MPD2    C3 4585   3.870   3.971   1.015 -0.1673  0.4411 -0.1657
  301MPD2    C4 4586   3.995   4.030   1.001  0.1087 -0.0987 -0.2239
  301MPD2    C5 4587   4.009   4.164   1.025  0.2965  0.2163 -0.2431
  301MPD2     H 4588   3.663   4.002   1.065  0.2988  0.1334  0.6039
  301MPD2    H1 4589   4.090   3.987   0.970  0.0748  0.6459 -1.3447
  301MPD2    H2 4590   3.924   4.349   1.068 -0.8256 -0.0082  1.1677
  301MPD2    H3 4591   4.109   4.206   1.018  0.6187 -0.1905  1.7726
  301MPD2     N 4592   3.860   3.835   1.005 -0.0863  0.5353  0.2038
  301MPD2    H5 4593   3.943   3.778   1.016 -0.2605  0.0396 -1.0010
  301MPD2    N1 4594   3.653   4.256   1.102  0.4801  0.0443  0.4334
  301MPD2    H7 4595   3.562   4.210   1.106  0.9477 -0.9064 -0.0088
  302TMC3    C1 4596   3.747   3.633   0.989 -0.1373  0.0359 -0.4513
  302TMC3    C2 4597   3.831   3.578   1.083  0.6805  0.4142  0.2475
  302TMC3    C3 4598   3.803   3.458   1.136 -0.2298 -0.0655 -0.1677
  302TMC3    C4 4599   3.631   3.568   0.960  0.2859 -0.1691  0.7248
  302TMC3    C5 4600   3.607   3.444   1.005  0.1690  1.0020  0.0600
  302TMC3    C6 4601   3.690   3.378   1.090  0.2438 -0.2818  0.3216
  302TMC3     C 4602   3.745   3.774   0.951  0.6021 -0.4440  0.7147
  302TMC3     O 4603   3.649   3.823   0.897  0.0299  0.6987 -0.7607
  302TMC3     H 4604   3.917   3.635   1.118  0.8153 -0.7759  1.8443
  302TMC3    H1 4605   3.550   3.621   0.911  0.3673 -0.4158  0.3220
  302TMC3    H2 4606   3.676   3.276   1.125  0.2662 -0.4526 -0.1736
  302TMC3    C7 4607   3.495   3.366   0.948  0.4051  0.1836 -0.0618
  302TMC3    C8 4608   3.870   3.403   1.253  0.5612  0.1505 -0.1849
  302TMC3    O1 4609   3.508   3.246   0.935  0.0300  0.2397  0.5410
  302TMC3    O2 4610   3.994   3.400   1.261  0.0904  0.2959 -0.3486
  303MPD2     C 4611   4.012   2.547  10.402  0.6606 -0.3038 -0.2438
  303MPD2    C1 4612   3.927   2.442  10.396  0.2981  0.2282 -0.0954
  303MPD2    C2 4613   3.816   2.450  10.317 -0.1162 -0.1880  0.8483
  303MPD2    C3 4614   3.788   2.562  10.242 -0.3803 -0.4782  0.1551
  303MPD2    C4 4615   3.883   2.662  10.235  0.0955 -0.3929  0.2328
  303MPD2    C5 4616   3.993   2.653  10.316  0.2813 -0.1305 -0.0014
  303MPD2     H 4617   3.742   2.372  10.326 -1.0385  0.3526 -2.0075
  303MPD2    H1 4618   3.862   2.752  10.178  0.3835  0.0383  0.8055
  303MPD2    H2 4619   4.085   2.554  10.481  1.4299 -0.1678 -0.9619
  303MPD2    H3 4620   4.062   2.737  10.321  2.4193 -1.9129  0.6438
  303MPD2     N 4621   3.667   2.584  10.170 -0.0952 -0.2981 -0.4904
  303MPD2    H5 4622   3.668   2.670  10.116  0.7311 -1.5423 -2.4419
  303MPD2    N1 4623   3.936   2.336  10.484  0.2234  0.8138  0.6779
  303MPD2    H7 4624   4.005   2.344  10.558  0.5419  0.5582  0.4078
  304TMC3    C1 4625   3.898   2.134  10.593  0.0636 -0.0931 -0.0871
  304TMC3    C2 4626   3.873   2.198  10.719 -0.2119 -0.5848 -0.5418
  304TMC3    C3 4627   3.817   2.120  10.819  0.1535 -0.0880 -0.5942
  304TMC3    C4 4628   3.861   2.002  10.582 -0.6490  0.2164  0.0121
  304TMC3    C5 4629   3.819   1.926  10.688  0.4736  0.4649  0.1695
  304TMC3    C6 4630   3.816   1.985  10.812  0.3078  0.1272  0.0449
  304TMC3     C 4631   3.878   2.217  10.479 -0.1637  0.2541  0.4090
  304TMC3     O 4632   3.802   2.169  10.397  0.0393 -0.1104 -0.1564
  304TMC3     H 4633   3.873   2.306  10.728 -2.7974 -0.6727  0.5012
  304TMC3    H1 4634   3.857   1.958  10.483  2.0240  1.7993 -0.8086
  304TMC3    H2 4635   3.794   1.925  10.900 -0.8245 -0.0283 -0.3448
  304TMC3    C7 4636   3.708   1.830  10.663 -1.3470  0.3503  0.2821
  304TMC3    C8 4637   3.698   2.177  10.892 -0.7162  0.4319  0.1897
  304TMC3    O1 4638   3.631   1.835  10.760 -0.4636  0.1040 -0.1820
  304TMC3    O2 4639   3.702   2.294  10.929  0.5608  0.4742 -0.2308
  305MPD2     C 4640   1.612   4.276  14.379  0.2510 -0.3486 -0.4597
  305MPD2    C1 4641   1.747   4.263  14.369 -0.1679  0.0406  0.0050
  305MPD2    C2 4642   1.806   4.237  14.245  0.0657 -0.1774 -0.3199
  305MPD2    C3 4643   1.730   4.226  14.128 -0.1437  0.4699  0.7080
  305MPD2    C4 4644   1.593   4.242  14.142 -0.4847  0.1881  0.3986
  305MPD2    C5 4645   1.537   4.265  14.266  0.1741  0.1181  0.3623
  305MPD2     H 4646   1.913   4.228  14.237  0.2665  1.2994  0.7309
  305MPD2    H1 4647   1.532   4.242  14.053  0.4987 -0.6414 -0.2753
  305MPD2    H2 4648   1.557   4.300  14.469  0.1612 -0.3807 -0.5058
  305MPD2    H3 4649   1.429   4.269  14.264  0.2817  1.9934 -1.8961
  305MPD2     N 4650   1.788   4.221  14.006 -0.2486  0.1030 -0.4049
  305MPD2    H5 4651   1.720   4.196  13.935  0.9722  2.1519 -2.2995
  305MPD2    N1 4652   1.828   4.291  14.480  0.5654 -0.2719  0.1763
  305MPD2    H7 4653   1.927   4.276  14.463  0.1857 -1.4793 -0.9677
  306TMC3    C1 4654   1.916   4.389  14.675  0.1673  0.5738  0.0800
  306TMC3    C2 4655   2.023   4.302  14.675  0.4152 -0.7994 -0.3016
  306TMC3    C3 4656   2.137   4.349  14.745  0.0806 -0.7856  0.4066
  306TMC3    C4 4657   1.912   4.504  14.738 -0.0775 -0.0593 -0.2752
  306TMC3    C5 4658   2.023   4.546  14.807 -0.1974 -0.1390 -0.0597
  306TMC3    C6 4659   2.138   4.471  14.812  0.0346  0.5389  0.6277
  306TMC3     C 4660   1.794   4.360  14.594  0.3590 -0.3876 -0.6651
  306TMC3     O 4661   1.685   4.411  14.616  0.0150 -0.2344 -0.1845
  306TMC3     H 4662   2.022   4.210  14.618 -1.5892  0.1458 -1.8115
  306TMC3    H1 4663   1.818   4.555  14.755  0.7438  0.6228  2.1588
  306TMC3    H2 4664   2.226   4.518  14.854 -0.4565  1.9406  0.0730
  306TMC3    C7 4665   1.990   4.624  14.925  0.4303  0.5390 -0.0269
  306TMC3    C8 4666   2.227   4.249  14.782  0.1166  0.2940 -0.7546
  306TMC3    O1 4667   1.874   4.649  14.942 -0.0799  0.2398  0.0958
  306TMC3    O2 4668   2.245   4.161  14.700 -0.5327 -0.3463 -0.1298
  307MPD2     C 4669   4.558   2.446   0.403 -0.3690  0.0817  0.5488
  307MPD2    C1 4670   4.485   2.553   0.437 -0.4737 -0.5936  0.7872
  307MPD2    C2 4671   4.412   2.539   0.551 -0.7155 -0.5961  0.4189
  307MPD2    C3 4672   4.417   2.430   0.635 -0.0990 -0.6528  0.5694
  307MPD2    C4 4673   4.481   2.320   0.587  0.3287 -0.4041 -0.0729
  307MPD2    C5 4674   4.556   2.322   0.470 -0.4037 -0.5631 -0.4787
  307MPD2     H 4675   4.349   2.621   0.584 -0.4607  0.0057 -0.6130
  307MPD2    H1 4676   4.484   2.224   0.636  1.0763 -0.7270 -0.7453
  307MPD2    H2 4677   4.616   2.446   0.311 -0.1502 -0.2180  0.6865
  307MPD2    H3 4678   4.589   2.233   0.418  1.6480 -1.0718  1.6925
  307MPD2     N 4679   4.336   2.428   0.749  0.6041  0.2011 -0.0034
  307MPD2    H5 4680   4.288   2.513   0.777 -0.2344  0.8448 -3.4524
  307MPD2    N1 4681   4.463   2.665   0.350  0.5091  0.0060 -0.5376
  307MPD2    H7 4682   4.398   2.737   0.382  1.2876  1.0806 -1.3712
  308TMC3    C1 4683   4.036   2.301   1.042  0.2033  1.5672  0.1455
  308TMC3    C2 4684   4.018   2.419   1.098 -0.0434 -0.6064 -0.1197
  308TMC3    C3 4685   4.114   2.506   1.070 -0.1769  0.1605 -0.7626
  308TMC3    C4 4686   4.136   2.258   0.959 -0.2531 -0.3180  0.1044
  308TMC3    C5 4687   4.223   2.353   0.932 -0.2008 -0.3762 -0.1246
  308TMC3    C6 4688   4.222   2.477   0.989 -0.3966 -0.0910  0.5823
  308TMC3     C 4689   3.917   2.221   1.019  0.5106  0.2321  0.6266
  308TMC3     O 4690   3.920   2.106   0.984  0.2375  0.2016 -0.8852
  308TMC3     H 4691   3.945   2.453   1.171  0.5172 -1.2019  0.7195
  308TMC3    H1 4692   4.131   2.164   0.904  1.2560 -1.2150  1.4993
  308TMC3    H2 4693   4.303   2.547   0.971 -0.4660  0.2137  1.4984
  308TMC3    C7 4694   4.319   2.320   0.835  0.2989  0.2583  0.1169
  308TMC3    C8 4695   4.094   2.642   1.124 -0.2941  0.1534  0.3024
  308TMC3    O1 4696   4.370   2.210   0.848  0.1302  0.5336 -0.3689
  308TMC3    O2 4697   4.067   2.660   1.244 -0.1089  0.5901 -0.7153
  309MPD2     C 4698   3.697   2.521  17.381  0.4518 -0.1348  0.5141
  309MPD2    C1 4699   3.698   2.655  17.342  0.3552 -0.6028 -0.2188
  309MPD2    C2 4700   3.613   2.739  17.407 -0.0087 -1.4456  0.1785
  309MPD2    C3 4701   3.528   2.699  17.513  0.4250 -0.8465  0.2102
  309MPD2    C4 4702   3.526   2.563  17.548  0.4086  0.5747 -0.3197
  309MPD2    C5 4703   3.612   2.479  17.482  0.2949 -0.1039  0.1711
  309MPD2     H 4704   3.608   2.844  17.380  0.8278 -1.1792  1.0569
  309MPD2    H1 4705   3.456   2.517  17.618  2.2365  1.3572  2.0234
  309MPD2    H2 4706   3.760   2.449  17.331 -0.3082 -0.2885 -0.2203
  309MPD2    H3 4707   3.610   2.377  17.518 -0.4889 -0.3690 -0.6160
  309MPD2     N 4708   3.437   2.789  17.570  0.0639 -0.3248 -0.1544
  309MPD2    H5 4709   3.360   2.736  17.611 -0.7023  1.5426  0.8227
  309MPD2    N1 4710   3.758   2.708  17.228 -0.0208  0.5015  0.1522
  309MPD2    H7 4711   3.715   2.794  17.196 -0.1728  0.6881  0.8432
  310TMC3    C1 4712   3.898   2.722  17.027  0.0414  0.3821  0.4394
  310TMC3    C2 4713   3.823   2.831  16.985 -0.1898 -0.0290  0.1509
  310TMC3    C3 4714   3.841   2.875  16.857 -0.1520 -0.0036  0.1253
  310TMC3    C4 4715   3.985   2.657  16.943  0.2781 -0.5443 -0.1593
  310TMC3    C5 4716   4.017   2.711  16.823  0.3830 -0.0633 -0.1701
  310TMC3    C6 4717   3.940   2.817  16.784 -0.2726  0.2676 -0.0368
  310TMC3     C 4718   3.860   2.652  17.149 -1.0742 -0.1572 -0.1283
  310TMC3     O 4719   3.915   2.544  17.173  0.6370 -0.0200 -0.2560
  310TMC3     H 4720   3.739   2.868  17.043  0.3776  0.5506  0.5945
  310TMC3    H1 4721   4.039   2.566  16.969 -0.4021 -1.0618 -0.5606
  310TMC3    H2 4722   3.941   2.857  16.683 -0.4945  1.1789  0.3188
  310TMC3    C7 4723   4.096   2.628  16.735  1.0927  0.8231  0.2826
  310TMC3    C8 4724   3.731   2.963  16.801  0.3117  0.4897  0.2126
  310TMC3    O1 4725   4.129   2.517  16.779 -0.0176 -0.0580 -0.8163
  310TMC3    O2 4726   3.754   3.000  16.684 -0.4573  0.5678  0.5857
  311MPD2     C 4727   1.150   3.964  12.785  0.3252  0.6144 -0.2327
  311MPD2    C1 4728   1.156   4.098  12.817  0.6187  0.6901 -0.1463
  311MPD2    C2 4729   1.038   4.152  12.878 -0.3612  0.1642  1.5914
  311MPD2    C3 4730   0.923   4.077  12.896 -1.0493  0.3618 -0.2426
  311MPD2    C4 4731   0.921   3.947  12.855  0.3000 -0.5748  0.5408
  311MPD2    C5 4732   1.031   3.901  12.798  0.3973  0.4629 -0.3458
  311MPD2     H 4733   1.033   4.257  12.907 -0.9744 -0.3311  3.2351
  311MPD2    H1 4734   0.844   3.873  12.876 -0.2056  0.1089  1.0848
  311MPD2    H2 4735   1.232   3.902  12.751 -0.1404  0.8080 -1.7267
  311MPD2    H3 4736   1.030   3.795  12.777 -2.9184  0.0258  1.9211
  311MPD2     N 4737   0.816   4.135  12.956  0.4553 -0.3686 -0.1192
  311MPD2    H5 4738   0.829   4.230  12.989  0.3773 -0.5490  0.4335
  311MPD2    N1 4739   1.273   4.177  12.791 -0.1601 -0.4149  0.4686
  311MPD2    H7 4740   1.268   4.266  12.838 -0.0799  1.2436 -2.6762
  312TMC3    C1 4741   0.620   4.156  13.076 -0.5880  0.5174  0.1925
  312TMC3    C2 4742   0.487   4.150  13.059  0.2133  0.4762 -0.0354
  312TMC3    C3 4743   0.409   4.226  13.147  0.0574  0.1655  0.7554
  312TMC3    C4 4744   0.679   4.242  13.166  0.4638 -0.0581  0.3617
  312TMC3    C5 4745   0.604   4.314  13.250 -0.5861  0.0215  0.4897
  312TMC3    C6 4746   0.468   4.306  13.243 -0.9370  0.1358  0.0341
  312TMC3     C 4747   0.696   4.076  12.985 -0.5012 -0.5605  0.3035
  312TMC3     O 4748   0.647   3.969  12.942 -0.0528  0.0820 -0.4004
  312TMC3     H 4749   0.434   4.089  12.986 -0.2418  0.1502  0.5747
  312TMC3    H1 4750   0.787   4.237  13.174  0.5306  2.5163  1.2263
  312TMC3    H2 4751   0.418   4.367  13.316 -0.3591  2.4655 -1.5147
  312TMC3    C7 4752   0.686   4.394  13.343  0.2720  0.0415  0.0889
  312TMC3    C8 4753   0.266   4.215  13.134 -0.3943  0.0977  0.0065
  312TMC3    O1 4754   0.803   4.418  13.316 -0.6217  0.5681 -0.2015
  312TMC3    O2 4755   0.219   4.177  13.029  0.2617  0.1737 -0.3320
  313MPD2     C 4756   4.727   3.381  11.409 -0.5124 -0.4012 -0.4755
  313MPD2    C1 4757   4.669   3.424  11.290 -0.3775  0.3031 -0.0238
  313MPD2    C2 4758   4.621   3.323  11.205  0.0940  0.0787 -0.0579
  313MPD2    C3 4759   4.632   3.187  11.233  0.7116  0.0595  0.3307
  313MPD2    C4 4760   4.690   3.152  11.355  0.6787 -0.0106 -0.4919
  313MPD2    C5 4761   0.003   3.245  11.438 -0.5436  0.0072  0.2961
  313MPD2     H 4762   4.592   3.357  11.107  1.8175 -0.5430 -0.7910
  313MPD2    H1 4763   4.715   3.048  11.376  0.9295  0.0183 -0.6502
  313MPD2    H2 4764   0.028   3.443  11.489  0.8139 -0.0327 -1.3898
  313MPD2    H3 4765   0.062   3.221  11.526 -1.3363 -0.4215  0.7014
  313MPD2     N 4766   4.567   3.095  11.147 -0.5029  0.7894 -0.0620
  313MPD2    H5 4767   4.522   3.134  11.065 -1.3189 -1.8047 -0.8346
  313MPD2    N1 4768   4.657   3.554  11.251  0.1268 -0.2798 -0.2291
  313MPD2    H7 4769   4.644   3.559  11.150 -0.8454  1.2495 -0.0154
  314TMC3    C1 4770   4.721   3.781  11.220  0.4364  0.0621  0.6610
  314TMC3    C2 4771   0.096   3.862  11.229  0.0011  0.3148 -0.0821
  314TMC3    C3 4772   0.108   3.975  11.145 -0.2642  0.5063  0.3074
  314TMC3    C4 4773   4.624   3.800  11.124 -0.3364  0.5224  0.5781
  314TMC3    C5 4774   4.641   3.905  11.044 -0.1049 -0.2642  0.1313
  314TMC3    C6 4775   0.005   3.999  11.058 -0.3115 -0.6241 -0.1475
  314TMC3     C 4776   4.715   3.663  11.314 -0.6619 -0.3879 -0.2141
  314TMC3     O 4777   0.049   3.675  11.415  0.1506  0.5350  0.4534
  314TMC3     H 4778   0.164   3.853  11.312  1.1995 -1.6271 -1.2938
  314TMC3    H1 4779   4.547   3.730  11.097  0.4063 -0.7909  1.8873
  314TMC3    H2 4780   0.017   4.077  10.983 -0.4713 -2.1790 -1.8096
  314TMC3    C7 4781   4.582   3.890  10.915 -0.1631  0.3513 -1.0632
  314TMC3    C8 4782   0.229   4.062  11.123 -0.0500  0.1367 -0.1205
  314TMC3    O1 4783   4.480   3.824  10.893  0.1942  0.2249  0.6114
  314TMC3    O2 4784   0.232   4.108  11.008  0.3349 -0.4738  0.4726
  315MPD2     C 4785   0.036   2.556  17.467  1.0146  0.0721  0.2111
  315MPD2    C1 4786   0.093   2.607  17.583 -0.3540 -1.7159 -0.0600
  315MPD2    C2 4787   0.154   2.730  17.569  0.5163  1.1612 -0.4192
  315MPD2    C3 4788   0.150   2.809  17.454  0.5122  0.4781 -0.4647
  315MPD2    C4 4789   0.079   2.762  17.349 -0.2554 -0.1952  0.1539
  315MPD2    C5 4790   0.035   2.629  17.350 -0.4740  0.3027 -0.4386
  315MPD2     H 4791   0.225   2.760  17.646  0.6037  1.9545 -0.8105
  315MPD2    H1 4792   0.070   2.824  17.261 -1.5465  0.2050  0.5628
  315MPD2    H2 4793   0.002   2.453  17.466  1.1492  0.0264  0.4445
  315MPD2    H3 4794   4.732   2.587  17.258  0.6465  0.4287 -0.9841
  315MPD2     N 4795   0.212   2.939  17.461 -0.8648 -0.1821 -0.0823
  315MPD2    H5 4796   0.247   2.970  17.551 -3.6408 -1.6077  1.4552
  315MPD2    N1 4797   0.119   2.523  17.700 -0.1237  0.5011  0.1055
  315MPD2    H7 4798   0.171   2.569   0.028 -0.7513  0.2169  0.7238
  316TMC3    C1 4799   0.251   3.167  17.417 -0.4053  0.6964  0.1801
  316TMC3    C2 4800   0.348   3.161  17.510  0.7803  0.9569  0.2158
  316TMC3    C3 4801   0.352   3.271  17.589 -0.0014  0.0987 -0.1664
  316TMC3    C4 4802   0.160   3.265  17.386 -0.0116  0.1798  0.6558
  316TMC3    C5 4803   0.172   3.379  17.470 -0.6096  0.2324  0.4216
  316TMC3    C6 4804   0.262   3.378  17.577 -0.2111  0.4268  0.8488
  316TMC3     C 4805   0.211   3.040  17.365  0.2360 -0.2937 -0.3632
  316TMC3     O 4806   0.153   3.048  17.259 -0.4361  0.3598  0.3280
  316TMC3     H 4807   0.420   3.080  17.514 -0.7362 -0.4602 -0.9598
  316TMC3    H1 4808   0.071   3.245  17.327  1.6834 -0.7942 -1.5690
  316TMC3    H2 4809   0.270   3.456  17.651 -0.0365  1.1995  0.0134
  316TMC3    C7 4810   0.062   3.467  17.482 -0.9756 -0.4068 -0.7147
  316TMC3    C8 4811   0.457   3.298  17.687  0.1449 -0.4945 -0.5034
  316TMC3    O1 4812   0.029   3.506  17.596  0.6909 -0.2775  0.7594
  316TMC3    O2 4813   0.484   3.413  17.722 -0.1441 -0.3903  0.1321
  317MPD2     C 4814   2.142   1.643  13.128  0.0246 -0.1831  0.0698
  317MPD2    C1 4815   2.154   1.508  13.093  0.3197 -0.0641  0.2629
  317MPD2    C2 4816   2.173   1.418  13.198  0.0249  0.9453  0.3594
  317MPD2    C3 4817   2.185   1.471  13.330 -0.2576  0.0537 -0.3954
  317MPD2    C4 4818   2.171   1.605  13.355  0.1477 -0.1760  0.1735
  317MPD2    C5 4819   2.141   1.690  13.255  0.1080 -0.2466 -0.3866
  317MPD2     H 4820   2.183   1.314  13.172 -1.8687  0.6769  0.7157
  317MPD2    H1 4821   2.185   1.635  13.458  1.5846  0.4217 -0.1918
  317MPD2    H2 4822   2.102   1.720  13.063 -0.7240  0.3754  1.1856
  317MPD2    H3 4823   2.128   1.796  13.268 -1.6807 -0.4656 -0.3968
  317MPD2     N 4824   2.205   1.375  13.430  0.1788 -0.0767 -0.1486
  317MPD2    H5 4825   2.219   1.279  13.402  0.1494  0.3947 -1.7996
  317MPD2    N1 4826   2.145   1.458  12.962  0.2647 -0.5785 -0.6519
  317MPD2    H7 4827   2.147   1.360  12.935 -2.4485 -0.7143 -0.3229
  318TMC3    C1 4828   2.258   1.290  13.639  0.0894 -0.3642  0.6328
  318TMC3    C2 4829   2.176   1.185  13.627  0.3026 -0.1238 -0.4218
  318TMC3    C3 4830   2.221   1.066  13.672  0.5494 -0.4066  0.2463
  318TMC3    C4 4831   2.377   1.286  13.706  0.7109 -0.3878 -0.0965
  318TMC3    C5 4832   2.421   1.161  13.759  0.5890 -0.9627  0.2434
  318TMC3    C6 4833   2.339   1.049  13.745  0.3758 -0.1586  0.5516
  318TMC3     C 4834   2.227   1.411  13.563 -0.1877 -0.0359  0.2613
  318TMC3     O 4835   2.237   1.515  13.626  0.3008  0.4075 -0.2416
  318TMC3     H 4836   2.078   1.201  13.584  1.3446  0.5370 -2.5293
  318TMC3    H1 4837   2.439   1.374  13.718  1.4196 -1.2188  2.4093
  318TMC3    H2 4838   2.379   0.953  13.775 -0.7418 -1.0132 -0.7132
  318TMC3    C7 4839   2.557   1.157  13.822  0.1413 -0.1466 -0.5876
  318TMC3    C8 4840   2.133   0.953  13.660  0.4047  0.0729  0.5595
  318TMC3    O1 4841   2.598   1.272  13.845  0.2433  0.3581  0.0488
  318TMC3    O2 4842   2.143   0.863  13.745  0.1578  0.6792  0.4075
  319MPD2     C 4843   3.072   1.835  16.443  0.5367 -0.0447 -0.5253
  319MPD2    C1 4844   3.038   1.778  16.564  0.3026  0.3760 -0.7719
  319MPD2    C2 4845   2.912   1.737  16.590 -0.1267 -0.4067  0.3969
  319MPD2    C3 4846   2.810   1.731  16.491  0.0056 -0.3337  0.0492
  319MPD2    C4 4847   2.841   1.785  16.367  0.2577 -0.4597 -0.9089
  319MPD2    C5 4848   2.973   1.841  16.347 -0.2905 -0.2405 -0.7969
  319MPD2     H 4849   2.888   1.688  16.684 -3.2576 -1.5359 -0.9800
  319MPD2    H1 4850   2.774   1.808  16.285  1.1359 -0.8450 -1.7374
  319MPD2    H2 4851   3.164   1.886  16.418  0.5962  1.7073  3.1553
  319MPD2    H3 4852   2.998   1.880  16.250  3.2528 -1.0309 -0.1950
  319MPD2     N 4853   2.680   1.690  16.513  0.6331 -0.5175  0.1122
  319MPD2    H5 4854   2.615   1.697  16.435 -0.6974 -0.3648  1.2368
  319MPD2    N1 4855   3.128   1.786  16.677  0.1023  0.0882  0.3343
  319MPD2    H7 4856   3.099   1.739  16.763  0.8125 -0.6446  0.1786
  320TMC3    C1 4857   2.491   1.617  16.618 -0.4656  0.3105  0.1423
  320TMC3    C2 4858   2.426   1.734  16.586 -0.6032 -0.6882 -0.3760
  320TMC3    C3 4859   2.295   1.721  16.559 -0.0600  0.2479 -0.1451
  320TMC3    C4 4860   2.436   1.488  16.610 -0.5211 -0.7084  0.0729
  320TMC3    C5 4861   2.299   1.488  16.590 -0.2201 -0.6952 -0.4118
  320TMC3    C6 4862   2.232   1.601  16.571 -0.4867  0.6767 -0.4759
  320TMC3     C 4863   2.635   1.624  16.625 -0.3674 -0.9237 -0.3068
  320TMC3     O 4864   2.705   1.574  16.715  0.6073  0.1370 -0.2515
  320TMC3     H 4865   2.480   1.827  16.585 -1.4255 -0.2199 -2.8285
  320TMC3    H1 4866   2.505   1.406  16.627  2.7797  2.0836  0.0605
  320TMC3    H2 4867   2.127   1.600  16.545 -0.0878 -3.5648 -2.0629
  320TMC3    C7 4868   2.272   1.398  16.477  0.1709  0.1487  0.1955
  320TMC3    C8 4869   2.235   1.828  16.481 -0.3327  0.4249  0.4009
  320TMC3    O1 4870   2.230   1.432  16.369 -0.2224  0.0277 -0.1885
  320TMC3    O2 4871   2.314   1.892  16.409  0.3852  0.3227  0.3121
  321TMC3    C1 4872   3.281   1.902  16.807 -0.1810 -0.6818 -0.0280
  321TMC3    C2 4873   3.208   1.862  16.919 -0.4378 -0.0415  0.2062
  321TMC3    C3 4874   3.198   1.949  17.023  0.4232 -0.2228  0.2470
  321TMC3    C4 4875   3.363   2.007  16.813 -0.0276 -0.4284  0.3371
  321TMC3    C5 4876   3.349   2.101  16.915 -0.1688 -0.0691  0.1945
  321TMC3    C6 4877   3.272   2.068  17.022  0.0916 -0.1993  0.3174
  321TMC3     C 4878   3.252   1.848  16.677 -0.4778 -0.0021 -0.1586
  321TMC3     O 4879   3.310   1.897  16.586  0.3839 -0.1420 -0.3155
  321TMC3     H 4880   3.145   1.774  16.915  1.6900 -1.5269 -0.5993
  321TMC3    H1 4881   3.425   2.033  16.728  1.6657 -0.7939  1.4617
  321TMC3    H2 4882   3.237   2.149  17.085  1.3922 -0.2202  1.0598
  321TMC3    C7 4883   3.474   2.153  16.967  0.1199 -0.7434 -0.4366
  321TMC3    C8 4884   3.185   1.910  17.163 -0.4951  0.6028 -0.3550
  321TMC3    O1 4885   3.564   2.186  16.894  0.6129  0.2824 -0.3385
  321TMC3    O2 4886   3.215   1.998  17.240 -0.0709 -0.6527  0.6215
  322MPD2     C 4887   1.858   3.596  13.945 -0.1989 -0.1841  0.5381
  322MPD2    C1 4888   1.934   3.577  14.063 -0.1832 -0.7104  0.0554
  322MPD2    C2 4889   2.001   3.461  14.087  0.2615  0.4254 -0.1183
  322MPD2    C3 4890   1.988   3.353  13.997  0.3168 -0.9553 -0.5110
  322MPD2    C4 4891   1.918   3.366  13.879  0.6319  0.5148 -0.4086
  322MPD2    C5 4892   1.859   3.488  13.854  0.1215 -0.1452 -0.0467
  322MPD2     H 4893   2.043   3.445  14.186 -1.1467 -0.9753  0.2600
  322MPD2    H1 4894   1.899   3.283  13.813  1.9599  0.9340 -1.3089
  322MPD2    H2 4895   1.813   3.692  13.922 -1.1755 -0.9938 -0.9135
  322MPD2    H3 4896   1.804   3.513  13.764  0.2083 -2.5022 -0.7664
  322MPD2     N 4897   2.056   3.239  14.036 -0.5290  0.1524  0.3414
  322MPD2    H5 4898   2.102   3.243  14.127 -0.0365  2.9187 -0.0372
  322MPD2    N1 4899   1.934   3.674  14.165 -0.0633  0.3257  0.2148
  322MPD2    H7 4900   1.987   3.653  14.248 -0.6784 -0.0611  0.5080
  323TMC3    C1 4901   1.934   3.881  14.261  0.9873  0.6712  0.4095
  323TMC3    C2 4902   2.010   3.995  14.236 -0.0581 -0.0816  0.0241
  323TMC3    C3 4903   2.095   4.035  14.339 -0.8058  0.0248 -0.3109
  323TMC3    C4 4904   1.946   3.812  14.378 -0.1715 -0.0462 -0.3208
  323TMC3    C5 4905   2.026   3.862  14.479  0.7488 -0.2677 -0.4037
  323TMC3    C6 4906   2.101   3.976  14.463  0.2392  0.6220 -1.2302
  323TMC3     C 4907   1.887   3.802  14.148  0.4440 -0.3359 -0.2444
  323TMC3     O 4908   1.858   3.867  14.045 -0.3297 -0.3556  0.2285
  323TMC3     H 4909   1.992   4.046  14.143  0.5789 -0.7566 -0.4691
  323TMC3    H1 4910   1.876   3.732  14.400 -0.2177 -0.6789 -2.8344
  323TMC3    H2 4911   2.177   4.006  14.535 -1.3507  4.5118 -1.1610
  323TMC3    C7 4912   2.079   3.758  14.569 -0.2169  0.4094 -0.5216
  323TMC3    C8 4913   2.218   4.110  14.304 -0.4037 -0.3421  0.7450
  323TMC3    O1 4914   2.094   3.653  14.508  0.2292 -0.5703  0.4494
  323TMC3    O2 4915   2.304   4.119  14.388 -0.0065 -0.1424  0.1277
  324MPD2     C 4916   3.576   4.469  14.883  0.1997 -0.3243 -0.3183
  324MPD2    C1 4917   3.611   4.574  14.807  0.1214 -0.3482 -0.0680
  324MPD2    C2 4918   3.526   4.610  14.699 -0.2353  0.1185 -0.1475
  324MPD2    C3 4919   3.409   4.542  14.677  0.3476  0.6916  0.9116
  324MPD2    C4 4920   3.379   4.431  14.750 -0.7230 -0.6742  0.3772
  324MPD2    C5 4921   3.458   4.396  14.853 -0.1319 -0.0701 -0.1077
  324MPD2     H 4922   3.549   4.694  14.635 -1.7942  0.2481 -0.5397
  324MPD2    H1 4923   3.286   4.375  14.738 -1.4370  0.7495 -0.7822
  324MPD2    H2 4924   3.634   4.430  14.966  0.0207 -1.2794 -0.6462
  324MPD2    H3 4925   3.437   4.304  14.906 -0.0039 -0.7329 -1.1820
  324MPD2     N 4926   3.325   4.582  14.568  0.2325 -0.0630 -0.0164
  324MPD2    H5 4927   3.228   4.553  14.563  0.0563  0.2438  1.6038
  324MPD2    N1 4928   3.724   4.655  14.833  0.2735  0.0302  0.2257
  324MPD2    H7 4929   3.733   0.002  14.776  2.1546 -2.5354 -3.2554
  325TMC3    C1 4930   3.259   4.704  14.383 -0.4487 -0.5460  0.1417
  325TMC3    C2 4931   3.131   4.705  14.430  0.0412  0.1424 -0.2845
  325TMC3    C3 4932   3.033   0.015  14.344 -0.2788  0.9940  0.4639
  325TMC3    C4 4933   3.290   0.005  14.255 -0.0273  0.6681  0.6340
  325TMC3    C5 4934   3.193   0.062  14.181 -0.4294 -0.1693 -0.4644
  325TMC3    C6 4935   3.065   0.056  14.217 -0.4221  1.3028  0.1703
  325TMC3     C 4936   3.373   4.664  14.468 -0.2759  0.4788  0.3610
  325TMC3     O 4937   3.485   4.704  14.428 -0.2498 -0.3825 -0.3505
  325TMC3     H 4938   3.112   4.691  14.536  0.9659  0.0628 -0.1221
  325TMC3    H1 4939   3.390   0.009  14.213 -0.9217  0.1774 -1.5341
  325TMC3    H2 4940   2.990   0.093  14.148  0.5771  3.0862  0.0556
  325TMC3    C7 4941   3.233   0.191  14.138 -0.3048  0.3829 -0.3029
  325TMC3    C8 4942   2.919   0.086  14.394  0.4740  0.4397 -0.1072
  325TMC3    O1 4943   3.345   0.206  14.087 -0.4578  0.5319  0.1595
  325TMC3    O2 4944   2.902   0.197  14.351 -0.7016 -0.8326 -0.1844
  326MPD2     C 4945   4.472   1.556  11.396  0.0049 -0.2626  0.6643
  326MPD2    C1 4946   4.524   1.449  11.331 -0.0948  0.9753  0.1863
  326MPD2    C2 4947   4.659   1.409  11.350  0.2131 -1.0620  0.1119
  326MPD2    C3 4948   0.005   1.485  11.434 -0.2043 -0.5414 -0.6969
  326MPD2    C4 4949   4.683   1.596  11.502  0.1665  0.7372  0.1086
  326MPD2    C5 4950   4.552   1.626  11.485  0.0129 -0.1746 -0.3889
  326MPD2     H 4951   4.700   1.326  11.294 -0.2092  0.0021 -1.7576
  326MPD2    H1 4952   0.011   1.661  11.560  1.7476  0.2558 -1.1276
  326MPD2    H2 4953   4.372   1.596  11.380  1.6952  3.5582 -0.3420
  326MPD2    H3 4954   4.502   1.708  11.536  1.0330 -0.1754  0.6009
  326MPD2     N 4955   0.145   1.457  11.460  0.1981 -0.0588  0.3163
  326MPD2    H5 4956   0.177   1.498  11.548  1.1501 -0.4852  0.1671
  326MPD2    N1 4957   4.454   1.387  11.225 -0.3526  0.1001  0.2958
  326MPD2    H7 4958   4.498   1.308  11.179 -2.0658 -0.2312 -0.7509
  327TMC3    C1 4959   4.268   1.344  11.078 -0.3238  0.0945  0.4651
  327TMC3    C2 4960   4.211   1.389  10.964 -0.2972  0.2524 -1.2502
  327TMC3    C3 4961   4.159   1.296  10.881  0.2276 -0.1828 -0.1260
  327TMC3    C4 4962   4.267   1.214  11.120  0.0669 -0.1626 -0.1048
  327TMC3    C5 4963   4.204   1.126  11.031 -0.5689 -0.5333  0.5564
  327TMC3    C6 4964   4.149   1.159  10.911  0.4738  0.8217 -0.3184
  327TMC3     C 4965   4.340   1.439  11.164  0.3894  0.6663  0.0774
  327TMC3     O 4966   4.308   1.556  11.157 -0.0350  0.3692 -0.0516
  327TMC3     H 4967   4.213   1.497  10.949 -1.3787  0.6797  1.8117
  327TMC3    H1 4968   4.296   1.202  11.223  2.1591 -1.0298 -0.8054
  327TMC3    H2 4969   4.101   1.082  10.852 -0.7819  1.4357 -0.1219
  327TMC3    C7 4970   4.223   0.985  11.065 -0.0661  0.3760 -0.3462
  327TMC3    C8 4971   4.134   1.353  10.750  0.0023  0.2816  0.8935
  327TMC3    O1 4972   4.161   0.901  10.998 -0.2913  0.0189 -0.4817
  327TMC3    O2 4973   4.173   1.466  10.733 -0.0698  0.6289 -0.5967
  328MPD2     C 4974   2.521   1.181  17.337  0.5490 -0.2165  0.0520
  328MPD2    C1 4975   2.394   1.134  17.313 -0.0410  0.5839 -0.2654
  328MPD2    C2 4976   2.309   1.207  17.234  0.3857  0.0622  0.4762
  328MPD2    C3 4977   2.348   1.330  17.184  0.1641  0.0263 -0.0330
  328MPD2    C4 4978   2.475   1.374  17.207 -0.6365 -0.0051  0.1954
  328MPD2    C5 4979   2.558   1.307  17.289 -0.6312  0.3216 -0.3407
  328MPD2     H 4980   2.216   1.159  17.208  0.1971 -0.3424  1.9305
  328MPD2    H1 4981   2.509   1.470  17.170 -1.5602  0.3470  0.2581
  328MPD2    H2 4982   2.593   1.132  17.402 -2.1473 -1.2008  2.2786
  328MPD2    H3 4983   2.662   1.336  17.297 -0.6277  0.8687 -2.1938
  328MPD2     N 4984   2.260   1.416  17.113 -0.5840 -0.2480 -0.0896
  328MPD2    H5 4985   2.302   1.490  17.057  0.0812 -0.2719  0.3779
  328MPD2    N1 4986   2.362   1.002  17.365 -0.2419 -0.0488 -0.1386
  328MPD2    H7 4987   2.432   0.971  17.431  0.9228  0.5682 -1.0819
  329TMC3    C1 4988   2.225   0.828  17.439  0.6184  0.6350 -0.5616
  329TMC3    C2 4989   2.241   0.862  17.567 -0.0931 -0.2696 -1.0585
  329TMC3    C3 4990   2.188   0.778  17.660  0.9938 -0.0060 -0.5396
  329TMC3    C4 4991   2.150   0.723  17.396 -0.4237 -0.1949  0.2348
  329TMC3    C5 4992   2.105   0.635  17.492  0.0493  0.4004  0.1596
  329TMC3    C6 4993   2.122   0.661  17.623 -0.7975 -0.1332  0.5730
  329TMC3     C 4994   2.246   0.925  17.339 -0.2299 -0.2714 -0.2889
  329TMC3     O 4995   2.165   0.930  17.245  0.4575  0.6931  0.4946
  329TMC3     H 4996   2.287   0.957  17.594  1.3927 -1.2964 -0.0142
  329TMC3    H1 4997   2.151   0.699  17.291  2.2605 -0.7243  0.3865
  329TMC3    H2 4998   2.089   0.587  17.696 -0.1675 -1.1042 -0.1260
  329TMC3    C7 4999   2.061   0.498  17.455  1.2304 -0.2727  0.4643
  329TMC3    C8 5000   2.228   0.796   0.053 -0.4107 -0.0375  0.6906
  329TMC3    O1 5001   2.083   0.418  17.543  0.2522 -0.1464  0.3286
  329TMC3    O2 5002   2.341   0.847   0.083  0.1457  0.1587 -0.6805
  330TMC3    C1 5003   0.020   0.552  10.184  0.2264  0.3644 -0.0028
  330TMC3    C2 5004   4.668   0.464  10.140 -0.2962  0.4212 -0.6995
  330TMC3    C3 5005   4.692   0.324  10.153 -0.2995  0.0786  0.1236
  330TMC3    C4 5006   0.140   0.517  10.234  0.1872  0.2072 -0.2850
  330TMC3    C5 5007   0.157   0.380  10.260  0.3298 -0.3416  0.2055
  330TMC3    C6 5008   0.069   0.287  10.208 -0.5023  0.5736  0.3146
  330TMC3     C 5009   0.004   0.695  10.179 -0.6420 -0.1872  0.2631
  330TMC3     O 5010   0.080   0.757  10.256 -0.3772 -0.5236  0.4294
  330TMC3     H 5011   4.566   0.494  10.116 -1.8797 -4.2059  0.2261
  330TMC3    H1 5012   0.219   0.587  10.257 -0.4493  0.2271  1.8526
  330TMC3    H2 5013   0.090   0.181  10.221  1.3757  0.5349 -3.0530
  330TMC3    C7 5014   0.245   0.348  10.363  0.0063 -0.2619  0.3956
  330TMC3    C8 5015   4.580   0.240  10.180  0.0827 -0.4282  0.3293
  330TMC3    O1 5016   0.323   0.434  10.403 -0.6332 -0.2065  0.5761
  330TMC3    O2 5017   4.482   0.297  10.221 -0.2794  0.0251  0.4846
  331MPD2     C 5018   2.645   4.337  12.600 -0.1242  0.5882 -0.7854
  331MPD2    C1 5019   2.720   4.353  12.489 -0.4596 -0.3323 -0.3515
  331MPD2    C2 5020   2.824   4.265  12.476  0.2731 -0.3419 -0.5714
  331MPD2    C3 5021   2.854   4.167  12.570 -0.7659 -0.1610  0.1034
  331MPD2    C4 5022   2.773   4.154  12.686  0.3941  0.0128 -1.2016
  331MPD2    C5 5023   2.661   4.241  12.692 -0.3658 -0.1317  0.3216
  331MPD2     H 5024   2.881   4.269  12.384  1.0925  1.3058  0.0093
  331MPD2    H1 5025   2.789   4.071  12.755 -2.5571 -0.1907 -0.7746
  331MPD2    H2 5026   2.555   4.396  12.615 -2.3028 -3.1999  0.8626
  331MPD2    H3 5027   2.588   4.220  12.769 -1.5436  1.4568 -0.3384
  331MPD2     N 5028   2.963   4.081  12.542  0.0267 -0.1595  0.3533
  331MPD2    H5 5029   3.022   4.096  12.460  1.9515 -0.1342  1.7433
  331MPD2    N1 5030   2.717   4.449  12.389  0.0996 -0.5775 -0.1034
  331MPD2    H7 5031   2.785   4.433  12.315  0.1713 -0.6248 -0.0268
  332TMC3    C1 5032   3.129   3.910  12.566  0.0502 -0.1873  0.4437
  332TMC3    C2 5033   3.163   3.935  12.431 -0.4968 -0.0615  0.7698
  332TMC3    C3 5034   3.291   3.918  12.397 -0.4576  0.0492  0.3299
  332TMC3    C4 5035   3.215   3.839  12.647  0.2334 -0.3520  0.0035
  332TMC3    C5 5036   3.338   3.813  12.595  0.1452 -0.4539  0.2005
  332TMC3    C6 5037   3.386   3.859  12.475  0.1695 -0.1580  0.1992
  332TMC3     C 5038   3.011   3.980  12.623  0.0009 -0.3022 -0.5334
  332TMC3     O 5039   2.987   3.950  12.740 -0.1267  0.6409  0.0105
  332TMC3     H 5040   3.088   3.971  12.361  1.2839  0.8711 -0.6531
  332TMC3    H1 5041   3.193   3.824  12.752 -3.2201 -2.0707 -0.9374
  332TMC3    H2 5042   3.481   3.830  12.432  0.8912  0.6255  1.2574
  332TMC3    C7 5043   3.408   3.715  12.681  0.3856  0.2540  0.7844
  332TMC3    C8 5044   3.320   3.965  12.258 -0.1258  0.4390  0.6803
  332TMC3    O1 5045   3.347   3.657  12.771 -0.2946 -0.3840  0.6075
  332TMC3    O2 5046   3.222   3.978  12.187 -0.4696  0.4699  0.1051
  333MPD2     C 5047   2.833   4.513  11.106 -0.0441  0.0714  0.8321
  333MPD2    C1 5048   2.937   4.426  11.074  0.0791 -0.2156 -0.5484
  333MPD2    C2 5049   2.942   4.304  11.145 -0.0454  0.0590  0.0392
  333MPD2    C3 5050   2.847   4.280  11.246 -0.4353 -0.3746 -0.5155
  333MPD2    C4 5051   2.738   4.359  11.266 -0.4699  0.2899  0.0180
  333MPD2    C5 5052   2.738   4.476  11.194 -0.7680  0.4661  0.0392
  333MPD2     H 5053   3.008   4.225  11.114 -0.2806 -0.7834  1.6744
  333MPD2    H1 5054   2.648   4.337  11.322  0.5878 -0.1038  1.5608
  333MPD2    H2 5055   2.831   4.610  11.059 -0.4763 -0.2894  0.1149
  333MPD2    H3 5056   2.657   4.545  11.211  0.4184  1.2690  2.4516
  333MPD2     N 5057   2.852   4.153  11.308 -0.9092 -0.4576  0.2974
  333MPD2    H5 5058   2.928   4.094  11.276  0.5469  0.6525  1.7330
  333MPD2    N1 5059   3.020   4.459  10.968  0.0492  0.2039  1.0620
  333MPD2    H7 5060   2.999   4.542  10.913  0.2241 -0.6257 -0.2562
  334TMC3    C1 5061   3.213   4.428  10.822  0.1893  0.1760 -0.2126
  334TMC3    C2 5062   3.294   4.338  10.751 -0.5824 -0.5810 -0.6065
  334TMC3    C3 5063   3.394   4.386  10.679 -0.4843  0.0478 -0.1838
  334TMC3    C4 5064   3.228   4.567  10.812 -0.4914 -0.5660  0.4450
  334TMC3    C5 5065   3.328   4.613  10.725 -0.0124  0.5372  0.3626
  334TMC3    C6 5066   3.409   4.521  10.664  1.0184  0.3519  0.0746
  334TMC3     C 5067   3.120   4.373  10.924 -0.2092 -0.1860  0.1738
  334TMC3     O 5068   3.148   4.257  10.949 -0.2470 -0.1167 -0.0186
  334TMC3     H 5069   3.260   4.235  10.753  0.0287 -0.8690 -4.0553
  334TMC3    H1 5070   3.152   4.633  10.854 -0.7603 -0.6361  0.0663
  334TMC3    H2 5071   3.467   4.557  10.580 -0.4148 -1.5140 -1.7012
  334TMC3    C7 5072   3.370   0.007  10.709  0.3221  0.4041 -0.4826
  334TMC3    C8 5073   3.470   4.300  10.586 -0.2383 -0.3767  0.8804
  334TMC3    O1 5074   3.485   0.035  10.709  0.4535  0.0675  0.2896
  334TMC3    O2 5075   3.419   4.201  10.538  1.0054 -0.4340 -0.1060
  335TMC3    C1 5076   2.999   0.919  17.711 -0.0142  1.1140  0.1422
  335TMC3    C2 5077   2.904   0.880  17.624 -0.2259  0.0484 -0.1420
  335TMC3    C3 5078   2.935   0.875  17.489 -0.4111 -0.1084 -0.0915
  335TMC3    C4 5079   3.123   0.955  17.675  0.9357 -0.1856 -0.5478
  335TMC3    C5 5080   3.148   0.944  17.541 -0.1170 -0.9105 -0.1303
  335TMC3    C6 5081   3.063   0.902  17.448 -0.3852  0.5119  0.1243
  335TMC3     C 5082   2.964   0.951   0.104  0.6527 -0.1213  0.3457
  335TMC3     O 5083   3.059   0.964   0.180  0.2738 -0.1151  0.0634
  335TMC3     H 5084   2.800   0.875  17.653 -0.6807  0.0096 -1.7893
  335TMC3    H1 5085   3.188   1.006   0.000  0.5356  1.0277 -1.0514
  335TMC3    H2 5086   3.097   0.891  17.345 -2.0835 -0.1759 -0.3638
  335TMC3    C7 5087   3.271   1.006  17.488 -0.6350 -0.0000  0.2595
  335TMC3    C8 5088   2.832   0.863  17.394 -0.1624  1.0256 -0.7631
  335TMC3    O1 5089   3.315   0.959  17.388  0.2898  0.4863  0.4537
  335TMC3    O2 5090   2.852   0.909  17.283  0.1377 -0.0189  0.0987
  336MPD2     C 5091   2.442   3.292  16.688 -0.2554 -0.0309 -0.1608
  336MPD2    C1 5092   2.524   3.303  16.581 -0.0737  0.3062 -0.7414
  336MPD2    C2 5093   2.615   3.214  16.543 -0.0814 -0.3293  0.5121
  336MPD2    C3 5094   2.622   3.095  16.615  0.2388  0.9109 -0.0840
  336MPD2    C4 5095   2.545   3.078  16.726 -0.3901  0.0878  0.6029
  336MPD2    C5 5096   2.457   3.180  16.763 -0.3319 -0.0698  0.0029
  336MPD2     H 5097   2.667   3.234  16.451  0.0474  0.2634  0.7139
  336MPD2    H1 5098   2.547   2.988  16.786  1.6000  0.3924  1.0034
  336MPD2    H2 5099   2.370   3.366  16.720 -1.8774 -1.7053  0.0463
  336MPD2    H3 5100   2.399   3.166  16.853 -2.0082 -0.5365 -1.1592
  336MPD2     N 5101   2.689   2.975  16.578  0.2997  0.3089  0.2750
  336MPD2    H5 5102   2.688   2.900  16.646 -1.8885  1.0529  1.0732
  336MPD2    N1 5103   2.506   3.415  16.494  0.1751 -0.2180  0.4371
  336MPD2    H7 5104   2.588   3.448  16.445  1.0639 -0.2394  1.9176
  337TMC3    C1 5105   2.390   3.598  16.381 -0.6470 -0.0676 -0.6039
  337TMC3    C2 5106   2.268   3.666  16.357  0.1160 -0.7743 -0.5006
  337TMC3    C3 5107   2.268   3.781  16.285 -0.2473  0.4003  0.1625
  337TMC3    C4 5108   2.502   3.657  16.329 -0.0247  0.0658  0.5006
  337TMC3    C5 5109   2.492   3.769  16.250  0.1585 -0.4945 -0.2736
  337TMC3    C6 5110   2.374   3.827  16.221  0.4479  0.7318  0.3286
  337TMC3     C 5111   2.388   3.485  16.475  0.5674  0.7746  0.1138
  337TMC3     O 5112   2.276   3.454  16.520  0.1376 -0.4040  0.2324
  337TMC3     H 5113   2.180   3.628  16.407 -2.8639  2.7138 -3.0686
  337TMC3    H1 5114   2.602   3.623  16.355  1.0413 -0.1029 -3.7246
  337TMC3    H2 5115   2.369   3.927  16.179  1.7307  0.3819 -0.6643
  337TMC3    C7 5116   2.618   3.834  16.208  0.7222 -0.0733 -0.3417
  337TMC3    C8 5117   2.136   3.816  16.233 -0.2070 -0.5091 -0.0426
  337TMC3    O1 5118   2.720   3.780  16.247 -0.0451 -0.1718  0.1277
  337TMC3    O2 5119   2.046   3.779  16.304  0.5447  0.6264 -0.1842
  338MPD2     C 5120   3.285   3.151   1.171  0.3562 -0.1034 -0.1179
  338MPD2    C1 5121   3.162   3.131   1.111 -0.1762  0.1589  0.6411
  338MPD2    C2 5122   3.064   3.220   1.149 -0.6760  0.6877  0.2062
  338MPD2    C3 5123   3.088   3.307   1.257  0.5922  0.1435  0.0355
  338MPD2    C4 5124   3.210   3.322   1.315  0.2490 -0.2475 -1.0816
  338MPD2    C5 5125   3.312   3.245   1.265 -0.3886  0.0179  0.1869
  338MPD2     H 5126   2.965   3.204   1.108 -0.3835  1.8626 -0.9162
  338MPD2    H1 5127   3.239   3.401   1.384  1.2814 -1.1678 -0.4646
  338MPD2    H2 5128   3.377   3.104   1.139  0.3620 -0.2892  0.1774
  338MPD2    H3 5129   3.408   3.259   1.313 -0.0783  0.7844 -0.6443
  338MPD2     N 5130   2.983   3.388   1.303 -0.1352 -0.1879  1.1374
  338MPD2    H5 5131   2.891   3.385   1.259  0.5654 -1.1905 -0.2259
  338MPD2    N1 5132   3.136   3.023   1.026  0.0084  0.1061 -0.0413
  338MPD2    H7 5133   3.039   3.018   0.996  0.5399 -1.3910 -1.4518
  339TMC3    C1 5134   2.856   3.509   1.441  0.5942  0.4592 -0.5999
  339TMC3    C2 5135   2.815   3.469   1.570 -0.1862  0.4157 -0.2246
  339TMC3    C3 5136   2.698   3.397   1.573  1.2545 -0.6933  0.0132
  339TMC3    C4 5137   2.774   3.508   1.330  0.0303 -0.8037  0.0747
  339TMC3    C5 5138   2.654   3.436   1.346  0.1149  0.4197 -0.1039
  339TMC3    C6 5139   2.612   3.384   1.469 -0.1631 -0.1094  0.5238
  339TMC3     C 5140   2.989   3.458   1.419  1.2936  0.1608  0.6270
  339TMC3     O 5141   3.067   3.452   1.513  0.2220  0.1850  0.3323
  339TMC3     H 5142   2.883   3.467   1.654 -0.6589 -0.1652  0.1451
  339TMC3    H1 5143   2.784   3.558   1.234 -3.0620  0.9331  0.6647
  339TMC3    H2 5144   2.529   3.315   1.480 -2.0462  1.8366 -1.3178
  339TMC3    C7 5145   2.634   3.355   1.228 -0.5188 -0.1388 -0.3371
  339TMC3    C8 5146   2.695   3.294   1.683 -0.0128 -0.4231 -0.2390
  339TMC3    O1 5147   2.737   3.328   1.164  0.2501 -0.0799  0.2097
  339TMC3    O2 5148   2.707   3.331   1.797 -0.6611 -0.3481  0.4896
  340MPD2     C 5149   2.851   1.227   9.455 -0.0113  0.7948 -0.4266
  340MPD2    C1 5150   2.848   1.115   9.530 -0.0867 -0.8799  0.1495
  340MPD2    C2 5151   2.836   1.121   9.668  0.1276 -0.0922  0.1598
  340MPD2    C3 5152   2.829   1.242   9.729 -0.7711  0.6978 -0.0044
  340MPD2    C4 5153   2.846   1.354   9.658 -0.7601  0.4633 -0.1761
  340MPD2    C5 5154   2.858   1.351   9.521  0.4060  0.5750 -0.6246
  340MPD2     H 5155   2.838   1.029   9.725  2.0383 -1.1016 -1.5166
  340MPD2    H1 5156   2.840   1.449   9.709  0.7923  1.0106 -1.0312
  340MPD2    H2 5157   2.862   1.233   9.348 -1.6695  0.4167 -0.6072
  340MPD2    H3 5158   2.867   1.448   9.473 -2.1139  0.1648 -1.9137
  340MPD2     N 5159   2.825   1.248   9.871 -0.7084 -0.0122  0.0213
  340MPD2    H5 5160   2.856   1.339   9.903  0.7745 -0.1039 -1.1342
  340MPD2    N1 5161   2.891   0.997   9.461 -0.7274  0.8983 -0.4870
  340MPD2    H7 5162   2.922   1.004   9.364  1.4965 -1.4668  0.0552
  341TMC3    C1 5163   2.981   0.773   9.466 -0.4337  0.2189 -1.0093
  341TMC3    C2 5164   2.960   0.644   9.501  0.0908 -0.7082 -0.2336
  341TMC3    C3 5165   3.071   0.571   9.543 -0.0542  0.6615  0.0260
  341TMC3    C4 5166   3.109   0.821   9.461 -0.0298 -0.3454 -0.2618
  341TMC3    C5 5167   3.221   0.751   9.503 -0.0708  0.3373 -0.1887
  341TMC3    C6 5168   3.196   0.623   9.553 -0.5106 -0.2349 -0.5447
  341TMC3     C 5169   2.884   0.872   9.518 -0.3760  0.2882  0.1314
  341TMC3     O 5170   2.812   0.835   9.612  0.1177  0.5069 -0.2833
  341TMC3     H 5171   2.862   0.602   9.481  0.6971 -1.8634 -0.7623
  341TMC3    H1 5172   3.118   0.929   9.457  1.7105 -0.5592 -2.3587
  341TMC3    H2 5173   3.280   0.563   9.584  0.2877  1.3956  0.4856
  341TMC3    C7 5174   3.352   0.805   9.534 -0.3098  0.3367  0.6711
  341TMC3    C8 5175   3.045   0.457   9.626  0.4996 -0.7285  0.4306
  341TMC3    O1 5176   3.427   0.731   9.598 -0.3167  0.6582 -0.2602
  341TMC3    O2 5177   3.128   0.426   9.716 -0.2239  0.3959  0.1713
  342MPD2     C 5178   1.007   3.919  17.675  0.3947  0.0982  0.1456
  342MPD2    C1 5179   1.138   3.883  17.638 -0.1594  0.5865  0.7052
  342MPD2    C2 5180   1.234   3.982  17.632 -0.0170 -0.0107 -0.6877
  342MPD2    C3 5181   1.195   4.114  17.657 -0.1641  0.0803 -0.0532
  342MPD2    C4 5182   1.065   4.149  17.674 -0.1582  0.1493  0.7462
  342MPD2    C5 5183   0.971   4.047  17.683 -0.1688 -0.0786  0.7752
  342MPD2     H 5184   1.337   3.955  17.612  1.3087  2.6539  2.5489
  342MPD2    H1 5185   1.041   4.254  17.687 -1.3457  0.4236 -3.5330
  342MPD2    H2 5186   0.923   3.860  17.710  0.4154 -0.4687 -0.7676
  342MPD2    H3 5187   0.868   4.080  17.694 -0.5312 -0.3128 -1.8333
  342MPD2     N 5188   1.284   4.222  17.657 -0.3093 -0.2419 -0.9383
  342MPD2    H5 5189   1.247   4.315  17.639 -2.1314 -1.1844 -2.1283
  342MPD2    N1 5190   1.177   3.757  17.596  0.1540  0.5374  0.5401
  342MPD2    H7 5191   1.278   3.745  17.590  0.0660  0.9810 -1.6781
  343TMC3    C1 5192   1.151   3.547  17.500  0.4332  0.0494  0.6737
  343TMC3    C2 5193   1.258   3.568  17.422  0.2929 -0.0237 -0.2839
  343TMC3    C3 5194   1.278   3.474  17.327 -0.4481 -0.0251  0.0357
  343TMC3    C4 5195   1.078   3.432  17.493  0.7484 -0.0636  0.2602
  343TMC3    C5 5196   1.094   3.355  17.387  0.3295  0.0022 -0.0203
  343TMC3    C6 5197   1.191   3.368  17.299 -0.5753  0.5731  0.5435
  343TMC3     C 5198   1.098   3.650  17.587  0.7786 -0.1083 -0.2523
  343TMC3     O 5199   0.979   3.640  17.608  0.1765  0.4356 -0.3242
  343TMC3     H 5200   1.322   3.654  17.435 -1.3581  1.5384 -2.4267
  343TMC3    H1 5201   0.987   3.422  17.552  1.7548 -0.1062  1.7923
  343TMC3    H2 5202   1.197   3.302  17.213  1.6585  1.8399 -0.2781
  343TMC3    C7 5203   1.043   3.220  17.403 -0.7583 -0.4618 -0.5137
  343TMC3    C8 5204   1.404   3.483  17.254 -0.6217 -0.0278  0.1262
  343TMC3    O1 5205   0.998   3.154  17.309 -0.1019  0.0968  0.9985
  343TMC3    O2 5206   1.475   3.579  17.282 -0.3668  0.0296 -0.0817
  344MPD2     C 5207   2.199   3.029  10.607  0.7599  0.1347 -0.1456
  344MPD2    C1 5208   2.100   3.119  10.644 -0.3758 -0.1730  0.2455
  344MPD2    C2 5209   2.110   3.251  10.607  0.0538 -0.2569  0.2646
  344MPD2    C3 5210   2.204   3.292  10.514  0.2152 -0.0615  0.1279
  344MPD2    C4 5211   2.293   3.198  10.458  0.2755  0.0991  0.2101
  344MPD2    C5 5212   2.295   3.070  10.516  0.1954 -0.1020 -0.1786
  344MPD2     H 5213   2.043   3.326  10.650 -1.9046 -1.3963 -0.7909
  344MPD2    H1 5214   2.379   3.228  10.399  1.3718 -0.6275  1.4393
  344MPD2    H2 5215   2.209   2.930  10.651 -1.0730 -0.1304 -0.3566
  344MPD2    H3 5216   2.375   3.000  10.495  0.6549  0.4231 -0.1800
  344MPD2     N 5217   2.224   3.427  10.487  0.2910  0.2899  0.9699
  344MPD2    H5 5218   2.298   3.448  10.421  1.4373 -1.5942  1.6503
  344MPD2    N1 5219   1.998   3.083  10.738  1.2182  0.1861 -0.0012
  344MPD2    H7 5220   1.922   3.150  10.735 -0.9273 -2.2909 -1.1979
  345TMC3    C1 5221   2.260   3.661  10.530 -0.0053  0.4677 -0.3355
  345TMC3    C2 5222   2.322   3.737  10.626  0.8605  0.1106 -0.0065
  345TMC3    C3 5223   2.388   3.846  10.579 -0.4014  0.2017 -0.8857
  345TMC3    C4 5224   2.254   3.695  10.398  0.2389  0.2696 -0.5477
  345TMC3    C5 5225   2.330   3.800  10.358 -0.8109  1.2172 -0.5712
  345TMC3    C6 5226   2.406   3.869  10.448 -0.4972 -0.0597  0.0199
  345TMC3     C 5227   2.191   3.531  10.571 -0.4055  0.4730 -0.0220
  345TMC3     O 5228   2.164   3.521  10.688  0.1651  0.4999 -1.2955
  345TMC3     H 5229   2.307   3.705  10.729  3.3481  1.5003  0.7757
  345TMC3    H1 5230   2.176   3.658  10.332 -0.3580 -0.0701  0.3604
  345TMC3    H2 5231   2.479   3.943  10.417 -0.6520  0.5314  1.0804
  345TMC3    C7 5232   2.263   3.895  10.275 -0.3156 -0.3273 -0.3833
  345TMC3    C8 5233   2.375   3.965  10.656 -0.6452 -0.8758  0.9178
  345TMC3    O1 5234   2.287   4.009  10.315 -0.2553  0.4154 -0.0823
  345TMC3    O2 5235   2.411   4.067  10.603 -0.5024  0.1162 -0.8019
  346MPD2     C 5236   2.028   0.620  14.633 -0.3682  0.7399 -0.6555
  346MPD2    C1 5237   2.074   0.688  14.528 -0.1075  0.5582  0.4211
  346MPD2    C2 5238   2.210   0.726  14.530  1.1296  0.2280  0.4493
  346MPD2    C3 5239   2.291   0.705  14.643  0.3168 -0.5618  0.4599
  346MPD2    C4 5240   2.234   0.643  14.746  0.1142  0.3760  0.9748
  346MPD2    C5 5241   2.107   0.601  14.743 -0.5032  0.0336 -0.3072
  346MPD2     H 5242   2.247   0.781  14.444  1.3178  0.0537  0.4201
  346MPD2    H1 5243   2.283   0.615  14.839  1.8628  1.7791  0.4714
  346MPD2    H2 5244   1.924   0.591  14.637 -0.6497  1.9406  0.4588
  346MPD2    H3 5245   2.066   0.553  14.831  2.4280 -0.4793  0.8046
  346MPD2     N 5246   2.427   0.728  14.634  0.1164  0.2592  0.6878
  346MPD2    H5 5247   2.462   0.780  14.554 -0.0958 -0.5952  0.0426
  346MPD2    N1 5248   2.000   0.709  14.411  0.2477  0.2800 -0.1344
  346MPD2    H7 5249   2.035   0.747  14.324  1.2349  0.4699  0.3498
  347TMC3    C1 5250   2.656   0.729  14.702 -0.4011  0.8508 -0.4754
  347TMC3    C2 5251   2.696   0.745  14.569  0.4539 -0.5022 -0.6683
  347TMC3    C3 5252   2.831   0.731  14.545  0.8708  0.4750  0.2897
  347TMC3    C4 5253   2.748   0.710  14.798  0.3878  0.3443 -0.4417
  347TMC3    C5 5254   2.883   0.709  14.776  0.0793  0.1996 -0.3361
  347TMC3    C6 5255   2.924   0.717  14.645  0.6762 -0.1560 -0.6663
  347TMC3     C 5256   2.517   0.687  14.730  0.6879  0.2992  0.3249
  347TMC3     O 5257   2.501   0.607  14.821  0.6999  0.0369  0.3523
  347TMC3     H 5258   2.623   0.739  14.489 -1.1012  0.4807  0.6374
  347TMC3    H1 5259   2.705   0.682  14.894 -0.8825  0.3193 -1.0284
  347TMC3    H2 5260   3.029   0.699  14.623  0.6885  0.4629 -1.1271
  347TMC3    C7 5261   2.972   0.683  14.884 -0.2681  0.2443  0.4033
  347TMC3    C8 5262   2.870   0.676  14.416  0.3802 -0.5839 -0.4401
  347TMC3    O1 5263   2.925   0.627  14.980 -0.5509  0.4117 -0.3269
  347TMC3    O2 5264   2.790   0.603  14.355  0.1061 -0.4947  0.3499
  348MPD2     C 5265   1.127   4.535  12.246 -0.0273 -0.6057 -0.4954
  348MPD2    C1 5266   1.202   4.614  12.160  0.1098  0.1230  0.3004
  348MPD2    C2 5267   1.144   4.712  12.076  0.5087 -0.9220 -0.8167
  348MPD2    C3 5268   1.008   4.729  12.066 -0.3109  0.4784  0.7792
  348MPD2    C4 5269   0.932   4.649  12.144 -0.1858  0.7806 -0.7501
  348MPD2    C5 5270   0.988   4.549  12.234 -0.2929  0.4051 -0.1923
  348MPD2     H 5271   1.204   0.041  12.014  2.4618 -2.2849 -0.3377
  348MPD2    H1 5272   0.824   4.653  12.148 -0.0676  3.3224 -0.1214
  348MPD2    H2 5273   1.166   4.459  12.312  0.2188  0.4269  0.5314
  348MPD2    H3 5274   0.920   4.486  12.290  0.1455  0.2610  0.1829
  348MPD2     N 5275   0.947   0.077  11.969 -0.3867  0.2498 -0.1909
  348MPD2    H5 5276   1.010   0.139  11.919  0.7266 -2.5064 -2.1900
  348MPD2    N1 5277   1.338   4.572  12.161  0.0828  0.4828 -0.2775
  348MPD2    H7 5278   1.365   4.498  12.225 -2.2524 -1.0288 -1.0077
  349TMC3    C1 5279   1.504   4.487  12.032  0.8175 -0.2516  0.1656
  349TMC3    C2 5280   1.499   4.392  12.135  0.1632  0.5429 -0.0400
  349TMC3    C3 5281   1.417   4.283  12.112 -0.6948  0.5622 -0.7907
  349TMC3    C4 5282   1.459   4.460  11.908 -0.2419 -0.1195  0.6026
  349TMC3    C5 5283   1.367   4.357  11.898 -0.3372 -0.2492  1.0379
  349TMC3    C6 5284   1.344   4.267  12.000  0.3988  0.6523 -0.3646
  349TMC3     C 5285   1.429   4.602  12.063  0.2619  0.4246 -0.6486
  349TMC3     O 5286   1.429   4.690  11.976 -0.1005  0.3763 -0.4315
  349TMC3     H 5287   1.550   4.403  12.230  2.0149  1.6141 -1.1445
  349TMC3    H1 5288   1.491   4.518  11.822  0.8318  0.0074  1.0883
  349TMC3    H2 5289   1.261   4.197  12.003  0.5656  0.4897  0.2992
  349TMC3    C7 5290   1.248   4.392  11.818  0.0440  0.1320 -0.8172
  349TMC3    C8 5291   1.413   4.176  12.212 -0.3507  0.9635  0.1482
  349TMC3    O1 5292   1.162   4.312  11.791 -0.0468 -0.2126  0.4354
  349TMC3    O2 5293   1.456   4.209  12.322  0.0732  0.2991 -0.2691
  350MPD2     C 5294   4.334   2.919  10.184 -0.6754 -0.3458 -0.5682
  350MPD2    C1 5295   4.337   2.790  10.229 -0.3430 -0.5321  0.8482
  350MPD2    C2 5296   4.388   2.762  10.353 -0.5575  0.0737  1.0474
  350MPD2    C3 5297   4.428   2.861  10.444 -0.3483 -0.3436  0.1886
  350MPD2    C4 5298   4.430   2.991  10.398  0.3258  0.0590  0.2001
  350MPD2    C5 5299   4.379   3.018  10.273 -0.9297 -0.3205  0.0384
  350MPD2     H 5300   4.385   2.658  10.385 -0.2308 -0.0968  0.5150
  350MPD2    H1 5301   4.455   3.078  10.457  1.4352 -0.0829 -0.0628
  350MPD2    H2 5302   4.297   2.967  10.094  0.3068  1.0629 -0.2318
  350MPD2    H3 5303   4.370   3.121  10.241 -0.2583  0.8332  3.5095
  350MPD2     N 5304   4.453   2.829  10.585  0.0403  0.3728  0.3624
  350MPD2    H5 5305   4.436   2.732  10.608  2.0262  0.2989  1.4970
  350MPD2    N1 5306   4.286   2.687  10.150  0.3183  0.1244  0.1419
  350MPD2    H7 5307   4.289   2.590  10.179 -2.6631 -0.0407 -0.1427
  351TMC3    C1 5308   4.151   2.575   9.992  0.7725  0.1486  0.1038
  351TMC3    C2 5309   4.223   2.454  10.012 -0.8931  0.1610  0.3218
  351TMC3    C3 5310   4.164   2.330   9.977  0.2196 -0.9899  0.4621
  351TMC3    C4 5311   4.029   2.571   9.927 -0.1669  0.0739 -0.5031
  351TMC3    C5 5312   3.972   2.446   9.895  0.5781  0.0270  0.8623
  351TMC3    C6 5313   4.042   2.327   9.914  0.3835 -0.3577 -0.2357
  351TMC3     C 5314   4.202   2.706  10.040  0.4576 -0.0334 -0.0085
  351TMC3     O 5315   4.140   2.803  10.000 -0.0361  0.1508 -0.1065
  351TMC3     H 5316   4.324   2.460  10.051 -0.9826 -2.1971  0.8848
  351TMC3    H1 5317   3.968   2.657   9.905 -1.9267 -1.3691 -1.3280
  351TMC3    H2 5318   4.000   2.235   9.876  3.6537 -1.0924 -2.0582
  351TMC3    C7 5319   3.836   2.439   9.847 -0.2998  0.2108 -0.2661
  351TMC3    C8 5320   4.257   2.217   9.975 -0.1303 -0.2031  0.0294
  351TMC3    O1 5321   3.790   2.521   9.775  0.0851 -0.6462  0.0216
  351TMC3    O2 5322   4.370   2.243  10.023 -0.1743 -0.6083  0.3263
  352MPD2     C 5323   3.285   0.483   1.217  1.2051  0.3610  0.0367
  352MPD2    C1 5324   3.185   0.403   1.168  0.0757 -0.5273  0.3427
  352MPD2    C2 5325   3.206   0.269   1.172  0.3381  0.1910 -0.1737
  352MPD2    C3 5326   3.321   0.213   1.213 -0.4662  0.4283  0.2664
  352MPD2    C4 5327   3.421   0.294   1.262  0.2869  0.2838  0.5334
  352MPD2    C5 5328   3.403   0.431   1.269  0.3506  0.3149 -0.1737
  352MPD2     H 5329   3.120   0.211   1.141  0.3235  0.2730 -0.2869
  352MPD2    H1 5330   3.508   0.253   1.311 -0.7919  0.1999  2.3957
  352MPD2    H2 5331   3.275   0.591   1.212  1.5863  0.3507 -1.0813
  352MPD2    H3 5332   3.482   0.498   1.301  1.4056 -1.5370  1.0863
  352MPD2     N 5333   3.358   0.075   1.209 -0.7559 -0.5275  0.5190
  352MPD2    H5 5334   3.448   0.048   1.248 -0.6540 -1.5934 -0.4763
  352MPD2    N1 5335   3.063   0.467   1.142 -0.0330  0.6559  0.8514
  352MPD2    H7 5336   3.059   0.567   1.161  0.2999  0.7673  0.3340
  353TMC3    C1 5337   3.330   4.580   1.139  0.2210  0.0576 -0.3018
  353TMC3    C2 5338   3.466   4.558   1.148  0.6749 -0.3567 -0.0979
  353TMC3    C3 5339   3.506   4.438   1.093 -0.0280  0.6535 -0.6645
  353TMC3    C4 5340   3.234   4.493   1.098 -0.3480  0.0692  0.3510
  353TMC3    C5 5341   3.282   4.379   1.045  0.3941  0.6972  0.4193
  353TMC3    C6 5342   3.413   4.346   1.044  0.1880  0.1664  0.1457
  353TMC3     C 5343   3.275   4.714   1.164 -0.0580  0.6387 -0.2633
  353TMC3     O 5344   3.163   4.723   1.111 -0.4929 -0.1325 -0.0589
  353TMC3     H 5345   3.546   4.627   1.169  0.1173  0.4384 -0.5793
  353TMC3    H1 5346   3.127   4.511   1.097 -0.5013 -0.9625 -2.2068
  353TMC3    H2 5347   3.442   4.256   0.990  0.1009 -0.1421  0.6180
  353TMC3    C7 5348   3.183   4.280   1.006 -0.8496  0.1465 -0.3388
  353TMC3    C8 5349   3.645   4.390   1.102  0.0193  0.1228  0.5430
  353TMC3    O1 5350   3.205   4.161   1.032 -0.3111 -1.1449 -0.0782
  353TMC3    O2 5351   3.743   4.461   1.117  0.1133 -0.3074  0.2268
  354TMC3    C1 5352   0.088   1.233  13.787  0.0221 -0.1928  0.4352
  354TMC3    C2 5353   0.149   1.355  13.803  0.2544  0.0194 -0.4409
  354TMC3    C3 5354   0.174   1.433  13.686 -0.1302 -0.0412  0.0994
  354TMC3    C4 5355   0.069   1.178  13.659 -0.5509  0.0448  0.7364
  354TMC3    C5 5356   0.105   1.258  13.555 -0.1841  0.3577 -0.2527
  354TMC3    C6 5357   0.151   1.385  13.561 -0.0878 -0.1981 -0.4002
  354TMC3     C 5358   0.090   1.141  13.901 -0.3210 -0.2493 -0.0714
  354TMC3     O 5359   0.091   1.022  13.874 -0.5360  0.2334 -0.2661
  354TMC3     H 5360   0.167   1.401  13.900  0.4004  1.6725 -1.2418
  354TMC3    H1 5361   0.038   1.076  13.641  1.9594 -0.5879  0.0293
  354TMC3    H2 5362   0.159   1.443  13.470  0.5195  0.8126  0.3032
  354TMC3    C7 5363   0.096   1.192  13.428 -0.2756  0.4139 -0.1887
  354TMC3    C8 5364   0.215   1.569  13.701 -0.1566  0.1182  0.0793
  354TMC3    O1 5365   0.006   1.108  13.411  0.0600  0.1041  0.2918
  354TMC3    O2 5366   0.277   1.585  13.805  0.1434  0.0413  0.7278
  355MPD2     C 5367   4.730   2.310  11.945 -0.6065  0.4308  0.2096
  355MPD2    C1 5368   0.095   2.285  11.850  0.4118  0.4800 -0.0763
  355MPD2    C2 5369   0.223   2.265  11.897 -0.1163 -0.2042  0.4194
  355MPD2    C3 5370   0.252   2.265  12.033  0.1980  0.9950 -0.0161
  355MPD2    C4 5371   0.151   2.280  12.122  0.6100  0.4384 -0.4051
  355MPD2    C5 5372   0.023   2.291  12.076 -0.2128  0.5520 -0.4202
  355MPD2     H 5373   0.299   2.235  11.827 -1.3337  0.0687 -1.0105
  355MPD2    H1 5374   0.160   2.264  12.228  1.5089 -2.1866 -0.8702
  355MPD2    H2 5375   4.634   2.343  11.909 -1.3599 -0.6409  1.2262
  355MPD2    H3 5376   4.684   2.313  12.150 -0.9854 -0.3467 -0.9472
  355MPD2     N 5377   0.381   2.268  12.082  0.6929  0.2717 -0.1855
  355MPD2    H5 5378   0.387   2.284  12.183  0.1814 -3.0570  0.3712
  355MPD2    N1 5379   0.062   2.287  11.709  0.3115  0.1610 -0.4703
  355MPD2    H7 5380   4.700   2.284  11.684  0.0816  2.0697  0.1994
  356TMC3    C1 5381   0.612   2.335  12.055  0.1961  0.1814  0.0212
  356TMC3    C2 5382   0.689   2.377  11.950  0.7993 -0.0323 -0.1121
  356TMC3    C3 5383   0.776   2.484  11.974 -1.0676  0.3699 -0.2337
  356TMC3    C4 5384   0.602   2.400  12.175 -0.3438 -0.5012  0.0824
  356TMC3    C5 5385   0.696   2.499  12.194 -0.4054  0.3592 -0.5369
  356TMC3    C6 5386   0.771   2.550  12.097  0.1803 -0.3244  0.3040
  356TMC3     C 5387   0.494   2.263  12.003 -0.2059 -0.1927  0.1613
  356TMC3     O 5388   0.506   2.232  11.885 -0.2454  0.0042  0.1978
  356TMC3     H 5389   0.694   2.325  11.855  0.0853 -0.1269 -0.0957
  356TMC3    H1 5390   0.553   2.346  12.255 -0.8372 -0.0376  0.0965
  356TMC3    H2 5391   0.841   2.633  12.099 -0.8105  0.4967  0.3774
  356TMC3    C7 5392   0.668   2.569  12.317 -0.4860 -0.0331 -0.0602
  356TMC3    C8 5393   0.856   2.520  11.860 -0.2639 -0.5010 -0.1609
  356TMC3    O1 5394   0.561   2.538  12.372 -0.0851  0.4426 -0.3147
  356TMC3    O2 5395   0.854   2.447  11.762 -0.0114 -0.7531 -0.1532
  357MPD2     C 5396   4.719   2.414   2.086 -0.2003  0.2248 -0.0149
  357MPD2    C1 5397   4.682   2.351   1.972  0.6646 -0.3353 -0.1922
  357MPD2    C2 5398   4.547   2.330   1.947  0.5526 -0.1270 -0.0409
  357MPD2    C3 5399   4.453   2.387   2.032  0.0314 -0.4274  0.3297
  357MPD2    C4 5400   4.493   2.453   2.147  0.7569  0.6822 -0.3309
  357MPD2    C5 5401   4.632   2.468   2.171 -0.5814  0.4239  0.1138
  357MPD2     H 5402   4.517   2.282   1.855 -2.0507 -0.8892  1.1991
  357MPD2    H1 5403   4.429   2.521   2.203  0.6555  3.0938 -3.3568
  357MPD2    H2 5404   0.088   2.428   2.108 -0.1019  0.8526 -0.8668
  357MPD2    H3 5405   4.662   2.530   2.254 -1.2610  1.8771 -0.7298
  357MPD2     N 5406   4.319   2.393   1.998 -0.6843 -0.2740  0.0734
  357MPD2    H5 5407   4.260   2.447   2.060  0.4453  1.5926 -0.4638
  357MPD2    N1 5408   0.047   2.306   1.877  0.0060 -0.0486 -0.2639
  357MPD2    H7 5409   0.141   2.311   1.914  0.2696  0.8895 -1.0429
  358TMC3    C1 5410   0.122   2.198   1.674  0.1150 -0.0513  0.0537
  358TMC3    C2 5411   0.077   2.141   1.567  0.2876 -0.0896 -0.1698
  358TMC3    C3 5412   0.150   2.042   1.507  0.1003  0.0863 -0.0390
  358TMC3    C4 5413   0.245   2.168   1.731  0.0279 -0.0540  0.0218
  358TMC3    C5 5414   0.326   2.077   1.661 -0.1673  0.0131  0.2137
  358TMC3    C6 5415   0.272   1.998   1.559  0.1518  0.4067  0.3912
  358TMC3     C 5416   0.019   2.266   1.746  0.1313  0.1959  0.1842
  358TMC3     O 5417   4.645   2.253   1.697 -0.1017  0.1960  0.4764
  358TMC3     H 5418   0.009   2.202   1.508  0.7561 -0.5597 -1.2091
  358TMC3    H1 5419   0.277   2.237   1.808  0.4318 -0.9261  0.6327
  358TMC3    H2 5420   0.335   1.955   1.482 -1.2946 -0.4028 -0.3605
  358TMC3    C7 5421   0.470   2.085   1.689 -0.0856  0.2621  0.4305
  358TMC3    C8 5422   0.091   1.951   1.412 -0.1818 -0.0614  0.3670
  358TMC3    O1 5423   0.543   1.993   1.653  0.0163 -0.3640 -0.2133
  358TMC3    O2 5424   0.159   1.871   1.348  0.0839 -0.5586  0.7190
  359MPD2     C 5425   0.738   0.329  12.846  0.6171 -0.3997  0.0268
  359MPD2    C1 5426   0.699   0.335  12.714  0.4225  0.2172  0.0325
  359MPD2    C2 5427   0.572   0.297  12.678 -0.0604  0.5024  0.1577
  359MPD2    C3 5428   0.478   0.263  12.773  0.2795 -0.2606  0.5707
  359MPD2    C4 5429   0.521   0.261  12.905 -0.2576  0.9027  0.6023
  359MPD2    C5 5430   0.650   0.291  12.940  0.4049  0.4434  0.5354
  359MPD2     H 5431   0.541   0.301  12.574 -1.2583  1.1284  0.5433
  359MPD2    H1 5432   0.466   0.224  12.991 -0.2025 -1.5909 -0.4299
  359MPD2    H2 5433   0.834   0.370  12.877  1.1103 -1.2135 -0.4284
  359MPD2    H3 5434   0.690   0.291  13.041  1.0756 -1.7016  0.2867
  359MPD2     N 5435   0.350   0.221  12.745  0.0277  0.6428  0.1588
  359MPD2    H5 5436   0.295   0.194  12.826  0.6589  0.4075  0.5164
  359MPD2    N1 5437   0.780   0.363  12.599  0.3536 -0.4573  0.2152
  359MPD2    H7 5438   0.739   0.361  12.507 -1.7465 -0.0559  1.1556
  360TMC3    C1 5439   0.958   0.450  12.469  0.6992 -0.3593  0.6736
  360TMC3    C2 5440   1.029   0.570  12.479 -0.1309  0.7461 -0.0223
  360TMC3    C3 5441   1.023   0.659  12.371  0.2145  0.3226  0.1723
  360TMC3    C4 5442   0.877   0.420  12.360  0.8785 -0.4359  0.3942
  360TMC3    C5 5443   0.867   0.515  12.259  0.3846  0.2105 -0.6059
  360TMC3    C6 5444   0.947   0.630  12.261 -0.1050  0.3478  0.3967
  360TMC3     C 5445   0.909   0.413  12.605  0.3978  0.5989 -0.0666
  360TMC3     O 5446   0.981   0.435  12.699  0.5301  0.3662  0.2334
  360TMC3     H 5447   1.105   0.576  12.557 -0.5523  0.8890  0.3724
  360TMC3    H1 5448   0.828   0.323  12.355  0.2089 -0.1309  0.9431
  360TMC3    H2 5449   0.915   0.711  12.196 -0.0406  2.0845  2.5491
  360TMC3    C7 5450   0.757   0.507  12.162  0.4383 -0.8453 -1.2108
  360TMC3    C8 5451   1.147   0.728  12.336  0.1548 -0.6966 -0.4584
  360TMC3    O1 5452   0.744   0.607  12.088 -0.4291  0.3082 -0.6114
  360TMC3    O2 5453   1.224   0.750  12.425  0.6064 -0.6623  0.6394
  361MPD2     C 5454   1.994   4.070  16.603  0.2145 -0.1905 -0.3191
  361MPD2    C1 5455   2.023   4.144  16.715  0.3761 -0.3064  0.1925
  361MPD2    C2 5456   2.120   4.104  16.800  0.1145  0.3271  0.3356
  361MPD2    C3 5457   2.184   3.977  16.787 -0.2433  0.2041  1.2057
  361MPD2    C4 5458   2.146   3.902  16.674  0.3877  0.4694  0.8980
  361MPD2    C5 5459   2.051   3.951  16.587 -0.0784  0.5845  0.5336
  361MPD2     H 5460   2.147   4.163  16.887 -1.9865  0.8666  0.6231
  361MPD2    H1 5461   2.203   3.812  16.652  0.4592  1.1899 -1.8396
  361MPD2    H2 5462   1.929   4.110  16.526  1.2378  1.9174 -0.0961
  361MPD2    H3 5463   2.021   3.899  16.497 -0.0142 -0.7476  1.2715
  361MPD2     N 5464   2.293   3.938  16.869  0.8376  0.5447  0.2535
  361MPD2    H5 5465   2.341   3.856  16.831  0.2198 -0.2592  1.2042
  361MPD2    N1 5466   1.950   4.256  16.764  0.1504  0.2203 -0.2025
  361MPD2    H7 5467   1.983   4.307  16.845 -1.1410  0.2093  0.3399
  362TMC3    C1 5468   1.798   4.433  16.782 -0.1071 -0.2377  0.4542
  362TMC3    C2 5469   1.829   4.450  16.918 -0.1642  0.3337 -0.3726
  362TMC3    C3 5470   1.757   4.540  16.983  0.1388  0.3332  0.2005
  362TMC3    C4 5471   1.691   4.500  16.723  0.1923  0.2294 -0.4119
  362TMC3    C5 5472   1.611   4.576  16.803 -0.0588 -0.3456 -0.0714
  362TMC3    C6 5473   1.646   4.607  16.935 -0.5735 -0.1282 -0.3788
  362TMC3     C 5474   1.850   4.317  16.703  0.2189 -0.0528 -0.5829
  362TMC3     O 5475   1.798   4.295  16.594  0.4905 -0.2652  0.2217
  362TMC3     H 5476   1.925   4.433  16.965 -0.0981 -0.1903 -0.7008
  362TMC3    H1 5477   1.685   4.500  16.615  2.4498  0.5007 -0.5319
  362TMC3    H2 5478   1.585   4.672  16.997  1.7619  2.0069 -0.3419
  362TMC3    C7 5479   1.518   4.667  16.745 -0.3963 -0.8142 -0.4178
  362TMC3    C8 5480   1.782   4.552  17.132  0.5541 -0.1589 -0.0213
  362TMC3    O1 5481   1.502   0.036  16.805  0.1765  0.3492  0.4483
  362TMC3    O2 5482   1.816   4.454  17.198  0.1219 -0.3260 -0.5395
  363TMC3    C1 5483   1.189   1.794  10.000 -0.4546  0.1256  0.7147
  363TMC3    C2 5484   1.084   1.726   9.947 -0.4792 -0.3058 -0.0306
  363TMC3    C3 5485   0.964   1.786   9.920 -0.1113 -0.2241 -0.2161
  363TMC3    C4 5486   1.174   1.925  10.039 -0.4391  0.4278 -0.7774
  363TMC3    C5 5487   1.058   1.992  10.008 -0.3574 -0.1935  1.0681
  363TMC3    C6 5488   0.950   1.923   9.948  0.0410 -0.2358  0.2271
  363TMC3     C 5489   1.325   1.724  10.014 -0.4476  0.3936 -0.0765
  363TMC3     O 5490   1.417   1.796  10.052  0.5618 -0.2935  0.2940
  363TMC3     H 5491   1.098   1.628   9.904 -0.8447 -0.8089  0.9904
  363TMC3    H1 5492   1.252   1.982  10.089 -0.0969 -0.7458  0.0325
  363TMC3    H2 5493   0.861   1.980   9.923 -0.5620 -0.9614  0.7253
  363TMC3    C7 5494   1.081   2.127   9.961  0.0875  0.2537  0.4826
  363TMC3    C8 5495   0.845   1.718   9.877  0.7734  0.3011 -0.4139
  363TMC3    O1 5496   1.190   2.158   9.923  0.3499 -0.0398  0.0864
  363TMC3    O2 5497   0.749   1.787   9.844 -0.2222 -0.0931 -0.4504
  364MPD2     C 5498   3.856   1.352  10.325 -0.2080 -0.0483  0.1599
  364MPD2    C1 5499   3.938   1.449  10.379 -0.1946  0.0457 -0.7997
  364MPD2    C2 5500   3.988   1.428  10.507 -0.0371 -0.1531  0.1400
  364MPD2    C3 5501   3.977   1.309  10.571 -0.2903  0.7129  0.2448
  364MPD2    C4 5502   3.900   1.210  10.516  0.8827  0.2040 -0.2363
  364MPD2    C5 5503   3.838   1.230  10.390  0.6833  0.2322  0.3867
  364MPD2     H 5504   4.039   1.509  10.558  1.1321 -2.0305  1.9934
  364MPD2    H1 5505   3.898   1.113  10.565 -0.8808 -0.6745 -2.0269
  364MPD2    H2 5506   3.805   1.353  10.230 -0.6290 -0.7967  0.3798
  364MPD2    H3 5507   3.762   1.162  10.352  2.6959 -3.0619  2.3004
  364MPD2     N 5508   4.038   1.281  10.690 -0.2425 -0.5019 -0.3217
  364MPD2    H5 5509   4.007   1.207  10.752  1.1513 -0.1207  0.8378
  364MPD2    N1 5510   3.969   1.565  10.303 -0.2969  0.5940  0.4816
  364MPD2    H7 5511   3.970   1.557  10.202 -0.3587  0.5380  0.4851
  365TMC3    C1 5512   4.115   1.754  10.284  0.2358  0.3005  0.0413
  365TMC3    C2 5513   4.227   1.679  10.255 -0.1091 -0.3223  0.1829
  365TMC3    C3 5514   4.347   1.743  10.262 -0.4488  0.0011 -0.2523
  365TMC3    C4 5515   4.123   1.891  10.309 -0.7199 -0.3444 -0.0646
  365TMC3    C5 5516   4.242   1.956  10.301  0.5335  0.5866  1.2888
  365TMC3    C6 5517   4.354   1.880  10.276  0.0917 -0.1401  0.6679
  365TMC3     C 5518   4.002   1.691  10.356  0.4880 -0.3225 -0.1821
  365TMC3     O 5519   3.973   1.732  10.467  0.3073  1.3004 -0.3848
  365TMC3     H 5520   4.222   1.576  10.222  1.1023 -0.5137  0.5748
  365TMC3    H1 5521   4.032   1.949  10.323 -0.1435  0.6708 -0.4902
  365TMC3    H2 5522   4.451   1.925  10.296 -0.0443 -0.0972  1.2528
  365TMC3    C7 5523   4.271   2.062  10.399 -0.4103 -0.1373  0.1594
  365TMC3    C8 5524   4.463   1.667  10.302 -0.7463  0.3417  0.1021
  365TMC3    O1 5525   4.320   2.164  10.354  0.3147 -0.2116  0.4819
  365TMC3    O2 5526   4.567   1.727  10.324 -0.6507 -0.2186 -0.0639
  366MPD2     C 5527   2.058   2.576  15.651  0.0777  0.2622  0.2271
  366MPD2    C1 5528   2.191   2.627  15.667  0.5511  0.2871 -0.0727
  366MPD2    C2 5529   2.300   2.541  15.646  0.4892  0.8556 -0.2797
  366MPD2    C3 5530   2.280   2.404  15.628  0.4546 -0.5129  0.1567
  366MPD2    C4 5531   2.152   2.354  15.622 -0.2816  0.0452  0.3902
  366MPD2    C5 5532   2.042   2.444  15.618 -0.0770 -0.2904 -0.0948
  366MPD2     H 5533   2.401   2.579  15.651  0.4297  0.7715  1.6733
  366MPD2    H1 5534   2.135   2.250  15.596 -0.8343  0.2928 -0.2340
  366MPD2    H2 5535   1.967   2.635  15.658 -1.7924 -2.7120  0.8514
  366MPD2    H3 5536   1.947   2.412  15.576  1.9669 -4.5046 -1.4836
  366MPD2     N 5537   2.395   2.323  15.608  0.0597 -0.0207 -0.0831
  366MPD2    H5 5538   2.487   2.365  15.612  1.3373 -3.0016  2.0118
  366MPD2    N1 5539   2.211   2.761  15.685  0.3343  0.0300 -0.0140
  366MPD2    H7 5540   2.302   2.793  15.718 -0.6856  1.2913  1.5696
  367TMC3    C1 5541   2.191   2.985  15.623 -0.3939 -0.7985  0.0223
  367TMC3    C2 5542   2.273   3.014  15.729 -0.3793  0.4182  0.3397
  367TMC3    C3 5543   2.327   3.136  15.737 -0.8305 -0.0663  0.2374
  367TMC3    C4 5544   2.181   3.069  15.516  0.4925  0.1064  0.3524
  367TMC3    C5 5545   2.243   3.192  15.528  0.2107  0.1753 -0.2896
  367TMC3    C6 5546   2.316   3.226  15.637 -0.1958 -0.0008  0.1707
  367TMC3     C 5547   2.141   2.851  15.605  0.2280 -0.7109 -0.1953
  367TMC3     O 5548   2.053   2.828  15.521 -0.0898  0.1336  0.2732
  367TMC3     H 5549   2.278   2.951  15.817 -1.4366  1.6629  1.2890
  367TMC3    H1 5550   2.119   3.043  15.431  0.1256  0.7577  0.4160
  367TMC3    H2 5551   2.361   3.325  15.640 -0.9135  0.2662  1.9186
  367TMC3    C7 5552   2.214   3.299  15.439 -0.1866  0.5155  0.5257
  367TMC3    C8 5553   2.423   3.155  15.848  0.0577 -0.7496  0.1765
  367TMC3    O1 5554   2.213   3.414  15.481 -0.4573 -0.4389 -0.1510
  367TMC3    O2 5555   2.450   3.062  15.922  0.1059  0.3797  0.0904
  368MPD2     C 5556   3.255   0.082  13.300 -0.5368 -0.4709 -0.7420
  368MPD2    C1 5557   3.290   0.172  13.202  0.0736  0.1261  0.9530
  368MPD2    C2 5558   3.408   0.156  13.125 -0.1697  0.0632  0.3890
  368MPD2    C3 5559   3.489   0.045  13.160 -0.0887 -0.1214  0.2870
  368MPD2    C4 5560   3.458   4.696  13.265 -0.0602  0.2745 -0.1501
  368MPD2    C5 5561   3.343   4.722  13.335 -0.5073  0.8985 -0.1519
  368MPD2     H 5562   3.420   0.217  13.037  1.5546 -1.1594 -0.2300
  368MPD2    H1 5563   3.510   4.606  13.295 -0.7203  0.3780  1.3089
  368MPD2    H2 5564   3.154   0.091  13.338 -0.8897 -0.9041 -1.5795
  368MPD2    H3 5565   3.315   4.653  13.414 -0.5117  2.1745  0.9812
  368MPD2     N 5566   3.602   0.026  13.079  0.0688  0.5162 -0.4874
  368MPD2    H5 5567   3.621   0.095  13.006 -1.2447 -1.1582 -2.4244
  368MPD2    N1 5568   3.211   0.285  13.191 -0.2539  0.0736  0.4157
  368MPD2    H7 5569   3.138   0.299  13.261  0.4459  2.1172  0.7258
  369TMC3    C1 5570   3.102   0.473  13.116  0.3396  0.5357 -0.3474
  369TMC3    C2 5571   3.109   0.582  13.033 -0.1069 -0.8533 -0.2202
  369TMC3    C3 5572   2.990   0.647  13.015  0.0832  0.1525  0.4501
  369TMC3    C4 5573   2.984   0.428  13.176 -0.7533 -0.1785 -0.3799
  369TMC3    C5 5574   2.877   0.501  13.157  0.3682 -0.3228 -0.2738
  369TMC3    C6 5575   2.877   0.611  13.076 -0.5460 -0.1870 -0.4934
  369TMC3     C 5576   3.220   0.393  13.105 -0.2598  0.2593 -0.2606
  369TMC3     O 5577   3.297   0.421  13.015 -0.5488 -0.8133  0.5625
  369TMC3     H 5578   3.199   0.625  12.989  0.2562 -1.9372 -0.5239
  369TMC3    H1 5579   2.972   0.331  13.224 -1.4287 -0.8356 -1.8860
  369TMC3    H2 5580   2.783   0.661  13.055 -1.0830 -0.7415  0.6368
  369TMC3    C7 5581   2.784   0.494  13.269 -0.7777 -0.8525 -0.2617
  369TMC3    C8 5582   2.979   0.746  12.912  0.2978  0.0163  0.0021
  369TMC3    O1 5583   2.819   0.417  13.357 -0.0889 -0.2655  0.0779
  369TMC3    O2 5584   2.913   0.843  12.944  0.4309 -0.2681 -0.0453
  370TMC3    C1 5585   3.120   0.351  16.385  0.1537  0.3486  1.2529
  370TMC3    C2 5586   3.044   0.279  16.478 -0.4664  0.0888  0.0266
  370TMC3    C3 5587   3.050   0.144  16.474  0.3051  0.0052  0.0154
  370TMC3    C4 5588   3.180   0.286  16.281 -0.2627  0.5019 -0.0117
  370TMC3    C5 5589   3.191   0.149  16.287 -0.5578  0.0909 -0.3821
  370TMC3    C6 5590   3.129   0.072  16.382  0.3723  0.0127  0.1391
  370TMC3     C 5591   3.179   0.474  16.439  0.8125  0.4070  0.7983
  370TMC3     O 5592   3.196   0.480  16.562  0.4086 -0.4314 -0.0913
  370TMC3     H 5593   3.012   0.333  16.567  2.3104  0.3880  0.8602
  370TMC3    H1 5594   3.252   0.343  16.224 -1.4691  1.2464 -0.7716
  370TMC3    H2 5595   3.139   4.701  16.385  2.8576  0.1896 -2.0736
  370TMC3    C7 5596   3.277   0.082  16.189  0.5651 -0.2208 -0.6078
  370TMC3    C8 5597   3.015   0.066  16.597 -0.7317 -0.0486  0.3888
  370TMC3    O1 5598   3.277   0.137  16.076 -0.4693  0.1628 -0.2014
  370TMC3    O2 5599   3.089   4.713  16.636 -0.0669 -0.1226 -0.0713
  371TMC3    C1 5600   4.582   3.600  15.838 -0.1520 -0.4305  0.1979
  371TMC3    C2 5601   4.559   3.554  15.962  0.1008  0.1249  0.5122
  371TMC3    C3 5602   4.576   3.643  16.065  0.7737 -0.6560 -0.6464
  371TMC3    C4 5603   4.626   3.726  15.807  0.3007  0.1912 -0.0213
  371TMC3    C5 5604   4.659   3.805  15.914  0.0732 -0.6145  0.1626
  371TMC3    C6 5605   4.622   3.768  16.039  0.7952  0.6614 -0.1642
  371TMC3     C 5606   4.581   3.503  15.721 -0.2528 -0.5474 -0.8084
  371TMC3     O 5607   4.610   3.546  15.610  0.0637  0.3244 -0.4985
  371TMC3     H 5608   4.521   3.456  15.988  3.2817 -0.8939  1.3655
  371TMC3    H1 5609   4.626   3.758  15.704 -0.5441  0.9625  0.2180
  371TMC3    H2 5610   4.628   3.849  16.111 -1.0788  0.3075  0.3880
  371TMC3    C7 5611   4.690   3.945  15.885  0.1231 -0.2137 -0.3499
  371TMC3    C8 5612   4.498   3.606  16.183  0.9002  0.4829 -0.0120
  371TMC3    O1 5613   4.665   4.028  15.970 -0.1304  0.0119  0.4968
  371TMC3    O2 5614   4.490   3.489  16.218  0.0456  0.0526 -0.2409
  372MPD2     C 5615   3.891   0.252  13.307  0.5964  0.3462  0.3829
  372MPD2    C1 5616   3.989   0.155  13.321 -0.3413 -0.6583  0.4113
  372MPD2    C2 5617   3.976   0.069  13.427  0.4083  0.4220  0.0202
  372MPD2    C3 5618   3.859   0.063  13.505  0.8597 -0.3416 -0.1827
  372MPD2    C4 5619   3.750   0.146  13.474 -0.3047 -0.5961 -0.2715
  372MPD2    C5 5620   3.768   0.245  13.375  0.5481  0.4997 -0.1977
  372MPD2     H 5621   4.057   4.735  13.445  0.3411  0.7170  1.5054
  372MPD2    H1 5622   3.658   0.149  13.531  0.0809  0.6446  0.2816
  372MPD2    H2 5623   3.903   0.339  13.244  0.8089 -0.7906 -1.1223
  372MPD2    H3 5624   3.687   0.315  13.361 -0.8290 -0.8672  0.9372
  372MPD2     N 5625   3.862   4.708  13.616 -0.2720  0.1548 -0.4254
  372MPD2    H5 5626   3.946   4.655  13.637 -1.4071 -1.1743  0.7510
  372MPD2    N1 5627   4.105   0.156  13.247 -0.7144 -0.4527 -0.2677
  372MPD2    H7 5628   4.175   0.085  13.267 -0.0088  0.6606  1.1532
  373TMC3    C1 5629   3.765   4.575  13.797 -0.2021  0.2574 -0.4387
  373TMC3    C2 5630   3.658   4.570  13.879  0.0340  0.1286  0.0442
  373TMC3    C3 5631   3.652   4.476  13.974  0.3835 -0.6748 -0.5481
  373TMC3    C4 5632   3.861   4.479  13.801 -0.2608 -0.9456  0.3503
  373TMC3    C5 5633   3.852   4.391  13.896 -0.9343 -0.6948  0.1537
  373TMC3    C6 5634   3.747   4.380  13.983  0.0288 -0.3619  0.0688
  373TMC3     C 5635   3.748   4.670  13.682 -0.3015  0.3396  0.2423
  373TMC3     O 5636   3.633   4.701  13.652 -0.1017  0.2282  0.0498
  373TMC3     H 5637   3.570   4.633  13.876 -1.0277 -1.3256  0.9485
  373TMC3    H1 5638   3.953   4.486  13.744  0.5623 -1.4637  1.6246
  373TMC3    H2 5639   3.743   4.300  14.055 -1.3210  0.3511  0.7873
  373TMC3    C7 5640   3.975   4.311  13.922  0.5359 -0.4986 -0.1527
  373TMC3    C8 5641   3.552   4.495  14.082  0.1091  0.3484  0.3435
  373TMC3    O1 5642   4.082   4.354  13.881  0.2592 -1.0801  0.1197
  373TMC3    O2 5643   3.440   4.522  14.047 -0.3316 -0.2756  0.1796
  374TMC3    C1 5644   4.157   0.221  10.013 -0.2928 -0.2367  0.6140
  374TMC3    C2 5645   4.191   0.315  10.105 -0.2703  0.4510  0.2115
  374TMC3    C3 5646   4.239   0.437  10.060  0.2089  0.7297 -0.4807
  374TMC3    C4 5647   4.172   0.254   9.877 -0.0489 -0.5946  0.1229
  374TMC3    C5 5648   4.219   0.379   9.841  0.9394 -0.5198 -0.5053
  374TMC3    C6 5649   4.257   0.471   9.930  0.1776  0.9589  0.1081
  374TMC3     C 5650   4.070   0.110  10.051 -0.7231  0.5351 -0.1884
  374TMC3     O 5651   4.039   0.029   9.963  0.0195  0.4211  0.1097
  374TMC3     H 5652   4.177   0.299  10.212 -1.7958  2.2136  0.2687
  374TMC3    H1 5653   4.131   0.178   9.812  1.3792  0.3534 -1.8463
  374TMC3    H2 5654   4.287   0.571   9.900  0.7926  0.8110  0.2401
  374TMC3    C7 5655   4.208   0.431   9.709  0.4593 -0.8386  0.1692
  374TMC3    C8 5656   4.279   0.547  10.149 -0.8595  0.1201 -0.0391
  374TMC3    O1 5657   4.240   0.545   9.670 -0.1679 -0.3092  0.4709
  374TMC3    O2 5658   4.299   0.654  10.100 -0.6243  0.0820 -0.4297
  375MPD2     C 5659   4.521   0.865  17.151 -0.2510  1.0932 -0.4108
  375MPD2    C1 5660   4.442   0.851  17.040 -0.3120 -0.7330  0.2588
  375MPD2    C2 5661   4.498   0.790  16.931 -0.2490 -0.2415 -0.3919
  375MPD2    C3 5662   4.633   0.751  16.926  0.0034 -0.1811  0.0020
  375MPD2    C4 5663   4.707   0.771  17.033 -0.2875 -0.5569 -0.4108
  375MPD2    C5 5664   4.655   0.822  17.148  0.7087  0.4221  0.9550
  375MPD2     H 5665   4.442   0.788  16.839 -0.6600 -0.4452 -0.1361
  375MPD2    H1 5666   0.077   0.751  17.021 -0.2754 -0.4674 -0.4472
  375MPD2    H2 5667   4.484   0.889  17.251  0.8509 -0.4107  0.3431
  375MPD2    H3 5668   4.708   0.835  17.242 -1.5917 -0.2838  2.3418
  375MPD2     N 5669   4.703   0.705  16.815  0.6605 -0.5056  0.1332
  375MPD2    H5 5670   0.068   0.710  16.821  0.7283  0.2476 -1.6069
  375MPD2    N1 5671   4.305   0.883  17.035 -0.6083 -0.7276  0.3676
  375MPD2    H7 5672   4.254   0.848  16.954 -2.0095  1.5138  0.2949
  376TMC3    C1 5673   0.010   0.654  16.587 -0.1216 -0.8738 -0.5355
  376TMC3    C2 5674   0.140   0.664  16.632 -0.1519 -0.1592 -0.2988
  376TMC3    C3 5675   0.226   0.666  16.528  0.4031 -0.4569  0.5559
  376TMC3    C4 5676   4.701   0.654  16.458  0.1132  0.4726  0.6019
  376TMC3    C5 5677   0.056   0.674  16.356  0.8944  0.7745 -0.3379
  376TMC3    C6 5678   0.188   0.671  16.392 -0.1067  0.4187 -1.3852
  376TMC3     C 5679   4.645   0.668  16.694 -0.3529  0.4040  0.1487
  376TMC3     O 5680   4.531   0.632  16.674  0.4112 -0.1695 -0.3190
  376TMC3     H 5681   0.175   0.680  16.733  2.3227 -1.8842 -0.8955
  376TMC3    H1 5682   4.596   0.666  16.435 -0.0717 -1.7002  0.3607
  376TMC3    H2 5683   0.266   0.653  16.318  0.6604  1.3878 -0.8033
  376TMC3    C7 5684   0.025   0.737  16.236  0.2343  0.0301 -0.6059
  376TMC3    C8 5685   0.371   0.708  16.547  0.0709 -0.4205 -0.3978
  376TMC3    O1 5686   0.117   0.799  16.191 -0.0032 -0.4399 -0.0955
  376TMC3    O2 5687   0.401   0.787  16.459  0.2824 -0.1742 -0.2168
  377MPD2     C 5688   3.065   0.078  12.359 -0.3641  0.0433 -0.2669
  377MPD2    C1 5689   2.989   0.190  12.387 -0.3222 -0.4751  0.4922
  377MPD2    C2 5690   2.884   0.186  12.479  0.2850 -0.3061  0.2488
  377MPD2    C3 5691   2.866   0.067  12.543  0.3713 -0.1704  0.4952
  377MPD2    C4 5692   2.946   4.693  12.524  0.4016 -0.5610 -0.6675
  377MPD2    C5 5693   3.055   4.704  12.436 -0.0862 -0.5706  0.1157
  377MPD2     H 5694   2.820   0.272  12.491 -0.2792 -0.6287 -0.4245
  377MPD2    H1 5695   2.921   4.594  12.561 -2.0166  0.1779 -0.3536
  377MPD2    H2 5696   3.142   0.074  12.283 -1.4108  0.0548 -1.3086
  377MPD2    H3 5697   3.111   4.612  12.428  1.4829  0.3132  1.0092
  377MPD2     N 5698   2.747   0.068  12.622  0.3555  0.1108 -0.4296
  377MPD2    H5 5699   2.696   0.155  12.633 -3.1969 -1.6997 -2.5211
  377MPD2    N1 5700   3.025   0.314  12.321  0.6641 -0.1292 -0.3366
  377MPD2    H7 5701   3.106   0.307  12.260 -1.9742  0.2557 -3.8773
  378TMC3    C1 5702   3.053   0.732  12.144  0.2499  0.0159  0.2452
  378TMC3    C2 5703   2.980   0.653  12.222  0.2385  0.5131 -0.2559
  378TMC3    C3 5704   3.050   0.540  12.271  0.3122  0.0542  0.1180
  378TMC3    C4 5705   3.188   0.712  12.117  0.1690 -0.3627  0.3888
  378TMC3    C5 5706   3.248   0.598  12.174 -0.6794 -0.6097 -0.9602
  378TMC3    C6 5707   3.184   0.518  12.264  0.0182 -0.3492  0.5047
  378TMC3     C 5708   2.982   0.826  12.060  0.3302  1.0808 -0.1003
  378TMC3     O 5709   2.869   0.854  12.090  1.2438  0.0204  0.5341
  378TMC3     H 5710   2.877   0.681  12.237  0.6266  2.9927 -2.1934
  378TMC3    H1 5711   3.256   0.776  12.061 -1.4557  0.3504 -0.7882
  378TMC3    H2 5712   3.231   0.442  12.325 -1.6110 -0.7078  1.3060
  378TMC3    C7 5713   3.393   0.578  12.161  0.3826  0.4077 -0.2968
  378TMC3    C8 5714   2.974   0.443  12.352 -0.2880  0.0688  0.3644
  378TMC3    O1 5715   3.450   0.551  12.266 -0.7609 -0.2533  0.1838
  378TMC3    O2 5716   2.872   0.473  12.411  0.3107 -0.0508 -0.6293
  379MPD2     C 5717   3.296   3.219  16.807  0.8391 -0.1058  0.0507
  379MPD2    C1 5718   3.357   3.165  16.703 -0.4914  0.0555 -0.4025
  379MPD2    C2 5719   3.484   3.107  16.723  0.3463 -0.0328  0.4710
  379MPD2    C3 5720   3.538   3.105  16.854  0.8394 -0.7713  0.3667
  379MPD2    C4 5721   3.471   3.162  16.957  0.6288  0.1065 -0.2681
  379MPD2    C5 5722   3.354   3.225  16.933  0.3033  0.1725 -0.6358
  379MPD2     H 5723   3.538   3.051  16.647  0.3096  1.7007 -0.8352
  379MPD2    H1 5724   3.522   3.160  17.052 -1.0425 -1.0230  0.6142
  379MPD2    H2 5725   3.206   3.278  16.792  1.0933  0.2048 -0.2632
  379MPD2    H3 5726   3.287   3.254  17.013 -1.0154 -0.9281 -1.3417
  379MPD2     N 5727   3.648   3.022  16.888  0.4088 -0.0385 -0.1330
  379MPD2    H5 5728   3.684   3.012  16.983 -0.2516  1.5273  0.2792
  379MPD2    N1 5729   3.289   3.156  16.579 -0.3718 -0.3000 -0.1610
  379MPD2    H7 5730   3.198   3.201  16.578 -0.1501  0.1668  0.8449
  380TMC3    C1 5731   3.221   3.055  16.370  0.0368 -0.1236  0.1164
  380TMC3    C2 5732   3.234   2.951  16.283 -0.2799  0.8811 -0.6740
  380TMC3    C3 5733   3.167   2.952  16.165  0.4060  0.5980  0.1306
  380TMC3    C4 5734   3.137   3.156  16.341 -0.1513 -0.5219 -0.1734
  380TMC3    C5 5735   3.064   3.149  16.225  0.5343 -0.4585 -0.7595
  380TMC3    C6 5736   3.081   3.053  16.133 -0.3061 -0.2550  0.0306
  380TMC3     C 5737   3.327   3.069  16.474 -0.1871  0.0915  0.6899
  380TMC3     O 5738   3.431   3.008  16.453  0.4316 -0.0211 -0.8945
  380TMC3     H 5739   3.304   2.874  16.313  0.4577  1.5280 -0.7440
  380TMC3    H1 5740   3.107   3.226  16.418  0.3142 -1.5370  0.9342
  380TMC3    H2 5741   3.027   3.057  16.039  0.0124  1.2890 -0.0934
  380TMC3    C7 5742   2.960   3.251  16.207  0.0485  0.6288 -0.0767
  380TMC3    C8 5743   3.249   2.906  16.053  0.9983  0.1281 -0.2915
  380TMC3    O1 5744   2.970   3.351  16.274 -0.2414 -0.5603  1.0236
  380TMC3    O2 5745   3.231   2.972  15.951 -0.5415  0.6058 -0.6602
  381TMC3    C1 5746   3.129   4.243  16.593 -0.0217 -0.1346  0.2751
  381TMC3    C2 5747   3.246   4.311  16.569  0.2585 -0.3801  0.8767
  381TMC3    C3 5748   3.265   4.423  16.647 -0.1890 -0.0689 -0.7159
  381TMC3    C4 5749   3.041   4.278  16.695 -0.4081 -0.3026 -0.2547
  381TMC3    C5 5750   3.071   4.390  16.775 -0.6074  0.0371 -0.1743
  381TMC3    C6 5751   3.186   4.456  16.756 -0.3663 -0.9217 -0.1303
  381TMC3     C 5752   3.110   4.119  16.529 -0.6629  0.2871  0.0275
  381TMC3     O 5753   2.999   4.063  16.541 -0.4345  0.3231  0.2692
  381TMC3     H 5754   3.315   4.293  16.488  0.2190 -0.1728  0.7988
  381TMC3    H1 5755   2.978   4.199  16.737  4.7700 -3.5313  1.5188
  381TMC3    H2 5756   3.207   4.533  16.829  0.0035 -0.4091 -0.7716
  381TMC3    C7 5757   3.050   4.375  16.913 -0.2032 -0.4352 -0.3002
  381TMC3    C8 5758   3.379   4.508  16.627 -0.5729 -0.0234 -0.3287
  381TMC3    O1 5759   3.146   4.340  16.983 -0.4561 -0.6266 -0.0013
  381TMC3    O2 5760   3.476   4.457  16.570  0.8085 -0.1300 -0.1272
  382MPD2     C 5761   2.918   2.089  16.877  0.2824 -0.3437  0.0345
  382MPD2    C1 5762   2.925   2.124  17.013  0.3315  0.0832 -0.2267
  382MPD2    C2 5763   2.878   2.039  17.111 -0.3315  0.0422  0.1482
  382MPD2    C3 5764   2.830   1.914  17.072  0.0947 -0.1516 -0.2572
  382MPD2    C4 5765   2.818   1.874  16.938  0.5403 -0.5147 -0.4067
  382MPD2    C5 5766   2.864   1.966  16.847  0.1551 -0.0859 -0.5654
  382MPD2     H 5767   2.894   2.067  17.214 -2.9276  1.3029  0.2203
  382MPD2    H1 5768   2.786   1.780  16.894  0.6259 -1.9082  2.4965
  382MPD2    H2 5769   2.958   2.158  16.804  1.5759 -1.3331 -0.1795
  382MPD2    H3 5770   2.861   1.929  16.745 -0.7231  2.0029 -1.2967
  382MPD2     N 5771   2.791   1.823  17.171 -0.9548 -0.0378 -0.0109
  382MPD2    H5 5772   2.755   1.738  17.130 -0.6635  0.1495 -0.6552
  382MPD2    N1 5773   2.977   2.244  17.066  1.0835  0.2519 -0.0037
  382MPD2    H7 5774   2.966   2.255  17.166  1.2684 -0.0520  0.0511
  383TMC3    C1 5775   2.779   1.718  17.369 -0.1476  0.1526  0.0437
  383TMC3    C2 5776   2.653   1.680  17.352 -0.1613 -0.8987 -0.4470
  383TMC3    C3 5777   2.594   1.613  17.457  0.1950 -0.2680 -0.9788
  383TMC3    C4 5778   2.852   1.682  17.476 -0.2582 -0.6916  0.5646
  383TMC3    C5 5779   2.787   1.636  17.582 -0.0662  0.7212  0.7024
  383TMC3    C6 5780   2.659   1.592  17.577  0.5399 -0.4770 -0.5275
  383TMC3     C 5781   2.818   1.839  17.303  0.2834  0.5510 -0.0110
  383TMC3     O 5782   2.889   1.913  17.368 -0.8971 -0.2942  0.2733
  383TMC3     H 5783   2.587   1.730  17.282  0.3389  2.4539  1.4767
  383TMC3    H1 5784   2.949   1.725  17.497 -0.9672  1.4582 -0.4674
  383TMC3    H2 5785   2.594   1.557  17.657  2.5775 -1.0882  0.8650
  383TMC3    C7 5786   2.852   1.660  17.714  0.4882 -0.4932 -0.2509
  383TMC3    C8 5787   2.451   1.603  17.463  0.2072 -0.2861  0.6502
  383TMC3    O1 5788   2.939   1.741  17.719 -0.2166  0.3504  0.2662
  383TMC3    O2 5789   2.378   1.696  17.428 -0.3915  0.2642  0.5122
  384MPD2     C 5790   3.578   2.517  12.667 -0.1774 -0.2940  0.0728
  384MPD2    C1 5791   3.618   2.613  12.579  0.1575 -0.1658  0.2993
  384MPD2    C2 5792   3.682   2.579  12.462 -0.7660  0.1288  0.4773
  384MPD2    C3 5793   3.702   2.446  12.437 -0.1621 -0.2572 -0.2385
  384MPD2    C4 5794   3.669   2.348  12.529 -0.4073  0.0589  0.1313
  384MPD2    C5 5795   3.612   2.385  12.647  0.3105 -1.5350 -0.9883
  384MPD2     H 5796   3.708   2.661  12.395 -1.7588 -0.9519 -1.2206
  384MPD2    H1 5797   3.680   2.243  12.508 -1.2515  0.3432 -1.7308
  384MPD2    H2 5798   3.520   2.533  12.757 -1.5241 -0.7967 -0.7027
  384MPD2    H3 5799   3.581   2.318  12.726 -0.1335  0.0314  0.1488
  384MPD2     N 5800   3.779   2.427  12.322  0.7846  0.6656  0.8085
  384MPD2    H5 5801   3.794   2.504  12.257 -0.1621  0.0942 -0.1020
  384MPD2    N1 5802   3.594   2.747  12.628 -0.1946  0.3900  0.2799
  384MPD2    H7 5803   3.547   2.759  12.717 -2.7819  0.4319 -1.0850
  385TMC3    C1 5804   3.957   2.326  12.218 -0.1109 -0.2542 -0.5714
  385TMC3    C2 5805   3.947   2.374  12.094 -0.3582 -0.2248 -0.4817
  385TMC3    C3 5806   4.032   2.469  12.054 -0.1825  0.5160  0.1832
  385TMC3    C4 5807   4.050   2.380  12.309  0.2129  0.5023  0.4245
  385TMC3    C5 5808   4.132   2.483  12.269 -0.6675  0.2745  0.5822
  385TMC3    C6 5809   4.124   2.528  12.138 -0.2329 -0.0262  0.6787
  385TMC3     C 5810   3.839   2.303  12.290  0.3616  0.5116  0.4156
  385TMC3     O 5811   3.831   2.200  12.354 -0.1956  0.7685 -0.3493
  385TMC3     H 5812   3.862   2.346  12.033 -0.1186  0.3659 -1.0874
  385TMC3    H1 5813   4.065   2.353  12.413  1.2755 -0.7191 -0.0431
  385TMC3    H2 5814   4.195   2.600  12.096  0.0392 -0.3930  0.5134
  385TMC3    C7 5815   4.167   2.599  12.357 -0.1259  0.4612  0.4634
  385TMC3    C8 5816   4.036   2.499  11.913  0.3145 -0.9165 -0.2354
  385TMC3    O1 5817   4.143   2.712  12.310  1.0291 -0.4991 -0.0429
  385TMC3    O2 5818   4.092   2.600  11.873  1.1266  0.1183 -0.3050
  386TMC3    C1 5819   3.748   0.855  11.989 -0.0922  0.1593  0.8634
  386TMC3    C2 5820   3.802   0.858  11.862  0.1738 -0.3973 -0.7356
  386TMC3    C3 5821   3.723   0.877  11.754 -0.2761 -0.1998 -0.2069
  386TMC3    C4 5822   3.613   0.875  12.011  0.4144  0.1684  0.4973
  386TMC3    C5 5823   3.542   0.895  11.895 -0.3796 -0.6193  1.0503
  386TMC3    C6 5824   3.589   0.895  11.767 -0.4525 -0.2797 -0.4690
  386TMC3     C 5825   3.836   0.896  12.093  0.3244 -0.5990 -0.1426
  386TMC3     O 5826   3.798   0.979  12.175 -0.2069  0.0383 -0.0843
  386TMC3     H 5827   3.908   0.859  11.841 -0.1255 -2.2991 -2.3888
  386TMC3    H1 5828   3.568   0.906  12.105 -2.1979  1.8689 -1.3080
  386TMC3    H2 5829   3.521   0.910  11.683 -0.3132 -0.5040 -0.6209
  386TMC3    C7 5830   3.422   0.973  11.918 -0.2749  0.0909  0.0867
  386TMC3    C8 5831   3.768   0.854  11.621  0.2652 -0.5913 -0.4761
  386TMC3    O1 5832   3.374   0.963  12.029 -0.5516  0.2304  0.9202
  386TMC3    O2 5833   3.694   0.891  11.530  0.2644 -0.0657  0.1033
  387MPD2     C 5834   2.046   0.624  10.027 -0.1908 -0.3352 -0.2877
  387MPD2    C1 5835   2.043   0.554  10.145 -0.1283 -0.1096  0.8746
  387MPD2    C2 5836   2.011   0.422  10.140 -0.2559  1.2037 -0.3332
  387MPD2    C3 5837   2.001   0.355  10.011  0.5565 -0.0332  0.5054
  387MPD2    C4 5838   2.014   0.430   9.892  0.4160  0.2514 -0.6499
  387MPD2    C5 5839   2.037   0.565   9.902  0.1549  0.1419  0.3203
  387MPD2     H 5840   1.997   0.369  10.233 -0.3587 -0.5153 -1.3126
  387MPD2    H1 5841   2.014   0.387   9.792  2.8932 -0.1197 -0.4954
  387MPD2    H2 5842   2.072   0.729  10.027 -2.5936  0.2707 -1.1554
  387MPD2    H3 5843   2.034   0.613   9.805 -1.8248  0.0836  0.3521
  387MPD2     N 5844   2.000   0.216  10.016 -0.0556 -0.2925 -0.7028
  387MPD2    H5 5845   1.993   0.174  10.108 -1.2665 -0.1101 -0.7108
  387MPD2    N1 5846   2.079   0.615  10.270  0.0158 -0.2999  0.9438
  387MPD2    H7 5847   2.076   0.560  10.355 -1.9510 -1.4847  0.1096
  388TMC3    C1 5848   2.195   0.770  10.420  0.3246 -0.4579 -0.0699
  388TMC3    C2 5849   2.185   0.882  10.490 -0.0250  0.3943  0.5495
  388TMC3    C3 5850   2.252   0.883  10.612 -0.8603  0.4137 -0.3108
  388TMC3    C4 5851   2.260   0.656  10.461  0.8167  0.4111 -0.2776
  388TMC3    C5 5852   2.318   0.658  10.585  0.0907 -0.2805  0.8638
  388TMC3    C6 5853   2.318   0.775  10.662  0.7880 -0.6517 -0.1140
  388TMC3     C 5854   2.112   0.744  10.298 -0.6429  0.3909 -0.0618
  388TMC3     O 5855   2.097   0.841  10.222  0.8064 -0.3002 -0.1700
  388TMC3     H 5856   2.142   0.970  10.443  1.0314  1.1208  0.9553
  388TMC3    H1 5857   2.281   0.579  10.387 -0.2260 -0.1496  0.0108
  388TMC3    H2 5858   2.384   0.791  10.746  3.3699  0.3228 -2.3207
  388TMC3    C7 5859   2.371   0.532  10.633 -0.4170 -0.0625 -0.3019
  388TMC3    C8 5860   2.248   1.003  10.693  0.1522 -0.4658 -0.5855
  388TMC3    O1 5861   2.483   0.527  10.675  0.7636  0.0106  0.5207
  388TMC3    O2 5862   2.317   1.003  10.794 -0.3980  0.2330  0.2112
  389MPD2     C 5863   1.688   3.519  11.480 -0.4000 -0.1670  0.6698
  389MPD2    C1 5864   1.562   3.505  11.430  0.0081 -0.3011 -0.5775
  389MPD2    C2 5865   1.460   3.457  11.514 -0.3064  0.8758 -1.1953
  389MPD2    C3 5866   1.483   3.436  11.650  0.0827  0.3510  0.3875
  389MPD2    C4 5867   1.611   3.465  11.701 -0.2319 -0.0469 -0.0893
  389MPD2    C5 5868   1.713   3.502  11.611 -0.1737 -0.3071 -0.1047
  389MPD2     H 5869   1.363   3.443  11.467 -0.2996  0.7632 -1.1779
  389MPD2    H1 5870   1.629   3.454  11.807 -2.3859  1.9247  0.4988
  389MPD2    H2 5871   1.773   3.553  11.422 -0.1968 -1.5520  0.1576
  389MPD2    H3 5872   1.815   3.508  11.646 -0.3362  1.0726  0.1427
  389MPD2     N 5873   1.385   3.383  11.733 -0.6015  0.5818  0.3016
  389MPD2    H5 5874   1.413   3.365  11.830 -1.0668 -1.1039  0.1327
  389MPD2    N1 5875   1.544   3.541  11.295  0.6191 -0.3445 -0.2716
  389MPD2    H7 5876   1.624   3.582  11.247  0.3290 -1.4274 -1.6804
  390TMC3    C1 5877   1.176   3.317  11.813  0.1241  0.0698  1.2982
  390TMC3    C2 5878   1.076   3.228  11.782 -0.2038  0.0644 -0.8244
  390TMC3    C3 5879   1.000   3.168  11.885  0.2588 -0.1685  0.2980
  390TMC3    C4 5880   1.216   3.331  11.941 -0.3896 -0.4476  0.4068
  390TMC3    C5 5881   1.135   3.280  12.034  0.4471  0.2163 -0.3796
  390TMC3    C6 5882   1.031   3.196  12.016 -0.5201  0.6803 -0.0472
  390TMC3     C 5883   1.259   3.345  11.700 -0.2803  0.7721 -0.3863
  390TMC3     O 5884   1.199   3.331  11.593 -0.3951  0.1650 -0.3968
  390TMC3     H 5885   1.046   3.199  11.682 -0.7488 -0.7750 -0.4228
  390TMC3    H1 5886   1.293   3.402  11.966  1.7531 -2.9688  0.9100
  390TMC3    H2 5887   1.004   3.137  12.103 -0.1388 -1.1188 -1.1482
  390TMC3    C7 5888   1.157   3.342  12.168  0.5145 -0.5355 -0.0765
  390TMC3    C8 5889   0.892   3.074  11.852  0.5664 -0.0711 -0.6231
  390TMC3    O1 5890   1.270   3.379  12.196 -0.2236 -0.1363  0.8710
  390TMC3    O2 5891   0.866   3.047  11.738  0.1989  0.1814 -0.0578
  391MPD2     C 5892   0.264   4.711  11.506  0.2494 -0.9056 -0.9182
  391MPD2    C1 5893   0.336   0.087  11.481  0.4885 -0.4247 -0.1829
  391MPD2    C2 5894   0.317   0.150  11.358 -1.0633 -0.1142 -1.2800
  391MPD2    C3 5895   0.216   0.107  11.272  0.2521 -0.2060 -0.0408
  391MPD2    C4 5896   0.133   0.001  11.310  0.3639  0.0910 -0.0890
  391MPD2    C5 5897   0.157   4.675  11.430  0.3278 -0.0266 -0.3847
  391MPD2     H 5898   0.374   0.238  11.332 -0.5270  0.5806  2.2055
  391MPD2    H1 5899   0.054   4.699  11.247  1.8412 -0.5700 -1.5213
  391MPD2    H2 5900   0.291   4.656  11.595 -0.3416 -0.4635 -0.4625
  391MPD2    H3 5901   0.094   4.591  11.458 -0.2142  1.2235  2.1556
  391MPD2     N 5902   0.207   0.170  11.145  0.0958 -0.1415  0.0852
  391MPD2    H5 5903   0.281   0.233  11.116  0.2915 -1.1787 -1.6471
  391MPD2    N1 5904   0.433   0.119  11.583  0.3883  0.0457 -0.2615
  391MPD2    H7 5905   0.433   0.052  11.660  0.8178 -0.0006 -0.3059
  392TMC3    C1 5906   0.117   0.229  10.933 -0.3376 -0.2994  0.0925
  392TMC3    C2 5907   0.007   0.240  10.849 -0.2637 -0.2929  0.3026
  392TMC3    C3 5908   0.028   0.323  10.741  0.5104  0.2403  0.6661
  392TMC3    C4 5909   0.236   0.293  10.913  0.0556  0.0749  0.2260
  392TMC3    C5 5910   0.253   0.377  10.804  0.0902 -0.1573  0.3742
  392TMC3    C6 5911   0.146   0.397  10.722  0.5695 -0.2833 -0.0739
  392TMC3     C 5912   0.099   0.153  11.060 -0.2168 -0.3185 -0.2030
  392TMC3     O 5913   4.724   0.101  11.073  0.2588 -0.0632  0.2294
  392TMC3     H 5914   4.655   0.179  10.858  0.2400 -0.8718  1.3872
  392TMC3    H1 5915   0.328   0.249  10.951  0.2697  0.0308 -0.3402
  392TMC3    H2 5916   0.158   0.439  10.623 -1.1552 -1.7039 -0.8738
  392TMC3    C7 5917   0.369   0.457  10.799 -0.3344  0.1038 -0.8904
  392TMC3    C8 5918   4.643   0.370  10.667 -0.3092  0.1183 -0.0639
  392TMC3    O1 5919   0.457   0.432  10.882  0.5370 -0.3918 -0.0497
  392TMC3    O2 5920   4.559   0.287  10.645  0.0282 -0.1868  0.1019
  393TMC3    C1 5921   3.508   3.034  10.616 -0.2135 -0.3040 -0.2883
  393TMC3    C2 5922   3.382   3.077  10.638 -0.2787 -0.5017 -0.5575
  393TMC3    C3 5923   3.326   3.052  10.759  0.4117 -0.0906 -1.2185
  393TMC3    C4 5924   3.580   2.969  10.717 -0.1014 -0.3968  0.3721
  393TMC3    C5 5925   3.515   2.951  10.836  0.0917  0.5635  0.2361
  393TMC3    C6 5926   3.389   2.991  10.863 -0.6971 -0.1570  0.3940
  393TMC3     C 5927   3.561   3.022  10.485 -0.5246 -0.9861  0.0514
  393TMC3     O 5928   3.485   3.060  10.399  0.1807 -0.2546 -0.9504
  393TMC3     H 5929   3.320   3.118  10.559  0.4833  1.4519 -0.1425
  393TMC3    H1 5930   3.668   2.907  10.703  0.3442  0.7455 -1.8313
  393TMC3    H2 5931   3.341   2.998  10.959 -0.3687  1.3387  0.4413
  393TMC3    C7 5932   3.587   2.899  10.946 -0.0656 -0.3458 -0.4498
  393TMC3    C8 5933   3.204   3.118  10.786 -0.6254  0.2142 -0.0508
  393TMC3    O1 5934   3.513   2.840  11.021  0.1103  0.6891  0.7038
  393TMC3    O2 5935   3.147   3.085  10.891 -0.2784 -0.8213  0.0867
  394TMC3    C1 5936   1.442   3.616  11.095  0.5749 -0.3114 -0.2360
  394TMC3    C2 5937   1.333   3.667  11.027  0.2151 -0.9027  0.0100
  394TMC3    C3 5938   1.352   3.701  10.890 -0.1364  0.0463 -0.2825
  394TMC3    C4 5939   1.570   3.604  11.042 -0.2203 -0.3820 -0.2951
  394TMC3    C5 5940   1.585   3.660  10.918  0.0165 -0.2186 -0.6894
  394TMC3    C6 5941   1.480   3.695  10.835  0.6548  0.2263  0.2547
  394TMC3     C 5942   1.423   3.559  11.229  0.1095 -1.1863  0.2971
  394TMC3     O 5943   1.307   3.565  11.274 -1.3612  0.3825  0.4853
  394TMC3     H 5944   1.238   3.677  11.078  0.6455 -1.5485  0.9371
  394TMC3    H1 5945   1.648   3.534  11.068 -0.1405  0.4243  1.6140
  394TMC3    H2 5946   1.498   3.732  10.735  3.1496  2.0159  1.3637
  394TMC3    C7 5947   1.704   3.623  10.850  0.7458 -0.4225  0.8389
  394TMC3    C8 5948   1.234   3.753  10.814  0.0870 -0.8708 -0.3646
  394TMC3    O1 5949   1.743   3.508  10.861  0.6877 -0.0740  0.3397
  394TMC3    O2 5950   1.146   3.813  10.876  0.2411  0.3376  0.4241
  395TMC3    C1 5951   1.084   0.592  14.748 -1.1011  0.0287  0.7451
  395TMC3    C2 5952   0.952   0.618  14.743  0.4031 -0.4512  0.0800
  395TMC3    C3 5953   0.909   0.751  14.724 -0.2750  0.4561  0.2579
  395TMC3    C4 5954   1.176   0.692  14.742 -0.2701  0.5125 -0.6256
  395TMC3    C5 5955   1.132   0.811  14.702  0.8900  0.1898 -0.0757
  395TMC3    C6 5956   0.999   0.847  14.694  0.0597  0.0438 -0.1426
  395TMC3     C 5957   1.118   0.480  14.829  0.0364  0.3432  0.2589
  395TMC3     O 5958   1.087   0.370  14.790 -0.3073 -0.2611 -0.2731
  395TMC3     H 5959   0.877   0.542  14.760 -0.7127  0.2979 -1.4512
  395TMC3    H1 5960   1.282   0.672  14.746 -0.5763 -1.0502 -0.3269
  395TMC3    H2 5961   0.977   0.950  14.672  0.7883  0.1176 -0.5082
  395TMC3    C7 5962   1.228   0.910  14.664 -0.4788  0.5996  0.6593
  395TMC3    C8 5963   0.767   0.790  14.718  0.5251 -0.5359 -0.4761
  395TMC3    O1 5964   1.336   0.904  14.715 -0.6915 -0.0719 -0.2810
  395TMC3    O2 5965   0.751   0.908  14.694 -0.0624  0.0598  0.1331
  396MPD2     C 5966   0.388   1.744  17.010 -0.1062  0.4698  0.3093
  396MPD2    C1 5967   0.499   1.814  17.064 -0.2081 -0.3173  0.3962
  396MPD2    C2 5968   0.550   1.917  16.991 -0.0920 -0.2119 -0.3412
  396MPD2    C3 5969   0.518   1.945  16.865  0.4843  0.3046  0.3192
  396MPD2    C4 5970   0.405   1.878  16.809  0.3325 -0.1177  0.0176
  396MPD2    C5 5971   0.336   1.793  16.892 -0.3026  0.2590  0.3368
  396MPD2     H 5972   0.636   1.975  17.025 -1.6997  2.4407 -0.7426
  396MPD2    H1 5973   0.379   1.890  16.704  3.2203  0.8251 -0.5856
  396MPD2    H2 5974   0.339   1.665  17.064 -0.8136 -0.2877 -1.4388
  396MPD2    H3 5975   0.237   1.762  16.860 -0.3332  0.7992 -0.1028
  396MPD2     N 5976   0.592   2.040  16.793  0.7558  1.3608  0.3420
  396MPD2    H5 5977   0.674   2.077  16.840 -0.1131  1.9359  1.4337
  396MPD2    N1 5978   0.554   1.770  17.188  0.4481 -0.4395 -0.2521
  396MPD2    H7 5979   0.516   1.685  17.228  1.0800 -1.1047 -1.0636
  397TMC3    C1 5980   0.708   1.779  17.378 -0.3709  0.0393  0.2217
  397TMC3    C2 5981   0.838   1.729  17.372  0.5575  0.1584  0.2671
  397TMC3    C3 5982   0.862   1.592  17.370 -0.3100  0.1300 -0.3366
  397TMC3    C4 5983   0.614   1.687  17.433  0.9511  0.2754 -0.2557
  397TMC3    C5 5984   0.655   1.557  17.476  0.2785  0.2146 -0.5901
  397TMC3    C6 5985   0.779   1.506  17.443  0.2203 -0.1228 -0.2987
  397TMC3     C 5986   0.651   1.838  17.260  0.1082 -0.8826  0.0064
  397TMC3     O 5987   0.718   1.940  17.232 -0.0157 -0.0228  0.2472
  397TMC3     H 5988   0.908   1.787  17.313 -0.2473 -0.5441 -1.3495
  397TMC3    H1 5989   0.509   1.709  17.445  0.8884 -1.1292  1.7621
  397TMC3    H2 5990   0.797   1.400  17.450 -0.8738 -0.2284  1.0804
  397TMC3    C7 5991   0.553   1.460  17.498  0.0120 -0.4297  0.0757
  397TMC3    C8 5992   0.912   1.541  17.240 -0.1791 -0.1722 -0.1238
  397TMC3    O1 5993   0.524   1.391  17.404  0.2508  0.0635  0.3524
  397TMC3    O2 5994   0.958   1.621  17.164 -0.1283  0.4608  0.7011
  398MPD2     C 5995   3.315   2.925   0.516 -0.0582 -0.5167  0.8973
  398MPD2    C1 5996   3.438   2.892   0.571 -0.4450 -0.1559 -0.5880
  398MPD2    C2 5997   3.522   2.995   0.604 -0.1584  0.1811 -0.0902
  398MPD2    C3 5998   3.491   3.124   0.577 -0.0672 -0.2785  0.3449
  398MPD2    C4 5999   3.368   3.154   0.533 -0.8269  0.2487 -0.4456
  398MPD2    C5 6000   3.279   3.057   0.508 -0.2114 -0.1958 -0.5282
  398MPD2     H 6001   3.615   2.967   0.651 -0.4291  0.5072  0.6341
  398MPD2    H1 6002   3.332   3.256   0.515  1.6447  0.9798 -1.1716
  398MPD2    H2 6003   3.236   2.854   0.496 -1.4828  1.6123 -1.1042
  398MPD2    H3 6004   3.179   3.076   0.471  0.6309  1.0620 -2.1921
  398MPD2     N 6005   3.597   3.219   0.607  0.2179  0.0733 -0.0440
  398MPD2    H5 6006   3.673   3.172   0.655 -0.0658  1.7374  2.0208
  398MPD2    N1 6007   3.481   2.757   0.600 -0.1622  0.5535 -0.4225
  398MPD2    H7 6008   3.577   2.751   0.632 -0.0899  0.0234 -0.7304
  399TMC3    C1 6009   3.466   2.514   0.594 -0.5817 -0.4765 -0.0371
  399TMC3    C2 6010   3.595   2.507   0.631 -0.3703 -0.0908  0.1999
  399TMC3    C3 6011   3.648   2.378   0.642 -0.2712 -1.1646  0.0538
  399TMC3    C4 6012   3.394   2.406   0.546 -0.2734 -0.6244  0.1721
  399TMC3    C5 6013   3.448   2.282   0.556 -0.1277  0.7116 -0.0529
  399TMC3    C6 6014   3.574   2.266   0.608 -0.5133  0.1111 -0.2917
  399TMC3     C 6015   3.407   2.646   0.563  0.3162  0.5668  0.0470
  399TMC3     O 6016   3.300   2.644   0.501 -0.0471 -0.2263  0.2364
  399TMC3     H 6017   3.647   2.594   0.669  1.5822 -0.3108 -1.9570
  399TMC3    H1 6018   3.286   2.409   0.539 -0.1725  1.4421 -0.5709
  399TMC3    H2 6019   3.620   2.172   0.634  0.2903  0.0787 -1.8773
  399TMC3    C7 6020   3.395   2.167   0.492  0.2171 -0.0685 -0.7049
  399TMC3    C8 6021   3.792   2.373   0.647  0.1267 -1.1030  0.6299
  399TMC3    O1 6022   3.436   2.056   0.530  0.4421  0.2949 -0.1897
  399TMC3    O2 6023   3.859   2.474   0.644 -0.5178  0.2756  0.1122
  400TMC3    C1 6024   2.063   1.439  16.976  0.2722 -0.3392 -0.5320
  400TMC3    C2 6025   1.940   1.388  16.934 -0.6647  0.8373  0.2894
  400TMC3    C3 6026   1.853   1.484  16.881  0.2139  0.0276 -0.8553
  400TMC3    C4 6027   2.091   1.572  16.957 -0.1708 -0.0053  0.4789
  400TMC3    C5 6028   2.002   1.659  16.910 -0.0135 -0.2950  0.2503
  400TMC3    C6 6029   1.882   1.618  16.866  0.1754 -0.4384  0.4638
  400TMC3     C 6030   2.135   1.369  17.083 -0.6196 -0.5415  0.4824
  400TMC3     O 6031   2.059   1.285  17.127 -0.0230  0.7656 -0.4013
  400TMC3     H 6032   1.904   1.288  16.954  0.9509  0.6764  2.4066
  400TMC3    H1 6033   2.186   1.611  16.989  1.1801 -1.5488 -1.6043
  400TMC3    H2 6034   1.797   1.683  16.846  0.3630 -0.3408 -0.0336
  400TMC3    C7 6035   2.032   1.795  16.884 -0.3123  0.2805 -0.7849
  400TMC3    C8 6036   1.717   1.446  16.871  0.2655  0.5887 -0.3453
  400TMC3    O1 6037   1.971   1.856  16.792  0.7183  0.5075  0.2626
  400TMC3    O2 6038   1.631   1.533  16.891  0.0763  0.1021  0.3126
  401MPD2     C 6039   4.601   4.268  17.415  0.0478 -0.2558 -0.0208
  401MPD2    C1 6040   4.667   4.279  17.538  0.6030 -0.5732 -0.0821
  401MPD2    C2 6041   4.647   4.182  17.634  0.4328  0.9490  0.2490
  401MPD2    C3 6042   4.562   4.079  17.621 -0.7125  0.0702 -0.9163
  401MPD2    C4 6043   4.503   4.068  17.493  0.3791  0.6279  0.1156
  401MPD2    C5 6044   4.522   4.161  17.398  0.2176 -0.2330  0.2370
  401MPD2     H 6045   4.703   4.187  17.726  0.3015  0.6170  0.3471
  401MPD2    H1 6046   4.442   3.981  17.472  3.6384 -2.2167  2.3840
  401MPD2    H2 6047   4.620   4.331  17.328 -0.5657 -0.5610 -0.3735
  401MPD2    H3 6048   4.499   4.135  17.295  1.2857  1.0010 -0.3110
  401MPD2     N 6049   4.544   3.989  17.731 -0.1514 -0.5603  0.3868
  401MPD2    H5 6050   4.608   3.993   0.063  0.6797 -2.1190 -0.2224
  401MPD2    N1 6051   0.023   4.375  17.564  0.2703  0.5048  0.0073
  401MPD2    H7 6052   0.071   4.359  17.652 -0.1033  0.3741  0.1859
  402TMC3    C1 6053   4.440   3.840   0.125  0.2852  0.1640  0.2373
  402TMC3    C2 6054   4.391   3.918   0.219  0.1368  0.7172  0.0984
  402TMC3    C3 6055   4.370   3.865   0.340 -0.2150  0.2819 -0.3910
  402TMC3    C4 6056   4.462   3.711   0.131  0.4330 -0.6041  0.1950
  402TMC3    C5 6057   4.447   3.659   0.257  0.3881 -0.5090 -0.0290
  402TMC3    C6 6058   4.395   3.732   0.361 -0.1216 -0.2580 -0.0214
  402TMC3     C 6059   4.443   3.897  17.740 -0.4205  0.0412 -0.0374
  402TMC3     O 6060   4.357   3.859  17.667  0.1393  0.4993  0.0167
  402TMC3     H 6061   4.380   4.023   0.197  1.7883  0.9739  0.5176
  402TMC3    H1 6062   4.503   3.658   0.046  2.4425 -0.3753  1.0215
  402TMC3    H2 6063   4.380   3.685   0.458  2.2186  0.0417  0.5033
  402TMC3    C7 6064   4.517   3.529   0.281 -0.6351 -0.8472 -0.5545
  402TMC3    C8 6065   4.441   3.945   0.441  0.2643 -0.1771  0.2405
  402TMC3    O1 6066   4.477   3.455   0.373  0.1277 -0.0684  0.0688
  402TMC3    O2 6067   4.521   3.882   0.502 -0.0103  0.6471 -0.0347
  403MPD2     C 6068   3.871   2.774  13.647  0.3970  0.3753  0.7129
  403MPD2    C1 6069   3.839   2.727  13.774  0.1049 -0.2913 -0.0732
  403MPD2    C2 6070   3.896   2.786  13.882 -0.4090 -0.7578 -0.0977
  403MPD2    C3 6071   3.971   2.903  13.870 -0.1863 -0.0042  0.0862
  403MPD2    C4 6072   3.995   2.956  13.747 -0.3514  0.6512  0.5828
  403MPD2    C5 6073   3.935   2.895  13.634  0.6030  0.4617  0.0821
  403MPD2     H 6074   3.879   2.740  13.978  2.5540 -1.5187  0.0563
  403MPD2    H1 6075   4.060   3.039  13.720  1.2933 -1.1628 -1.0441
  403MPD2    H2 6076   3.838   2.724  13.557  1.2676  1.5212 -0.2419
  403MPD2    H3 6077   3.952   2.935  13.535 -0.1561 -1.5400 -0.8506
  403MPD2     N 6078   4.039   2.959  13.985  0.3739  0.1596  0.0600
  403MPD2    H5 6079   4.037   2.908  14.073  0.5038  0.1659  0.0656
  403MPD2    N1 6080   3.758   2.612  13.783 -0.0124 -0.1545 -0.2890
  403MPD2    H7 6081   3.714   2.578  13.698 -1.1972  1.0368 -0.1547
  404TMC3    C1 6082   3.594   2.455  13.853  0.1637  0.0597 -0.0194
  404TMC3    C2 6083   3.567   2.354  13.936  0.2204 -0.0949  0.6833
  404TMC3    C3 6084   3.466   2.275  13.897 -1.1107 -0.9200  0.6023
  404TMC3    C4 6085   3.527   2.476  13.736  0.0316  0.0567  0.3047
  404TMC3    C5 6086   3.432   2.394  13.701  0.5454  0.0240  0.5587
  404TMC3    C6 6087   3.401   2.286  13.779  0.3099 -0.1117 -1.2029
  404TMC3     C 6088   3.709   2.541  13.893 -0.3724  0.4372  0.0242
  404TMC3     O 6089   3.743   2.550  14.011 -0.7870  0.4634  0.4223
  404TMC3     H 6090   3.625   2.335  14.026  0.5207 -0.5712  0.3877
  404TMC3    H1 6091   3.540   2.572  13.687  2.6042 -0.7202 -0.5732
  404TMC3    H2 6092   3.325   2.214  13.749 -0.1663  0.1807 -0.6916
  404TMC3    C7 6093   3.371   2.399  13.570 -0.1416 -1.1967  0.1209
  404TMC3    C8 6094   3.450   2.146  13.958  0.4004 -0.5898  0.1949
  404TMC3    O1 6095   3.250   2.371  13.553 -0.5790 -0.0741 -0.1880
  404TMC3    O2 6096   3.449   2.046  13.888 -0.1456  0.2388 -0.1956
  405MPD2     C 6097   3.729   3.417  14.849 -0.1213 -0.0160  0.4248
  405MPD2    C1 6098   3.712   3.315  14.755  0.1901  0.6522 -0.9722
  405MPD2    C2 6099   3.661   3.352  14.633 -0.0254 -0.1725  0.0208
  405MPD2    C3 6100   3.655   3.483  14.593 -0.2861 -0.4222  0.1646
  405MPD2    C4 6101   3.691   3.580  14.683 -0.1679 -0.3123  0.1331
  405MPD2    C5 6102   3.725   3.549  14.810 -0.5525 -0.5380 -0.0032
  405MPD2     H 6103   3.626   3.272  14.569 -1.1477 -0.4860  1.0283
  405MPD2    H1 6104   3.693   3.683  14.650  0.9802  0.3098  2.1561
  405MPD2    H2 6105   3.746   3.387  14.951 -0.5729 -1.2983  0.1234
  405MPD2    H3 6106   3.752   3.624  14.884  1.2638 -0.3949 -0.7975
  405MPD2     N 6107   3.620   3.505  14.458 -0.0729  0.0607 -0.2940
  405MPD2    H5 6108   3.591   3.422  14.407 -1.5648  0.7354 -0.5456
  405MPD2    N1 6109   3.724   3.180  14.797 -0.1282  0.4180  0.0557
  405MPD2    H7 6110   3.761   3.158  14.889 -1.8391 -0.3260  0.5554
  406TMC3    C1 6111   3.328   3.696  14.164  0.3035 -0.4342 -0.5904
  406TMC3    C2 6112   3.300   3.564  14.130 -0.3492 -0.1995 -0.0584
  406TMC3    C3 6113   3.384   3.465  14.173  0.1405  0.4014 -1.0830
  406TMC3    C4 6114   3.439   3.722  14.242 -0.2191  0.5140 -0.3703
  406TMC3    C5 6115   3.515   3.616  14.281  0.0849  0.1657  0.0492
  406TMC3    C6 6116   3.494   3.488  14.244 -0.1149 -0.5101  0.1726
  406TMC3     C 6117   3.216   3.786  14.189  0.0900  0.3954 -0.3329
  406TMC3     O 6118   3.238   3.904  14.172 -0.3051 -0.6900  0.0852
  406TMC3     H 6119   3.208   3.545  14.076 -0.1514 -1.3048 -0.0219
  406TMC3    H1 6120   3.459   3.812  14.298 -2.4116  1.5093 -1.1777
  406TMC3    H2 6121   3.572   3.413  14.245 -1.6283 -2.0656  0.8352
  406TMC3    C7 6122   3.604   3.629  14.396  0.8379  0.3311  0.5264
  406TMC3    C8 6123   3.332   3.332  14.165 -0.1702 -0.1051  0.2717
  406TMC3    O1 6124   3.625   3.741  14.438  0.1132 -0.5204 -0.1411
  406TMC3    O2 6125   3.237   3.305  14.091 -0.2431  0.0614  0.1437
  407MPD2     C 6126   1.603   0.326   9.801  0.8359  0.6045 -0.5288
  407MPD2    C1 6127   1.679   0.438   9.763 -0.0755 -0.3641  0.4476
  407MPD2    C2 6128   1.683   0.547   9.848 -0.2956  0.0244  0.1446
  407MPD2    C3 6129   1.621   0.533   9.972  0.1809  0.2471  0.1308
  407MPD2    C4 6130   1.548   0.425  10.012 -0.3620 -0.0500  0.3407
  407MPD2    C5 6131   1.542   0.325   9.923  0.0835  1.3458 -0.4648
  407MPD2     H 6132   1.737   0.639   9.830  1.0556 -1.1749 -1.9692
  407MPD2    H1 6133   1.503   0.422  10.110  1.5914  0.7416  1.2624
  407MPD2    H2 6134   1.599   0.233   9.746  0.5048  0.0332  0.4570
  407MPD2    H3 6135   1.488   0.236   9.952 -1.7925  1.5036 -3.4882
  407MPD2     N 6136   1.641   0.643  10.058 -0.4661  0.1395  0.1264
  407MPD2    H5 6137   1.678   0.724  10.009  1.3845 -0.6574  0.1780
  407MPD2    N1 6138   1.752   0.442   9.643  0.1570 -0.5556 -0.0781
  407MPD2    H7 6139   1.795   0.527   9.609  0.1846 -0.8844 -0.8835
  408TMC3    C1 6140   1.900   0.339   9.493  0.0555  0.7481  0.3560
  408TMC3    C2 6141   1.976   0.221   9.486  0.4441  0.6738 -0.0249
  408TMC3    C3 6142   2.115   0.229   9.499 -0.4615 -0.4070  0.0929
  408TMC3    C4 6143   1.968   0.458   9.496 -0.4343 -0.1387 -0.0982
  408TMC3    C5 6144   2.102   0.458   9.489 -0.3621 -0.1267 -0.2273
  408TMC3    C6 6145   2.182   0.348   9.510  0.4203  0.6884 -0.2667
  408TMC3     C 6146   1.772   0.327   9.565  1.0741 -0.3210  0.1790
  408TMC3     O 6147   1.720   0.219   9.567 -0.2897 -0.1890  0.2995
  408TMC3     H 6148   1.932   0.123   9.485 -0.6214  1.1433  0.8287
  408TMC3    H1 6149   1.921   0.552   9.473  0.7142  0.3727 -0.3591
  408TMC3    H2 6150   2.289   0.353   9.495  0.2526  1.9317 -1.0398
  408TMC3    C7 6151   2.165   0.583   9.487  0.2444 -0.0790  0.0093
  408TMC3    C8 6152   2.175   0.116   9.559  0.0882 -0.2322  0.4573
  408TMC3    O1 6153   2.102   0.674   9.535 -0.6724  0.5035  0.2796
  408TMC3    O2 6154   2.136   0.012   9.509 -0.3318 -0.3074  0.3196
  409MPD2     C 6155   1.243   0.948  17.279 -0.2447 -0.6076 -0.0741
  409MPD2    C1 6156   1.381   0.952  17.290 -0.8460 -0.6776  0.6719
  409MPD2    C2 6157   1.451   1.074  17.259 -0.5328 -0.2936 -0.3027
  409MPD2    C3 6158   1.383   1.182  17.211  0.1302 -0.7427  0.4757
  409MPD2    C4 6159   1.249   1.168  17.194 -0.8624  0.1802  0.2662
  409MPD2    C5 6160   1.179   1.056  17.226 -0.4958  0.3508  1.0824
  409MPD2     H 6161   1.558   1.061  17.259 -0.1513  2.9453  0.0125
  409MPD2    H1 6162   1.191   1.256  17.166 -2.9224 -0.7571  1.6128
  409MPD2    H2 6163   1.182   0.863  17.308 -0.3161 -0.0552  1.3657
  409MPD2    H3 6164   1.072   1.058  17.211 -0.4204 -5.0321 -0.2994
  409MPD2     N 6165   1.443   1.308  17.212 -0.5821 -0.2668 -0.1577
  409MPD2    H5 6166   1.372   1.380  17.211 -0.1695  0.1095 -3.9481
  409MPD2    N1 6167   1.447   0.846  17.350 -0.1169  0.8322  0.2962
  409MPD2    H7 6168   1.549   0.849  17.345 -0.1679  0.0747 -1.0833
  410TMC3    C1 6169   1.604   1.475  17.215  0.2372 -0.0405 -0.0365
  410TMC3    C2 6170   1.733   1.499  17.251  0.8765  0.9159 -0.6846
  410TMC3    C3 6171   1.764   1.598  17.335  0.6535  0.7913  0.5452
  410TMC3    C4 6172   1.507   1.558  17.273 -0.6043 -0.5179  0.3306
  410TMC3    C5 6173   1.546   1.664  17.361 -0.8929  0.1697  0.6946
  410TMC3    C6 6174   1.680   1.687  17.388  0.6835  0.3998  0.4977
  410TMC3     C 6175   1.572   1.336  17.200  1.0414  1.1527 -0.8074
  410TMC3     O 6176   1.664   1.261  17.180 -0.5884 -0.0698  0.0706
  410TMC3     H 6177   1.808   1.432  17.212  0.2149 -0.6148  0.6975
  410TMC3    H1 6178   1.400   1.540  17.269 -0.7929  0.8127 -0.8297
  410TMC3    H2 6179   1.712   1.763  17.459  0.8970  0.2537  0.5577
  410TMC3    C7 6180   1.440   1.741  17.424 -0.2834 -0.0675 -0.4444
  410TMC3    C8 6181   1.902   1.598  17.377 -0.9872  0.0270 -0.0046
  410TMC3    O1 6182   1.452   1.771  17.541 -0.4068  0.0402  0.0721
  410TMC3    O2 6183   1.960   1.697  17.422 -0.0796 -0.2796  0.3575
  411MPD2     C 6184   1.433   2.569  14.713  0.4525  0.1190  0.6154
  411MPD2    C1 6185   1.337   2.480  14.733 -1.0614 -0.7526 -0.4569
  411MPD2    C2 6186   1.329   2.372  14.652  0.3517  0.1892  0.1678
  411MPD2    C3 6187   1.423   2.338  14.562  0.4275  0.3899  1.0884
  411MPD2    C4 6188   1.521   2.432  14.533  0.4810  0.2707  0.6918
  411MPD2    C5 6189   1.519   2.552  14.607  0.7196 -0.0439  0.3205
  411MPD2     H 6190   1.244   2.307  14.670 -0.1327  0.5709 -0.7724
  411MPD2    H1 6191   1.586   2.425  14.446 -1.8262  1.5942 -1.1372
  411MPD2    H2 6192   1.434   2.666  14.763 -0.2562 -0.0861  1.0354
  411MPD2    H3 6193   1.593   2.629  14.587 -1.3950  1.9189  0.0425
  411MPD2     N 6194   1.420   2.208  14.506  0.0982 -0.2595 -0.7605
  411MPD2    H5 6195   1.473   2.189  14.422  0.9498  1.8607 -0.6876
  411MPD2    N1 6196   1.243   2.498  14.836 -0.6444  0.4398  0.2672
  411MPD2    H7 6197   1.179   2.428  14.872 -0.1618  0.8977  2.0114
  412TMC3    C1 6198   1.376   1.966  14.503 -0.3740  0.3324  0.3031
  412TMC3    C2 6199   1.381   1.858  14.587 -0.1254 -0.0167  1.2236
  412TMC3    C3 6200   1.383   1.742  14.530 -0.2420 -0.2336 -0.3897
  412TMC3    C4 6201   1.386   1.961  14.374  0.3136  0.0122 -0.2287
  412TMC3    C5 6202   1.394   1.835  14.317  0.2955 -0.9622  0.0593
  412TMC3    C6 6203   1.395   1.725  14.395  0.0030 -0.3490 -0.3218
  412TMC3     C 6204   1.372   2.099  14.572  0.3086 -0.1918 -0.3651
  412TMC3     O 6205   1.333   2.087  14.690  0.2890 -0.0962 -0.4145
  412TMC3     H 6206   1.360   1.863  14.693 -0.5552 -3.8664  1.3208
  412TMC3    H1 6207   1.362   2.053  14.322  2.8127  0.6609 -0.2297
  412TMC3    H2 6208   1.389   1.624  14.356 -3.2640  0.1685 -1.1561
  412TMC3    C7 6209   1.307   1.813  14.201  0.7158 -0.2710 -0.1792
  412TMC3    C8 6210   1.284   1.657  14.587  0.5932  0.1309  0.0056
  412TMC3    O1 6211   1.243   1.707  14.212  0.1949 -0.6391 -0.2098
  412TMC3    O2 6212   1.285   1.636  14.710 -0.0433  0.5659  0.1355
  413MPD2     C 6213   3.066   4.458  15.872  0.5095 -1.1188 -0.7388
  413MPD2    C1 6214   3.013   4.423  15.749 -0.3424 -0.5990 -0.4382
  413MPD2    C2 6215   3.111   4.378  15.654 -0.0547  0.2119 -0.1390
  413MPD2    C3 6216   3.247   4.390  15.679 -0.3745  0.4467 -0.1612
  413MPD2    C4 6217   3.290   4.448  15.799  0.8368 -0.2764  0.4293
  413MPD2    C5 6218   3.198   4.484  15.892 -0.8657 -0.5343 -0.4836
  413MPD2     H 6219   3.083   4.337  15.558  0.8502  0.6318 -0.5784
  413MPD2    H1 6220   3.396   4.449  15.823  0.7077  1.8501  0.8930
  413MPD2    H2 6221   2.992   4.497  15.941 -0.1146 -0.8705 -1.5532
  413MPD2    H3 6222   3.229   4.526  15.988  0.1792 -0.2937 -0.9246
  413MPD2     N 6223   3.336   4.330  15.594 -0.7676 -0.0610 -0.3922
  413MPD2    H5 6224   3.296   4.296  15.507  1.2798  1.0848 -1.7804
  413MPD2    N1 6225   2.867   4.428  15.740  0.3400 -0.7805  0.3992
  413MPD2    H7 6226   2.815   4.470  15.816  1.9723  3.1337 -0.6505
  414TMC3    C1 6227   3.513   4.195  15.528 -0.3496 -0.6103 -0.2026
  414TMC3    C2 6228   3.539   4.066  15.552 -0.0377 -0.5883  0.1317
  414TMC3    C3 6229   3.551   3.987  15.441 -0.0740 -0.3618 -0.1622
  414TMC3    C4 6230   3.506   4.247  15.403  0.4852  0.0003  0.5284
  414TMC3    C5 6231   3.525   4.158  15.296 -0.0006  0.1809  0.1544
  414TMC3    C6 6232   3.531   4.021  15.311 -0.1154 -0.4661 -0.0892
  414TMC3     C 6233   3.464   4.281  15.631  0.1898  1.1739 -1.0440
  414TMC3     O 6234   3.518   4.269  15.742  0.0405  0.4067  0.2310
  414TMC3     H 6235   3.541   4.036  15.656  0.1697  1.8878  0.8499
  414TMC3    H1 6236   3.497   4.353  15.385 -2.6709 -0.1306  1.2317
  414TMC3    H2 6237   3.563   3.954  15.233  0.7222 -1.7878  1.3853
  414TMC3    C7 6238   3.637   4.211  15.213  0.1779  0.1323 -0.2494
  414TMC3    C8 6239   3.609   3.861  15.466  0.1269  0.0965  0.4764
  414TMC3    O1 6240   3.690   4.313  15.254 -0.2938 -0.0201 -0.1122
  414TMC3    O2 6241   3.581   3.770  15.393  0.3225 -0.2131  0.5271
  415TMC3    C1 6242   3.441   2.559  10.090  0.0075  0.0850 -0.7216
  415TMC3    C2 6243   3.467   2.619   9.973  0.3412 -0.1068 -0.6677
  415TMC3    C3 6244   3.366   2.648   9.884  0.0202  0.0822 -0.3555
  415TMC3    C4 6245   3.320   2.515  10.121  0.7825  0.0701  0.4519
  415TMC3    C5 6246   3.213   2.556  10.034  0.1630 -0.5229  0.2128
  415TMC3    C6 6247   3.235   2.613   9.910 -0.0910  0.2335  0.9526
  415TMC3     C 6248   3.549   2.508  10.179 -0.3221  1.0477 -0.1267
  415TMC3     O 6249   3.514   2.423  10.260  0.0410  0.1830  0.1747
  415TMC3     H 6250   3.573   2.634   9.953  0.0503 -3.5434 -4.6297
  415TMC3    H1 6251   3.301   2.471  10.219 -0.3353  1.6263  0.9281
  415TMC3    H2 6252   3.160   2.614   9.833 -0.4632  1.8728  1.3263
  415TMC3    C7 6253   3.082   2.493  10.052 -0.2007 -0.2734  0.1862
  415TMC3    C8 6254   3.397   2.697   9.754  0.0680  0.2834  0.0730
  415TMC3    O1 6255   2.994   2.522   9.970 -0.4204  0.5653  0.1075
  415TMC3    O2 6256   3.304   2.692   9.680  0.2558  0.1660  0.1998
  416MPD2     C 6257   0.486   1.332  11.980 -0.7231 -0.2701  0.2190
  416MPD2    C1 6258   0.406   1.369  11.878 -0.3997  0.0234  0.6327
  416MPD2    C2 6259   0.368   1.280  11.780 -0.4518  0.0659  0.5483
  416MPD2    C3 6260   0.409   1.147  11.796 -0.1936 -0.7298 -0.4271
  416MPD2    C4 6261   0.482   1.110  11.908  1.0819  0.0762 -0.4411
  416MPD2    C5 6262   0.521   1.201  11.995  0.4655  0.1956 -0.3230
  416MPD2     H 6263   0.294   1.310  11.707  0.1434 -0.8027 -0.4074
  416MPD2    H1 6264   0.500   1.006  11.934  0.0962 -0.3454 -1.4314
  416MPD2    H2 6265   0.525   1.400  12.055 -2.0865  1.2450 -0.4698
  416MPD2    H3 6266   0.576   1.172  12.084  1.5657 -0.8017 -1.3295
  416MPD2     N 6267   0.375   1.046  11.710  0.6654  0.5289 -0.1676
  416MPD2    H5 6268   0.414   0.953  11.725  0.2353  0.6179  1.4663
  416MPD2    N1 6269   0.360   1.507  11.889 -0.7339 -0.5377 -0.2295
  416MPD2    H7 6270   0.407   1.556  11.965  1.6035 -3.1101 -0.0070
  417TMC3    C1 6271   0.224   1.695  11.861  0.5679  0.0010 -0.0033
  417TMC3    C2 6272   0.195   1.703  12.001 -0.1890 -0.0773 -0.1803
  417TMC3    C3 6273   0.115   1.811  12.043  0.0212 -0.1219 -0.8456
  417TMC3    C4 6274   0.173   1.781  11.767  0.6292 -0.2943 -0.0900
  417TMC3    C5 6275   0.109   1.893  11.826  0.3168 -0.4533  0.4443
  417TMC3    C6 6276   0.076   1.907  11.956 -0.0076 -0.5154 -0.2825
  417TMC3     C 6277   0.265   1.566  11.812 -0.6134 -0.4686  0.6950
  417TMC3     O 6278   0.198   1.527  11.717 -0.0501  0.1136 -0.6599
  417TMC3     H 6279   0.235   1.622  12.059 -0.0082  1.5629  1.9877
  417TMC3    H1 6280   0.186   1.770  11.660 -0.7131 -0.8127 -0.1996
  417TMC3    H2 6281   0.026   1.997  11.989 -0.9041 -1.0328 -0.2241
  417TMC3    C7 6282   0.018   1.948  11.725 -0.1061 -0.0671  0.6240
  417TMC3    C8 6283   0.091   1.830  12.183 -0.5955  0.4561 -0.0147
  417TMC3    O1 6284   0.062   1.942  11.610 -0.0938 -0.2326 -0.0952
  417TMC3    O2 6285   0.052   1.940  12.224  1.1169  0.3477  0.0185
  418TMC3    C1 6286   3.896   3.559   0.591 -0.0147  0.6405  0.5339
  418TMC3    C2 6287   3.759   3.522   0.583 -0.6705 -0.0162 -0.4164
  418TMC3    C3 6288   3.719   3.412   0.654  0.3757 -0.7580 -0.2611
  418TMC3    C4 6289   3.981   3.484   0.675  0.2668 -0.1586 -0.6178
  418TMC3    C5 6290   3.929   3.376   0.746 -0.4545 -0.0871  0.5302
  418TMC3    C6 6291   3.799   3.341   0.740 -0.1745 -0.2710  0.1204
  418TMC3     C 6292   3.960   3.600   0.468 -0.3620 -0.2454 -0.9372
  418TMC3     O 6293   3.908   3.694   0.404  0.2693 -0.3327 -0.3010
  418TMC3     H 6294   3.687   3.571   0.520  0.0560 -0.2678 -1.4404
  418TMC3    H1 6295   4.089   3.491   0.681  0.1563  1.4502 -0.5145
  418TMC3    H2 6296   3.765   3.248   0.785 -0.7573 -0.2893 -0.3503
  418TMC3    C7 6297   4.007   3.327   0.851  0.0161 -0.8056 -0.0849
  418TMC3    C8 6298   3.595   3.352   0.596 -0.2671  0.2638  0.3836
  418TMC3    O1 6299   4.085   3.396   0.915 -0.2626 -0.1638 -0.3717
  418TMC3    O2 6300   3.517   3.423   0.534  0.2854 -0.0856 -0.3784
  419MPD2     C 6301   2.508   1.282  12.530  0.2092  0.2316 -0.3893
  419MPD2    C1 6302   2.527   1.416  12.541 -0.1616  0.2666  0.0176
  419MPD2    C2 6303   2.523   1.470  12.668  0.1403 -1.0489 -0.2272
  419MPD2    C3 6304   2.515   1.395  12.782 -0.2528 -0.3914  0.5954
  419MPD2    C4 6305   2.489   1.263  12.774 -0.1943  0.5017  0.7665
  419MPD2    C5 6306   2.496   1.203  12.647 -0.5902 -0.6538 -0.4580
  419MPD2     H 6307   2.542   1.576  12.682  3.7176 -1.8490  1.0699
  419MPD2    H1 6308   2.465   1.196  12.856  0.5418  0.0441  0.6028
  419MPD2    H2 6309   2.513   1.233  12.434 -0.4736 -0.5587 -0.0274
  419MPD2    H3 6310   2.470   1.099  12.628  0.3574 -0.5700 -2.2485
  419MPD2     N 6311   2.524   1.461  12.911 -0.5385 -0.4500 -0.0938
  419MPD2    H5 6312   2.560   1.556  12.905 -0.8861 -0.4302 -1.8074
  419MPD2    N1 6313   2.540   1.503  12.434 -0.0816  0.0753  0.6977
  419MPD2    H7 6314   2.553   1.600  12.460  1.6171 -0.1086  0.5476
  420TMC3    C1 6315   2.483   1.520  13.121 -0.3005  0.6302  0.1706
  420TMC3    C2 6316   2.465   1.647  13.069 -1.0016  0.2716  0.4300
  420TMC3    C3 6317   2.474   1.755  13.155 -0.4322 -0.1673  0.0539
  420TMC3    C4 6318   2.529   1.507  13.247 -0.0608  0.3049  0.3849
  420TMC3    C5 6319   2.540   1.617  13.324  1.1450 -0.2007  0.5563
  420TMC3    C6 6320   2.518   1.747  13.283  0.9903  0.0627  0.3046
  420TMC3     C 6321   2.496   1.409  13.031 -0.1501  0.0391  0.4509
  420TMC3     O 6322   2.463   1.294  13.064 -0.0705 -1.2969  0.1603
  420TMC3     H 6323   2.424   1.667  12.970 -0.8883 -0.4949  0.2226
  420TMC3    H1 6324   2.562   1.409  13.280  3.2612  0.7387 -1.6191
  420TMC3    H2 6325   2.519   1.831  13.351 -1.7562  0.5350 -0.2499
  420TMC3    C7 6326   2.570   1.594  13.465  0.4414 -0.2759  0.9733
  420TMC3    C8 6327   2.448   1.883  13.109 -0.5528 -0.6337  0.0213
  420TMC3    O1 6328   2.591   1.479  13.498 -0.3211 -0.4417 -0.0724
  420TMC3    O2 6329   2.351   1.891  13.035 -0.3164  0.0249 -0.4643
  421TMC3    C1 6330   4.180   3.095  14.108 -0.2417 -0.2106 -0.6211
  421TMC3    C2 6331   4.207   3.226  14.157 -0.4293  0.2242  0.2155
  421TMC3    C3 6332   4.315   3.238  14.238  0.8527  0.4904 -0.6540
  421TMC3    C4 6333   4.261   2.986  14.134 -0.6893  0.4852 -0.0806
  421TMC3    C5 6334   4.371   3.010  14.209  1.1701 -0.0518  0.3723
  421TMC3    C6 6335   4.396   3.135  14.267 -0.1087  0.3391 -0.7712
  421TMC3     C 6336   4.098   3.081  13.991 -0.4202 -0.6214 -0.0661
  421TMC3     O 6337   4.090   3.174  13.916  0.2100  0.9216  0.5666
  421TMC3     H 6338   4.158   3.309  14.106 -1.7093 -0.5159  0.2522
  421TMC3    H1 6339   4.250   2.890  14.086  1.3387  2.0468 -3.6067
  421TMC3    H2 6340   4.477   3.140  14.338 -1.2157  2.0002  0.3536
  421TMC3    C7 6341   4.465   2.902  14.236  0.5359 -0.3279 -0.1845
  421TMC3    C8 6342   4.319   3.351  14.317 -0.3785  0.4238 -0.8292
  421TMC3    O1 6343   4.566   2.927  14.302  0.1448 -0.1198  0.2580
  421TMC3    O2 6344   4.425   3.379  14.357 -0.5167  0.0341  0.3544
  422TMC3    C1 6345   1.733   4.239  12.782  0.0706 -0.0450  0.3153
  422TMC3    C2 6346   1.716   4.367  12.832  0.7551 -0.4917  0.0908
  422TMC3    C3 6347   1.593   4.426  12.830 -0.0298  0.3058 -0.4532
  422TMC3    C4 6348   1.622   4.162  12.762  0.6456 -0.3245 -0.1303
  422TMC3    C5 6349   1.503   4.221  12.759 -0.5684  0.5278 -0.1761
  422TMC3    C6 6350   1.483   4.350  12.793 -0.1991  0.8853 -1.0570
  422TMC3     C 6351   1.839   4.233  12.676  0.5671 -0.0162 -0.2002
  422TMC3     O 6352   1.914   4.330  12.669 -1.1882  0.4966 -0.3766
  422TMC3     H 6353   1.805   4.426  12.850 -0.2186  0.4185  1.9165
  422TMC3    H1 6354   1.634   4.054  12.756  2.0891 -0.2357  0.9830
  422TMC3    H2 6355   1.387   4.401  12.805 -1.7593 -2.1057 -0.7600
  422TMC3    C7 6356   1.392   4.126  12.742  0.0350  1.0239 -0.0003
  422TMC3    C8 6357   1.594   4.568  12.813 -0.1924  0.8298  0.3634
  422TMC3    O1 6358   1.425   4.023  12.685 -0.4031 -0.1559  0.1883
  422TMC3    O2 6359   1.685   4.629  12.866  0.4448  0.7819  0.1671
  423MPD2     C 6360   2.337   0.159   0.862  0.5233  0.5675 -0.0713
  423MPD2    C1 6361   2.437   0.226   0.796 -0.6058 -0.2534  0.0671
  423MPD2    C2 6362   2.463   0.189   0.665  0.2440 -0.0435 -0.2741
  423MPD2    C3 6363   2.375   0.102   0.595 -0.4308  0.3099  0.3824
  423MPD2    C4 6364   2.273   0.039   0.659 -0.9607  0.2840  0.9087
  423MPD2    C5 6365   2.262   0.061   0.798 -0.0271 -0.4351  0.0087
  423MPD2     H 6366   2.538   0.229   0.597 -1.2214  1.1315 -1.2351
  423MPD2    H1 6367   2.198   4.710   0.615  0.1477  0.5109 -1.3287
  423MPD2    H2 6368   2.320   0.174   0.968 -0.8366  1.3777 -0.4029
  423MPD2    H3 6369   2.185   0.007   0.852 -1.0724  2.0113  0.9739
  423MPD2     N 6370   2.385   0.075   0.454 -0.5799  1.0349 -0.2527
  423MPD2    H5 6371   2.320   0.007   0.415  1.8679 -0.6161 -1.4540
  423MPD2    N1 6372   2.523   0.322   0.852 -0.2071  0.7373  0.0282
  423MPD2    H7 6373   2.608   0.336   0.799 -1.3989 -0.4490 -2.1794
  424TMC3    C1 6374   2.618   0.475   1.007  0.3034 -0.4326 -0.2185
  424TMC3    C2 6375   2.748   0.432   0.982  0.8005  0.8973  0.0951
  424TMC3    C3 6376   2.845   0.497   1.055 -0.1805 -1.1293 -0.7578
  424TMC3    C4 6377   2.591   0.575   1.093 -0.3368 -0.0096  0.9622
  424TMC3    C5 6378   2.693   0.656   1.146 -0.2241  0.4205  0.1479
  424TMC3    C6 6379   2.821   0.606   1.137 -0.3447  0.4032  0.0567
  424TMC3     C 6380   2.505   0.399   0.967  0.7541  0.2951 -0.0104
  424TMC3     O 6381   2.418   0.394   1.050 -0.2351 -0.1138 -0.4205
  424TMC3     H 6382   2.773   0.344   0.924  0.8575  1.8379 -1.3268
  424TMC3    H1 6383   2.488   0.607   1.093 -0.1427  0.6484  2.7668
  424TMC3    H2 6384   2.894   0.662   1.194  1.5531 -1.2075 -0.7780
  424TMC3    C7 6385   2.676   0.793   1.188  0.0603  1.2199  0.0081
  424TMC3    C8 6386   2.953   0.408   1.088  0.5377 -0.0676  0.0241
  424TMC3    O1 6387   2.774   0.865   1.200 -0.0080  0.5922  0.3281
  424TMC3    O2 6388   2.945   0.295   1.043  0.5126 -0.0261 -0.6308
  425MPD2     C 6389   2.230   4.233   0.117  0.3903  0.6280 -0.0659
  425MPD2    C1 6390   2.160   4.169   0.014 -0.0588 -0.4555 -0.1287
  425MPD2    C2 6391   2.034   4.216  17.727 -0.3527 -0.2539  0.1962
  425MPD2    C3 6392   1.984   4.328   0.049  0.5195 -0.0009 -0.6869
  425MPD2    C4 6393   2.062   4.401   0.138  0.7629  0.9715 -0.2718
  425MPD2    C5 6394   2.184   4.350   0.179  0.6255  0.3653  0.1942
  425MPD2     H 6395   1.972   4.167  17.652  1.0301 -0.3496 -0.8811
  425MPD2    H1 6396   2.032   4.499   0.172 -0.2791  0.6013 -0.1255
  425MPD2    H2 6397   2.329   4.196   0.143  0.6752 -0.0558 -2.0638
  425MPD2    H3 6398   2.250   4.413   0.236  1.6089  1.3963 -2.0798
  425MPD2     N 6399   1.854   4.361   0.012  0.1588  0.4204 -0.2948
  425MPD2    H5 6400   1.814   4.301  17.686  0.3172  2.1836 -1.8514
  425MPD2    N1 6401   2.220   4.059  17.695 -0.1724 -0.1240 -0.4898
  425MPD2    H7 6402   2.320   4.043  17.702  0.2462  1.9570 -1.8038
  426TMC3    C1 6403   2.251   3.896  17.534 -0.1498  0.4476 -0.2617
  426TMC3    C2 6404   2.225   3.880  17.403  0.7684  0.3487 -0.5432
  426TMC3    C3 6405   2.266   3.763  17.339  0.1760 -0.1840  0.5059
  426TMC3    C4 6406   2.316   3.808  17.617 -0.0291 -0.5095  0.2490
  426TMC3    C5 6407   2.357   3.695  17.550  0.0525 -0.1021  0.5986
  426TMC3    C6 6408   2.337   3.678  17.414  0.1061 -0.1624 -0.0172
  426TMC3     C 6409   2.156   3.985  17.594 -0.3732  0.6564  0.6377
  426TMC3     O 6410   2.048   3.998  17.540  0.0026 -0.0417  0.2935
  426TMC3     H 6411   2.181   3.963  17.349  0.2613  0.6910  0.3944
  426TMC3    H1 6412   2.315   3.823  17.724 -0.8502 -2.4897  0.5178
  426TMC3    H2 6413   2.369   3.585  17.369  0.4452 -0.5698  1.0626
  426TMC3    C7 6414   2.341   3.573  17.626 -0.6749 -0.0788  0.2173
  426TMC3    C8 6415   2.198   3.705  17.226  0.6850 -0.1983  0.2417
  426TMC3    O1 6416   2.408   3.476  17.593  0.2961  0.3623  0.6791
  426TMC3    O2 6417   2.201   3.583  17.222  0.0124 -0.4377 -0.2352
  427MPD2     C 6418   0.595   1.951  15.033 -0.5534  0.1736  0.2269
  427MPD2    C1 6419   0.533   1.842  15.096 -0.5527 -0.0248 -0.4308
  427MPD2    C2 6420   0.397   1.837  15.117 -0.0085 -0.1843 -0.4608
  427MPD2    C3 6421   0.325   1.938  15.054 -0.1487  0.2242  0.1359
  427MPD2    C4 6422   0.385   2.046  15.006  0.8294  0.1769  0.3261
  427MPD2    C5 6423   0.517   2.060  14.996 -0.0035  0.1282 -0.1560
  427MPD2     H 6424   0.351   1.750  15.163 -1.3108  1.4375  1.3194
  427MPD2    H1 6425   0.323   2.115  14.951  1.0415 -1.0407 -1.4524
  427MPD2    H2 6426   0.701   1.963  15.019 -0.3220 -1.0788  0.9382
  427MPD2    H3 6427   0.561   2.140  14.938 -0.0109  0.8331  0.8006
  427MPD2     N 6428   0.187   1.922  15.035 -0.1676  0.3677  0.2499
  427MPD2    H5 6429   0.138   2.001  14.995 -0.1161  0.6191  0.6818
  427MPD2    N1 6430   0.612   1.734  15.141 -0.9834 -0.1030 -0.5716
  427MPD2    H7 6431   0.563   1.669  15.201 -2.6872 -0.9260 -2.8523
  428TMC3    C1 6432   0.820   1.622  15.178 -0.6494 -0.0374 -0.1238
  428TMC3    C2 6433   0.755   1.537  15.269 -0.4327  0.5299  0.2482
  428TMC3    C3 6434   0.843   1.457  15.346 -0.4729  0.4301 -0.3476
  428TMC3    C4 6435   0.958   1.628  15.167  0.1736 -0.0861 -0.3443
  428TMC3    C5 6436   1.029   1.548  15.242  0.6049 -0.1733  0.1508
  428TMC3    C6 6437   0.979   1.458  15.329  0.0291 -0.5990 -0.1981
  428TMC3     C 6438   0.740   1.709  15.095  0.2617 -0.1749 -0.2064
  428TMC3     O 6439   0.799   1.755  15.000 -0.0677  0.1938 -0.2337
  428TMC3     H 6440   0.647   1.525  15.265 -0.0403 -2.7792 -0.5969
  428TMC3    H1 6441   1.003   1.702  15.102  0.9810  0.2656  0.6078
  428TMC3    H2 6442   1.055   1.402  15.381 -0.1735 -0.2833  0.4375
  428TMC3    C7 6443   1.149   1.598  15.303 -0.5510  0.1951 -1.1247
  428TMC3    C8 6444   0.793   1.358  15.443 -0.3595  0.2638 -0.3738
  428TMC3    O1 6445   1.173   1.597  15.424 -0.3297 -0.0642  0.0416
  428TMC3    O2 6446   0.880   1.297  15.509  0.3074 -0.1837  0.2387
  429MPD2     C 6447   2.152   1.834   0.438  0.8140 -0.3246  0.8223
  429MPD2    C1 6448   2.161   1.777   0.308 -0.0992 -0.4640  0.3939
  429MPD2    C2 6449   2.154   1.864   0.197 -0.8289 -0.1908  0.3053
  429MPD2    C3 6450   2.130   2.000   0.215  0.4471  0.3508 -0.3683
  429MPD2    C4 6451   2.132   2.055   0.340 -0.0190  0.2336 -0.1118
  429MPD2    C5 6452   2.126   1.968   0.448  0.0848  0.4760 -0.2951
  429MPD2     H 6453   2.173   1.831   0.095 -1.9968 -2.3581  0.8008
  429MPD2    H1 6454   2.120   2.161   0.360 -0.9078  0.2867 -0.9325
  429MPD2    H2 6455   2.151   1.783   0.533 -0.1618 -0.0167  0.9744
  429MPD2    H3 6456   2.112   2.007   0.548 -2.7179 -1.0303 -0.0924
  429MPD2     N 6457   2.111   2.078   0.102  0.1622  0.0120 -0.0520
  429MPD2    H5 6458   2.133   2.037   0.012  0.0847 -3.5064  1.5599
  429MPD2    N1 6459   2.184   1.640   0.291 -0.5188  0.0298  0.3254
  429MPD2    H7 6460   2.196   1.605   0.196  0.7713 -1.7608  1.1497
  430TMC3    C1 6461   2.090   2.283  17.730 -0.3546 -0.1370  0.1398
  430TMC3    C2 6462   2.015   2.394  17.711 -0.0534 -1.0024  1.0335
  430TMC3    C3 6463   2.003   2.438  17.583 -0.1303 -0.0560 -0.4165
  430TMC3    C4 6464   2.159   2.231  17.624  0.3578  0.2191 -0.9959
  430TMC3    C5 6465   2.143   2.280  17.499  0.2961 -0.0676 -0.3102
  430TMC3    C6 6466   2.069   2.388  17.473  0.1935  0.3348  0.0605
  430TMC3     C 6467   2.084   2.214   0.112  0.5182  0.2596  0.3400
  430TMC3     O 6468   2.021   2.281   0.198  0.2813  0.2564  0.4656
  430TMC3     H 6469   1.950   2.426   0.046  1.0957  0.3005  1.4308
  430TMC3    H1 6470   2.228   2.147  17.628  0.6970  0.5198 -0.5789
  430TMC3    H2 6471   2.050   2.424  17.373  3.6903  1.4186 -0.2035
  430TMC3    C7 6472   2.158   2.190  17.381 -0.1204 -0.0218 -0.3598
  430TMC3    C8 6473   1.894   2.532  17.554  0.1405  0.5753 -0.1413
  430TMC3    O1 6474   2.128   2.074  17.402 -0.0058  0.1302  0.2570
  430TMC3    O2 6475   1.787   2.522  17.611  0.2258 -0.5714 -0.3669
  431MPD2     C 6476   2.443   2.321  12.620  0.5637  0.1992  0.6019
  431MPD2    C1 6477   2.562   2.251  12.635  0.3730  0.4786 -0.3098
  431MPD2    C2 6478   2.592   2.137  12.574 -0.8309 -0.1933  0.1502
  431MPD2    C3 6479   2.494   2.070  12.504  0.1238  0.1166 -0.2486
  431MPD2    C4 6480   2.362   2.121  12.507  0.5570 -0.0950 -0.6589
  431MPD2    C5 6481   2.342   2.246  12.562 -0.1607 -0.0800  0.0894
  431MPD2     H 6482   2.691   2.094  12.568 -0.7314 -0.0891  1.0803
  431MPD2    H1 6483   2.275   2.070  12.464  0.6211  0.0282 -0.9353
  431MPD2    H2 6484   2.415   2.414  12.668  1.4685  0.0273  1.4757
  431MPD2    H3 6485   2.242   2.287  12.551 -0.3842 -0.3131  1.2396
  431MPD2     N 6486   2.513   1.958  12.417  0.1478 -0.2480  0.4494
  431MPD2    H5 6487   2.426   1.923  12.376 -0.1380  1.4363 -0.3772
  431MPD2    N1 6488   2.662   2.324  12.697 -0.6768  0.4908 -0.2007
  431MPD2    H7 6489   2.634   2.419  12.719 -1.8956  0.3348 -1.0679
  432TMC3    C1 6490   2.618   1.814  12.258 -0.7315  0.6860 -0.0588
  432TMC3    C2 6491   2.721   1.794  12.162  0.2736  0.4413  0.6021
  432TMC3    C3 6492   2.723   1.672  12.096 -0.7106  0.6349  0.4552
  432TMC3    C4 6493   2.531   1.702  12.281  0.0935 -0.6498 -0.3921
  432TMC3    C5 6494   2.544   1.585  12.214 -0.4204  0.4394 -0.4872
  432TMC3    C6 6495   2.634   1.577  12.111  0.4535 -0.1018  0.2375
  432TMC3     C 6496   2.635   1.920  12.353  0.0260 -0.0664 -0.8574
  432TMC3     O 6497   2.741   1.980  12.364 -0.1179  0.2347 -1.0857
  432TMC3     H 6498   2.787   1.877  12.141  0.8090 -0.4318 -1.1722
  432TMC3    H1 6499   2.443   1.719  12.343  1.2346 -2.7609  1.8407
  432TMC3    H2 6500   2.661   1.481  12.068 -1.2979 -0.6448  0.3499
  432TMC3    C7 6501   2.549   1.468  12.304 -0.2609 -0.5769  0.2087
  432TMC3    C8 6502   2.813   1.659  11.983  0.1561  0.0871  0.0351
  432TMC3    O1 6503   2.572   1.361  12.251 -0.0517 -0.0169  0.4858
  432TMC3    O2 6504   2.786   1.583  11.889  0.5813 -0.1033  0.3336
  433MPD2     C 6505   1.123   0.298  10.859  0.4408  0.1084  0.2160
  433MPD2    C1 6506   1.257   0.329  10.842  0.5084 -0.6212 -1.3376
  433MPD2    C2 6507   1.307   0.426  10.929  0.0018  0.3271  0.1444
  433MPD2    C3 6508   1.226   0.481  11.029  0.3656 -0.3500 -0.7012
  433MPD2    C4 6509   1.093   0.447  11.037  0.2755  0.9646 -0.4324
  433MPD2    C5 6510   1.045   0.358  10.951  0.6087 -0.0004 -0.1108
  433MPD2     H 6511   1.409   0.463  10.919  0.3846 -0.3459  1.4010
  433MPD2    H1 6512   1.029   0.490  11.114 -0.7499  1.4086 -1.5230
  433MPD2    H2 6513   1.068   0.233  10.792 -1.5615  1.5438  0.4417
  433MPD2    H3 6514   0.941   0.329  10.955  0.7330 -0.4149  0.0406
  433MPD2     N 6515   1.301   0.555  11.124  0.1548  0.7059  0.2950
  433MPD2    H5 6516   1.403   0.562  11.124  0.3636 -2.0122 -0.7597
  433MPD2    N1 6517   1.335   0.260  10.744  0.3867  0.3927  0.4132
  433MPD2    H7 6518   1.299   0.182  10.690  0.6058  1.1901 -0.8986
  434TMC3    C1 6519   1.530   0.160  10.673 -0.0771  0.6239 -0.4824
  434TMC3    C2 6520   1.645   0.115  10.739  0.3741 -1.0988 -0.0005
  434TMC3    C3 6521   1.694   4.731  10.698  0.3659  0.6305 -0.0368
  434TMC3    C4 6522   1.469   0.089  10.571 -0.4869  0.1262  0.6512
  434TMC3    C5 6523   1.534   4.714  10.523 -0.0176  0.3269  0.1632
  434TMC3    C6 6524   1.647   4.661  10.586  0.7391  0.0916 -0.4713
  434TMC3     C 6525   1.473   0.274  10.740  0.6278  0.0361  0.0187
  434TMC3     O 6526   1.547   0.348  10.804  0.2232  0.4409  0.3039
  434TMC3     H 6527   1.659   0.152  10.840  1.2558 -3.1204  0.6027
  434TMC3    H1 6528   1.381   0.131  10.523  0.5446  0.3110 -1.0745
  434TMC3    H2 6529   1.694   4.572  10.547  0.7994 -0.2001  0.2673
  434TMC3    C7 6530   1.486   4.648  10.403 -0.0432 -0.3467 -0.3755
  434TMC3    C8 6531   1.775   4.660  10.795 -0.7372 -0.3565 -0.2718
  434TMC3    O1 6532   1.412   4.719  10.333  0.2508 -0.1696  0.0780
  434TMC3    O2 6533   1.823   4.732  10.882  0.3949 -0.2047 -0.2595
  435MPD2     C 6534   3.484   0.355  15.597  0.1447  0.3045 -0.3497
  435MPD2    C1 6535   3.423   0.335  15.721  0.2173  0.3268 -0.1262
  435MPD2    C2 6536   3.503   0.293  15.828 -0.0719  0.5715  0.0189
  435MPD2    C3 6537   3.637   0.260  15.802  0.4358 -0.6266  0.3456
  435MPD2    C4 6538   3.695   0.287  15.680  0.4999  0.1458  0.7173
  435MPD2    C5 6539   3.617   0.329  15.578 -0.1805  0.4759 -0.7406
  435MPD2     H 6540   3.459   0.266  15.923  2.2855 -2.2173  0.3083
  435MPD2    H1 6541   3.797   0.268  15.647  0.1113 -0.5154 -0.0931
  435MPD2    H2 6542   3.430   0.397  15.512  0.0418  0.9205  0.0179
  435MPD2    H3 6543   3.664   0.340  15.481  0.5009  0.7268 -0.3822
  435MPD2     N 6544   3.716   0.220  15.915 -0.6327 -0.0684 -0.2915
  435MPD2    H5 6545   3.665   0.203  16.001  0.3056  0.7198  0.4158
  435MPD2    N1 6546   3.287   0.351  15.755  0.1536 -0.3459  0.2425
  435MPD2    H7 6547   3.256   0.329  15.849 -1.8973  0.2214 -0.2847
  436TMC3    C1 6548   2.929   0.465  15.915  0.3792  0.3712 -0.6015
  436TMC3    C2 6549   3.053   0.441  15.867  0.0142 -0.7810 -0.2227
  436TMC3    C3 6550   3.060   0.421  15.727 -0.9171  0.3225  0.2434
  436TMC3    C4 6551   2.812   0.444  15.843  0.1637 -0.1917  1.1321
  436TMC3    C5 6552   2.826   0.429  15.705  0.4739 -0.1967 -0.2535
  436TMC3    C6 6553   2.953   0.407  15.645 -0.6176 -0.1921 -0.1644
  436TMC3     C 6554   2.927   0.515  16.056  0.9269  0.0644  0.3497
  436TMC3     O 6555   3.036   0.557  16.100  0.0187 -0.0311  0.0206
  436TMC3     H 6556   3.141   0.449  15.930  0.6971 -0.6400 -1.1939
  436TMC3    H1 6557   2.720   0.488  15.880  0.7218  1.9379 -0.0280
  436TMC3    H2 6558   2.963   0.395  15.538  0.9839  1.1550 -0.1622
  436TMC3    C7 6559   2.715   0.382  15.618 -0.2131  0.0100  0.4459
  436TMC3    C8 6560   3.191   0.396  15.667  0.0205  0.0539 -0.0857
  436TMC3    O1 6561   2.736   0.369  15.495 -0.0504 -0.5941  0.1320
  436TMC3    O2 6562   3.196   0.410  15.547  0.0532  0.0599 -0.5999
  437TMC3    C1 6563   1.837   2.630  13.388 -0.1680  0.6630  0.1033
  437TMC3    C2 6564   1.740   2.690  13.465  0.3438 -0.4843 -0.2283
  437TMC3    C3 6565   1.741   2.828  13.468  0.2153 -0.6087  0.6146
  437TMC3    C4 6566   1.931   2.704  13.320  0.7200 -0.1134 -0.1420
  437TMC3    C5 6567   1.930   2.841  13.333  0.2129 -1.1616 -0.5130
  437TMC3    C6 6568   1.829   2.908  13.398 -0.9104  0.8199 -0.6249
  437TMC3     C 6569   1.875   2.505  13.441  0.5100 -0.3195  0.0447
  437TMC3     O 6570   1.837   2.466  13.553  0.0463 -0.5872 -0.2720
  437TMC3     H 6571   1.675   2.628  13.526 -1.6046  0.8979 -0.8773
  437TMC3    H1 6572   1.999   2.653  13.252  1.4445  1.8666 -0.8988
  437TMC3    H2 6573   1.832   3.016  13.402  1.3481  0.6671  1.9394
  437TMC3    C7 6574   2.020   2.927  13.254 -0.2832 -0.1620  0.5072
  437TMC3    C8 6575   1.644   2.880  13.563  0.0124 -0.7027 -0.3135
  437TMC3    O1 6576   1.982   3.036  13.206 -0.3856 -0.3648 -0.6064
  437TMC3    O2 6577   1.551   2.803  13.587 -0.6645 -0.0170 -0.1723
  438MPD2     C 6578   4.361   3.632  16.765  0.1209 -0.8321 -0.8985
  438MPD2    C1 6579   4.416   3.523  16.824 -0.7796  0.0086  0.1641
  438MPD2    C2 6580   4.361   3.490  16.947 -0.0181 -0.0401 -0.4091
  438MPD2    C3 6581   4.257   3.561  17.006  0.6420 -0.1047 -0.1337
  438MPD2    C4 6582   4.201   3.668  16.943 -0.2489 -0.3331 -0.5853
  438MPD2    C5 6583   4.253   3.700  16.819  0.1002 -0.2349 -0.3902
  438MPD2     H 6584   4.408   3.402  16.990  0.9206  0.7970  0.2607
  438MPD2    H1 6585   4.118   3.727  16.981  0.7445  0.7438 -0.1102
  438MPD2    H2 6586   4.385   3.662  16.664  0.4866  0.9000 -0.2992
  438MPD2    H3 6587   4.204   3.779  16.763  0.1202  0.2400  0.2635
  438MPD2     N 6588   4.200   3.517  17.124  0.1827 -0.2916 -0.3483
  438MPD2    H5 6589   4.110   3.559  17.146 -0.6600 -1.8454 -0.8033
  438MPD2    N1 6590   4.514   3.430  16.771  0.0230 -0.0309 -0.1403
  438MPD2    H7 6591   4.521   3.344  16.825 -2.6386 -0.2119 -0.0659
  439TMC3    C1 6592   4.633   3.324  16.600  0.0608 -0.0969  0.3248
  439TMC3    C2 6593   4.647   3.315  16.462 -0.0776  0.2678 -0.0905
  439TMC3    C3 6594   4.684   3.197  16.405  0.2668  0.0097  0.2070
  439TMC3    C4 6595   4.659   3.221  16.688  0.5170  0.7027  0.0415
  439TMC3    C5 6596   4.691   3.101  16.620  0.0717  0.0668  0.2498
  439TMC3    C6 6597   4.692   3.084  16.485  0.2601  0.3665  0.2111
  439TMC3     C 6598   4.593   3.448  16.656  0.8960  0.5473  0.1198
  439TMC3     O 6599   4.612   3.551  16.593  0.3760  0.2071 -0.2644
  439TMC3     H 6600   4.629   3.397  16.393 -1.1680  0.2996  0.2317
  439TMC3    H1 6601   4.668   3.236  16.795  3.8644  0.8171 -0.2503
  439TMC3    H2 6602   0.017   3.007  16.442 -0.0274  1.0864 -1.5166
  439TMC3    C7 6603   0.032   3.005  16.701  0.3331 -0.4704 -0.4265
  439TMC3    C8 6604   4.703   3.171  16.261 -0.0839  0.5322  0.2528
  439TMC3    O1 6605   0.083   3.047  16.805 -0.1408  0.1548  0.1670
  439TMC3    O2 6606   4.687   3.051  16.235 -0.0640 -0.5056 -0.5640
  440MPD2     C 6607   3.143   3.317  15.070  0.1440 -0.4543 -0.2100
  440MPD2    C1 6608   3.205   3.385  15.176 -0.1643 -0.1296  0.3709
  440MPD2    C2 6609   3.309   3.321  15.239  0.5159 -0.2270  0.0504
  440MPD2    C3 6610   3.366   3.202  15.199  0.2143  0.5494  0.1656
  440MPD2    C4 6611   3.314   3.140  15.086 -0.2950 -0.4600 -0.1776
  440MPD2    C5 6612   3.203   3.196  15.027 -0.0077 -0.4302  0.4675
  440MPD2     H 6613   3.350   3.377  15.322  2.2086  1.0210 -1.6402
  440MPD2    H1 6614   3.348   3.040  15.060  0.9780  0.8621 -3.5360
  440MPD2    H2 6615   3.052   3.345  15.016  0.2905 -0.0147 -0.2294
  440MPD2    H3 6616   3.148   3.150  14.946  0.2845  0.1111 -0.0393
  440MPD2     N 6617   3.483   3.140  15.259  0.4985 -0.3809 -0.8890
  440MPD2    H5 6618   3.489   3.040  15.241 -2.8513 -0.5745 -0.8452
  440MPD2    N1 6619   3.155   3.505  15.224 -0.4205 -0.1416  0.3721
  440MPD2    H7 6620   3.212   3.549  15.295 -0.7285  1.6467 -0.4822
  441TMC3    C1 6621   3.688   3.127  15.377 -0.9840 -0.1029 -0.5592
  441TMC3    C2 6622   3.785   3.208  15.437 -0.4688  0.1116 -0.1769
  441TMC3    C3 6623   3.836   3.171  15.552 -0.1876  0.0419 -0.1887
  441TMC3    C4 6624   3.653   3.016  15.436 -0.2191 -0.4598  0.4522
  441TMC3    C5 6625   3.705   2.981  15.555  0.2316 -0.0193  0.2741
  441TMC3    C6 6626   3.795   3.056  15.612  0.0933 -0.2237 -0.1186
  441TMC3     C 6627   3.585   3.210  15.321  0.6443 -0.4730 -0.4623
  441TMC3     O 6628   3.596   3.334  15.330 -0.1434 -0.1039 -0.4087
  441TMC3     H 6629   3.817   3.298  15.386 -2.4798  0.2106 -1.2720
  441TMC3    H1 6630   3.571   2.952  15.404  0.2598 -1.9601  2.1925
  441TMC3    H2 6631   3.837   3.038  15.711  0.2708 -0.7990 -0.3005
  441TMC3    C7 6632   3.616   2.910  15.644  0.3484 -0.2196 -0.1468
  441TMC3    C8 6633   3.863   3.279  15.642 -0.1802 -0.4105  0.3063
  441TMC3    O1 6634   3.498   2.939  15.630  0.2314  0.4816 -0.2262
  441TMC3    O2 6635   3.929   3.262  15.747  0.0568  0.4756  0.3400
  442MPD2     C 6636   1.655   3.946  16.548  0.5242  0.3700  0.0996
  442MPD2    C1 6637   1.560   3.868  16.612 -0.3070 -0.3235  0.0011
  442MPD2    C2 6638   1.509   3.760  16.545 -0.8102  0.5335  0.4303
  442MPD2    C3 6639   1.548   3.730  16.419 -0.1104 -0.3125  0.6025
  442MPD2    C4 6640   1.640   3.816  16.351  0.0963  0.2506 -0.9456
  442MPD2    C5 6641   1.687   3.926  16.415  0.1049  0.7052  0.2360
  442MPD2     H 6642   1.435   3.703  16.600 -1.8289  0.8492 -0.6087
  442MPD2    H1 6643   1.672   3.792  16.251 -1.2418  1.0051 -1.5536
  442MPD2    H2 6644   1.680   4.038  16.599  0.1967 -0.0306  0.9806
  442MPD2    H3 6645   1.756   3.995  16.368  0.8549 -0.0567  0.2132
  442MPD2     N 6646   1.514   3.610  16.350  0.7339  0.0094 -0.3070
  442MPD2    H5 6647   1.530   3.598  16.250  1.1469 -1.1240 -0.0961
  442MPD2    N1 6648   1.522   3.895  16.750 -1.2049  0.4466  0.0052
  442MPD2    H7 6649   1.456   3.825  16.782 -2.8124  1.1040 -1.8571
  443TMC3    C1 6650   1.505   3.996  16.962  0.3795 -0.0935  0.7586
  443TMC3    C2 6651   1.519   4.113  17.029  0.2496 -0.1083  0.0517
  443TMC3    C3 6652   1.447   4.122  17.141 -0.3207 -0.1092  0.2774
  443TMC3    C4 6653   1.419   3.901  17.005 -0.1993 -0.5475 -0.0076
  443TMC3    C5 6654   1.365   3.907  17.125  0.0083 -0.4509 -0.3745
  443TMC3    C6 6655   1.381   4.020  17.204  0.8079  0.3465 -0.2404
  443TMC3     C 6656   1.559   4.005  16.827 -0.1657  0.2572 -0.5095
  443TMC3     O 6657   1.624   4.108  16.803  0.2367 -0.0426 -0.3863
  443TMC3     H 6658   1.579   4.198  17.000  1.0753 -1.2639 -1.6254
  443TMC3    H1 6659   1.384   3.821  16.940  0.0199  0.4096 -1.3024
  443TMC3    H2 6660   1.335   4.034  17.301  1.6316 -0.9048  0.3239
  443TMC3    C7 6661   1.245   3.829  17.144  0.4684 -0.3111  0.2749
  443TMC3    C8 6662   1.451   4.243  17.219 -0.2098  0.1528  0.0453
  443TMC3    O1 6663   1.220   3.726  17.083  0.0652  0.0373 -0.4833
  443TMC3    O2 6664   1.483   4.224  17.338  0.5979  0.0414 -0.2821
  444MPD2     C 6665   1.670   3.412  17.128 -0.1333  0.1909  0.3323
  444MPD2    C1 6666   1.564   3.332  17.113  0.5701 -0.3527  0.4696
  444MPD2    C2 6667   1.570   3.214  17.048  0.0566  0.6762 -0.7134
  444MPD2    C3 6668   1.691   3.175  16.997 -0.6214 -0.4639  0.6034
  444MPD2    C4 6669   1.801   3.244  17.027  0.0850 -0.0984  0.4501
  444MPD2    C5 6670   1.793   3.365  17.090  0.7989  0.5856  0.1405
  444MPD2     H 6671   1.482   3.154  17.028 -0.9883  2.0260 -0.1378
  444MPD2    H1 6672   1.893   3.216  16.977 -1.3142 -2.5232 -0.7868
  444MPD2    H2 6673   1.673   3.500  17.191 -2.3565 -0.7870  1.8033
  444MPD2    H3 6674   1.883   3.418  17.119  0.8962  2.6057 -3.8152
  444MPD2     N 6675   1.686   3.060  16.911  0.5443  0.3047 -0.2726
  444MPD2    H5 6676   1.594   3.022  16.889  0.4941  0.3232 -0.0919
  444MPD2    N1 6677   1.437   3.375  17.170 -0.5631  0.6893 -0.7932
  444MPD2    H7 6678   1.364   3.304  17.164 -1.2491  1.2747  0.6430
  445TMC3    C1 6679   1.773   2.888  16.767 -0.1761 -0.2267  0.1909
  445TMC3    C2 6680   1.678   2.797  16.799 -0.2473  0.0154 -0.1125
  445TMC3    C3 6681   1.674   2.675  16.738  0.8947  0.0049  1.3299
  445TMC3    C4 6682   1.875   2.857  16.684  0.3698 -0.4741  0.5880
  445TMC3    C5 6683   1.874   2.731  16.638  0.0625  0.7775  0.0044
  445TMC3    C6 6684   1.769   2.646  16.650 -0.2149 -0.1594 -0.1113
  445TMC3     C 6685   1.801   3.006  16.849  0.3136 -0.7581  0.1118
  445TMC3     O 6686   1.913   3.051  16.844  0.3663 -0.4774  0.1517
  445TMC3     H 6687   1.615   2.821  16.884  0.9711 -0.5668  0.9572
  445TMC3    H1 6688   1.957   2.927  16.672  1.6124 -2.4829 -2.9719
  445TMC3    H2 6689   1.780   2.554  16.594 -0.3147  0.0235 -0.4355
  445TMC3    C7 6690   1.996   2.682  16.573  0.0309 -0.0573  0.1637
  445TMC3    C8 6691   1.608   2.569  16.795 -0.0091  0.2432 -0.2424
  445TMC3    O1 6692   2.077   2.771  16.544  0.0092 -0.0801  0.0043
  445TMC3    O2 6693   1.581   2.557  16.913 -0.3750 -0.7527 -0.7528
  446MPD2     C 6694   1.235   4.549  10.676  0.1668 -0.7173 -0.2793
  446MPD2    C1 6695   1.152   4.617  10.754 -0.3767 -0.1845  0.9650
  446MPD2    C2 6696   1.204   4.692  10.856  0.1033  0.0448 -0.1722
  446MPD2    C3 6697   1.333   4.667  10.898 -0.3927 -0.0191 -0.1010
  446MPD2    C4 6698   1.412   4.578  10.834  0.5322 -0.6054  0.7919
  446MPD2    C5 6699   1.356   4.525  10.718 -0.6446  0.8223 -0.2925
  446MPD2     H 6700   1.139   0.031  10.899  0.6040  2.4046 -3.5872
  446MPD2    H1 6701   1.516   4.549  10.848  0.6579 -1.6006 -2.0534
  446MPD2    H2 6702   1.200   4.509  10.581  2.7971  0.8883 -1.9573
  446MPD2    H3 6703   1.420   4.452  10.670 -0.5758  1.9036 -1.8601
  446MPD2     N 6704   1.382   0.007  10.998 -0.1984 -0.1762 -0.5427
  446MPD2    H5 6705   1.335   0.084  11.045 -2.6371 -2.5826  0.9880
  446MPD2    N1 6706   1.013   4.626  10.727  0.2785 -0.0209 -0.1373
  446MPD2    H7 6707   0.949   4.668  10.793 -1.9506 -1.9733 -1.0696
  447TMC3    C1 6708   1.560   0.052  11.162  0.3661 -0.5864  0.0023
  447TMC3    C2 6709   1.560   0.184  11.125  0.1963  0.1193  0.4520
  447TMC3    C3 6710   1.654   0.266  11.176 -0.1815  0.0348  0.1050
  447TMC3    C4 6711   1.659   0.006  11.247 -0.4533 -0.3511 -0.4849
  447TMC3    C5 6712   1.754   0.091  11.296 -0.0510 -0.0910 -0.1691
  447TMC3    C6 6713   1.749   0.226  11.265  0.1908 -0.0635  0.6214
  447TMC3     C 6714   1.481   4.689  11.081  0.4145 -0.6160  0.2184
  447TMC3     O 6715   1.510   4.572  11.103 -0.0825 -1.0343  0.7737
  447TMC3     H 6716   1.477   0.225  11.069  0.0463  1.0950  1.4098
  447TMC3    H1 6717   1.672   4.637  11.263  1.9265 -0.2460 -1.7746
  447TMC3    H2 6718   1.830   0.294  11.288 -0.5779 -0.3011  3.9077
  447TMC3    C7 6719   1.880   0.023  11.319  1.1107 -0.1694  0.4081
  447TMC3    C8 6720   1.676   0.389  11.109  0.4140 -0.3918 -0.0336
  447TMC3    O1 6721   1.913   4.665  11.261 -0.1768  1.1970 -0.3542
  447TMC3    O2 6722   1.582   0.467  11.110 -0.3143 -0.1983 -0.3891
  448TMC3    C1 6723   4.035   4.725  17.350 -0.3935  0.3759 -0.3652
  448TMC3    C2 6724   4.027   4.640  17.248  0.2244  0.0565  0.3392
  448TMC3    C3 6725   4.116   4.537  17.247 -0.8451 -0.1954  0.2311
  448TMC3    C4 6726   4.125   4.718  17.457 -0.5586 -0.4298  0.1736
  448TMC3    C5 6727   4.197   4.605  17.450 -0.0782  0.5210  0.3004
  448TMC3    C6 6728   4.202   4.516  17.346  0.0561 -0.3563 -0.4736
  448TMC3     C 6729   3.949   0.108  17.339  0.2625 -1.0748  0.1986
  448TMC3     O 6730   3.922   0.144  17.227  0.8183 -0.1685 -0.4133
  448TMC3     H 6731   3.948   4.654  17.174  1.3623 -1.4576 -1.1796
  448TMC3    H1 6732   4.130   0.062  17.529  0.7702  0.0961 -0.4980
  448TMC3    H2 6733   4.274   4.436  17.351  0.3136 -0.1073 -0.2266
  448TMC3    C7 6734   4.308   4.597  17.541 -0.0730  0.1796  0.5733
  448TMC3    C8 6735   4.147   4.462  17.127 -0.7805  0.6864  0.9318
  448TMC3    O1 6736   4.409   4.545  17.494  0.3520 -0.3323  0.0106
  448TMC3    O2 6737   4.203   4.357  17.136 -0.1324 -0.0855 -0.2897
  449MPD2     C 6738   1.181   3.679  14.179  0.3069  0.0661 -0.5240
  449MPD2    C1 6739   1.062   3.658  14.118 -0.3406  0.4951 -0.3101
  449MPD2    C2 6740   0.967   3.572  14.176 -0.0563  0.1102 -0.1825
  449MPD2    C3 6741   0.991   3.532  14.302  0.2623  0.8879  0.1759
  449MPD2    C4 6742   1.111   3.550  14.359  0.3159 -0.2934 -0.1329
  449MPD2    C5 6743   1.210   3.619  14.298  0.6892 -0.4447 -0.7650
  449MPD2     H 6744   0.876   3.542  14.125 -0.3231 -1.4235  1.1892
  449MPD2    H1 6745   1.135   3.503  14.454  1.3196  0.0666 -0.2108
  449MPD2    H2 6746   1.250   3.747  14.129  0.2987 -0.6979 -1.5789
  449MPD2    H3 6747   1.304   3.638  14.349  0.5397 -2.9763  0.4692
  449MPD2     N 6748   0.887   3.455  14.354  0.4756  0.2294  0.6869
  449MPD2    H5 6749   0.814   3.437  14.285 -1.5887  1.4636  2.5285
  449MPD2    N1 6750   1.028   3.725  13.997 -0.5139  0.4656  0.1826
  449MPD2    H7 6751   0.942   3.690  13.957 -0.5900  2.4487 -1.3768
  450TMC3    C1 6752   1.050   3.822  13.783 -0.3042  0.1482  0.0024
  450TMC3    C2 6753   1.118   3.758  13.674  0.3426  0.3709 -0.0666
  450TMC3    C3 6754   1.042   3.675  13.597 -0.4093 -0.2233  0.3891
  450TMC3    C4 6755   0.915   3.805  13.792  0.3343  0.0420  0.9749
  450TMC3    C5 6756   0.853   3.716  13.714 -0.7870 -0.1343  0.2398
  450TMC3    C6 6757   0.915   3.643  13.618  0.2346  0.5728 -0.6274
  450TMC3     C 6758   1.104   3.800  13.914  0.3953  0.1532  0.3848
  450TMC3     O 6759   1.218   3.851  13.924 -0.9497 -0.2684  0.0539
  450TMC3     H 6760   1.222   3.784  13.658  0.0550  0.9471 -1.0205
  450TMC3    H1 6761   0.864   3.868  13.864  0.5794  1.4412 -0.0930
  450TMC3    H2 6762   0.863   3.566  13.562  0.7921 -1.5117  1.6820
  450TMC3    C7 6763   0.752   3.657  13.793 -0.0643  0.5662  0.9310
  450TMC3    C8 6764   1.103   3.594  13.495  0.8259  0.4369  0.3874
  450TMC3    O1 6765   0.779   3.660  13.909 -0.2282 -0.6376  1.2044
  450TMC3    O2 6766   1.033   3.524  13.421  0.6240 -0.3067 -0.2086
  451MPD2     C 6767   1.909   1.525   1.223  0.0638  0.6739  0.1752
  451MPD2    C1 6768   2.046   1.556   1.247  0.0060 -0.2283 -0.5523
  451MPD2    C2 6769   2.131   1.445   1.251 -0.1308  0.5258 -1.2765
  451MPD2    C3 6770   2.096   1.320   1.200 -0.2230 -0.3596  0.3477
  451MPD2    C4 6771   1.967   1.294   1.167 -0.6910 -0.5446 -0.0649
  451MPD2    C5 6772   1.875   1.402   1.169 -0.4052  0.1493 -0.3279
  451MPD2     H 6773   2.235   1.459   1.279 -0.0611 -1.9717 -0.2543
  451MPD2    H1 6774   1.925   1.201   1.129 -0.3631 -0.1738 -1.3453
  451MPD2    H2 6775   1.833   1.603   1.225 -1.2909 -0.6640  0.9492
  451MPD2    H3 6776   1.771   1.383   1.146 -0.9268  2.4196  0.1514
  451MPD2     N 6777   2.189   1.215   1.187  0.2256  0.0762  0.5314
  451MPD2    H5 6778   2.153   1.121   1.173 -1.4770  1.1109 -2.0518
  451MPD2    N1 6779   2.087   1.686   1.280  0.2940  0.3169  0.0361
  451MPD2    H7 6780   2.019   1.760   1.268 -0.8607 -0.4846  1.7776
  452TMC3    C1 6781   2.391   1.123   1.118  0.1594  0.1533 -0.8825
  452TMC3    C2 6782   2.325   1.023   1.058 -0.0561 -0.5419  0.3994
  452TMC3    C3 6783   2.380   0.954   0.949 -0.1148  0.6289 -0.0903
  452TMC3    C4 6784   2.517   1.158   1.065  0.7645 -0.4533  0.3604
  452TMC3    C5 6785   2.571   1.088   0.958  0.3844 -0.0303  0.3124
  452TMC3    C6 6786   2.496   1.001   0.898  0.3794 -0.4604 -0.2089
  452TMC3     C 6787   2.324   1.233   1.186  0.2511 -0.2344  0.3860
  452TMC3     O 6788   2.395   1.332   1.208  0.2123 -0.3819  0.1505
  452TMC3     H 6789   2.242   0.976   1.109 -0.9680  0.2648 -0.3421
  452TMC3    H1 6790   2.580   1.218   1.131  1.3306 -2.0156  1.2517
  452TMC3    H2 6791   2.549   0.946   0.821 -0.5549  0.3339 -1.4189
  452TMC3    C7 6792   2.668   1.158   0.881 -0.0001 -0.3385 -0.0243
  452TMC3    C8 6793   2.311   0.845   0.883 -0.2732 -0.6432 -1.0403
  452TMC3    O1 6794   2.677   1.139   0.759 -0.4488  0.6787  0.6944
  452TMC3    O2 6795   2.195   0.832   0.918  0.4197  0.3630  0.4614
  453TMC3    C1 6796   3.672   3.602  12.238 -0.0662 -0.6281  0.0461
  453TMC3    C2 6797   3.582   3.548  12.327 -0.9487  0.7347  0.1185
  453TMC3    C3 6798   3.449   3.567  12.297  0.9491 -0.2065 -0.3677
  453TMC3    C4 6799   3.632   3.637  12.109  0.0773 -0.0243  0.1395
  453TMC3    C5 6800   3.497   3.630  12.082 -0.0044 -0.3694 -0.4918
  453TMC3    C6 6801   3.402   3.605  12.176 -0.6097  0.3922  0.1794
  453TMC3     C 6802   3.810   3.626  12.272  0.1289 -0.2901  0.0322
  453TMC3     O 6803   3.865   3.708  12.198  0.6987 -0.0454 -0.1671
  453TMC3     H 6804   3.605   3.516  12.428 -1.6256  1.8013  0.6162
  453TMC3    H1 6805   3.710   3.659  12.037 -0.3782 -0.3767 -0.4611
  453TMC3    H2 6806   3.299   3.591  12.147 -0.9415  2.7071  0.2973
  453TMC3    C7 6807   3.456   3.668  11.949  0.1057 -0.0776 -0.2033
  453TMC3    C8 6808   3.357   3.505  12.390 -0.7603  0.4887  0.0555
  453TMC3    O1 6809   3.537   3.642  11.861  0.2020  0.6577 -0.0458
  453TMC3    O2 6810   3.251   3.556  12.410 -0.1749  0.2044 -0.1407
  454MPD2     C 6811   2.465   2.888  16.232 -0.3979 -1.0694 -0.5197
  454MPD2    C1 6812   2.331   2.852  16.250  0.2971 -0.3959  0.1169
  454MPD2    C2 6813   2.237   2.943  16.301  0.4841  0.6993 -0.5730
  454MPD2    C3 6814   2.278   3.065  16.340  0.4994  0.1081 -0.4938
  454MPD2    C4 6815   2.408   3.100  16.315  0.7022  0.6688 -0.0195
  454MPD2    C5 6816   2.498   3.017  16.251  0.7285  0.3163 -1.1644
  454MPD2     H 6817   2.141   2.904  16.331  0.4420  1.0981 -0.2025
  454MPD2    H1 6818   2.445   3.201  16.326  0.6068  0.6456  0.4805
  454MPD2    H2 6819   2.532   2.826  16.174  4.3503  4.0509 -0.4288
  454MPD2    H3 6820   2.597   3.048  16.218  1.0173 -1.3145 -1.7945
  454MPD2     N 6821   2.201   3.169  16.396  0.0198  0.2591 -0.4673
  454MPD2    H5 6822   2.246   3.255  16.426  0.3711 -1.0078  2.7076
  454MPD2    N1 6823   2.278   2.730  16.209 -0.2036 -0.3608 -0.1882
  454MPD2    H7 6824   2.178   2.732  16.197 -0.1180  1.6564 -0.5349
  455TMC3    C1 6825   2.016   3.273  16.482  0.7783  0.6697 -0.3961
  455TMC3    C2 6826   2.050   3.281  16.610  0.6585  0.1351  0.6620
  455TMC3    C3 6827   1.951   3.320  16.698 -1.0707 -0.4563  0.3409
  455TMC3    C4 6828   1.884   3.266  16.441  0.7099 -0.1848  0.3404
  455TMC3    C5 6829   1.791   3.281  16.538  0.0829 -0.8580  0.4375
  455TMC3    C6 6830   1.819   3.327  16.662  0.2063 -0.2179  0.3476
  455TMC3     C 6831   2.071   3.157  16.420  0.7531 -0.6750 -0.8946
  455TMC3     O 6832   1.994   3.066  16.388 -0.0598 -0.3505  0.0295
  455TMC3     H 6833   2.150   3.307  16.643 -0.6179  1.8170  3.2452
  455TMC3    H1 6834   1.855   3.265  16.337  2.3724 -2.4974 -0.1126
  455TMC3    H2 6835   1.744   3.352  16.737 -0.9812 -1.5026 -0.4155
  455TMC3    C7 6836   1.680   3.193  16.533  0.2008 -0.2369  0.3813
  455TMC3    C8 6837   1.990   3.415  16.798 -0.1072  0.1824  0.2549
  455TMC3    O1 6838   1.588   3.206  16.613 -0.0656  0.4155  0.8922
  455TMC3    O2 6839   2.090   3.386  16.864  0.6895 -0.0158  0.0630
  456MPD2     C 6840   0.283   3.760  16.197  0.8871  0.4520  0.1133
  456MPD2    C1 6841   0.238   3.647  16.259  0.0991 -0.8450  0.5017
  456MPD2    C2 6842   0.124   3.665  16.345 -0.2987  0.2558 -0.1094
  456MPD2    C3 6843   0.063   3.789  16.367  0.5369  0.2357 -0.1904
  456MPD2    C4 6844   0.109   3.896  16.294  0.0616 -0.0372 -0.2633
  456MPD2    C5 6845   0.217   3.880  16.214  1.1284  0.2657 -0.3092
  456MPD2     H 6846   0.089   3.583  16.406 -1.5271  0.7335 -0.1673
  456MPD2    H1 6847   0.059   3.992  16.292 -2.1495 -1.1712  0.4582
  456MPD2    H2 6848   0.371   3.751  16.135  1.8455 -1.3265  1.7364
  456MPD2    H3 6849   0.258   3.956  16.148  1.6666  1.5298  1.4614
  456MPD2     N 6850   4.698   3.791  16.462  0.4921  0.5054 -0.0909
  456MPD2    H5 6851   4.682   3.703  16.511  3.2287  1.3321  2.2503
  456MPD2    N1 6852   0.300   3.521  16.231  0.3180 -0.3138 -0.0055
  456MPD2    H7 6853   0.368   3.536  16.157  0.0467  0.1433 -0.1609
  457TMC3    C1 6854   4.542   3.891  16.605 -0.1015  0.0935  0.2041
  457TMC3    C2 6855   4.430   3.973  16.616  0.3937 -0.3069 -0.1010
  457TMC3    C3 6856   4.394   4.007  16.742  0.1714  0.0615 -0.4064
  457TMC3    C4 6857   4.609   3.833  16.715  0.0179  0.4759  0.0123
  457TMC3    C5 6858   4.545   3.867  16.838  0.7944 -0.3877 -0.3887
  457TMC3    C6 6859   4.440   3.958  16.854 -0.2325 -0.4401 -0.1700
  457TMC3     C 6860   4.627   3.907  16.488 -0.0958 -0.2090  0.4941
  457TMC3     O 6861   4.616   4.009  16.421 -0.2255  0.0105  0.7446
  457TMC3     H 6862   4.394   4.028  16.529 -0.4879 -0.1348  0.3744
  457TMC3    H1 6863   4.697   3.770  16.717 -0.2919  0.0750  1.1370
  457TMC3    H2 6864   4.411   3.995  16.951 -0.3633  1.5026 -0.9375
  457TMC3    C7 6865   4.596   3.798  16.952  0.4134  0.1264  0.0251
  457TMC3    C8 6866   4.282   4.095  16.764 -0.2639 -0.5932 -0.6046
  457TMC3    O1 6867   4.711   3.758  16.951  0.2219 -0.2153 -0.3920
  457TMC3    O2 6868   4.224   4.083  16.872 -0.0045 -0.4284  0.2295
  458MPD2     C 6869   2.500   3.002  13.120  0.3244  0.1405 -0.3602
  458MPD2    C1 6870   2.498   2.882  13.179 -0.1287 -0.0317 -0.2500
  458MPD2    C2 6871   2.372   2.843  13.216  0.0717  0.1219  0.2317
  458MPD2    C3 6872   2.255   2.920  13.194  0.7748  0.3103 -0.0751
  458MPD2    C4 6873   2.266   3.040  13.127 -0.0091 -0.0327 -0.0299
  458MPD2    C5 6874   2.385   3.076  13.089  0.9834  0.9671 -0.4514
  458MPD2     H 6875   2.363   2.745  13.261 -3.0092 -0.4965 -1.6915
  458MPD2    H1 6876   2.187   3.107  13.094 -1.4351 -1.8086 -0.2140
  458MPD2    H2 6877   2.595   3.049  13.101  2.4962 -3.6363  1.2493
  458MPD2    H3 6878   2.397   3.165  13.028 -1.6303 -0.2031 -2.6839
  458MPD2     N 6879   2.141   2.871  13.251 -0.3308  0.4521 -0.9092
  458MPD2    H5 6880   2.156   2.788  13.307  0.9362  0.7165 -0.8491
  458MPD2    N1 6881   2.623   2.818  13.211  0.1221 -0.2234 -0.3130
  458MPD2    H7 6882   2.702   2.868  13.172 -0.2779 -2.2256 -3.7679
  459TMC3    C1 6883   2.766   2.654  13.286 -0.1637  0.0951 -0.1891
  459TMC3    C2 6884   2.867   2.744  13.270 -0.2830  0.1414  0.3294
  459TMC3    C3 6885   2.984   2.723  13.337 -0.3156  0.2181  0.0451
  459TMC3    C4 6886   2.784   2.542  13.359  0.2888  0.9902 -0.5220
  459TMC3    C5 6887   2.899   2.524  13.425  0.1040  0.5492  1.0096
  459TMC3    C6 6888   3.003   2.615  13.418 -0.2191 -0.2126 -0.0157
  459TMC3     C 6889   2.628   2.689  13.259  0.2128  0.3799 -0.1369
  459TMC3     O 6890   2.534   2.614  13.284  0.6150  0.2940  0.7655
  459TMC3     H 6891   2.865   2.830  13.204 -0.1887  0.2752  0.4995
  459TMC3    H1 6892   2.697   2.478  13.368  2.6537 -1.6076  3.9313
  459TMC3    H2 6893   3.105   2.589  13.442 -0.1985  0.9635  1.1773
  459TMC3    C7 6894   2.894   2.407  13.511  0.4062  0.2460 -0.2982
  459TMC3    C8 6895   3.101   2.800  13.305  0.0281  0.2057 -0.1899
  459TMC3    O1 6896   2.809   2.319  13.498  0.4546 -0.2172  0.4868
  459TMC3    O2 6897   3.094   2.867  13.203  0.6048  0.5823 -0.7844
  460MPD2     C 6898   1.977   0.479  10.939 -0.1821 -1.1627  0.0386
  460MPD2    C1 6899   1.845   0.490  10.962 -0.0333 -0.2728  0.5368
  460MPD2    C2 6900   1.760   0.574  10.889  0.2747 -0.0222  0.7966
  460MPD2    C3 6901   1.822   0.632  10.778  0.0188 -0.0387  0.1348
  460MPD2    C4 6902   1.956   0.624  10.764 -0.5024  0.2401  0.0242
  460MPD2    C5 6903   2.039   0.554  10.844 -0.5996  0.4416 -0.8278
  460MPD2     H 6904   1.655   0.595  10.905 -0.0363 -0.6096 -0.4469
  460MPD2    H1 6905   2.004   0.691  10.693 -2.1705  1.6270  0.1902
  460MPD2    H2 6906   2.038   0.413  11.000  0.5652 -0.7575 -0.2701
  460MPD2    H3 6907   2.147   0.551  10.834 -0.6566 -0.0490 -1.3060
  460MPD2     N 6908   1.742   0.696  10.681  0.7365  0.0290  0.5000
  460MPD2    H5 6909   1.641   0.686  10.693  0.4570  3.2977  0.7924
  460MPD2    N1 6910   1.795   0.390  11.044  0.0259  0.2658 -0.4118
  460MPD2    H7 6911   1.855   0.308  11.056 -1.5205 -0.7132  0.6113
  461TMC3    C1 6912   1.677   0.789  10.472  0.0058 -1.2602  0.8222
  461TMC3    C2 6913   1.715   0.778  10.336  0.0928  0.1111 -0.7105
  461TMC3    C3 6914   1.611   0.790  10.244 -0.5973 -0.1141 -0.2150
  461TMC3    C4 6915   1.550   0.817  10.516  0.2350 -0.4900 -0.0782
  461TMC3    C5 6916   1.470   0.850  10.418 -0.1928 -0.4496  0.0399
  461TMC3    C6 6917   1.489   0.830  10.287 -0.5093  0.1519  0.1627
  461TMC3     C 6918   1.783   0.761  10.570  0.3998  0.4203  0.0268
  461TMC3     O 6919   1.893   0.792  10.524  0.1117 -0.0139 -0.7136
  461TMC3     H 6920   1.817   0.744  10.318  0.8607  0.8815  2.2801
  461TMC3    H1 6921   1.525   0.836  10.620 -1.9619 -0.0416 -0.6855
  461TMC3    H2 6922   1.399   0.816  10.227 -0.4573 -1.6490  0.5279
  461TMC3    C7 6923   1.339   0.882  10.453  0.7753 -0.2398 -0.2951
  461TMC3    C8 6924   1.595   0.659  10.186 -0.5954 -0.1340  0.3635
  461TMC3    O1 6925   1.281   0.962  10.379 -0.4202  1.2477 -0.3072
  461TMC3    O2 6926   1.542   0.571  10.255  0.1113  0.7892  0.2611
  462TMC3    C1 6927   1.528   0.773   0.873  0.0484  0.5371 -0.1135
  462TMC3    C2 6928   1.660   0.783   0.832  0.1075  0.3707 -0.1984
  462TMC3    C3 6929   1.704   0.736   0.707  0.3432  0.0738  0.4291
  462TMC3    C4 6930   1.438   0.729   0.791  0.5354  0.1831  0.5804
  462TMC3    C5 6931   1.488   0.675   0.675  0.7538  0.1789  0.2173
  462TMC3    C6 6932   1.613   0.683   0.623 -0.3042 -0.2309 -0.5804
  462TMC3     C 6933   1.487   0.836   0.995  0.6542  0.2941  0.2613
  462TMC3     O 6934   1.376   0.802   1.038 -0.3808  0.2783  0.1478
  462TMC3     H 6935   1.726   0.831   0.904  0.0274  1.7726 -1.0609
  462TMC3    H1 6936   1.334   0.732   0.822  0.1515 -2.6864 -0.4469
  462TMC3    H2 6937   1.637   0.626   0.534  0.2983 -0.2985 -0.3788
  462TMC3    C7 6938   1.387   0.647   0.572 -0.5572 -0.5719  0.0555
  462TMC3    C8 6939   1.833   0.786   0.665  0.0851  0.0231  0.0361
  462TMC3    O1 6940   1.428   0.618   0.460 -0.0089  0.2266 -0.4920
  462TMC3    O2 6941   1.884   0.879   0.726  0.1173 -0.1218  0.0534
  463MPD2     C 6942   2.826   3.947   1.368 -0.3599  0.2313  0.7477
  463MPD2    C1 6943   2.725   4.032   1.324  0.5925  0.3783  0.1381
  463MPD2    C2 6944   2.759   4.165   1.304  0.3915 -0.1662  0.6597
  463MPD2    C3 6945   2.886   4.213   1.330 -0.1215  0.1994  0.4498
  463MPD2    C4 6946   2.980   4.126   1.382 -0.2228 -0.0942 -0.5240
  463MPD2    C5 6947   2.950   3.990   1.391  0.4612 -0.1831 -0.1342
  463MPD2     H 6948   2.680   4.232   1.270 -0.9519 -1.5916  0.9524
  463MPD2    H1 6949   3.082   4.160   1.398 -0.8137  1.3214  0.2320
  463MPD2    H2 6950   2.810   3.840   1.378 -1.7075  0.2880 -0.7082
  463MPD2    H3 6951   3.031   3.928   1.426 -0.3084 -0.6732  0.7854
  463MPD2     N 6952   2.929   4.349   1.326  0.0444 -0.5319  0.1234
  463MPD2    H5 6953   3.023   4.370   1.358  0.4049 -1.0266 -0.6280
  463MPD2    N1 6954   2.585   3.996   1.304  0.4348  0.2613 -0.3890
  463MPD2    H7 6955   2.524   4.075   1.286 -1.9850 -2.0153 -2.1238
  464TMC3    C1 6956   2.394   3.854   1.329  0.6271  0.3327 -0.0860
  464TMC3    C2 6957   2.319   3.966   1.360 -0.3205  0.1899  1.0253
  464TMC3    C3 6958   2.185   3.937   1.375 -0.7780 -0.1376  0.7484
  464TMC3    C4 6959   2.341   3.725   1.309 -0.5779  0.4619  0.2611
  464TMC3    C5 6960   2.208   3.716   1.310 -0.7777 -0.3381 -0.7315
  464TMC3    C6 6961   2.123   3.813   1.347 -0.1783  0.6771 -0.1234
  464TMC3     C 6962   2.537   3.865   1.324  0.0917 -0.1588 -0.1597
  464TMC3     O 6963   2.597   3.761   1.347 -0.3184  0.6658  0.1487
  464TMC3     H 6964   2.362   4.065   1.367  1.3192 -0.3220 -1.6590
  464TMC3    H1 6965   2.411   3.653   1.267  1.0394  2.2678 -0.1231
  464TMC3    H2 6966   2.020   3.784   1.361 -0.2034  0.1663 -1.4046
  464TMC3    C7 6967   2.158   3.597   1.244  0.4601  0.4958 -0.3041
  464TMC3    C8 6968   2.098   4.037   1.433 -0.3208  0.2116 -0.4264
  464TMC3    O1 6969   2.233   3.502   1.226 -0.4554 -0.2421  0.2515
  464TMC3    O2 6970   1.979   4.023   1.414  0.0506  0.1880  0.4598
  465MPD2     C 6971   4.167   2.922  17.185  0.1685 -0.7201 -0.1057
  465MPD2    C1 6972   4.070   2.923  17.284  0.3829 -0.2369  0.4997
  465MPD2    C2 6973   3.985   3.025  17.278  0.0580  0.3813  0.3582
  465MPD2    C3 6974   3.983   3.113  17.171 -0.4336 -0.7531 -0.3120
  465MPD2    C4 6975   4.084   3.109  17.073 -0.6863  0.3726 -0.1293
  465MPD2    C5 6976   4.180   3.019  17.082  0.2052 -0.8125 -0.0911
  465MPD2     H 6977   3.897   3.033  17.342 -0.3967 -1.2089 -0.0551
  465MPD2    H1 6978   4.076   3.165  16.980  1.0264 -1.5019 -1.3767
  465MPD2    H2 6979   4.236   2.838  17.181  0.9316 -0.0762 -0.5669
  465MPD2    H3 6980   4.242   3.000  16.995 -1.7236 -1.3977 -1.3277
  465MPD2     N 6981   3.869   3.201  17.156  0.2959 -0.1071 -0.0469
  465MPD2    H5 6982   3.795   3.198  17.225  1.1075  2.3323  0.9628
  465MPD2    N1 6983   4.051   2.819  17.381  0.0055 -0.4154  0.2399
  465MPD2    H7 6984   3.977   2.830  17.450  0.6231  2.5903  0.4400
  466TMC3    C1 6985   3.545   3.465  17.158 -0.2944  0.2973 -0.1239
  466TMC3    C2 6986   3.558   3.594  17.124  0.5985 -0.5700 -1.2127
  466TMC3    C3 6987   3.680   3.625  17.068 -0.2812  0.2601  0.5241
  466TMC3    C4 6988   3.650   3.376  17.164  0.0186  0.0494  0.2462
  466TMC3    C5 6989   3.761   3.411  17.101 -0.4722 -0.6278 -0.1917
  466TMC3    C6 6990   3.781   3.536  17.040  0.4613 -0.3654 -0.3645
  466TMC3     C 6991   3.429   3.432  17.236 -0.5509  0.5443  0.3547
  466TMC3     O 6992   3.434   3.350  17.328 -0.0784 -0.3657 -1.1850
  466TMC3     H 6993   3.478   3.666  17.136  1.3089 -0.1369  1.0582
  466TMC3    H1 6994   3.623   3.276  17.195 -1.4609  0.0786 -0.9658
  466TMC3    H2 6995   3.877   3.575  17.007  0.9716 -2.0702 -0.8542
  466TMC3    C7 6996   3.868   3.311  17.085  0.1705 -0.3657  0.3736
  466TMC3    C8 6997   3.690   3.753  17.010 -0.0039  0.1526  0.8166
  466TMC3    O1 6998   3.962   3.351  17.015  0.2958  0.4801  0.1473
  466TMC3    O2 6999   3.774   3.773  16.922 -0.1853  0.1498  0.5178
  467TMC3    C1 7000   0.190   1.804  14.006 -0.0248  0.3764 -0.4477
  467TMC3    C2 7001   0.137   1.902  13.926  0.5696  0.5710  0.5423
  467TMC3    C3 7002   0.017   1.880  13.868  0.3099  0.3433 -0.1104
  467TMC3    C4 7003   0.119   1.690  14.039 -0.4203 -0.1368 -0.4821
  467TMC3    C5 7004   4.735   1.671  13.981  0.2983 -0.0696  0.3910
  467TMC3    C6 7005   4.690   1.765  13.894 -0.7514 -0.8969  0.4524
  467TMC3     C 7006   0.319   1.831  14.071  0.3322  0.0838  0.6603
  467TMC3     O 7007   0.368   1.940  14.048 -0.3969 -0.1065  0.1100
  467TMC3     H 7008   0.199   1.989  13.906  2.5386 -1.5923 -2.7740
  467TMC3    H1 7009   0.142   1.621  14.120 -1.5096  0.1357  0.0580
  467TMC3    H2 7010   4.600   1.744  13.837  0.7900 -0.6879 -2.0498
  467TMC3    C7 7011   4.661   1.550  14.003  0.4246 -0.1729 -0.0896
  467TMC3    C8 7012   4.706   1.966  13.760 -0.0887 -0.4640 -0.2660
  467TMC3    O1 7013   4.729   1.460  14.039  0.3304 -0.5020  0.7467
  467TMC3    O2 7014   4.628   1.910  13.682  0.4254 -0.1148 -0.3304
  468MPD2     C 7015   3.271   0.512  10.651  0.1867 -0.4488  0.1951
  468MPD2    C1 7016   3.381   0.450  10.695 -0.3131 -0.0473 -0.8997
  468MPD2    C2 7017   3.394   0.314  10.701  0.0273  0.4772 -0.9678
  468MPD2    C3 7018   3.282   0.239  10.676 -0.2908 -0.2347 -0.7079
  468MPD2    C4 7019   3.161   0.301  10.653 -0.3466 -0.7871 -1.0263
  468MPD2    C5 7020   3.161   0.435  10.632 -0.4527 -0.0544  0.6004
  468MPD2     H 7021   3.485   0.257  10.717 -1.8798 -2.6857 -1.5098
  468MPD2    H1 7022   3.070   0.243  10.645 -1.0749  0.3645 -1.2859
  468MPD2    H2 7023   3.265   0.620  10.643  2.2801 -0.3020  0.6167
  468MPD2    H3 7024   3.069   0.479  10.595 -0.4770 -0.2825  0.3809
  468MPD2     N 7025   3.270   0.099  10.690 -0.3777 -0.6632 -0.1240
  468MPD2    H5 7026   3.176   0.061  10.683 -0.1804 -1.4129  1.3089
  468MPD2    N1 7027   3.498   0.518  10.723 -0.7346 -0.2894 -0.1339
  468MPD2    H7 7028   3.581   0.463  10.735  0.1100  0.5814 -1.8724
  469TMC3    C1 7029   3.649   0.706  10.767 -0.0230  0.0449 -0.1469
  469TMC3    C2 7030   3.744   0.635  10.830  1.1204  0.0377 -1.0445
  469TMC3    C3 7031   3.834   0.698  10.909  0.4229  0.0212  0.5051
  469TMC3    C4 7032   3.651   0.846  10.777  0.2784 -0.5696  0.9318
  469TMC3    C5 7033   3.759   0.901  10.827 -1.5394  0.8738 -0.2252
  469TMC3    C6 7034   3.850   0.833  10.899 -0.3854 -0.3860 -0.5636
  469TMC3     C 7035   3.518   0.656  10.738  0.4836  0.2506  0.1574
  469TMC3     O 7036   3.432   0.743  10.720  0.5302 -0.5133 -0.0583
  469TMC3     H 7037   3.739   0.529  10.852 -0.8862  0.5912  1.1485
  469TMC3    H1 7038   3.587   0.909  10.717  1.5544 -0.5280 -0.3791
  469TMC3    H2 7039   3.924   0.889  10.957  0.4195 -1.5549 -0.4652
  469TMC3    C7 7040   3.758   1.049  10.845  0.1509 -0.1257 -0.2714
  469TMC3    C8 7041   3.885   0.624  11.020 -1.1549  0.7454 -0.8898
  469TMC3    O1 7042   3.858   1.102  10.811  0.3023  0.2576  0.6353
  469TMC3    O2 7043   3.921   0.505  10.996  0.6971  0.3264 -0.0372
  470TMC3    C1 7044   1.083   0.987   0.891 -0.0800  0.0220 -0.2651
  470TMC3    C2 7045   1.205   1.054   0.886  0.0331 -0.2722 -0.4169
  470TMC3    C3 7046   1.234   1.128   0.998  0.4549  0.1391  0.0127
  470TMC3    C4 7047   0.993   0.999   0.996 -0.4119  0.0992  0.2966
  470TMC3    C5 7048   1.023   1.080   1.099  0.2166  0.5695 -0.7154
  470TMC3    C6 7049   1.139   1.156   1.091  0.5890 -0.1823 -0.0626
  470TMC3     C 7050   1.019   0.965   0.767  0.3522  0.5676  0.0572
  470TMC3     O 7051   0.920   0.899   0.774  0.4775  0.6344  0.2488
  470TMC3     H 7052   1.275   1.058   0.804  2.1707  0.3679  1.4392
  470TMC3    H1 7053   0.902   0.940   0.999 -1.3262  1.6445  2.8225
  470TMC3    H2 7054   1.171   1.226   1.167  0.8519 -0.1608 -0.1940
  470TMC3    C7 7055   0.902   1.137   1.157  0.5672  0.6510 -1.0103
  470TMC3    C8 7056   1.328   1.238   0.969 -0.7064 -0.0657 -0.1461
  470TMC3    O1 7057   0.801   1.089   1.117  0.1685  0.1844 -0.2115
  470TMC3    O2 7058   1.428   1.199   0.909 -0.1744  0.2394  0.0620
  471MPD2     C 7059   1.701   2.854  17.199  0.3592 -0.0697  0.5175
  471MPD2    C1 7060   1.643   2.741  17.252  0.3614  0.5152  0.1119
  471MPD2    C2 7061   1.720   2.668  17.345  0.3679  0.3160  0.8271
  471MPD2    C3 7062   1.856   2.692  17.371  0.0143  0.3341 -0.0752
  471MPD2    C4 7063   1.913   2.802  17.305 -0.0072 -0.1791  0.1012
  471MPD2    C5 7064   1.829   2.884  17.238  0.0930  0.3022  0.8955
  471MPD2     H 7065   1.671   2.585  17.396 -1.3894  0.3557 -0.8044
  471MPD2    H1 7066   2.009   2.837  17.339 -0.1421  0.3207 -0.0399
  471MPD2    H2 7067   1.661   2.932  17.135 -0.4913  0.0696  1.2276
  471MPD2    H3 7068   1.866   2.973  17.188  1.3921 -0.6691  0.1272
  471MPD2     N 7069   1.938   2.622  17.457  0.2943  0.1576 -0.5522
  471MPD2    H5 7070   2.039   2.634  17.451  0.4736 -1.5189 -0.9971
  471MPD2    N1 7071   1.521   2.694  17.207 -0.3945 -0.2973  0.0157
  471MPD2    H7 7072   1.489   2.604  17.240 -2.4935  1.3853  2.5553
  472TMC3    C1 7073   1.316   2.660  17.089 -0.0751  0.4211 -0.3729
  472TMC3    C2 7074   1.277   2.642  16.960  0.5392 -0.1385 -0.3605
  472TMC3    C3 7075   1.194   2.536  16.931  0.0871 -0.4423 -0.8123
  472TMC3    C4 7076   1.288   2.569  17.185 -0.7240 -0.0600 -0.0893
  472TMC3    C5 7077   1.223   2.452  17.143  0.9949  0.4911 -0.9930
  472TMC3    C6 7078   1.170   2.431  17.017 -0.0956  0.3058 -0.0273
  472TMC3     C 7079   1.435   2.749  17.122 -0.3584  0.8830 -1.1192
  472TMC3     O 7080   1.453   2.848  17.051 -0.6422 -0.7597  0.0551
  472TMC3     H 7081   1.303   2.717  16.886  1.4143 -0.8211 -0.7405
  472TMC3    H1 7082   1.313   2.569  17.291 -1.8468  3.9715  0.1763
  472TMC3    H2 7083   1.121   2.338  16.991 -1.6763  1.0328  0.4072
  472TMC3    C7 7084   1.174   2.360  17.244  0.0782 -0.2054  0.4112
  472TMC3    C8 7085   1.150   2.527  16.793 -0.3392 -0.1383  0.5125
  472TMC3    O1 7086   1.144   2.411  17.352 -0.0107 -0.0369 -0.5418
  472TMC3    O2 7087   1.151   2.637  16.741 -0.4313 -0.4023  0.8656
  473MPD2     C 7088   1.756   4.552  13.605  0.3116  0.2503  0.3151
  473MPD2    C1 7089   1.636   4.522  13.660  0.6594 -0.2242 -0.1851
  473MPD2    C2 7090   1.612   4.524  13.795 -0.2597  0.3576 -0.6635
  473MPD2    C3 7091   1.709   4.560  13.881  0.5574  0.1834 -0.2400
  473MPD2    C4 7092   1.832   4.584  13.824 -0.5137  0.3743  0.5077
  473MPD2    C5 7093   1.862   4.578  13.690 -0.0244  0.3214  0.4870
  473MPD2     H 7094   1.520   4.488  13.838  0.7658  1.3808  2.4003
  473MPD2    H1 7095   1.916   4.608  13.888 -0.4439 -1.3752  1.0654
  473MPD2    H2 7096   1.776   4.540  13.500 -1.2090  0.4876 -0.0037
  473MPD2    H3 7097   1.964   4.586  13.653  0.5269 -0.5689  1.8326
  473MPD2     N 7098   1.695   4.578  14.028  0.2522 -0.5843  0.5865
  473MPD2    H5 7099   1.777   4.609  14.079 -0.3440 -0.8634  1.7229
  473MPD2    N1 7100   1.527   4.478  13.582  0.4211  0.3721  0.0505
  473MPD2    H7 7101   1.442   4.460  13.636 -1.4930  0.6432 -2.8929
  474TMC3    C1 7102   1.584   4.630  14.225  0.2410 -0.6724 -0.2950
  474TMC3    C2 7103   1.488   4.720  14.242  0.0660 -0.6576  0.2432
  474TMC3    C3 7104   1.505   0.071  14.342 -0.1629  0.3430  0.3918
  474TMC3    C4 7105   1.697   4.627  14.299  0.5137  0.1155 -0.7449
  474TMC3    C5 7106   1.708   4.716  14.397 -0.8937  0.3930  0.1981
  474TMC3    C6 7107   1.614   0.075  14.421  0.2503 -0.1590  0.0205
  474TMC3     C 7108   1.572   4.572  14.091  0.0542  0.1127 -0.0215
  474TMC3     O 7109   1.463   4.541  14.047 -0.1653  0.4036  0.0712
  474TMC3     H 7110   1.409   4.715  14.168  1.0577  0.4283 -0.8862
  474TMC3    H1 7111   1.769   4.545  14.299 -1.3015 -1.4912 -2.7778
  474TMC3    H2 7112   1.615   0.152  14.498 -0.5519  2.2814 -2.3819
  474TMC3    C7 7113   1.835   4.708  14.474 -0.0989  0.0983 -0.2647
  474TMC3    C8 7114   1.401   0.173  14.338  0.3721  0.2973 -0.5080
  474TMC3    O1 7115   1.933   4.647  14.435  0.6737  0.2895 -0.2245
  474TMC3    O2 7116   1.293   0.135  14.299  0.1361 -0.1776 -0.0253
  475MPD2     C 7117   3.982   2.565  11.055 -0.1854  0.6848 -0.9203
  475MPD2    C1 7118   4.031   2.679  10.982  0.0533  1.0436 -0.4562
  475MPD2    C2 7119   3.936   2.771  10.929 -0.2552  0.2457  0.5657
  475MPD2    C3 7120   3.803   2.773  10.976 -0.3448  0.2970 -0.3133
  475MPD2    C4 7121   3.757   2.665  11.056 -0.1508 -0.1356 -0.1074
  475MPD2    C5 7122   3.848   2.562  11.093  0.1355  0.3296  0.2085
  475MPD2     H 7123   3.972   2.845  10.858  0.1139 -0.8859 -0.4184
  475MPD2    H1 7124   3.653   2.667  11.085 -0.1810 -1.4856 -0.1441
  475MPD2    H2 7125   4.051   2.485  11.080 -1.3980  0.3159  1.2872
  475MPD2    H3 7126   3.815   2.480  11.156 -0.1511 -0.5454 -1.0782
  475MPD2     N 7127   3.723   2.881  10.931 -0.8767 -0.1384  0.1881
  475MPD2    H5 7128   3.768   2.950  10.871 -0.3312 -0.9099 -0.2938
  475MPD2    N1 7129   4.169   2.688  10.944 -0.1199 -0.3114  0.8972
  475MPD2    H7 7130   4.188   2.747  10.864 -1.0541 -1.2233  0.0036
  476TMC3    C1 7131   4.391   2.715  10.978  0.9252 -0.8462  0.3125
  476TMC3    C2 7132   4.393   2.758  10.849 -0.2327  0.1089  0.3331
  476TMC3    C3 7133   4.471   2.866  10.822  0.1176  0.3976 -0.0255
  476TMC3    C4 7134   4.437   2.783  11.082  0.3016 -0.7210  0.7906
  476TMC3    C5 7135   4.507   2.893  11.050  0.5550  0.4005 -0.1555
  476TMC3    C6 7136   4.532   2.934  10.925  0.1428  0.7810  0.1852
  476TMC3     C 7137   4.274   2.643  11.020  0.0801 -0.1965  0.3133
  476TMC3     O 7138   4.272   2.585  11.130 -0.0236  0.1379 -0.4962
  476TMC3     H 7139   4.335   2.708  10.773 -1.1767 -0.4743  1.4290
  476TMC3    H1 7140   4.432   2.752  11.186  1.9824 -2.9422  0.2247
  476TMC3    H2 7141   4.589   3.020  10.892  2.1111 -1.8927 -3.3210
  476TMC3    C7 7142   4.569   2.959  11.161  0.5595  0.5925 -0.9991
  476TMC3    C8 7143   4.497   2.912  10.687 -0.2270 -0.5360  0.2070
  476TMC3    O1 7144   4.585   2.893  11.262 -0.0089 -0.0992  1.0372
  476TMC3    O2 7145   4.541   3.027  10.677 -0.8860  0.6945  0.1491
  477MPD2     C 7146   2.238   4.699  11.957 -0.7831  0.0470 -0.1380
  477MPD2    C1 7147   2.207   4.570  11.915  0.0869 -0.8235 -0.1510
  477MPD2    C2 7148   2.233   4.462  11.993 -0.2297 -0.2423  0.2903
  477MPD2    C3 7149   2.274   4.483  12.123  0.2870  0.5533  0.3692
  477MPD2    C4 7150   2.320   4.603  12.162  0.3085  0.2136  0.3602
  477MPD2    C5 7151   2.289   4.713  12.083  0.1803 -0.0338  1.0536
  477MPD2     H 7152   2.195   4.363  11.972 -3.2176  0.6667  1.3989
  477MPD2    H1 7153   2.355   4.622  12.263 -0.4676 -0.0010  0.6756
  477MPD2    H2 7154   2.213   0.055  11.908  0.7497 -0.1077 -1.1746
  477MPD2    H3 7155   2.309   0.077  12.118 -3.7489  1.3911 -0.7937
  477MPD2     N 7156   2.290   4.369  12.204  0.0989 -0.6635 -0.4773
  477MPD2    H5 7157   2.293   4.276  12.162 -0.7957 -1.6093  1.5201
  477MPD2    N1 7158   2.140   4.556  11.793 -0.3373  0.0492  0.0845
  477MPD2    H7 7159   2.095   4.640  11.756 -1.5233 -0.6584 -0.0841
  478TMC3    C1 7160   2.015   4.439  11.633  0.4261  0.3020  0.7131
  478TMC3    C2 7161   1.913   4.523  11.669  0.4050  0.3746  0.9727
  478TMC3    C3 7162   1.803   4.510  11.594 -0.3599 -0.0175 -0.3293
  478TMC3    C4 7163   2.001   4.333  11.547 -0.0266 -0.0327 -0.7214
  478TMC3    C5 7164   1.892   4.329  11.466  0.7099  0.4024 -0.2947
  478TMC3    C6 7165   1.785   4.416  11.497  0.6443 -0.1871  0.2920
  478TMC3     C 7166   2.121   4.439  11.726  0.4503 -0.7022  0.2034
  478TMC3     O 7167   2.193   4.338  11.731 -0.0963 -0.5724 -0.1574
  478TMC3     H 7168   1.914   4.602  11.743 -0.5089  0.2223  1.1569
  478TMC3    H1 7169   2.083   4.269  11.518  0.5669  1.5159 -2.4699
  478TMC3    H2 7170   1.700   4.408  11.430  1.3730  0.7496 -0.7461
  478TMC3    C7 7171   1.912   4.282  11.334  0.3668 -0.1488 -0.4343
  478TMC3    C8 7172   1.688   4.596  11.630 -0.1570 -0.2711  1.0041
  478TMC3    O1 7173   1.968   4.173  11.327 -0.2341 -0.1388 -0.5152
  478TMC3    O2 7174   1.700   4.689  11.707  0.2017 -0.1728  0.2906
  479MPD2     C 7175   1.359   1.838  15.113  0.2660 -0.5266 -0.4777
  479MPD2    C1 7176   1.315   1.770  15.227 -0.2035 -0.1296 -0.2170
  479MPD2    C2 7177   1.368   1.811  15.348 -0.1151  0.2368  0.1523
  479MPD2    C3 7178   1.462   1.911  15.364 -0.1413  0.0957 -0.1461
  479MPD2    C4 7179   1.496   1.978  15.251  0.6648 -0.0031 -0.1128
  479MPD2    C5 7180   1.451   1.945  15.126 -0.2767 -0.5159  0.2997
  479MPD2     H 7181   1.340   1.754  15.436  0.0668  2.4835  1.6401
  479MPD2    H1 7182   1.568   2.059  15.250  0.6802 -0.0132  0.2946
  479MPD2    H2 7183   1.315   1.811  15.018  0.9231 -1.2821 -0.5756
  479MPD2    H3 7184   1.481   1.997  15.036  0.0367  2.5258  2.1481
  479MPD2     N 7185   1.512   1.955  15.491  0.1382 -0.2216  0.0462
  479MPD2    H5 7186   1.545   2.050  15.502  0.4262 -0.1937 -0.9956
  479MPD2    N1 7187   1.218   1.671  15.206  0.2953 -0.5129  0.2598
  479MPD2    H7 7188   1.182   1.660  15.112  0.0927  1.0923  0.1420
  480TMC3    C1 7189   1.487   1.926  15.956 -0.2420 -0.1400 -0.0865
  480TMC3    C2 7190   1.413   2.040  15.962  0.6759 -0.7592  0.7894
  480TMC3    C3 7191   1.385   2.101  15.844  0.0239 -0.6681 -0.6325
  480TMC3    C4 7192   1.546   1.885  15.836 -0.1280 -0.6653  0.6804
  480TMC3    C5 7193   1.520   1.952  15.726  0.9871 -0.3112 -0.3818
  480TMC3    C6 7194   1.445   2.068  15.726 -0.0568  0.1469  0.5887
  480TMC3     C 7195   1.455   1.820  16.048 -0.9283 -0.0615 -0.5095
  480TMC3     O 7196   1.471   1.706  16.004 -0.4233 -0.5696 -0.2396
  480TMC3     H 7197   1.362   2.078  16.050  0.6019  0.0974  0.3736
  480TMC3    H1 7198   1.607   1.795  15.840 -1.1849 -1.3676  1.0931
  480TMC3    H2 7199   1.409   2.107  15.632  2.8480  1.1056 -0.1321
  480TMC3    C7 7200   1.517   1.876  15.603  0.4430 -0.3251 -0.0171
  480TMC3    C8 7201   1.247   2.149  15.829 -0.3628  0.4105 -0.8498
  480TMC3    O1 7202   1.493   1.754  15.615  0.0185 -0.0999  0.5116
  480TMC3    O2 7203   1.173   2.120  15.924  0.3478  0.1048  0.0628
  481MPD2     C 7204   3.146   1.224  14.562  0.0048  0.6415 -0.0368
  481MPD2    C1 7205   3.018   1.170  14.567 -0.9273 -0.0088  0.0450
  481MPD2    C2 7206   2.976   1.100  14.677 -0.7761 -0.2767  0.0216
  481MPD2    C3 7207   3.068   1.099  14.790 -0.0347 -0.0050  0.3072
  481MPD2    C4 7208   3.196   1.138  14.777  0.9438  0.1289 -0.0309
  481MPD2    C5 7209   3.236   1.198  14.661  0.1012  0.3171  0.2235
  481MPD2     H 7210   2.882   1.047  14.683 -0.0052 -1.7039 -0.4614
  481MPD2    H1 7211   3.261   1.139  14.864 -1.1513 -1.1805  1.5528
  481MPD2    H2 7212   3.178   1.296  14.487  0.0106  1.1617  0.4632
  481MPD2    H3 7213   3.336   1.235  14.645  0.0630 -0.3419 -1.5631
  481MPD2     N 7214   3.025   1.059  14.918  0.3205 -0.8830 -0.8433
  481MPD2    H5 7215   3.086   1.086  14.995 -1.2166 -0.7664  0.3354
  481MPD2    N1 7216   2.929   1.204  14.464 -0.1055  0.2632  0.2283
  481MPD2    H7 7217   2.960   1.248  14.378  1.3699 -1.7457 -0.2559
  482TMC3    C1 7218   2.729   1.250  14.347 -0.0716 -0.1168 -0.1978
  482TMC3    C2 7219   2.599   1.202  14.317  0.1812 -0.3963 -0.4506
  482TMC3    C3 7220   2.535   1.262  14.210 -0.5700  0.6289 -0.3515
  482TMC3    C4 7221   2.790   1.350  14.275 -0.0300  0.3644 -0.4297
  482TMC3    C5 7222   2.724   1.394  14.166  0.1616  0.5688 -0.4639
  482TMC3    C6 7223   2.596   1.358  14.144 -0.6775  0.1400 -0.3977
  482TMC3     C 7224   2.789   1.170  14.453 -0.4219  0.2428 -0.5654
  482TMC3     O 7225   2.719   1.099  14.523  0.3506 -0.3738 -0.0953
  482TMC3     H 7226   2.557   1.111  14.360 -1.8602  0.2786 -0.9972
  482TMC3    H1 7227   2.892   1.386  14.282 -0.0885  0.7220 -1.5542
  482TMC3    H2 7228   2.534   1.406  14.069 -0.1297  1.2883 -0.1196
  482TMC3    C7 7229   2.792   1.491  14.086  0.4578 -0.8775  0.2038
  482TMC3    C8 7230   2.403   1.209  14.191 -0.2817  0.1541 -0.4587
  482TMC3    O1 7231   2.874   1.566  14.140 -0.4009  0.0729  0.5804
  482TMC3    O2 7232   2.383   1.094  14.230 -0.0880 -0.0158 -0.1164
  483TMC3    C1 7233   0.191   4.533  17.522 -0.2595  0.1217 -1.3059
  483TMC3    C2 7234   0.204   4.665  17.511 -0.7592 -0.1943 -0.3090
  483TMC3    C3 7235   0.287   4.735  17.596 -0.0974  0.0679 -0.0454
  483TMC3    C4 7236   0.267   4.451  17.604 -0.0965 -0.1506  0.3085
  483TMC3    C5 7237   0.355   4.524  17.682 -0.1331  0.3308 -0.9772
  483TMC3    C6 7238   0.365   4.661  17.682  0.3163  0.1310  0.6301
  483TMC3     C 7239   0.061   4.479  17.479  0.5680  0.3498  0.0313
  483TMC3     O 7240   0.007   4.540  17.386 -0.0093  0.6445  0.2922
  483TMC3     H 7241   0.135   4.718  17.447 -0.6443 -0.5685 -0.7349
  483TMC3    H1 7242   0.272   4.342  17.597  0.4647 -0.0451 -0.8465
  483TMC3    H2 7243   0.432   4.710   0.007  1.0231 -1.1584  0.8613
  483TMC3    C7 7244   0.448   4.450   0.024  0.4588  1.0924 -0.0045
  483TMC3    C8 7245   0.343   0.127  17.561 -0.0224  0.5121  0.2029
  483TMC3    O1 7246   0.564   4.491   0.021 -0.3054 -0.3385  0.0553
  483TMC3    O2 7247   0.396   0.181  17.656 -0.4899 -0.1170 -0.4790
  484MPD2     C 7248   3.420   2.830  13.471  0.7645  1.0591 -0.6380
  484MPD2    C1 7249   3.331   2.841  13.369 -0.1790 -0.5786 -0.4983
  484MPD2    C2 7250   3.370   2.898  13.252 -0.5282 -0.0531 -0.8141
  484MPD2    C3 7251   3.506   2.934  13.233 -0.1280  0.1469 -0.0152
  484MPD2    C4 7252   3.594   2.912  13.337 -0.1186 -0.4382  0.0365
  484MPD2    C5 7253   3.545   2.879  13.463  0.3790 -0.5692 -1.4074
  484MPD2     H 7254   3.305   2.934  13.173  1.4699 -3.2020 -3.9148
  484MPD2    H1 7255   3.700   2.927  13.319 -0.1008  1.4452  1.6091
  484MPD2    H2 7256   3.387   2.769  13.555  0.4470  1.6800 -0.3161
  484MPD2    H3 7257   3.604   2.876  13.553 -1.5771 -0.0974 -0.1074
  484MPD2     N 7258   3.554   2.993  13.117  0.3438  1.1152  0.1530
  484MPD2    H5 7259   3.641   3.044  13.129 -0.5984  2.4758  1.2332
  484MPD2    N1 7260   3.203   2.796  13.393  0.2287  0.2566 -0.1554
  484MPD2    H7 7261   3.188   2.745  13.479 -1.7348  2.4997  0.8173
  485TMC3    C1 7262   3.583   3.015  12.880  0.2197  0.6865  0.1676
  485TMC3    C2 7263   3.706   3.065  12.889 -0.0386 -0.1842  0.1862
  485TMC3    C3 7264   3.786   3.074  12.777 -0.3810 -0.6097 -0.1051
  485TMC3    C4 7265   3.543   2.962  12.759  0.1741 -0.1305 -0.0214
  485TMC3    C5 7266   3.618   2.985  12.643  0.1334 -0.1916  0.4281
  485TMC3    C6 7267   3.741   3.051  12.651 -0.4620  0.5321 -0.6330
  485TMC3     C 7268   3.501   2.970  12.991  0.4670 -0.3625  0.2983
  485TMC3     O 7269   3.417   2.884  12.966  0.5717 -0.5640  0.5861
  485TMC3     H 7270   3.747   3.089  12.986 -0.5059 -2.0174  0.8261
  485TMC3    H1 7271   3.440   2.928  12.749 -0.5084  1.8106  0.4462
  485TMC3    H2 7272   3.790   3.082  12.560  1.1340 -0.2209 -0.0294
  485TMC3    C7 7273   3.638   2.860  12.570  0.5400  0.3062 -0.0828
  485TMC3    C8 7274   3.921   3.022  12.796 -0.3542 -0.3509 -0.0948
  485TMC3    O1 7275   3.726   2.872  12.489 -0.4980  0.0866  0.1697
  485TMC3    O2 7276   3.957   3.029  12.912 -0.1549 -0.1696 -0.2727
  486MPD2     C 7277   0.778   1.994  13.123 -0.1518 -0.1545 -0.1795
  486MPD2    C1 7278   0.703   1.967  13.012 -0.3127 -0.2352  0.0996
  486MPD2    C2 7279   0.606   2.055  12.972 -0.1109  0.0175 -0.3772
  486MPD2    C3 7280   0.597   2.173  13.042  0.6548 -0.1749  0.7887
  486MPD2    C4 7281   0.672   2.198  13.157 -0.8224  0.3876  0.6379
  486MPD2    C5 7282   0.767   2.107  13.194  0.4013  0.3932 -0.3263
  486MPD2     H 7283   0.551   2.045  12.879  1.2052  0.1152 -1.1587
  486MPD2    H1 7284   0.655   2.281  13.225 -0.5451 -1.1821  2.6151
  486MPD2    H2 7285   0.855   1.929  13.164  0.4740  2.1515  2.3451
  486MPD2    H3 7286   0.823   2.132  13.283  0.1098 -0.9075  0.2205
  486MPD2     N 7287   0.510   2.276  12.986  0.6953  0.5602  0.5144
  486MPD2    H5 7288   0.442   2.245  12.917  2.2630 -0.8564 -0.4256
  486MPD2    N1 7289   0.726   1.839  12.949 -0.1176  0.0187  0.1991
  486MPD2    H7 7290   0.802   1.783  12.988  1.2598  1.5827 -0.2379
  487TMC3    C1 7291   0.680   1.645  12.829  0.3214 -0.0572  0.2956
  487TMC3    C2 7292   0.585   1.571  12.767 -0.2770  0.4311  0.3367
  487TMC3    C3 7293   0.574   1.442  12.814 -0.2714  0.3622 -0.2997
  487TMC3    C4 7294   0.776   1.583  12.903 -0.5036  0.5061  0.3072
  487TMC3    C5 7295   0.773   1.457  12.941 -0.9905  0.3512 -0.3597
  487TMC3    C6 7296   0.665   1.377  12.892 -0.1563  0.1442 -0.0641
  487TMC3     C 7297   0.642   1.783  12.862 -0.5812 -0.3020 -0.3883
  487TMC3     O 7298   0.543   1.824  12.806 -0.3297 -0.2177 -0.2935
  487TMC3     H 7299   0.495   1.619  12.729 -1.0646 -1.1377  0.1893
  487TMC3    H1 7300   0.856   1.635  12.954  0.1105 -0.1032 -0.0368
  487TMC3    H2 7301   0.636   1.279  12.930  2.7678 -0.9042 -0.4944
  487TMC3    C7 7302   0.823   1.438  13.071 -0.4785 -0.4056 -0.3292
  487TMC3    C8 7303   0.441   1.389  12.824 -0.8391 -0.9719 -0.1831
  487TMC3    O1 7304   0.838   1.529  13.147 -0.0672 -0.3739  0.2303
  487TMC3    O2 7305   0.389   1.338  12.726  0.1385  0.1758 -0.1317
  488MPD2     C 7306   0.823   3.478  16.479  0.7997 -0.2441 -0.2255
  488MPD2    C1 7307   0.889   3.526  16.594  0.1969 -0.1615 -0.1479
  488MPD2    C2 7308   0.840   3.500  16.721 -0.1788 -0.2116  0.7642
  488MPD2    C3 7309   0.719   3.431  16.736 -0.0431  0.0126  0.0962
  488MPD2    C4 7310   0.659   3.375  16.623  0.5730 -0.0597 -0.1146
  488MPD2    C5 7311   0.713   3.404  16.498  0.3270  0.0409 -0.2387
  488MPD2     H 7312   0.885   3.539  16.811  0.3049  2.7325 -0.7359
  488MPD2    H1 7313   0.568   3.317  16.631  0.2883  0.2522 -1.1914
  488MPD2    H2 7314   0.846   3.527  16.385  2.9804  0.8240  0.8491
  488MPD2    H3 7315   0.661   3.364  16.412  2.6196 -0.6817 -1.2980
  488MPD2     N 7316   0.679   3.406  16.873 -0.6350  0.1143 -0.5783
  488MPD2    H5 7317   0.746   3.443  16.941 -0.6216 -1.1204  0.0765
  488MPD2    N1 7318   1.002   3.615  16.592  0.1376  0.0369  0.2333
  488MPD2    H7 7319   1.037   3.637  16.685  0.3697 -0.9618  0.3765
  489TMC3    C1 7320   0.558   3.338  17.063  0.3425  0.6244  0.2853
  489TMC3    C2 7321   0.685   3.339  17.118  0.1902 -0.0620  0.0009
  489TMC3    C3 7322   0.698   3.407  17.235  0.5051  0.0522 -0.1811
  489TMC3    C4 7323   0.450   3.391  17.130  0.0363  0.2997 -0.2118
  489TMC3    C5 7324   0.469   3.444  17.256  0.5377  0.6163 -0.1506
  489TMC3    C6 7325   0.591   3.449  17.312  1.1583  0.2191 -1.0744
  489TMC3     C 7326   0.556   3.356  16.921 -0.3625 -0.2299  0.2396
  489TMC3     O 7327   0.447   3.341  16.867 -0.3427  0.5071  0.6520
  489TMC3     H 7328   0.762   3.277  17.073 -0.2278  0.5311 -1.5247
  489TMC3    H1 7329   0.356   3.391  17.077  0.0809  1.5648 -0.2866
  489TMC3    H2 7330   0.611   3.478  17.415  1.6322  0.0925 -1.1330
  489TMC3    C7 7331   0.377   3.561  17.288  0.3352 -0.6045  0.4808
  489TMC3    C8 7332   0.800   3.509  17.213 -0.5935  0.0728 -0.1457
  489TMC3    O1 7333   0.264   3.563  17.237  0.4549 -0.5973 -0.2840
  489TMC3    O2 7334   0.884   3.497  17.129  0.6527 -0.5240  0.2293
  490MPD2     C 7335   1.588   3.196  17.437 -0.5733  0.2380  0.6488
  490MPD2    C1 7336   1.589   3.069  17.492 -0.2110 -0.0186 -0.4487
  490MPD2    C2 7337   1.697   3.028  17.563  0.4419  0.6300  0.4280
  490MPD2    C3 7338   1.811   3.114  17.576 -0.0186  0.0178  0.5451
  490MPD2    C4 7339   1.812   3.233  17.510 -0.4960  0.7592 -0.0157
  490MPD2    C5 7340   1.706   3.268  17.437 -0.1722 -0.2442  0.9821
  490MPD2     H 7341   1.687   2.928  17.603  3.3932  0.2599  0.2329
  490MPD2    H1 7342   1.899   3.297  17.509 -1.8051  2.5420  0.8580
  490MPD2    H2 7343   1.512   3.229  17.367  1.1909  0.2504 -1.2837
  490MPD2    H3 7344   1.708   3.361  17.382  0.8473 -1.8892 -1.7990
  490MPD2     N 7345   1.924   3.072  17.640 -0.0923 -0.0997 -0.3450
  490MPD2    H5 7346   2.003   3.135  17.624  0.0632 -0.3271 -0.4616
  490MPD2    N1 7347   1.475   2.984  17.489 -0.5188 -0.3830  0.1691
  490MPD2    H7 7348   1.488   2.891  17.530 -2.5395 -0.3151  0.9839
  491TMC3    C1 7349   1.268   2.892  17.442  0.2424  0.4425 -0.0622
  491TMC3    C2 7350   1.277   2.827  17.560 -0.2239 -0.6204 -0.4755
  491TMC3    C3 7351   1.189   2.723  17.568 -0.1648 -0.4091 -0.6063
  491TMC3    C4 7352   1.186   2.862  17.341 -0.0453 -0.3772 -0.3263
  491TMC3    C5 7353   1.102   2.760  17.355  0.1467  0.0430 -0.1746
  491TMC3    C6 7354   1.099   2.686  17.468  0.5814  0.6612 -0.4871
  491TMC3     C 7355   1.363   3.000  17.413 -0.1737 -0.1029 -0.5260
  491TMC3     O 7356   1.336   3.093  17.337  0.1065 -0.0411 -0.2164
  491TMC3     H 7357   1.342   2.858  17.641 -1.7025  0.2814  0.3673
  491TMC3    H1 7358   1.191   2.929  17.255  2.3188  1.0253  0.9051
  491TMC3    H2 7359   1.014   2.621  17.488 -1.8642  3.8063 -0.7151
  491TMC3    C7 7360   0.994   2.726  17.261 -0.3302  0.3091 -0.2117
  491TMC3    C8 7361   1.190   2.644  17.695  0.7091 -0.0492  0.2974
  491TMC3    O1 7362   0.950   2.612  17.251 -0.1598 -0.5016 -0.9930
  491TMC3    O2 7363   1.241   2.695   0.047  0.6037 -0.3851  0.3411
  492MPD2     C 7364   2.046   2.913  11.455 -0.5692  0.1698  0.2950
  492MPD2    C1 7365   1.924   2.860  11.423 -0.3061 -0.4898  0.6379
  492MPD2    C2 7366   1.851   2.782  11.520  0.2161 -0.4686 -0.2729
  492MPD2    C3 7367   1.896   2.795  11.654  0.1608 -0.6285 -0.6802
  492MPD2    C4 7368   2.017   2.863  11.685 -0.4075  0.0685 -0.2248
  492MPD2    C5 7369   2.084   2.920  11.586  0.2674 -0.0957 -0.0938
  492MPD2     H 7370   1.764   2.728  11.485  0.5278 -1.1853  0.0497
  492MPD2    H1 7371   2.052   2.868  11.787  1.5918 -2.0227 -0.8172
  492MPD2    H2 7372   2.097   2.967  11.376 -0.9642 -0.9608 -0.7360
  492MPD2    H3 7373   2.169   2.974  11.626  1.8094 -1.4285 -1.5773
  492MPD2     N 7374   1.818   2.740  11.768 -0.0813  0.1770  0.1330
  492MPD2    H5 7375   1.873   2.751  11.853  0.2243 -0.2508 -0.0093
  492MPD2    N1 7376   1.892   2.872  11.288 -1.1068  0.3591  0.1536
  492MPD2    H7 7377   1.954   2.930  11.232 -0.5233 -0.6875 -0.2829
  493TMC3    C1 7378   1.778   2.843  11.086  0.1599 -0.5065 -0.1374
  493TMC3    C2 7379   1.898   2.887  11.027 -0.1339 -0.3671 -0.4626
  493TMC3    C3 7380   1.889   2.946  10.901  0.3447  0.5633 -0.0989
  493TMC3    C4 7381   1.657   2.862  11.028 -0.7501 -0.6604 -0.0605
  493TMC3    C5 7382   1.657   2.928  10.905  0.8938 -0.2358 -0.0105
  493TMC3    C6 7383   1.764   2.972  10.842 -0.1603 -0.1816 -0.2147
  493TMC3     C 7384   1.788   2.810  11.227  0.6594  0.9704 -0.8169
  493TMC3     O 7385   1.698   2.737  11.270 -0.3786 -0.1016  0.3831
  493TMC3     H 7386   1.999   2.857  11.055 -0.1277 -1.4921 -1.6806
  493TMC3    H1 7387   1.564   2.839  11.080 -0.0780  0.4790  1.6494
  493TMC3    H2 7388   1.759   3.027  10.749 -0.9344  1.6315  0.9127
  493TMC3    C7 7389   1.532   2.962  10.832 -0.1850  0.3661  0.4638
  493TMC3    C8 7390   2.010   2.981  10.826 -0.4818 -0.3721 -0.0354
  493TMC3    O1 7391   1.543   3.056  10.758  0.1495  0.5651  0.5420
  493TMC3    O2 7392   2.105   2.909  10.853 -0.3352 -0.3821  0.0617
  494TMC3    C1 7393   1.791   4.437   0.547 -0.0756 -0.5762  0.3961
  494TMC3    C2 7394   1.848   4.310   0.564 -0.1812 -0.4790 -0.4395
  494TMC3    C3 7395   1.987   4.309   0.559  0.1088  0.0487 -0.4157
  494TMC3    C4 7396   1.858   4.542   0.496 -0.0916 -0.3502  0.1900
  494TMC3    C5 7397   1.991   4.534   0.482  0.4036  0.1851 -0.0129
  494TMC3    C6 7398   2.057   4.418   0.508 -0.1779  0.2736  0.6071
  494TMC3     C 7399   1.712   4.472   0.663 -0.1662 -0.4165  0.0104
  494TMC3     O 7400   1.717   4.379   0.742 -0.0183 -0.6198 -0.4556
  494TMC3     H 7401   1.783   4.226   0.589  1.1671 -0.8056  1.9774
  494TMC3    H1 7402   1.804   4.635   0.482  0.6389  0.1411  0.6232
  494TMC3    H2 7403   2.164   4.408   0.495 -0.3610 -0.2106 -0.5427
  494TMC3    C7 7404   2.066   4.635   0.408 -0.2518  0.1308  0.0675
  494TMC3    C8 7405   2.061   4.193   0.612  0.0052 -0.2756  0.8479
  494TMC3    O1 7406   2.181   4.604   0.385  0.1205 -0.0248 -0.2249
  494TMC3    O2 7407   2.183   4.209   0.628  0.2584 -0.0932 -0.4315
  495TMC3    C1 7408   1.095   2.607  14.971  0.0644  0.4377  0.4339
  495TMC3    C2 7409   0.994   2.533  14.916  0.0058 -0.0554 -0.4702
  495TMC3    C3 7410   0.902   2.470  14.994 -0.0525  0.2774  0.0074
  495TMC3    C4 7411   1.100   2.633  15.105 -0.5302 -0.0620 -0.0437
  495TMC3    C5 7412   1.008   2.569  15.184  0.2148  0.0482 -0.0014
  495TMC3    C6 7413   0.902   2.491  15.132  0.1376 -0.3476 -0.1651
  495TMC3     C 7414   1.221   2.616  14.905  0.2726  0.3981 -0.3029
  495TMC3     O 7415   1.285   2.720  14.906  0.2071  0.0460 -0.3540
  495TMC3     H 7416   0.993   2.529  14.808  0.4665 -1.2512 -0.4337
  495TMC3    H1 7417   1.184   2.688  15.146 -0.4410 -0.4252  0.2673
  495TMC3    H2 7418   0.833   2.427  15.185 -1.2853  0.9884 -0.4182
  495TMC3    C7 7419   1.061   2.519  15.314 -0.1308  0.2487  0.1504
  495TMC3    C8 7420   0.849   2.348  14.935  0.0263  0.8127 -0.1877
  495TMC3    O1 7421   1.176   2.528  15.351 -0.5097  0.4466  0.0329
  495TMC3    O2 7422   0.729   2.320  14.932  0.1383  0.1401 -0.2410
  496MPD2     C 7423   3.136   2.071  15.806  0.4781 -0.1216 -0.1322
  496MPD2    C1 7424   3.111   2.053  15.671  0.1018  0.3742 -0.1532
  496MPD2    C2 7425   2.989   2.004  15.635 -1.5258  0.4443 -0.6682
  496MPD2    C3 7426   2.888   1.987  15.730  0.7606 -0.0627  0.9102
  496MPD2    C4 7427   2.911   2.034  15.857 -0.6817  0.0609  0.0393
  496MPD2    C5 7428   3.032   2.075  15.896 -0.1454  0.0132 -0.4737
  496MPD2     H 7429   2.979   1.973  15.531 -0.1907 -3.3674  0.3254
  496MPD2    H1 7430   2.830   2.022  15.928 -1.0561  0.3882 -0.3244
  496MPD2    H2 7431   3.237   2.097  15.837  0.4468  0.8065 -0.7975
  496MPD2    H3 7432   3.051   2.099  16.000 -2.5975 -0.5101  0.0872
  496MPD2     N 7433   2.773   1.909  15.709 -0.2737 -0.3228 -0.6153
  496MPD2    H5 7434   2.709   1.889  15.785  0.5857 -3.1890 -0.6413
  496MPD2    N1 7435   3.223   2.044  15.585 -0.4490  0.2989 -0.4084
  496MPD2    H7 7436   3.312   2.052  15.634  0.4153 -1.1477 -1.7474
  497TMC3    C1 7437   2.625   1.759  15.600  0.2453  0.7525  0.0229
  497TMC3    C2 7438   2.579   1.700  15.485 -0.0561 -0.5384  0.2138
  497TMC3    C3 7439   2.495   1.593  15.498  0.7211  0.8523  0.3811
  497TMC3    C4 7440   2.600   1.701  15.729  0.5634  0.5094  0.1888
  497TMC3    C5 7441   2.513   1.597  15.728 -0.5544 -0.3984 -0.1309
  497TMC3    C6 7442   2.462   1.542  15.615 -0.0950  0.8079  0.1078
  497TMC3     C 7443   2.733   1.854  15.586  0.2009 -0.1587 -0.8180
  497TMC3     O 7444   2.785   1.868  15.475  0.2572 -0.6216  0.2815
  497TMC3     H 7445   2.604   1.744  15.390  1.7500  2.9520  2.3011
  497TMC3    H1 7446   2.637   1.739  15.824 -1.9687  0.4271  1.2021
  497TMC3    H2 7447   2.403   1.451  15.621  0.0036  0.6166 -1.7141
  497TMC3    C7 7448   2.507   1.503  15.842 -0.0887  0.3841  0.5803
  497TMC3    C8 7449   2.420   1.549  15.380  0.2938  0.2793  0.1160
  497TMC3    O1 7450   2.413   1.422  15.852  1.2062  0.1102 -0.4295
  497TMC3    O2 7451   2.342   1.458  15.404 -0.1243  0.7885 -1.0095
  498MPD2     C 7452   3.632   3.003   9.420 -0.3507 -0.2161 -0.2562
  498MPD2    C1 7453   3.708   3.006   9.537  0.0501  0.3070 -0.2352
  498MPD2    C2 7454   3.664   2.927   9.643 -0.0147  0.3668 -0.0431
  498MPD2    C3 7455   3.560   2.836   9.628  0.4148 -0.9426 -0.4327
  498MPD2    C4 7456   3.492   2.830   9.504  0.3628 -0.4022  0.6267
  498MPD2    C5 7457   3.523   2.919   9.406 -0.9029  0.0300  0.4635
  498MPD2     H 7458   3.721   2.929   9.735  0.3602  0.8063 -0.2862
  498MPD2    H1 7459   3.410   2.762   9.490  0.5820 -0.4194 -0.6245
  498MPD2    H2 7460   3.650   3.077   9.343  1.8818  1.7375  2.1367
  498MPD2    H3 7461   3.464   2.938   9.317  2.1899 -2.2136 -2.0748
  498MPD2     N 7462   3.507   2.766   9.744  0.5222 -0.2197 -0.0011
  498MPD2    H5 7463   3.570   2.763   9.823  1.4657  0.7366 -0.7139
  498MPD2    N1 7464   3.818   3.091   9.561 -0.4086  0.4933 -0.0651
  498MPD2    H7 7465   3.866   3.057   9.644  0.2350 -1.1478 -1.1044
  499TMC3    C1 7466   3.973   3.265   9.534 -0.5932 -0.7529 -0.0323
  499TMC3    C2 7467   4.023   3.245   9.657  0.3680  0.7989 -0.8109
  499TMC3    C3 7468   4.111   3.340   9.711 -0.0921  0.1846  0.2772
  499TMC3    C4 7469   4.005   3.375   9.456 -0.1077  0.7043  0.7672
  499TMC3    C5 7470   4.086   3.465   9.513 -0.1790 -0.3625  0.1465
  499TMC3    C6 7471   4.139   3.454   9.640 -0.8467  0.3343  0.1446
  499TMC3     C 7472   3.859   3.188   9.473  0.9768  0.4946  0.4231
  499TMC3     O 7473   3.796   3.240   9.385  0.3371 -0.2139  0.4059
  499TMC3     H 7474   4.012   3.147   9.703  1.3902  0.3008 -1.6188
  499TMC3    H1 7475   3.974   3.382   9.352 -2.0079  0.7493  1.3324
  499TMC3    H2 7476   4.175   3.543   9.688 -2.6282  0.3099  1.5153
  499TMC3    C7 7477   4.103   3.596   9.453  0.2601 -0.1571  0.1580
  499TMC3    C8 7478   4.113   3.342   9.860  0.2411 -0.2901 -0.6733
  499TMC3    O1 7479   4.175   3.677   9.509  0.2493 -0.3297  0.0138
  499TMC3    O2 7480   4.021   3.288   9.921 -0.2994  0.6234  0.6377
  500MPD2     C 7481   0.825   4.145  10.706 -0.7511 -0.0237 -0.1170
  500MPD2    C1 7482   0.877   4.171  10.574 -0.1745  0.7941 -0.3218
  500MPD2    C2 7483   0.782   4.162  10.472 -0.0320  0.4596  0.6332
  500MPD2    C3 7484   0.647   4.141  10.498 -0.5856 -0.2837 -0.5524
  500MPD2    C4 7485   0.603   4.119  10.626 -0.3426 -0.3388  0.2849
  500MPD2    C5 7486   0.696   4.114  10.733  0.3133 -0.4330 -0.5789
  500MPD2     H 7487   0.820   4.157  10.370  2.0319 -0.3540  1.4601
  500MPD2    H1 7488   0.502   4.110  10.665  0.4293 -1.5733  2.0308
  500MPD2    H2 7489   0.889   4.149  10.793 -0.7844  0.3506 -0.1119
  500MPD2    H3 7490   0.663   4.093  10.834  0.3610 -1.2405 -0.7257
  500MPD2     N 7491   0.537   4.148  10.403 -0.1283  0.1663 -0.5005
  500MPD2    H5 7492   0.446   4.136  10.445  0.4483 -0.6956  0.5188
  500MPD2    N1 7493   1.015   4.189  10.552  0.3576  0.4183  0.3275
  500MPD2    H7 7494   1.047   4.191  10.456  0.5196 -1.3409  0.3320
  501TMC3    C1 7495   1.241   4.198  10.612 -0.2902  0.3821 -0.1165
  501TMC3    C2 7496   1.277   4.144  10.490 -0.1938 -0.4172 -0.4893
  501TMC3    C3 7497   1.392   4.076  10.475  0.3428 -1.2417  0.0173
  501TMC3    C4 7498   1.330   4.181  10.716  0.5402  0.0503 -0.5682
  501TMC3    C5 7499   1.442   4.105  10.698 -0.2087  0.1150  0.4107
  501TMC3    C6 7500   1.476   4.052  10.578  0.2897 -0.4929 -0.1919
  501TMC3     C 7501   1.106   4.221  10.643 -0.1799 -0.0052 -0.4529
  501TMC3     O 7502   1.085   4.250  10.759 -0.0711  0.5730 -0.6791
  501TMC3     H 7503   1.206   4.137  10.408 -0.4901 -1.5604 -0.1316
  501TMC3    H1 7504   1.307   4.212  10.817 -0.6382  0.1457 -0.8658
  501TMC3    H2 7505   1.557   3.982  10.564  1.0562  0.6816 -1.5325
  501TMC3    C7 7506   1.510   4.039  10.808 -0.0327 -0.4453 -0.1511
  501TMC3    C8 7507   1.431   4.008  10.353  0.6885  0.4548  0.5297
  501TMC3    O1 7508   1.602   3.960  10.783  0.1727  0.5742 -0.2470
  501TMC3    O2 7509   1.474   3.900  10.374 -0.6597  0.1666 -0.2139
  502TMC3    C1 7510   0.535   2.847  14.756 -0.5377  0.6888 -0.2180
  502TMC3    C2 7511   0.503   2.977  14.732  0.4644 -0.4029  0.1546
  502TMC3    C3 7512   0.383   3.029  14.774  0.2322 -0.7381  0.6880
  502TMC3    C4 7513   0.438   2.765  14.798  1.0410 -0.7859 -0.2917
  502TMC3    C5 7514   0.321   2.814  14.850 -0.3980 -1.3053  0.1717
  502TMC3    C6 7515   0.294   2.946  14.836  0.1932  0.0261  0.4923
  502TMC3     C 7516   0.656   2.834  14.842 -0.0019  0.5951  0.4613
  502TMC3     O 7517   0.754   2.901  14.803  0.0062  0.1283 -0.1714
  502TMC3     H 7518   0.578   3.050  14.702 -0.4462  1.2482  1.9133
  502TMC3    H1 7519   0.452   2.658  14.790 -1.9022 -1.0409 -2.0806
  502TMC3    H2 7520   0.219   2.999  14.894  0.1912  1.7995 -1.1036
  502TMC3    C7 7521   0.255   2.736  14.957  0.1396  0.3341  0.0245
  502TMC3    C8 7522   0.398   3.153  14.849  0.2903 -0.0929 -0.2809
  502TMC3    O1 7523   0.331   2.653  15.001  0.0030  0.2987  0.7560
  502TMC3    O2 7524   0.309   3.236  14.849  0.2860  0.1812  0.1917
  503MPD2     C 7525   2.750   3.334  16.969  1.0698 -0.1349  0.3037
  503MPD2    C1 7526   2.734   3.390  17.096 -0.1341 -0.2978  0.4754
  503MPD2    C2 7527   2.809   3.336  17.204 -0.4038  0.7560 -0.0213
  503MPD2    C3 7528   2.908   3.243  17.181  0.6363 -1.1802  0.9167
  503MPD2    C4 7529   2.921   3.183  17.055 -0.2386 -0.3012 -0.8045
  503MPD2    C5 7530   2.841   3.231  16.950 -0.3004  0.0508 -0.7089
  503MPD2     H 7531   2.780   3.374  17.301  1.1267  0.4190  0.5699
  503MPD2    H1 7532   2.994   3.111  17.022  2.9624  2.9846 -0.9116
  503MPD2    H2 7533   2.697   3.369  16.881 -3.5153 -2.6362  2.0572
  503MPD2    H3 7534   2.857   3.194  16.850 -2.9186 -1.1813 -0.6653
  503MPD2     N 7535   2.981   3.186  17.300 -0.7529 -0.4596 -0.0954
  503MPD2    H5 7536   2.950   3.223  17.390 -0.4074 -4.2800  1.5675
  503MPD2    N1 7537   2.652   3.497  17.118 -0.4109 -0.4777  0.3300
  503MPD2    H7 7538   2.639   3.523  17.216 -0.8665 -0.0465  0.1537
  504TMC3    C1 7539   3.142   3.077  17.429 -0.5105  0.0851  0.0738
  504TMC3    C2 7540   3.045   3.016  17.506 -0.2875  0.2173  0.1365
  504TMC3    C3 7541   3.096   2.945  17.613 -0.4168  0.0695  0.6952
  504TMC3    C4 7542   3.276   3.084  17.468  0.2460 -0.0710 -0.0061
  504TMC3    C5 7543   3.319   2.998  17.571 -0.2925 -0.2381  0.1890
  504TMC3    C6 7544   3.228   2.940  17.653 -1.0651 -0.3885 -0.2886
  504TMC3     C 7545   3.096   3.109  17.286 -0.0394 -0.6717 -0.0061
  504TMC3     O 7546   3.162   3.090  17.186  0.0949  0.6728 -0.0055
  504TMC3     H 7547   2.937   3.024  17.502 -0.5369 -2.7695  0.5945
  504TMC3    H1 7548   3.349   3.134  17.405 -0.5441  2.7621  1.3728
  504TMC3    H2 7549   3.265   2.869  17.725 -1.5150 -0.2745  0.0543
  504TMC3    C7 7550   3.443   2.926  17.556 -0.2366 -0.1235  0.1807
  504TMC3    C8 7551   3.002   2.858  17.690  0.8482  0.5568 -0.0374
  504TMC3    O1 7552   3.535   2.997  17.514  0.1686  0.0644  0.0230
  504TMC3    O2 7553   2.907   2.808  17.638 -0.5478  0.0940  0.2974
  505MPD2     C 7554   3.204   2.199  10.993 -0.2078 -0.2313  0.5205
  505MPD2    C1 7555   3.229   2.084  10.918  0.2972  0.3235 -0.2938
  505MPD2    C2 7556   3.361   2.049  10.882  0.1688 -0.5212 -0.3657
  505MPD2    C3 7557   3.463   2.130  10.928 -0.3583  0.3204 -0.6722
  505MPD2    C4 7558   3.435   2.239  11.016  0.4171 -0.1364  0.5647
  505MPD2    C5 7559   3.308   2.264  11.047 -0.2578 -0.0223 -0.0341
  505MPD2     H 7560   3.401   1.980  10.808  2.1512  0.9850 -0.7006
  505MPD2    H1 7561   3.502   2.295  11.081  0.6879  0.5672 -0.3230
  505MPD2    H2 7562   3.105   2.231  11.020 -0.2541  0.3649 -0.3606
  505MPD2    H3 7563   3.294   2.346  11.117 -1.0853 -0.7570  0.6644
  505MPD2     N 7564   3.596   2.096  10.888 -0.0003  0.5179 -0.4813
  505MPD2    H5 7565   3.597   2.008  10.837 -0.9255 -1.0910  2.2790
  505MPD2    N1 7566   3.123   2.007  10.869  0.2800 -0.2714  0.1017
  505MPD2    H7 7567   3.028   2.037  10.886  0.4868  0.7078 -0.4600
  506TMC3    C1 7568   3.015   1.823  10.767 -0.1853  0.1317  0.1013
  506TMC3    C2 7569   2.941   1.910  10.691 -0.3665 -0.0529  0.1706
  506TMC3    C3 7570   2.906   1.861  10.569  0.0863  0.3834 -0.3498
  506TMC3    C4 7571   3.047   1.697  10.722 -0.1689 -0.1669 -0.3472
  506TMC3    C5 7572   2.999   1.656  10.597  0.4746  0.2589  0.0928
  506TMC3    C6 7573   2.910   1.737  10.527  0.6590 -0.7876 -0.6201
  506TMC3     C 7574   3.140   1.883  10.813  0.5138  0.0094  0.2685
  506TMC3     O 7575   3.247   1.821  10.792  0.0273  0.2111 -0.1885
  506TMC3     H 7576   2.929   2.017  10.706  2.2393  0.2909 -0.1297
  506TMC3    H1 7577   3.104   1.630  10.785 -0.6518  2.8122  3.2664
  506TMC3    H2 7578   2.891   1.705  10.424 -2.8830 -0.2960 -0.1211
  506TMC3    C7 7579   3.114   1.597  10.524  0.0696 -0.3585 -1.2649
  506TMC3    C8 7580   2.836   1.946  10.470 -0.3942  0.0903 -0.3887
  506TMC3    O1 7581   3.090   1.525  10.427  0.5599 -0.1737 -0.2172
  506TMC3    O2 7582   2.733   1.902  10.424  0.7361  0.2656 -0.2400
  507TMC3    C1 7583   3.539   2.858  14.949  0.2093  0.9724 -0.1130
  507TMC3    C2 7584   3.484   2.776  14.850 -0.5352  0.2742  0.4971
  507TMC3    C3 7585   3.542   2.772  14.724 -0.6267  0.6278 -0.2043
  507TMC3    C4 7586   3.641   2.943  14.920  0.1344  0.0862 -0.2965
  507TMC3    C5 7587   3.691   2.944  14.789  0.8158  0.7284  0.7618
  507TMC3    C6 7588   3.648   2.854  14.700 -0.1810 -0.6046 -0.7936
  507TMC3     C 7589   3.491   2.836  15.082 -0.0953 -1.1219 -0.1481
  507TMC3     O 7590   3.559   2.890  15.169 -0.6313  0.2368  0.7299
  507TMC3     H 7591   3.416   2.694  14.872 -0.4255 -0.6815 -2.7724
  507TMC3    H1 7592   3.660   3.018  14.995  0.0240 -2.1179  1.9109
  507TMC3    H2 7593   3.711   2.833  14.614 -0.2877 -1.1845 -0.7363
  507TMC3    C7 7594   3.696   3.071  14.715 -0.2263 -0.1227  0.4165
  507TMC3    C8 7595   3.454   2.764  14.605  0.7469  0.7840 -0.0091
  507TMC3    O1 7596   3.655   3.063  14.598 -0.2160  0.1162  0.6051
  507TMC3    O2 7597   3.380   2.670  14.598  0.0811  0.4466 -0.1442
  508MPD2     C 7598   4.463   0.814  16.035  0.4061  0.3454 -0.2007
  508MPD2    C1 7599   4.572   0.845  16.113  0.6197  0.6159 -0.1399
  508MPD2    C2 7600   4.624   0.970  16.102  0.0775  0.6843  0.2865
  508MPD2    C3 7601   4.578   1.060  16.009 -0.3519  0.0200  0.2332
  508MPD2    C4 7602   4.474   1.027  15.923 -0.3276  0.3109  0.0542
  508MPD2    C5 7603   4.420   0.903  15.942  0.5599  0.2962  0.3813
  508MPD2     H 7604   4.706   0.991  16.169  0.6861 -2.0193  0.3914
  508MPD2    H1 7605   4.432   1.093  15.848 -1.0424 -0.6038 -0.3407
  508MPD2    H2 7606   4.422   0.714  16.038 -2.1235  1.4283  0.5475
  508MPD2    H3 7607   4.330   0.877  15.886  1.3680 -0.9581 -0.3297
  508MPD2     N 7608   4.629   1.190  16.016 -0.4265 -0.2513  0.4495
  508MPD2    H5 7609   4.674   1.219  16.102 -1.4940  2.4338  0.0894
  508MPD2    N1 7610   4.630   0.744  16.196  0.2690 -0.1939 -0.0422
  508MPD2    H7 7611   4.567   0.674  16.233  1.1234 -1.5442 -1.1596
  509TMC3    C1 7612   4.629   1.630  16.071 -0.7311 -0.8284 -0.6578
  509TMC3    C2 7613   0.011   1.625  16.144 -0.4910 -0.7239  0.0356
  509TMC3    C3 7614   0.084   1.511  16.124 -0.3303  0.2185 -0.3676
  509TMC3    C4 7615   4.580   1.528  15.999 -0.3966 -0.9147 -0.6143
  509TMC3    C5 7616   4.652   1.415  15.996 -0.1961  0.4012  0.8576
  509TMC3    C6 7617   0.034   1.397  16.065 -0.1282  0.1825 -0.0161
  509TMC3     C 7618   4.597   1.767  16.022  0.1377 -0.0278 -0.1683
  509TMC3     O 7619   4.604   1.855  16.107 -0.5045  0.3628  0.4620
  509TMC3     H 7620   0.055   1.713  16.190  0.1206 -0.9918 -0.0485
  509TMC3    H1 7621   4.497   1.538  15.930  1.0223  2.3077 -1.8513
  509TMC3    H2 7622   0.102   1.321  16.028 -0.9423  0.0774 -1.2875
  509TMC3    C7 7623   4.599   1.296  15.934 -1.1496 -0.5778 -0.1281
  509TMC3    C8 7624   0.223   1.512  16.158  0.6883 -0.2899  0.5308
  509TMC3    O1 7625   4.531   1.321  15.837  0.0002 -0.0114 -0.7119
  509TMC3    O2 7626   0.273   1.408  16.202 -0.0161  0.1574 -0.5083
  510MPD2     C 7627   2.486   2.202  14.877 -0.6480 -0.4445  0.5963
  510MPD2    C1 7628   2.525   2.109  14.970 -0.4716 -0.1037  0.4069
  510MPD2    C2 7629   2.653   2.078  14.990  0.4409 -0.5569  0.0383
  510MPD2    C3 7630   2.755   2.144  14.932  0.4849 -0.9247 -0.2473
  510MPD2    C4 7631   2.720   2.249  14.845  0.3225 -0.3365  0.3447
  510MPD2    C5 7632   2.588   2.274  14.826 -0.6921 -0.1929  0.0447
  510MPD2     H 7633   2.679   2.000  15.061 -1.4355  0.1284  1.4764
  510MPD2    H1 7634   2.803   2.311  14.811  0.1889 -1.3522 -1.8022
  510MPD2    H2 7635   2.383   2.231  14.860 -0.7612 -1.3697 -0.2400
  510MPD2    H3 7636   2.564   2.349  14.752  2.0495 -0.1951 -0.8732
  510MPD2     N 7637   2.887   2.106  14.952 -0.2661  0.0444 -0.1545
  510MPD2    H5 7638   2.892   2.024  15.010 -0.3599 -0.0723 -0.3122
  510MPD2    N1 7639   2.421   2.039  15.032  0.1845  0.0850  0.6209
  510MPD2    H7 7640   2.333   2.056  14.985 -0.2462  0.4868  1.5855
  511TMC3    C1 7641   2.282   1.910  15.168  0.3951  0.1690  0.0966
  511TMC3    C2 7642   2.253   1.884  15.294 -0.6767  0.4410  0.0325
  511TMC3    C3 7643   2.133   1.827  15.321  0.1802  0.4508 -0.9238
  511TMC3    C4 7644   2.209   1.872  15.058 -0.4189 -0.6588  0.4299
  511TMC3    C5 7645   2.088   1.810  15.088  0.5372 -0.7462  0.4359
  511TMC3    C6 7646   2.045   1.795  15.216 -0.5430 -0.1019 -0.5404
  511TMC3     C 7647   2.417   1.952  15.140  0.0887  0.1229  0.7723
  511TMC3     O 7648   2.506   1.914  15.216  0.4686 -0.0918 -0.5127
  511TMC3     H 7649   2.321   1.924  15.368  1.2794 -1.6557 -0.6686
  511TMC3    H1 7650   2.241   1.879  14.955 -0.3804 -0.5575  0.4497
  511TMC3    H2 7651   1.949   1.754  15.243 -0.0916  0.3805  1.7869
  511TMC3    C7 7652   2.026   1.730  14.988 -0.1341 -0.4019 -0.1923
  511TMC3    C8 7653   2.058   1.901  15.428  0.1393 -0.2383 -0.4451
  511TMC3    O1 7654   2.064   1.753  14.872 -0.0128  0.0867  0.3108
  511TMC3    O2 7655   1.998   2.003  15.382 -0.5138 -0.2272  0.3823
  512TMC3    C1 7656   1.565   1.817  13.106 -0.4906 -0.3281 -0.0345
  512TMC3    C2 7657   1.631   1.790  13.224 -0.0761 -0.0866 -0.3977
  512TMC3    C3 7658   1.734   1.702  13.220 -0.4389  0.5224  0.3804
  512TMC3    C4 7659   1.582   1.742  12.995 -0.2208  0.1803  0.9646
  512TMC3    C5 7660   1.671   1.637  13.005 -0.4987  0.0416  0.2839
  512TMC3    C6 7661   1.760   1.617  13.116 -0.0107 -0.1081  1.0166
  512TMC3     C 7662   1.458   1.918  13.114 -0.1915  0.3499  0.0106
  512TMC3     O 7663   1.428   1.953  13.224 -0.1702 -0.2847 -0.0204
  512TMC3     H 7664   1.609   1.859  13.304 -0.7770 -0.1585 -0.5255
  512TMC3    H1 7665   1.518   1.743  12.908  0.0422  1.8156  0.7846
  512TMC3    H2 7666   1.823   1.531  13.132 -0.3724 -0.4080  0.8400
  512TMC3    C7 7667   1.703   1.575  12.884  0.2679  0.6128 -0.9796
  512TMC3    C8 7668   1.801   1.672  13.342 -0.2466 -0.7326 -0.0887
  512TMC3    O1 7669   1.687   1.642  12.784  0.3296 -0.0227  0.4293
  512TMC3    O2 7670   1.807   1.554  13.371  0.1602 -0.2448  0.2439
  513MPD2     C 7671   3.352   1.775  13.556  0.2248 -0.0303 -0.1797
  513MPD2    C1 7672   3.356   1.658  13.492 -0.4065  0.1719 -0.2351
  513MPD2    C2 7673   3.439   1.557  13.540  0.2146  0.7456 -0.7158
  513MPD2    C3 7674   3.506   1.573  13.661  0.2760 -0.5641 -0.1651
  513MPD2    C4 7675   3.491   1.695  13.722  0.3378 -0.6517 -0.0885
  513MPD2    C5 7676   3.415   1.795  13.671  0.5721 -0.2311 -0.3500
  513MPD2     H 7677   3.457   1.461  13.494 -0.2203 -0.2845  1.2746
  513MPD2    H1 7678   3.537   1.723  13.816 -1.9346 -2.2841  1.5325
  513MPD2    H2 7679   3.306   1.866  13.519  0.7942 -0.1284 -1.1245
  513MPD2    H3 7680   3.395   1.885  13.727 -1.9499 -0.9886 -0.0425
  513MPD2     N 7681   3.570   1.464  13.717 -0.1323 -0.2767  0.6149
  513MPD2    H5 7682   3.550   1.375  13.672 -0.4820 -0.0049  0.2325
  513MPD2    N1 7683   3.279   1.640  13.379  0.3682 -0.6481 -0.0849
  513MPD2    H7 7684   3.247   1.727  13.337  2.2341  1.2364  2.3710
  514TMC3    C1 7685   3.228   1.548  13.160  0.2548 -0.2286  0.6474
  514TMC3    C2 7686   3.288   1.659  13.106 -0.3375 -0.0111  0.0669
  514TMC3    C3 7687   3.364   1.633  12.987  0.3555  0.0239  0.3429
  514TMC3    C4 7688   3.226   1.427  13.091 -0.0287  0.1193  0.1176
  514TMC3    C5 7689   3.301   1.410  12.980  0.1962  0.0617  0.1334
  514TMC3    C6 7690   3.361   1.511  12.921 -0.5944  0.1386 -0.0275
  514TMC3     C 7691   3.285   1.528  13.294 -0.2322 -0.1182  0.4370
  514TMC3     O 7692   3.304   1.411  13.319  0.5607 -0.5087  0.0574
  514TMC3     H 7693   3.315   1.748  13.162  1.2478  0.9198 -2.2046
  514TMC3    H1 7694   3.166   1.345  13.128  0.2583 -0.4970 -0.7698
  514TMC3    H2 7695   3.443   1.498  12.852 -0.2823  1.1204  0.1583
  514TMC3    C7 7696   3.380   1.294  12.972  0.5876  0.0519 -0.4622
  514TMC3    C8 7697   3.468   1.727  12.960  0.0434 -0.5270 -0.1691
  514TMC3    O1 7698   3.434   1.271  12.864 -0.1468 -0.5279 -0.2136
  514TMC3    O2 7699   3.528   1.780  13.052  0.3188 -0.2979  0.1514
  515MPD2     C 7700   1.143   4.182  15.073 -0.1094  0.1245  0.0652
  515MPD2    C1 7701   1.215   4.079  15.023  1.2277  0.4056 -0.4265
  515MPD2    C2 7702   1.337   4.050  15.081  0.0188  0.3060 -0.6695
  515MPD2    C3 7703   1.395   4.135  15.173 -0.2592 -0.0467 -0.0800
  515MPD2    C4 7704   1.316   4.232  15.229 -0.3224  0.1351  0.3797
  515MPD2    C5 7705   1.192   4.255  15.171  0.5105  0.7728 -0.0484
  515MPD2     H 7706   1.396   3.973  15.032  0.2292 -0.0616  0.1639
  515MPD2    H1 7707   1.352   4.300  15.305 -1.3695  1.9548 -0.7603
  515MPD2    H2 7708   1.044   4.203  15.033  0.7106  3.0661 -0.3974
  515MPD2    H3 7709   1.136   4.340  15.209  0.0574  0.0435  0.9044
  515MPD2     N 7710   1.526   4.117  15.227 -0.0579 -0.4477 -0.4992
  515MPD2    H5 7711   1.569   4.189  15.285 -0.7395  2.1600 -3.2645
  515MPD2    N1 7712   1.181   4.000  14.909 -0.7319  0.2496  0.1263
  515MPD2    H7 7713   1.245   3.929  14.875  0.3722  1.4322 -0.2860
  516TMC3    C1 7714   1.042   3.881  14.774  0.6440 -0.8540  0.1480
  516TMC3    C2 7715   0.928   3.884  14.700  0.4207  0.1809 -0.4608
  516TMC3    C3 7716   0.863   3.763  14.697  0.1321 -0.0639 -0.1111
  516TMC3    C4 7717   1.100   3.766  14.830 -0.3898  0.5246 -0.1128
  516TMC3    C5 7718   1.030   3.647  14.814 -0.0639  0.2945  0.1699
  516TMC3    C6 7719   0.911   3.647  14.745  0.1552  0.2945  1.4008
  516TMC3     C 7720   1.063   4.008  14.837 -0.0540  0.3427 -0.0354
  516TMC3     O 7721   0.967   4.084  14.843  0.4339 -0.6382  0.2894
  516TMC3     H 7722   0.879   3.978  14.674 -1.2118 -0.7774 -0.8194
  516TMC3    H1 7723   1.201   3.759  14.869  0.0893 -2.1214 -1.8307
  516TMC3    H2 7724   0.847   3.559  14.745 -1.3643  1.4003  0.5319
  516TMC3    C7 7725   1.060   3.538  14.907 -0.1532  0.3520 -0.9173
  516TMC3    C8 7726   0.768   3.745  14.591  0.2259 -0.0104 -0.4708
  516TMC3    O1 7727   1.121   3.574  15.007 -0.3927  0.0717 -0.6864
  516TMC3    O2 7728   0.683   3.655  14.593  0.1493  0.9177 -0.3358
  517MPD2     C 7729   1.447   0.089  17.259  0.7265  0.7156  0.4026
  517MPD2    C1 7730   1.431   0.106  17.399  0.4106 -0.2160 -0.0426
  517MPD2    C2 7731   1.388   0.231  17.440 -0.3230  0.5356  0.2695
  517MPD2    C3 7732   1.344   0.329  17.351  0.8790  0.0989 -0.4466
  517MPD2    C4 7733   1.371   0.318  17.219 -0.0185  0.2271  0.4333
  517MPD2    C5 7734   1.425   0.195  17.176 -0.0157 -0.4986 -0.0793
  517MPD2     H 7735   1.368   0.238  17.546  1.1392  1.1145  0.5088
  517MPD2    H1 7736   1.344   0.404  17.159 -0.4502 -0.4361 -0.3193
  517MPD2    H2 7737   1.470   4.730  17.214 -1.6373  0.5366 -0.3936
  517MPD2    H3 7738   1.439   0.174  17.070  1.5468 -0.3010  0.0892
  517MPD2     N 7739   1.266   0.443  17.395  0.6766  0.0468 -0.9672
  517MPD2    H5 7740   1.249   0.499  17.313 -2.4712  0.9558  0.3167
  517MPD2    N1 7741   1.469   0.005  17.493 -0.1145 -0.5572 -0.0882
  517MPD2    H7 7742   1.461   0.028  17.591  1.6202  0.1373 -0.1034
  518TMC3    C1 7743   1.513   4.531  17.566 -0.4307  1.1743  0.1590
  518TMC3    C2 7744   1.449   4.413  17.564 -0.0109 -0.3201  0.0769
  518TMC3    C3 7745   1.494   4.321  17.651  0.2338 -0.8512 -0.0694
  518TMC3    C4 7746   1.601   4.565  17.664  0.0222  0.3176  0.5328
  518TMC3    C5 7747   1.641   4.463  17.746 -0.3945  0.4868  0.2949
  518TMC3    C6 7748   1.595   4.338  17.739  0.3727  0.2429  0.0558
  518TMC3     C 7749   1.494   4.611  17.450  0.0483  0.2659  0.2362
  518TMC3     O 7750   1.459   4.558  17.347  0.4847  0.2740 -0.5285
  518TMC3     H 7751   1.378   4.383  17.488 -0.0485  0.1371 -0.0703
  518TMC3    H1 7752   1.666   4.652  17.666  0.2707  0.1769 -0.9074
  518TMC3    H2 7753   1.616   4.272   0.077  2.2613 -1.8961 -2.1316
  518TMC3    C7 7754   1.782   4.471   0.035  0.6574 -0.0008 -0.5028
  518TMC3    C8 7755   1.416   4.205  17.669 -0.3247 -0.3744  0.1737
  518TMC3    O1 7756   1.816   4.571   0.093 -0.0534  1.4535 -0.0808
  518TMC3    O2 7757   1.469   4.113  17.729  0.6329 -0.3651 -0.4830
  519MPD2     C 7758   2.973   3.744  13.909  0.2647  0.4604 -0.0809
  519MPD2    C1 7759   2.915   3.635  13.968  0.3434  0.2520 -0.6630
  519MPD2    C2 7760   2.956   3.511  13.931 -0.3165 -0.6108  0.2442
  519MPD2    C3 7761   3.063   3.494  13.848 -0.0384  0.3524  0.3163
  519MPD2    C4 7762   3.133   3.613  13.813 -0.2237  0.0099 -0.4705
  519MPD2    C5 7763   3.084   3.733  13.840  0.0020 -0.2610  0.0217
  519MPD2     H 7764   2.909   3.422  13.970  1.3224 -1.2797  0.7149
  519MPD2    H1 7765   3.228   3.610  13.761  0.1275  0.0843  0.1754
  519MPD2    H2 7766   2.925   3.840  13.921 -0.4137  0.2150 -0.8584
  519MPD2    H3 7767   3.128   3.820  13.793 -1.3544 -0.1868 -1.1230
  519MPD2     N 7768   3.096   3.364  13.790 -0.0925  0.0728  0.5768
  519MPD2    H5 7769   3.193   3.346  13.766 -0.3854  0.7831 -1.1511
  519MPD2    N1 7770   2.811   3.659  14.063 -0.9768 -0.2785  0.3645
  519MPD2    H7 7771   2.787   3.757  14.078 -0.4963 -0.5351  2.6847
  520TMC3    C1 7772   3.070   3.131  13.778  0.1318 -0.4503 -0.3592
  520TMC3    C2 7773   2.987   3.029  13.750 -0.1890  0.1979  0.5258
  520TMC3    C3 7774   3.039   2.899  13.753  0.9654  0.5047 -0.4273
  520TMC3    C4 7775   3.190   3.098  13.841 -0.2487  0.4555  0.3133
  520TMC3    C5 7776   3.244   2.971  13.835  0.2898 -0.6583 -0.2577
  520TMC3    C6 7777   3.164   2.875  13.784 -0.2197 -0.6135  0.6452
  520TMC3     C 7778   3.008   3.262  13.779 -0.1066 -0.2813 -0.0390
  520TMC3     O 7779   2.885   3.271  13.780 -0.0521  0.2821  0.2814
  520TMC3     H 7780   2.886   3.050  13.715 -1.0435 -2.5097  1.4123
  520TMC3    H1 7781   3.253   3.176  13.884 -0.6154  0.9642 -0.0674
  520TMC3    H2 7782   3.204   2.775  13.778  1.9663  0.3979 -1.8693
  520TMC3    C7 7783   3.367   2.933  13.896  0.2148  0.5982  0.1031
  520TMC3    C8 7784   2.952   2.788  13.746 -0.3166  0.1878  0.7917
  520TMC3    O1 7785   3.397   2.813  13.916  0.2718 -0.6602  0.2727
  520TMC3    O2 7786   3.001   2.680  13.719 -0.3238 -0.3325 -0.1767
  521MPD2     C 7787   3.489   1.265  17.652  0.0610 -0.1749  0.3378
  521MPD2    C1 7788   3.449   1.161  17.564  0.1023  0.0858 -0.6816
  521MPD2    C2 7789   3.538   1.130  17.463 -0.3720 -0.7718 -0.2441
  521MPD2    C3 7790   3.656   1.194  17.438 -0.0485  0.1612  0.3777
  521MPD2    C4 7791   3.688   1.288  17.524  0.0141  0.0234  0.0211
  521MPD2    C5 7792   3.608   1.326  17.626 -0.7312  0.0872  1.1557
  521MPD2     H 7793   3.511   1.066  17.379  1.9106 -2.1745  0.1084
  521MPD2    H1 7794   3.772   1.352  17.502  1.6768 -2.3724 -0.6608
  521MPD2    H2 7795   3.422   1.299  17.731 -1.6376  0.8869 -1.5311
  521MPD2    H3 7796   3.646   1.400  17.696  0.3572  0.8215 -0.2111
  521MPD2     N 7797   3.745   1.152  17.336 -0.0830  0.1738 -0.4207
  521MPD2    H5 7798   3.721   1.068  17.285  0.4611 -0.8501  1.0038
  521MPD2    N1 7799   3.318   1.106  17.573  0.1388 -0.6492  0.4391
  521MPD2    H7 7800   3.261   1.133  17.653  0.7286 -2.4010  1.4398
  522TMC3    C1 7801   3.915   1.112  17.195  0.0947 -0.5435  1.0689
  522TMC3    C2 7802   4.045   1.076  17.198 -0.0878 -0.5414  0.3192
  522TMC3    C3 7803   4.100   0.989  17.110 -0.3614  0.1240 -0.2316
  522TMC3    C4 7804   3.828   1.070  17.104 -0.7161  0.3153  0.3021
  522TMC3    C5 7805   3.879   0.982  17.010 -0.5109 -0.1533 -0.0340
  522TMC3    C6 7806   4.016   0.937  17.011  0.2172  0.3974  0.6384
  522TMC3     C 7807   3.864   1.205  17.296  0.2888 -0.0387  0.0957
  522TMC3     O 7808   3.932   1.302  17.332  0.0894 -0.1429  0.1451
  522TMC3     H 7809   4.099   1.111  17.286 -0.2334 -1.3880  0.7516
  522TMC3    H1 7810   3.731   1.118  17.099 -0.7496  0.1713 -0.4660
  522TMC3    H2 7811   4.049   0.851  16.954  0.5046  1.3033 -0.5596
  522TMC3    C7 7812   3.787   0.879  16.968  0.8856 -0.5151 -0.1167
  522TMC3    C8 7813   4.238   0.962  17.133  0.2371 -0.5767  0.4450
  522TMC3    O1 7814   3.818   0.762  16.975  0.0517 -0.4139 -0.1674
  522TMC3    O2 7815   4.286   1.021  17.225  0.0603 -0.4857 -0.2863
  523MPD2     C 7816   1.146   0.620  10.622  0.4809  0.0785  0.3875
  523MPD2    C1 7817   1.165   0.721  10.537  0.2857  0.6051  0.0387
  523MPD2    C2 7818   1.065   0.767  10.452 -0.4707  0.0520  0.0245
  523MPD2    C3 7819   0.944   0.703  10.449  0.1656  0.5635 -1.1038
  523MPD2    C4 7820   0.923   0.597  10.530 -0.3664 -0.4398  0.0421
  523MPD2    C5 7821   1.021   0.560  10.619 -0.0234 -0.1012 -0.3016
  523MPD2     H 7822   1.072   0.860  10.396 -0.0474  0.2146  0.3460
  523MPD2    H1 7823   0.827   0.548  10.543  0.1335 -1.3850  0.1688
  523MPD2    H2 7824   1.217   0.571  10.688  1.0953 -0.6605 -0.8219
  523MPD2    H3 7825   1.002   0.488  10.699  0.0377 -3.7048 -3.5521
  523MPD2     N 7826   0.854   0.711  10.340 -0.5096 -0.0394 -0.1352
  523MPD2    H5 7827   0.790   0.635  10.319 -1.1145  0.0873  1.2563
  523MPD2    N1 7828   1.292   0.782  10.542 -0.1935 -0.2685 -0.1144
  523MPD2    H7 7829   1.356   0.738  10.607  0.5964 -0.3072 -0.9233
  524TMC3    C1 7830   0.768   0.790  10.130  0.2104  0.1892 -0.2226
  524TMC3    C2 7831   0.705   0.672  10.111 -0.4650 -0.9213 -0.3328
  524TMC3    C3 7832   0.639   0.661   9.994 -0.4550 -0.0453  0.4388
  524TMC3    C4 7833   0.732   0.902  10.064  0.0777  0.4047  0.6077
  524TMC3    C5 7834   0.666   0.888   9.948  0.4024 -0.2548 -0.3816
  524TMC3    C6 7835   0.612   0.768   9.909 -0.5460 -0.4878  0.1627
  524TMC3     C 7836   0.849   0.813  10.251 -0.5341 -0.2588  0.5186
  524TMC3     O 7837   0.896   0.925  10.273 -0.2538 -0.2821 -0.2551
  524TMC3     H 7838   0.750   0.582  10.151 -0.8888 -2.4571 -3.3360
  524TMC3    H1 7839   0.771   1.000  10.093  1.7741 -0.3260  0.8171
  524TMC3    H2 7840   0.564   0.751   9.814  0.8236 -2.0761 -0.2584
  524TMC3    C7 7841   0.626   1.011   9.882 -0.2928 -0.1575 -0.0773
  524TMC3    C8 7842   0.581   0.532   9.950  0.5739  0.0309  0.7102
  524TMC3    O1 7843   0.523   1.006   9.818 -0.4389 -0.6663 -0.0128
  524TMC3    O2 7844   0.556   0.521   9.827 -0.4827 -0.3014  0.0597
  525MPD2     C 7845   4.077   2.914  14.570  0.1281 -0.7020  0.0858
  525MPD2    C1 7846   4.192   2.944  14.643 -0.0213  0.7448  0.2450
  525MPD2    C2 7847   4.220   3.069  14.680 -0.9739  0.2259 -0.1565
  525MPD2    C3 7848   4.129   3.167  14.643  0.3274 -0.3525 -0.3746
  525MPD2    C4 7849   4.016   3.137  14.564  0.8215  0.1043  0.0743
  525MPD2    C5 7850   3.988   3.008  14.534 -0.0618 -0.8468 -0.0241
  525MPD2     H 7851   4.302   3.097  14.745 -0.7681  0.5407 -0.5485
  525MPD2    H1 7852   3.947   3.214  14.533  0.8194  0.5176  1.1097
  525MPD2    H2 7853   4.052   2.811  14.547  2.2152 -1.5676  1.7020
  525MPD2    H3 7854   3.891   2.984  14.491 -0.9664  2.0162  0.4004
  525MPD2     N 7855   4.152   3.305  14.676  0.1132 -0.3388  0.2180
  525MPD2    H5 7856   4.074   3.368  14.662  0.8473  0.3073 -0.9771
  525MPD2    N1 7857   4.279   2.838  14.677 -0.2109 -0.0583 -0.0337
  525MPD2    H7 7858   4.368   2.866  14.715 -0.4466 -1.1719  1.3170
  526TMC3    C1 7859   4.347   2.632  14.754  0.2218  0.0644 -0.1871
  526TMC3    C2 7860   4.310   2.555  14.861  0.4305 -0.1089 -0.1012
  526TMC3    C3 7861   4.398   2.480  14.918 -0.0428 -0.1721  1.2271
  526TMC3    C4 7862   4.479   2.652  14.716 -0.0772 -0.7202 -0.6471
  526TMC3    C5 7863   4.565   2.555  14.768  0.5765 -0.3861  0.3835
  526TMC3    C6 7864   4.526   2.471  14.875  0.3809  0.0990  0.1668
  526TMC3     C 7865   4.246   2.703  14.685 -0.5492 -0.2295 -0.0860
  526TMC3     O 7866   4.135   2.654  14.697 -0.5959  0.4073  0.1887
  526TMC3     H 7867   4.212   2.575  14.904  1.3430  0.2927  1.8281
  526TMC3    H1 7868   4.497   2.699  14.620 -0.2534  0.5886 -0.0487
  526TMC3    H2 7869   4.583   2.390  14.916  0.2373  1.1458  2.4375
  526TMC3    C7 7870   4.705   2.558  14.718  0.6189  0.2955 -0.0610
  526TMC3    C8 7871   4.374   2.447  15.058  0.0384  0.3645  0.1884
  526TMC3    O1 7872   0.022   2.654  14.666 -0.0599  0.3961 -0.3165
  526TMC3    O2 7873   4.471   2.449  15.131 -0.1965  0.3523  0.4763
  527MPD2     C 7874   2.416   1.093   1.512  0.0091  0.0190 -0.4850
  527MPD2    C1 7875   2.331   0.991   1.480 -0.2594  0.3532 -0.3452
  527MPD2    C2 7876   2.386   0.893   1.391 -0.2792  0.5179  0.1356
  527MPD2    C3 7877   2.511   0.905   1.336 -0.1929 -0.2921  0.0503
  527MPD2    C4 7878   2.599   1.004   1.379 -0.1681  1.2710 -0.6403
  527MPD2    C5 7879   2.540   1.100   1.458  0.9096 -1.0008  0.4787
  527MPD2     H 7880   2.322   0.808   1.369 -3.2596  2.2540  2.0802
  527MPD2    H1 7881   2.698   1.019   1.338 -0.0054  1.3433 -0.2238
  527MPD2    H2 7882   2.391   1.176   1.578 -1.0280 -0.4309 -0.3125
  527MPD2    H3 7883   2.596   1.191   1.472  0.8565 -0.9449  0.3278
  527MPD2     N 7884   2.545   0.807   1.237  0.2563  0.8051 -0.1811
  527MPD2    H5 7885   2.477   0.739   1.207  0.9532 -0.4217  0.9969
  527MPD2    N1 7886   2.197   0.980   1.519  0.3743  0.3131  0.4673
  527MPD2    H7 7887   2.144   0.903   1.479  1.6559  0.1588 -0.9160
  528TMC3    C1 7888   1.985   1.042   1.595 -0.3896 -0.3410 -0.8353
  528TMC3    C2 7889   1.927   0.951   1.508 -0.1737 -0.1981  0.0176
  528TMC3    C3 7890   1.794   0.927   1.513  0.1284  0.2866  0.6462
  528TMC3    C4 7891   1.909   1.129   1.667 -0.2945  0.0786 -0.3376
  528TMC3    C5 7892   1.774   1.109   1.663 -0.1482  0.5108  0.0093
  528TMC3    C6 7893   1.712   1.001   1.600  0.0922  0.3831  0.3545
  528TMC3     C 7894   2.127   1.067   1.601  0.6631 -0.0843  0.3605
  528TMC3     O 7895   2.156   1.173   1.655 -0.3505  0.2500 -0.6157
  528TMC3     H 7896   1.988   0.878   1.456 -0.1803  0.3218 -0.7274
  528TMC3    H1 7897   1.951   1.221   1.707  0.6511 -0.0439 -1.0467
  528TMC3    H2 7898   1.606   0.979   1.600  0.0772  0.4548  0.3980
  528TMC3    C7 7899   1.686   1.206   1.725 -0.3384 -0.9282 -0.1978
  528TMC3    C8 7900   1.748   0.814   1.441 -0.2166  0.1241  0.5669
  528TMC3    O1 7901   1.572   1.165   1.733 -0.4605  0.0880 -0.0641
  528TMC3    O2 7902   1.834   0.765   1.365  0.2414 -0.1013  0.0869
  529MPD2     C 7903   4.169   3.872   0.670 -0.3323  0.6148 -0.3874
  529MPD2    C1 7904   4.269   3.944   0.724 -0.0927  1.1579 -0.4940
  529MPD2    C2 7905   4.263   4.082   0.731  0.3946  0.6569 -0.1935
  529MPD2    C3 7906   4.151   4.148   0.686 -0.1106  0.5581 -0.1151
  529MPD2    C4 7907   4.049   4.073   0.633  0.7405 -0.1269 -0.8840
  529MPD2    C5 7908   4.058   3.936   0.622 -0.3556 -0.8211 -0.5376
  529MPD2     H 7909   4.349   4.135   0.770 -0.5777 -0.8676  4.0076
  529MPD2    H1 7910   3.958   4.120   0.598  0.7198  1.0031  0.6620
  529MPD2    H2 7911   4.175   3.766   0.651  0.1969  0.8604 -1.5427
  529MPD2    H3 7912   3.978   3.880   0.576 -0.7090 -1.7506  1.2189
  529MPD2     N 7913   4.136   4.289   0.704 -0.3168  0.0383 -0.1628
  529MPD2    H5 7914   4.052   4.332   0.667  0.5660  1.8741 -0.0612
  529MPD2    N1 7915   4.389   3.884   0.769 -0.1774 -0.2035 -0.1913
  529MPD2    H7 7916   4.460   3.944   0.811  0.3468 -0.1277 -1.1997
  530TMC3    C1 7917   4.533   3.707   0.838 -0.4805  0.3319  0.1324
  530TMC3    C2 7918   4.645   3.787   0.825 -0.0422 -0.9739  0.7427
  530TMC3    C3 7919   0.026   3.742   0.873  1.2355  0.9721 -0.1362
  530TMC3    C4 7920   4.543   3.575   0.889 -0.0189 -0.6064 -0.1274
  530TMC3    C5 7921   4.670   3.536   0.931  0.0244 -0.1146  0.0604
  530TMC3    C6 7922   0.041   3.616   0.920 -0.5509 -0.0757  0.2264
  530TMC3     C 7923   4.401   3.749   0.792  1.0044  0.4648  0.0824
  530TMC3     O 7924   4.324   3.653   0.788 -0.1729 -0.7756  0.0385
  530TMC3     H 7925   4.642   3.890   0.792  0.0552 -1.5669 -1.1356
  530TMC3    H1 7926   4.470   3.500   0.860  0.3445 -1.4531  1.1444
  530TMC3    H2 7927   0.138   3.580   0.951 -0.7898  0.5926  1.7380
  530TMC3    C7 7928   4.686   3.394   0.951 -0.6446 -0.1598 -0.3762
  530TMC3    C8 7929   0.141   3.838   0.870  0.0825 -0.5635  0.2617
  530TMC3    O1 7930   0.060   3.340   0.952 -0.0188  0.0807  0.7487
  530TMC3    O2 7931   0.125   3.943   0.806  0.2322 -0.1239 -0.3514
  531MPD2     C 7932   3.742   1.026  13.220  0.2485 -0.1808  0.4276
  531MPD2    C1 7933   3.666   1.102  13.307  0.2041 -0.5966 -0.5633
  531MPD2    C2 7934   3.553   1.170  13.270 -0.2970  0.5671 -0.4479
  531MPD2    C3 7935   3.524   1.167  13.134 -0.5276  0.3434  0.4605
  531MPD2    C4 7936   3.596   1.098  13.043  0.2903  0.8412 -0.1303
  531MPD2    C5 7937   3.708   1.027  13.083 -0.3328  0.9169 -0.0986
  531MPD2     H 7938   3.491   1.224  13.340  2.7143  2.1421  1.0100
  531MPD2    H1 7939   3.579   1.088  12.936 -2.3630  1.8275  0.2131
  531MPD2    H2 7940   3.824   0.964  13.255 -0.0742 -0.5942  0.4528
  531MPD2    H3 7941   3.759   0.961  13.015  0.2246  0.9311  0.3025
  531MPD2     N 7942   3.413   1.253  13.097  0.0638  0.1132 -0.2178
  531MPD2    H5 7943   3.367   1.302  13.172 -1.4656 -1.1881 -0.3029
  531MPD2    N1 7944   3.706   1.108  13.443  0.4720  1.0153 -0.3395
  531MPD2    H7 7945   3.790   1.054  13.461 -0.0642  0.6795  1.1974
  532TMC3    C1 7946   3.701   1.151  13.674  0.7456  0.3441  0.4386
  532TMC3    C2 7947   3.639   1.237  13.763  0.1571  0.2921  0.0194
  532TMC3    C3 7948   3.711   1.331  13.831 -0.7035 -0.4475  0.2350
  532TMC3    C4 7949   3.834   1.134  13.685 -0.4972  0.3585  0.1436
  532TMC3    C5 7950   3.899   1.218  13.776 -0.2575 -0.6214 -0.1099
  532TMC3    C6 7951   3.846   1.321  13.843  0.5234 -0.0702 -0.0291
  532TMC3     C 7952   3.636   1.167  13.545  0.2052 -0.0628 -0.1494
  532TMC3     O 7953   3.533   1.238  13.547  0.8584  0.4716  0.1298
  532TMC3     H 7954   3.530   1.239  13.771  0.2669  2.2487  1.0931
  532TMC3    H1 7955   3.884   1.061  13.623 -2.5178  0.3145 -1.4036
  532TMC3    H2 7956   3.908   1.396  13.890  0.1058 -1.6016  2.9706
  532TMC3    C7 7957   4.044   1.221  13.780 -0.0598  0.3376  0.0405
  532TMC3    C8 7958   3.661   1.468  13.817  0.7303  0.7367 -0.4026
  532TMC3    O1 7959   4.097   1.328  13.799 -0.0846  0.0477  1.0309
  532TMC3    O2 7960   3.709   1.567  13.872 -0.0099  0.1664  0.2785
  533TMC3    C1 7961   4.241   3.480  14.803 -0.0453  0.6540  0.2510
  533TMC3    C2 7962   4.355   3.554  14.824 -0.7579  0.0136  0.0826
  533TMC3    C3 7963   4.343   3.651  14.932 -0.5088  0.6476  0.5877
  533TMC3    C4 7964   4.125   3.498  14.875 -0.5520  0.4931  0.4695
  533TMC3    C5 7965   4.134   3.571  14.991 -0.1883 -0.4265  0.0988
  533TMC3    C6 7966   4.239   3.653  15.019 -0.0182  0.1944  0.1932
  533TMC3     C 7967   4.262   3.352  14.754 -0.3839 -0.5104 -0.1641
  533TMC3     O 7968   4.374   3.301  14.772 -0.0764 -0.0668 -0.3762
  533TMC3     H 7969   4.446   3.533  14.770 -1.1321 -0.3687 -0.4051
  533TMC3    H1 7970   4.041   3.431  14.863  0.0647 -0.1124 -0.4670
  533TMC3    H2 7971   4.233   3.718  15.105  0.4436  1.5949 -0.8301
  533TMC3    C7 7972   4.060   3.513  15.102 -0.0184  0.3188  0.0895
  533TMC3    C8 7973   4.468   3.709  14.962  0.1046 -0.6706  0.0151
  533TMC3    O1 7974   3.999   3.412  15.067  0.4087 -0.1098 -0.2576
  533TMC3    O2 7975   4.570   3.658  14.917 -0.3973  0.4441  0.2557
  534MPD2     C 7976   2.015   3.405   1.051 -0.3004  0.1480  0.1657
  534MPD2    C1 7977   1.968   3.528   1.092 -0.0456 -0.3503  0.5492
  534MPD2    C2 7978   1.847   3.571   1.042 -0.1398  1.0824  0.4811
  534MPD2    C3 7979   1.763   3.481   0.977  0.4378 -0.3849 -0.2949
  534MPD2    C4 7980   1.804   3.356   0.948 -0.2226  0.5879  0.5753
  534MPD2    C5 7981   1.929   3.326   0.977 -0.0317 -0.0601 -0.5331
  534MPD2     H 7982   1.820   3.673   1.067 -0.2107  1.4071 -0.9557
  534MPD2    H1 7983   1.757   3.279   0.887  0.2711  1.3307 -0.7345
  534MPD2    H2 7984   2.114   3.366   1.071 -0.3634 -0.6621 -1.0791
  534MPD2    H3 7985   1.959   3.223   0.958 -0.4414 -0.6099  1.8134
  534MPD2     N 7986   1.639   3.515   0.917  0.4195  0.0069  0.1458
  534MPD2    H5 7987   1.590   3.443   0.864  1.5735 -0.5906 -0.1165
  534MPD2    N1 7988   2.035   3.615   1.188 -0.1086  0.4568  0.4639
  534MPD2    H7 7989   1.989   3.706   1.190  1.4381  1.2416  0.6212
  535TMC3    C1 7990   1.481   3.660   0.832  0.4316  0.0314  0.8662
  535TMC3    C2 7991   1.430   3.786   0.856  0.1879  0.2874  0.2834
  535TMC3    C3 7992   1.423   3.870   0.754 -0.3189  0.3422  1.1415
  535TMC3    C4 7993   1.551   3.641   0.717  0.0623  0.8896  0.8322
  535TMC3    C5 7994   1.542   3.732   0.619  0.3572 -0.0964  0.6531
  535TMC3    C6 7995   1.468   3.847   0.632  0.4331 -0.4299 -0.0706
  535TMC3     C 7996   1.566   3.626   0.946 -0.3950 -0.1834 -0.0144
  535TMC3     O 7997   1.590   3.716   1.029 -0.2175 -0.3366 -0.3631
  535TMC3     H 7998   1.383   3.811   0.950 -1.3779 -0.1776 -0.3581
  535TMC3    H1 7999   1.586   3.544   0.684  0.6444  0.7172  1.9514
  535TMC3    H2 8000   1.432   3.911   0.552 -0.5376 -1.4481 -0.4609
  535TMC3    C7 8001   1.634   3.710   0.510  0.7389  0.0252  0.5298
  535TMC3    C8 8002   1.309   3.958   0.750 -0.3075 -0.2203 -0.6132
  535TMC3    O1 8003   1.671   3.591   0.496 -0.3593  0.2464 -0.4299
  535TMC3    O2 8004   1.208   3.926   0.812  0.0370 -0.0893 -0.3659
  536MPD2     C 8005   0.850   2.692  16.211 -0.2670  0.0217 -0.5196
  536MPD2    C1 8006   0.730   2.624  16.226 -0.0613 -0.2839  0.8313
  536MPD2    C2 8007   0.640   2.631  16.119  0.0846  0.8018 -0.4011
  536MPD2    C3 8008   0.672   2.709  16.002 -0.1577 -0.6002 -0.6488
  536MPD2    C4 8009   0.782   2.771  15.999  0.3938  0.2445  0.4253
  536MPD2    C5 8010   0.874   2.762  16.100 -0.1202  0.7871 -0.1460
  536MPD2     H 8011   0.547   2.576  16.125  0.0029  0.9603 -0.1882
  536MPD2    H1 8012   0.809   2.823  15.909 -2.7451  0.1607 -0.5512
  536MPD2    H2 8013   0.925   2.693  16.290  1.1256  2.1411 -1.8848
  536MPD2    H3 8014   0.964   2.818  16.077 -0.7776  1.8441 -0.1124
  536MPD2     N 8015   0.577   2.723  15.900  0.4064  0.2034 -0.2153
  536MPD2    H5 8016   0.611   2.776  15.820  0.9037  0.3979  0.1246
  536MPD2    N1 8017   0.711   2.568  16.354  0.4735 -0.8206  0.4439
  536MPD2    H7 8018   0.786   2.586  16.420  1.2755 -1.6716 -0.2404
  537TMC3    C1 8019   0.622   2.415  16.517  0.0182 -0.0082  0.0836
  537TMC3    C2 8020   0.675   2.498  16.614  0.5509 -0.5951 -0.2867
  537TMC3    C3 8021   0.680   2.443  16.740 -0.3597  0.1072 -0.7248
  537TMC3    C4 8022   0.584   2.285  16.529  0.0200  0.2690  0.1069
  537TMC3    C5 8023   0.608   2.232  16.654  0.9832  0.1331 -0.2533
  537TMC3    C6 8024   0.656   2.308  16.759 -0.0677 -0.0568  0.9888
  537TMC3     C 8025   0.612   2.474  16.383 -0.2580  0.1594 -0.7571
  537TMC3     O 8026   0.518   2.434  16.315  0.1286  0.0341 -0.0570
  537TMC3     H 8027   0.712   2.599  16.602  2.5555 -1.1626  1.1499
  537TMC3    H1 8028   0.534   2.224  16.455  0.1253 -0.4164  0.5968
  537TMC3    H2 8029   0.664   2.268  16.859  2.8629  0.2538  0.8795
  537TMC3    C7 8030   0.555   2.097  16.672  0.1110  0.7813  0.0263
  537TMC3    C8 8031   0.722   2.516  16.857 -0.1865 -0.5538  0.1759
  537TMC3    O1 8032   0.479   2.062  16.586 -0.1652  0.5555 -0.0202
  537TMC3    O2 8033   0.759   2.457  16.956 -0.1116 -0.2290 -0.3098
  538TMC3    C1 8034   1.860   0.650  11.535  1.1039 -0.3168  0.5110
  538TMC3    C2 8035   1.990   0.635  11.495  0.2115 -0.5888 -0.3245
  538TMC3    C3 8036   2.023   0.646  11.358  0.4980  0.4813 -0.5603
  538TMC3    C4 8037   1.768   0.698  11.451 -1.0991 -0.0373 -0.0616
  538TMC3    C5 8038   1.800   0.703  11.315 -0.2619 -0.9637 -0.0811
  538TMC3    C6 8039   1.929   0.683  11.269  0.4661 -0.5237 -1.1650
  538TMC3     C 8040   1.848   0.709  11.667  0.3260  0.2024  0.1545
  538TMC3     O 8041   1.743   0.698  11.733 -0.0666 -0.3056  0.2213
  538TMC3     H 8042   2.070   0.615  11.565 -0.4476  1.5085  1.0239
  538TMC3    H1 8043   1.674   0.724  11.498  0.0695  2.8196  0.7125
  538TMC3    H2 8044   1.955   0.668  11.164 -2.4169 -1.0312 -1.8163
  538TMC3    C7 8045   1.704   0.778  11.239 -0.1645  1.2523  0.0762
  538TMC3    C8 8046   2.148   0.584  11.317  0.9032  0.3645 -0.4714
  538TMC3    O1 8047   1.589   0.782  11.284 -0.0855 -0.3732 -0.1993
  538TMC3    O2 8048   2.198   0.504  11.397  0.2023 -0.5760  0.1539
  539MPD2     C 8049   1.374   4.587  11.469  0.0101  0.5771 -0.3360
  539MPD2    C1 8050   1.477   4.648  11.526  0.2115  0.2439  0.5657
  539MPD2    C2 8051   1.482   0.052  11.541 -0.4718  0.5895 -0.0650
  539MPD2    C3 8052   1.379   0.128  11.485 -0.0587  0.5343  0.5014
  539MPD2    C4 8053   1.278   0.059  11.420 -0.0306  0.3639 -0.1625
  539MPD2    C5 8054   1.274   4.663  11.417  0.5702 -0.5413 -0.1347
  539MPD2     H 8055   1.573   0.094  11.582 -0.2521 -0.6639  0.7117
  539MPD2    H1 8056   1.191   0.104  11.374 -0.9671 -1.3423 -0.0566
  539MPD2    H2 8057   1.364   4.479  11.469  1.1050  0.4767  0.2128
  539MPD2    H3 8058   1.194   4.607  11.369  0.1201 -1.2038  1.3950
  539MPD2     N 8059   1.392   0.272  11.468  0.1471  0.7681 -0.4518
  539MPD2    H5 8060   1.316   0.317  11.418 -0.7751 -0.1084  0.1625
  539MPD2    N1 8061   1.578   4.557  11.563  0.8622 -0.2550 -0.2689
  539MPD2    H7 8062   1.571   4.462  11.528 -0.6816 -1.2741  2.8571
  540TMC3    C1 8063   1.476   0.486  11.481 -0.4309  0.6162  0.1635
  540TMC3    C2 8064   1.411   0.508  11.364 -0.2995  0.5033  0.5765
  540TMC3    C3 8065   1.331   0.615  11.348  0.0845  0.2863 -0.1490
  540TMC3    C4 8066   1.460   0.569  11.587  0.0606  0.0396 -0.4971
  540TMC3    C5 8067   1.362   0.656  11.581 -0.2716 -0.2787 -0.5330
  540TMC3    C6 8068   1.295   0.691  11.459 -0.5321 -0.6052 -0.1611
  540TMC3     C 8069   1.493   0.350  11.521 -0.5700  0.0343  0.2307
  540TMC3     O 8070   1.579   0.320  11.602  0.1699  0.4985 -0.1623
  540TMC3     H 8071   1.422   0.429  11.290 -0.1081  0.1736  0.9555
  540TMC3    H1 8072   1.490   0.534  11.685 -0.2409 -1.0281 -0.7906
  540TMC3    H2 8073   1.210   0.757  11.448 -0.8177 -1.0827 -0.7637
  540TMC3    C7 8074   1.322   0.715  11.706  0.0296  0.2678  0.7627
  540TMC3    C8 8075   1.244   0.622  11.234 -0.0435 -0.0688 -0.3635
  540TMC3    O1 8076   1.206   0.747  11.724 -0.5793  0.3350 -0.4799
  540TMC3    O2 8077   1.132   0.673  11.242  0.6180  0.0217  0.4938
  541MPD2     C 8078   0.344   1.828  13.650 -0.7275  0.0237 -0.4961
  541MPD2    C1 8079   0.255   1.772  13.559 -0.3552  0.6697 -0.2770
  541MPD2    C2 8080   0.218   1.851  13.453 -0.8263  0.3027  0.3062
  541MPD2    C3 8081   0.265   1.980  13.433 -0.1073 -0.0195  0.5604
  541MPD2    C4 8082   0.344   2.035  13.534  0.3841 -0.0919 -0.2521
  541MPD2    C5 8083   0.388   1.956  13.634 -0.0991  0.1676 -0.3414
  541MPD2     H 8084   0.149   1.815  13.377 -1.2998  0.6089  0.5919
  541MPD2    H1 8085   0.379   2.136  13.523 -2.0505  0.5633 -2.1112
  541MPD2    H2 8086   0.373   1.785  13.745 -0.9550 -1.9233 -1.2952
  541MPD2    H3 8087   0.447   2.000  13.714 -1.2098 -0.4913  0.8421
  541MPD2     N 8088   0.223   2.049  13.317  0.5652  0.4825 -0.4148
  541MPD2    H5 8089   0.238   2.150  13.313 -1.4676  0.7558 -0.8594
  541MPD2    N1 8090   0.203   1.645  13.586  0.3663 -0.3351  0.5718
  541MPD2    H7 8091   0.138   1.605  13.518 -0.4429 -3.3011  3.0819
  542TMC3    C1 8092   0.173   2.065  13.082  0.0636  0.0787 -0.1197
  542TMC3    C2 8093   0.191   2.005  12.958  0.1375 -0.3178 -0.8252
  542TMC3    C3 8094   0.107   2.039  12.855  0.0332  0.6162 -0.0669
  542TMC3    C4 8095   0.071   2.156  13.103 -0.1157  0.0486 -0.0781
  542TMC3    C5 8096   4.723   2.176  12.994  0.6626  0.3067 -0.2965
  542TMC3    C6 8097   4.733   2.117  12.874 -0.1209  0.4834  0.1266
  542TMC3     C 8098   0.206   1.988  13.195 -0.6276 -0.4382 -0.7721
  542TMC3     O 8099   0.224   1.869  13.168 -0.0088 -0.3331 -0.0294
  542TMC3     H 8100   0.280   1.945  12.942 -0.1764 -0.8515 -0.5419
  542TMC3    H1 8101   0.052   2.203  13.198 -0.1538  0.7566 -0.4380
  542TMC3    H2 8102   4.674   2.148  12.789  0.3404  0.2744 -0.2673
  542TMC3    C7 8103   4.604   2.257  13.023  0.0277  0.1973 -0.6464
  542TMC3    C8 8104   0.120   1.983  12.717 -0.2508  0.3036 -0.3741
  542TMC3    O1 8105   4.621   2.338  13.112 -0.0060  0.0395  1.0664
  542TMC3    O2 8106   0.087   2.055  12.621  0.5886 -0.0702  0.1733
  543TMC3    C1 8107   4.163   3.395  17.318 -0.1662  1.0052 -1.0491
  543TMC3    C2 8108   4.179   3.285  17.394  0.1580  0.3916 -0.4198
  543TMC3    C3 8109   4.097   3.249  17.497 -0.5698  0.8249  0.3122
  543TMC3    C4 8110   4.066   3.483  17.354  0.0369 -0.9021 -0.1037
  543TMC3    C5 8111   3.986   3.448  17.461 -0.1475 -0.1136 -0.4233
  543TMC3    C6 8112   3.997   3.334  17.535  0.0559 -0.8087 -0.0446
  543TMC3     C 8113   4.249   3.415  17.203  0.1628 -0.1996 -0.6989
  543TMC3     O 8114   4.350   3.350  17.185  0.3376  0.5388  0.4149
  543TMC3     H 8115   4.267   3.227  17.371 -1.2446 -2.1991  0.7357
  543TMC3    H1 8116   4.042   3.567  17.290  0.9557 -0.9301 -0.4773
  543TMC3    H2 8117   3.930   3.325  17.619 -1.0389 -0.6107 -0.9018
  543TMC3    C7 8118   3.857   3.513  17.465 -0.0327 -0.2586 -0.1800
  543TMC3    C8 8119   4.130   3.129  17.565  0.4466  0.6640 -0.0286
  543TMC3    O1 8120   3.765   3.434  17.485  0.0748 -0.0941 -0.5507
  543TMC3    O2 8121   4.220   3.066  17.522  1.4787 -0.0999 -0.2510
  544MPD2     C 8122   4.060   2.781   0.191  0.1632 -0.0387 -0.0979
  544MPD2    C1 8123   4.147   2.781   0.082  0.5705 -0.0102 -0.2251
  544MPD2    C2 8124   4.145   2.883  17.737 -0.1262 -0.0037  0.3607
  544MPD2    C3 8125   4.067   2.992   0.016 -0.1835  1.0052 -0.0637
  544MPD2    C4 8126   3.993   3.005   0.136  0.7670  0.6396 -0.5474
  544MPD2    C5 8127   3.991   2.897   0.222  0.1774  0.5883 -0.8308
  544MPD2     H 8128   4.203   2.881  17.645  0.0400  2.8869  0.4213
  544MPD2    H1 8129   3.937   3.092   0.169 -0.9357 -0.3557 -0.8014
  544MPD2    H2 8130   4.065   2.701   0.263  1.1281  1.3020  1.3192
  544MPD2    H3 8131   3.925   2.900   0.308  2.0592  1.6567  0.5805
  544MPD2     N 8132   4.046   3.102  17.676  0.4590 -0.8194 -0.1341
  544MPD2    H5 8133   3.974   3.169  17.698  1.8854  0.7992 -0.3866
  544MPD2    N1 8134   4.222   2.657   0.063  0.6139 -0.7190  0.2250
  544MPD2    H7 8135   4.212   2.584   0.133 -0.8069 -1.4353 -0.7268
  545TMC3    C1 8136   4.368   2.509  17.706  0.3748 -0.7327  0.2040
  545TMC3    C2 8137   4.423   2.476  17.587  0.5512  0.8813 -0.4125
  545TMC3    C3 8138   4.473   2.347  17.578 -0.6799  0.4050  0.3958
  545TMC3    C4 8139   4.376   2.423   0.069 -0.4316 -0.1052 -0.6253
  545TMC3    C5 8140   4.426   2.301   0.052  0.6348 -0.2379 -0.0658
  545TMC3    C6 8141   4.470   2.257  17.678  0.5375  0.6521  0.2126
  545TMC3     C 8142   4.319   2.643  17.714  0.5277 -0.4975 -0.3776
  545TMC3     O 8143   4.357   2.729  17.632 -0.1346 -0.3229  0.3412
  545TMC3     H 8144   4.424   2.542  17.501 -3.8814  1.8856  0.3211
  545TMC3    H1 8145   4.370   2.456   0.173 -1.3119 -1.9746 -0.0867
  545TMC3    H2 8146   4.501   2.154  17.664 -1.3554  0.1157 -0.1149
  545TMC3    C7 8147   4.352   2.207   0.135 -0.7298 -0.4521  0.3267
  545TMC3    C8 8148   4.500   2.305  17.438  0.3519 -0.3953  0.6810
  545TMC3    O1 8149   4.249   2.241   0.189 -0.1644 -0.6790 -0.0429
  545TMC3    O2 8150   4.443   2.362  17.344  0.1028 -0.5610 -0.3040
  546MPD2     C 8151   0.894   2.828  17.700  0.0804  0.2465  0.7936
  546MPD2    C1 8152   0.832   2.880  17.590 -0.2806 -0.0124  0.2798
  546MPD2    C2 8153   0.887   3.000  17.534 -0.0497 -0.0214  0.0024
  546MPD2    C3 8154   1.003   3.056  17.583 -0.2370  0.4592 -0.3045
  546MPD2    C4 8155   1.056   3.006  17.704  0.6307  0.2509  0.5758
  546MPD2    C5 8156   0.997   2.897   0.015 -0.6862  0.5518  0.6484
  546MPD2     H 8157   0.846   3.029  17.438 -0.0948  0.6079  0.2082
  546MPD2    H1 8158   1.156   3.034  17.735  0.3916  0.0833  1.4898
  546MPD2    H2 8159   0.851   2.737  17.741 -2.0366  1.3491  1.0008
  546MPD2    H3 8160   1.059   2.849   0.089 -0.0543 -0.5302 -0.5741
  546MPD2     N 8161   1.058   3.174  17.533  0.5060  0.7740 -0.1564
  546MPD2    H5 8162   1.125   3.223  17.591  1.3062  0.4576 -0.8100
  546MPD2    N1 8163   0.723   2.809  17.529 -0.2237 -0.3752 -0.4306
  546MPD2    H7 8164   0.723   2.708  17.541 -0.0043 -0.1793  1.1231
  547TMC3    C1 8165   0.538   2.780  17.381 -0.3015  0.0436  0.6098
  547TMC3    C2 8166   0.483   2.801  17.257  0.2385  0.4639 -0.0639
  547TMC3    C3 8167   0.412   2.695  17.188  0.9455  0.1001 -0.3080
  547TMC3    C4 8168   0.512   2.661  17.453  0.4254 -0.0034 -0.0183
  547TMC3    C5 8169   0.456   2.562  17.376  0.0637  0.4590 -0.6549
  547TMC3    C6 8170   0.398   2.577  17.252  0.0630 -0.2887 -0.0131
  547TMC3     C 8171   0.641   2.869  17.440  0.2165 -0.0572  0.6290
  547TMC3     O 8172   0.621   2.987  17.417 -0.2619  0.0817  0.2569
  547TMC3     H 8173   0.510   2.890  17.202 -1.7230  0.9611 -0.1970
  547TMC3    H1 8174   0.549   2.637  17.552 -0.9136 -1.0316  0.2273
  547TMC3    H2 8175   0.336   2.498  17.211  0.4742  0.1000 -1.3761
  547TMC3    C7 8176   0.401   2.450  17.463 -0.8288 -0.1420  0.8308
  547TMC3    C8 8177   0.361   2.730  17.057  0.1237 -0.3793  0.2059
  547TMC3    O1 8178   0.400   2.462  17.586  0.0072  0.0108 -0.3923
  547TMC3    O2 8179   0.392   2.841  17.015 -0.2249 -0.2457  0.1173
  548MPD2     C 8180   0.975   3.650  13.077  0.0179  0.0827 -0.2668
  548MPD2    C1 8181   0.890   3.569  13.011 -1.0536  0.1049  0.0818
  548MPD2    C2 8182   0.946   3.487  12.916 -0.7452 -0.4365  0.6118
  548MPD2    C3 8183   1.082   3.485  12.892 -0.4211 -0.1728 -0.0520
  548MPD2    C4 8184   1.168   3.574  12.955  0.5908 -0.2136  0.3260
  548MPD2    C5 8185   1.110   3.651  13.049 -0.6013 -0.1042 -0.5052
  548MPD2     H 8186   0.884   3.423  12.853 -0.2975 -0.7384  0.4776
  548MPD2    H1 8187   1.277   3.571  12.950  0.6566  1.4659  0.9479
  548MPD2    H2 8188   0.936   3.708  13.160  0.1855 -0.6690  0.3387
  548MPD2    H3 8189   1.179   3.714  13.104 -0.0139 -2.3058  1.3126
  548MPD2     N 8190   1.129   3.404  12.783  0.2991  0.6948 -0.8180
  548MPD2    H5 8191   1.054   3.350  12.742  0.4367  0.7456 -1.1429
  548MPD2    N1 8192   0.749   3.584  13.029  0.3625  0.4877  0.1941
  548MPD2    H7 8193   0.715   3.668  13.074 -1.1096  0.5939 -1.0955
  549TMC3    C1 8194   0.523   3.531  13.025  0.8651  0.1674 -1.0187
  549TMC3    C2 8195   0.497   3.661  12.985 -0.7820 -0.0919  0.2748
  549TMC3    C3 8196   0.363   3.692  12.964  0.3505 -0.2757 -0.1000
  549TMC3    C4 8197   0.424   3.437  13.034  0.0694  0.1366 -0.2180
  549TMC3    C5 8198   0.295   3.469  13.005  0.5296  0.0132  0.4714
  549TMC3    C6 8199   0.259   3.599  12.987 -0.5767  0.7226  0.2783
  549TMC3     C 8200   0.658   3.487  12.998  0.2294 -0.2007 -0.0819
  549TMC3     O 8201   0.677   3.370  12.973 -0.5730 -0.7666  0.1098
  549TMC3     H 8202   0.563   3.747  12.982  0.3451 -1.0105 -1.5641
  549TMC3    H1 8203   0.453   3.337  13.066  4.3851  2.2180  2.2638
  549TMC3    H2 8204   0.155   3.620  12.968 -0.2816  1.6653 -0.2825
  549TMC3    C7 8205   0.177   3.390  13.033  0.1254  0.3433 -0.2670
  549TMC3    C8 8206   0.310   3.814  12.912 -0.3994  0.4431 -0.4730
  549TMC3    O1 8207   0.065   3.437  13.021 -0.4567  1.1770  0.7184
  549TMC3    O2 8208   0.190   3.836  12.918  0.6506  0.1849  0.0594
  550TMC3    C1 8209   4.574   1.588  12.575 -0.0756 -0.4266 -0.8061
  550TMC3    C2 8210   4.590   1.670  12.690  0.0119 -0.5412 -0.2427
  550TMC3    C3 8211   4.551   1.802  12.682  0.6559 -0.5247 -0.1862
  550TMC3    C4 8212   4.545   1.635  12.453  0.3553  0.1751  0.3646
  550TMC3    C5 8213   4.518   1.772  12.450  0.4661  0.1739 -0.0796
  550TMC3    C6 8214   4.515   1.855  12.559 -0.7097 -0.5835 -1.1248
  550TMC3     C 8215   4.575   1.443  12.599 -1.2570  0.0260 -0.2538
  550TMC3     O 8216   4.629   1.400  12.698  0.3266 -0.1106 -0.1505
  550TMC3     H 8217   4.604   1.617  12.784 -0.8324 -0.4989 -0.0885
  550TMC3    H1 8218   4.567   1.583  12.360  1.2887  0.7082  0.2874
  550TMC3    H2 8219   4.486   1.959  12.549  1.5918  0.2710  1.1770
  550TMC3    C7 8220   4.437   1.809  12.339 -0.1239  1.0328 -0.3067
  550TMC3    C8 8221   4.523   1.874  12.807  0.2350  0.3455 -0.3145
  550TMC3    O1 8222   4.382   1.716  12.280 -0.0472 -0.8049 -0.0202
  550TMC3    O2 8223   4.472   1.988  12.793  0.4366 -0.7607  0.2711
  551TMC3    C1 8224   1.869   4.235  13.613  0.1793  0.0581  0.2316
  551TMC3    C2 8225   1.983   4.298  13.572 -0.1896 -0.6024 -0.5817
  551TMC3    C3 8226   2.069   4.346  13.665  0.0023  0.5485 -0.0363
  551TMC3    C4 8227   1.844   4.213  13.748 -0.0023 -0.8163  0.3120
  551TMC3    C5 8228   1.942   4.257  13.839 -0.1110 -0.2585  0.1117
  551TMC3    C6 8229   2.058   4.316  13.796  0.4177  0.0025  0.6137
  551TMC3     C 8230   1.795   4.145  13.518  0.0697  0.2788  0.3888
  551TMC3     O 8231   1.848   4.135  13.409 -0.4539 -0.1338 -0.2544
  551TMC3     H 8232   1.994   4.313  13.465 -0.8274 -1.8326 -0.8186
  551TMC3    H1 8233   1.763   4.151  13.783 -1.9508  1.3870 -0.2785
  551TMC3    H2 8234   2.125   4.361  13.868 -1.6744 -0.9804  3.2061
  551TMC3    C7 8235   1.918   4.246  13.975  0.3248 -0.3018 -0.0440
  551TMC3    C8 8236   2.208   4.391  13.635  0.0732 -0.4185  1.1004
  551TMC3    O1 8237   2.002   4.294  14.048  0.6036 -0.0314 -0.0192
  551TMC3    O2 8238   2.290   4.399  13.729  0.1127 -0.0306 -1.0543
  552MPD2     C 8239   3.985   1.316  14.445  0.2108  0.1932 -0.3276
  552MPD2    C1 8240   3.963   1.184  14.481 -0.1458  0.3287 -0.0917
  552MPD2    C2 8241   4.024   1.142  14.601 -0.1714  0.9794  0.9066
  552MPD2    C3 8242   4.100   1.229  14.680  0.1510  0.1941 -0.1599
  552MPD2    C4 8243   4.114   1.353  14.636  0.2814  0.1672  0.3375
  552MPD2    C5 8244   4.067   1.399  14.518  0.2006  0.5191 -0.2973
  552MPD2     H 8245   4.024   1.037  14.628  1.8647  0.7517  0.0555
  552MPD2    H1 8246   4.174   1.424  14.691 -0.5199  1.3913 -0.3741
  552MPD2    H2 8247   3.942   1.361  14.356 -0.6532 -1.5924 -0.8163
  552MPD2    H3 8248   4.095   1.497  14.482  0.8160  0.5162  0.1810
  552MPD2     N 8249   4.171   1.189  14.797  0.2361  0.0634 -0.0157
  552MPD2    H5 8250   4.223   1.265  14.839 -2.4466  2.1074 -0.4143
  552MPD2    N1 8251   3.892   1.082  14.396  0.0456  0.1995  0.7896
  552MPD2    H7 8252   3.885   0.989  14.437  3.0590 -1.1610 -1.7663
  553TMC3    C1 8253   3.803   0.984  14.205 -0.0122 -0.3748 -0.6917
  553TMC3    C2 8254   3.799   0.989  14.071  0.0868  0.6226  0.4655
  553TMC3    C3 8255   3.755   0.887  13.999  0.9014 -0.6143 -0.4627
  553TMC3    C4 8256   3.741   0.883  14.269 -0.1888  0.1730  0.1420
  553TMC3    C5 8257   3.685   0.780  14.194 -0.1782  0.6582  0.5482
  553TMC3    C6 8258   3.688   0.782  14.051 -0.1189  0.0554 -0.1428
  553TMC3     C 8259   3.855   1.099  14.266  0.3113  0.6296 -0.2740
  553TMC3     O 8260   3.855   1.204  14.201  0.0548  0.3257 -0.1674
  553TMC3     H 8261   3.876   1.048  14.024  0.1403  0.6476  0.5840
  553TMC3    H1 8262   3.738   0.874  14.377 -3.7207 -0.3146 -0.0135
  553TMC3    H2 8263   3.670   0.688  14.000  0.0734  0.4928 -1.0306
  553TMC3    C7 8264   3.710   0.644  14.249  0.0182 -0.3122 -0.6877
  553TMC3    C8 8265   3.828   0.847  13.879  0.1412  0.6872 -0.2277
  553TMC3    O1 8266   3.636   0.557  14.201  0.5543 -0.1683 -0.1405
  553TMC3    O2 8267   3.941   0.887  13.864  0.3568 -0.6022 -0.0548
  554TMC3    C1 8268   0.775   0.167  11.817  0.2716  0.4553 -0.0899
  554TMC3    C2 8269   0.658   0.145  11.748  0.8877 -0.1408  0.5778
  554TMC3    C3 8270   0.601   0.258  11.690  0.0541 -0.1994 -0.3907
  554TMC3    C4 8271   0.840   0.291  11.814 -0.2889 -0.0709  0.4017
  554TMC3    C5 8272   0.775   0.394  11.758 -0.3639 -0.4959 -0.1944
  554TMC3    C6 8273   0.656   0.385  11.698 -0.1050  0.3330 -0.7119
  554TMC3     C 8274   0.823   0.061  11.917 -0.3714  0.2052  0.4524
  554TMC3     O 8275   0.745   4.701  11.932  0.1223 -0.4466  0.4580
  554TMC3     H 8276   0.614   0.048  11.729  0.7408 -0.0477  0.4438
  554TMC3    H1 8277   0.934   0.305  11.867  0.2209  0.0541 -0.5403
  554TMC3    H2 8278   0.628   0.474  11.644  0.2314  0.9489  0.1410
  554TMC3    C7 8279   0.854   0.503  11.721  0.2239 -0.0140  0.0360
  554TMC3    C8 8280   0.501   0.241  11.583  0.0886  0.1754  0.0686
  554TMC3    O1 8281   0.969   0.479  11.687 -1.1321 -0.4669 -0.7276
  554TMC3    O2 8282   0.488   0.341  11.515 -0.1188  0.6781 -0.0369
  555TMC3    C1 8283   4.518   0.080  15.815 -0.0576  0.3794  0.2081
  555TMC3    C2 8284   4.495   0.109  15.942  0.0200 -0.3090  0.4828
  555TMC3    C3 8285   4.559   0.047  16.040 -0.8408 -0.1503 -0.8569
  555TMC3    C4 8286   4.603   4.711  15.781 -0.0463  0.0337  0.6140
  555TMC3    C5 8287   4.654   4.637  15.880  0.0001 -0.0227  0.2748
  555TMC3    C6 8288   4.632   4.669  16.011  0.8943  0.2178  0.1328
  555TMC3     C 8289   4.498   0.188  15.723  0.3395  0.2791  0.2358
  555TMC3     O 8290   4.509   0.299  15.770 -0.3658  0.0454  0.6035
  555TMC3     H 8291   4.425   0.189  15.966 -0.8941 -0.9150 -0.1479
  555TMC3    H1 8292   4.598   4.669  15.681  1.1711  0.1144  0.5194
  555TMC3    H2 8293   4.670   4.607  16.091  0.5268 -1.9973 -1.4280
  555TMC3    C7 8294   4.716   4.507  15.857 -0.4733  0.4818  0.7262
  555TMC3    C8 8295   4.559   0.107  16.171  0.2067 -0.1149 -0.7010
  555TMC3    O1 8296   4.723   4.435  15.958 -0.2214  0.2455 -0.1403
  555TMC3    O2 8297   4.510   0.220  16.175 -0.1252 -0.2775 -0.2007
  556MPD2     C 8298   2.681   1.835  11.064  0.3692 -0.3440 -0.4800
  556MPD2    C1 8299   2.664   1.743  11.164  0.8384  0.2003  0.2502
  556MPD2    C2 8300   2.639   1.608  11.135  0.0944 -0.3992 -0.6896
  556MPD2    C3 8301   2.637   1.562  11.004 -0.0055 -0.1851 -0.3827
  556MPD2    C4 8302   2.669   1.655  10.911 -0.0533 -0.0050 -0.1978
  556MPD2    C5 8303   2.690   1.790  10.936  0.7610  0.2977  0.3240
  556MPD2     H 8304   2.628   1.537  11.215 -0.8265  1.6895  1.0432
  556MPD2    H1 8305   2.690   1.642  10.805 -0.6689  0.6945 -0.4050
  556MPD2    H2 8306   2.691   1.941  11.089 -1.4545 -0.1766 -0.4755
  556MPD2    H3 8307   2.698   1.861  10.855 -0.0060 -0.3744 -0.3423
  556MPD2     N 8308   2.629   1.423  10.966  0.3969  0.2827 -0.1406
  556MPD2    H5 8309   2.611   1.350  11.035  0.1684  2.1566  1.8086
  556MPD2    N1 8310   2.672   1.782  11.298 -0.4411 -0.1877 -0.5200
  556MPD2    H7 8311   2.658   1.708  11.366  1.2555  1.0876  1.1954
  557TMC3    C1 8312   2.593   1.248  10.810 -0.3617  0.0420  0.6912
  557TMC3    C2 8313   2.585   1.213  10.683 -0.9320  0.2581  0.5391
  557TMC3    C3 8314   2.613   1.082  10.646  0.2804  0.5999  0.8369
  557TMC3    C4 8315   2.610   1.157  10.913  0.5551 -0.1931  0.3353
  557TMC3    C5 8316   2.620   1.029  10.881 -0.3722  0.1949  0.5730
  557TMC3    C6 8317   2.624   0.992  10.749 -0.3672  0.5567 -0.3729
  557TMC3     C 8318   2.623   1.388  10.836 -0.8539  0.3485 -0.5852
  557TMC3     O 8319   2.627   1.454  10.735 -0.7139  0.6512 -0.1769
  557TMC3     H 8320   2.583   1.284  10.601 -0.1780 -0.8034 -0.3928
  557TMC3    H1 8321   2.613   1.184  11.018 -0.3048 -1.2787  0.6394
  557TMC3    H2 8322   2.631   0.887  10.723 -2.2165  0.2143  0.5163
  557TMC3    C7 8323   2.553   0.939  10.975  0.1739  0.1403 -0.3511
  557TMC3    C8 8324   2.589   1.034  10.509 -0.1660 -0.1758 -0.5220
  557TMC3    O1 8325   2.491   1.000  11.061 -0.6858 -1.2658  0.3715
  557TMC3    O2 8326   2.524   1.112  10.436  0.3251 -0.2285 -0.4257
  558TMC3    C1 8327   0.419   4.158  10.197 -0.2123  0.2636 -0.4090
  558TMC3    C2 8328   0.305   4.132  10.260  0.2520 -0.2784 -0.5284
  558TMC3    C3 8329   0.199   4.112  10.173  0.3566 -0.4469 -0.4201
  558TMC3    C4 8330   0.432   4.171  10.061  0.3536  0.7121 -0.3373
  558TMC3    C5 8331   0.318   4.152   9.985  0.4932  0.3078  0.2133
  558TMC3    C6 8332   0.195   4.129  10.036 -0.0411  0.5692  0.3869
  558TMC3     C 8333   0.546   4.178  10.268  0.5967  1.0137  0.3307
  558TMC3     O 8334   0.644   4.199  10.198 -0.2194 -0.4304 -0.2228
  558TMC3     H 8335   0.293   4.132  10.368 -4.0467  0.8694 -0.9946
  558TMC3    H1 8336   0.527   4.199  10.019  1.0663  1.4906  1.8298
  558TMC3    H2 8337   0.107   4.099   9.980  0.1520  1.4405 -0.3765
  558TMC3    C7 8338   0.323   4.194   9.853 -0.5035 -0.4397  0.0579
  558TMC3    C8 8339   0.080   4.048  10.235 -0.8681  0.7234  0.2220
  558TMC3    O1 8340   0.436   4.219   9.812 -0.1589  0.4243  0.5460
  558TMC3    O2 8341   4.722   4.029  10.163  0.4414 -0.0592 -0.1011
  559MPD2     C 8342   0.046   4.461  10.202  0.1964  0.6009  0.7253
  559MPD2    C1 8343   0.043   4.432  10.340  0.3218  0.1987 -0.2521
  559MPD2    C2 8344   0.154   4.463  10.419 -0.3736  0.0020  0.1761
  559MPD2    C3 8345   0.273   4.502  10.363 -0.0599 -0.8498  0.3152
  559MPD2    C4 8346   0.275   4.515  10.228  0.4046  0.4310 -0.6720
  559MPD2    C5 8347   0.167   4.492  10.146 -0.1506  0.5505 -0.2476
  559MPD2     H 8348   0.143   4.457  10.527  1.0170  2.0600  0.4214
  559MPD2    H1 8349   0.369   4.543  10.180  0.6237 -0.0410 -0.5211
  559MPD2    H2 8350   4.700   4.448  10.133  1.2687 -2.0522 -0.0279
  559MPD2    H3 8351   0.179   4.509  10.040  1.7550  1.7282  0.1722
  559MPD2     N 8352   0.386   4.503  10.450  0.8662  0.1617 -0.0261
  559MPD2    H5 8353   0.363   4.506  10.548  2.7368 -0.0301  0.4233
  559MPD2    N1 8354   4.652   4.403  10.401 -0.2682  0.4014  0.7915
  559MPD2    H7 8355   4.572   4.391  10.339  0.2558  0.7864  0.0476
  560TMC3    C1 8356   0.598   4.507  10.549 -0.4892 -0.0514  0.4740
  560TMC3    C2 8357   0.545   4.462  10.664  0.2416 -0.4928  0.3262
  560TMC3    C3 8358   0.632   4.464  10.777 -0.2183  0.0760  0.2673
  560TMC3    C4 8359   0.731   4.547  10.530  0.7071  0.7501  0.2438
  560TMC3    C5 8360   0.807   4.553  10.640 -1.2648 -0.4970  0.0733
  560TMC3    C6 8361   0.758   4.513  10.762  0.4830 -0.1125  0.0090
  560TMC3     C 8362   0.520   4.516  10.424  0.8566 -0.6781  0.1142
  560TMC3     O 8363   0.570   4.539  10.317 -0.4549 -0.2980  0.2996
  560TMC3     H 8364   0.446   4.422  10.680  0.5175 -0.4627  2.1502
  560TMC3    H1 8365   0.768   4.576  10.432  0.1572 -1.1822 -0.5259
  560TMC3    H2 8366   0.816   4.517  10.853  0.8811  0.3357 -0.2631
  560TMC3    C7 8367   0.948   4.585  10.614 -0.2471  0.1974 -0.3159
  560TMC3    C8 8368   0.570   4.404  10.880 -0.2809 -0.2375 -0.8431
  560TMC3    O1 8369   0.992   4.562  10.502 -0.7456  0.1436  0.4080
  560TMC3    O2 8370   0.446   4.401  10.886 -0.1942  0.4985 -0.0292
  561TMC3    C1 8371   2.859   3.758  11.407  0.4069 -0.4144  0.1109
  561TMC3    C2 8372   2.835   3.713  11.532 -0.1571  0.6395 -0.8625
  561TMC3    C3 8373   2.784   3.805  11.616  0.5405 -0.4383  0.0682
  561TMC3    C4 8374   2.833   3.886  11.364  0.0183  0.8246  0.3845
  561TMC3    C5 8375   2.795   3.978  11.456  0.7062 -0.0268  0.0169
  561TMC3    C6 8376   2.777   3.938  11.581  0.3593  0.0084  0.2660
  561TMC3     C 8377   2.922   3.664  11.318 -0.5195  0.7066  0.4087
  561TMC3     O 8378   2.889   3.680  11.200 -0.1340  0.7026 -0.3891
  561TMC3     H 8379   2.838   3.610  11.568 -0.6335  0.7072 -0.6326
  561TMC3    H1 8380   2.850   3.910  11.260  1.6788  1.4583  0.8154
  561TMC3    H2 8381   2.751   4.000  11.666 -0.3246  0.2850 -0.1435
  561TMC3    C7 8382   2.779   4.114  11.421  0.2371 -0.5359 -0.2212
  561TMC3    C8 8383   2.798   3.769  11.759 -0.1071 -0.7787  0.4174
  561TMC3    O1 8384   2.708   4.185  11.491 -0.4338  0.1277 -0.6668
  561TMC3    O2 8385   2.892   3.688  11.774  0.0692 -0.0644 -0.1010
  562TMC3    C1 8386   4.455   0.373  17.009  0.2562 -0.1929  0.1896
  562TMC3    C2 8387   4.376   0.487  16.983 -0.5069 -0.0629  0.1502
  562TMC3    C3 8388   4.330   0.496  16.852 -0.0155 -0.3688 -0.1274
  562TMC3    C4 8389   4.479   0.270  16.923 -0.3044  0.3066  0.0080
  562TMC3    C5 8390   4.403   0.270  16.811  0.5229 -0.2162  0.6528
  562TMC3    C6 8391   4.337   0.383  16.771 -0.1813  0.4407  0.0990
  562TMC3     C 8392   4.539   0.382  17.129 -0.6374  0.2408 -0.9064
  562TMC3     O 8393   4.635   0.306  17.128 -0.0936 -0.3184  0.2838
  562TMC3     H 8394   4.371   0.577  17.044  0.9690 -0.5188  0.9514
  562TMC3    H1 8395   4.527   0.180  16.958 -2.8458 -1.0113  0.1559
  562TMC3    H2 8396   4.280   0.391  16.679 -0.3364  1.3970  0.2830
  562TMC3    C7 8397   4.407   0.147  16.726  0.2531 -0.0066 -0.4455
  562TMC3    C8 8398   4.239   0.601  16.825  0.4891 -0.8530 -0.2830
  562TMC3    O1 8399   4.338   0.159  16.626 -0.6283  0.0559 -0.0279
  562TMC3    O2 8400   4.157   0.625  16.917 -0.4744  0.4014 -0.3031
  563MPD2     C 8401   1.685   1.544  15.759  0.1878 -0.0690  0.4135
  563MPD2    C1 8402   1.774   1.551  15.868  0.3978  0.1084  0.4879
  563MPD2    C2 8403   1.895   1.477  15.858  0.5035 -0.1240 -0.3995
  563MPD2    C3 8404   1.924   1.397  15.747 -0.9160 -0.1472  0.0451
  563MPD2    C4 8405   1.826   1.388  15.641  0.3716 -0.6744 -0.0066
  563MPD2    C5 8406   1.713   1.464  15.652  0.3941 -0.1919  0.0018
  563MPD2     H 8407   1.962   1.459  15.941 -0.5150 -0.6678  0.3182
  563MPD2    H1 8408   1.834   1.317  15.559 -2.2927  0.1870 -1.0104
  563MPD2    H2 8409   1.587   1.591  15.761 -0.4223 -1.2891 -1.0715
  563MPD2    H3 8410   1.641   1.465  15.570  0.8441 -2.3290 -0.4332
  563MPD2     N 8411   2.039   1.311  15.755  0.3229 -0.2302 -0.5519
  563MPD2    H5 8412   2.088   1.322  15.843  2.3042  1.3706 -1.8534
  563MPD2    N1 8413   1.730   1.612  15.986  0.0636 -0.2924  0.5044
  563MPD2    H7 8414   1.636   1.647  15.997 -0.2762 -0.9906 -0.1754
  564TMC3    C1 8415   1.725   1.622  16.219  0.5652 -0.0260  0.2046
  564TMC3    C2 8416   1.611   1.542  16.215  0.5644 -0.3042 -0.3829
  564TMC3    C3 8417   1.577   1.468  16.324  0.4404 -0.1291  0.3125
  564TMC3    C4 8418   1.808   1.608  16.325 -0.1456 -0.4078  0.1179
  564TMC3    C5 8419   1.776   1.533  16.433 -0.5929  0.8860 -0.6092
  564TMC3    C6 8420   1.649   1.482  16.442 -0.1880 -0.1500  0.1364
  564TMC3     C 8421   1.808   1.620  16.100  0.4067  0.9247  0.8964
  564TMC3     O 8422   1.922   1.582  16.121  0.2118 -0.5251 -0.1385
  564TMC3     H 8423   1.551   1.539  16.124  0.2816  1.2357 -0.2516
  564TMC3    H1 8424   1.894   1.675  16.328  0.7159 -1.6095  1.8970
  564TMC3    H2 8425   1.643   1.395  16.508  2.0207  0.7318  1.4990
  564TMC3    C7 8426   1.852   1.408  16.427 -0.0992 -0.5098 -0.5206
  564TMC3    C8 8427   1.516   1.339  16.300  0.1643  0.6084 -0.2415
  564TMC3    O1 8428   1.855   1.344  16.530 -0.2382  0.2591 -1.1066
  564TMC3    O2 8429   1.487   1.277  16.404  0.5708 -0.4639  0.2810
  565TMC3    C1 8430   2.373   2.907  10.051  0.4721 -0.4446  0.5390
  565TMC3    C2 8431   2.383   2.865  10.177  0.1426  0.5048 -0.3664
  565TMC3    C3 8432   2.283   2.778  10.213  0.7888 -0.3018 -0.8692
  565TMC3    C4 8433   2.269   2.881   9.964  0.3322  0.6654  0.5182
  565TMC3    C5 8434   2.182   2.784  10.004 -0.2851 -0.1083  0.3940
  565TMC3    C6 8435   2.195   2.727  10.120 -0.1825  0.0058 -0.1537
  565TMC3     C 8436   2.448   3.027  10.021  0.3335 -0.4395 -0.0990
  565TMC3     O 8437   2.409   3.092   9.931 -0.2227  0.0598  0.5596
  565TMC3     H 8438   2.454   2.903  10.249 -0.5990  0.3912  0.4238
  565TMC3    H1 8439   2.284   2.909   9.861 -0.6551 -1.3208 -0.1763
  565TMC3    H2 8440   2.119   2.659  10.156 -1.0394  2.2572  2.3212
  565TMC3    C7 8441   2.061   2.756   9.938  0.0773  0.3683  0.4055
  565TMC3    C8 8442   2.298   2.705  10.337  0.1198  0.3179 -0.1293
  565TMC3    O1 8443   2.030   2.638   9.934  0.1985  0.4061 -0.2170
  565TMC3    O2 8444   2.386   2.741  10.416  0.2630  0.6117 -0.2049
  566MPD2     C 8445   3.947   4.423  14.414  0.0999  0.6974 -0.0292
  566MPD2    C1 8446   3.941   4.497  14.299 -0.1027  0.1209  0.6873
  566MPD2    C2 8447   3.823   4.506  14.230  0.2291  0.1824 -0.2687
  566MPD2    C3 8448   3.711   4.444  14.274 -0.0878 -0.6728  0.4667
  566MPD2    C4 8449   3.713   4.381  14.395 -0.1245 -0.1412 -0.5468
  566MPD2    C5 8450   3.831   4.368  14.464 -0.6819 -0.4591 -0.5362
  566MPD2     H 8451   3.815   4.571  14.144  3.7822  1.0709  0.0642
  566MPD2    H1 8452   3.623   4.339  14.438  0.1988 -0.0378  0.2419
  566MPD2    H2 8453   4.038   4.409  14.471  0.1125  0.6866 -0.0517
  566MPD2    H3 8454   3.848   4.303  14.549  2.9698  0.0535 -0.8859
  566MPD2     N 8455   3.583   4.454  14.210  0.3043 -0.4691 -0.1994
  566MPD2    H5 8456   3.506   4.427  14.270 -0.1258 -1.1176 -1.0457
  566MPD2    N1 8457   4.055   4.567  14.266 -0.3148 -1.1150  0.3705
  566MPD2    H7 8458   4.135   4.566  14.328  0.4670  1.8967 -0.6105
  567TMC3    C1 8459   4.206   4.693  14.146 -0.0554  0.1587 -0.6347
  567TMC3    C2 8460   4.249   4.724  14.023 -0.3497 -0.2955  0.3523
  567TMC3    C3 8461   4.362   0.065  14.017  0.3728  0.4512  0.0946
  567TMC3    C4 8462   4.281   4.718  14.257 -0.1148 -0.6467 -0.1523
  567TMC3    C5 8463   4.395   0.054  14.244 -0.0292  0.2388 -0.0911
  567TMC3    C6 8464   4.439   0.097  14.122 -0.1069  0.0467 -0.8058
  567TMC3     C 8465   4.077   4.631  14.147 -0.3243 -0.0615 -0.1980
  567TMC3     O 8466   4.006   4.635  14.049 -0.5411 -0.3497 -0.3603
  567TMC3     H 8467   4.195   4.690  13.936 -1.5349 -0.6085  1.2145
  567TMC3    H1 8468   4.229   4.706  14.351 -2.1212  3.1982 -0.7419
  567TMC3    H2 8469   4.521   0.168  14.117 -1.2079  1.4551  1.2485
  567TMC3    C7 8470   4.450   0.124  14.362 -0.4919  0.3241  0.0640
  567TMC3    C8 8471   4.403   0.085  13.876  1.1438  0.1693  0.1213
  567TMC3    O1 8472   4.510   0.225  14.339  0.3308  0.5742  0.3137
  567TMC3    O2 8473   4.333   0.026  13.794  0.0736  0.2823 -0.0102
  568MPD2     C 8474   1.325   4.606  16.447  1.0546  0.7376  0.0175
  568MPD2    C1 8475   1.379   4.681  16.544 -0.0160  0.1141  0.0071
  568MPD2    C2 8476   1.370   0.087  16.539 -0.5247  0.0039  0.0159
  568MPD2    C3 8477   1.287   0.148  16.449 -0.1415 -0.2310 -0.0764
  568MPD2    C4 8478   1.217   0.069  16.364 -0.6644  0.1387 -0.4370
  568MPD2    C5 8479   1.245   4.668  16.352 -0.2697 -0.2313 -0.0250
  568MPD2     H 8480   1.441   0.140  16.601 -0.6444  0.2294 -0.0388
  568MPD2    H1 8481   1.156   0.116  16.288  3.1267  1.7046 -2.5358
  568MPD2    H2 8482   1.350   4.500  16.442  2.7700  1.0334  2.4556
  568MPD2    H3 8483   1.198   4.610  16.273 -1.1120  2.1793 -1.2771
  568MPD2     N 8484   1.278   0.281  16.442  1.3544  0.5986  0.2880
  568MPD2    H5 8485   1.234   0.329  16.364 -1.2495 -0.0591  1.3731
  568MPD2    N1 8486   1.452   4.605  16.640  0.6234  0.1695  0.0201
  568MPD2    H7 8487   1.470   4.507  16.621  0.9127  0.4211 -1.0083
  569TMC3    C1 8488   1.333   0.501  16.501  0.1633  0.6182  0.3446
  569TMC3    C2 8489   1.353   0.585  16.607 -0.1490  1.1922 -0.4819
  569TMC3    C3 8490   1.416   0.703  16.587  0.0965  0.3165 -0.7848
  569TMC3    C4 8491   1.386   0.521  16.375  0.1979  0.1944  0.5330
  569TMC3    C5 8492   1.448   0.647  16.361  0.5693  0.1543  0.7022
  569TMC3    C6 8493   1.472   0.732  16.463  0.1199  0.0393  0.2415
  569TMC3     C 8494   1.309   0.368  16.548 -0.1555  0.0534  0.2075
  569TMC3     O 8495   1.344   0.346  16.662 -0.3116  0.5219 -0.2567
  569TMC3     H 8496   1.297   0.576  16.699 -0.2446  1.6072 -0.5028
  569TMC3    H1 8497   1.361   0.462  16.287 -1.6525  0.0236  1.1761
  569TMC3    H2 8498   1.546   0.809  16.445 -0.0201 -0.1912 -1.2696
  569TMC3    C7 8499   1.473   0.701  16.229  0.1773  0.0711 -0.0813
  569TMC3    C8 8500   1.398   0.810  16.687 -0.5534 -0.8751 -0.0411
  569TMC3    O1 8501   1.491   0.620  16.141 -0.5947  0.2831 -0.3139
  569TMC3    O2 8502   1.321   0.792  16.781  0.1301 -0.0170  0.1445
  570TMC3    C1 8503   1.130   3.808  16.524 -0.4652 -0.0499 -0.3733
  570TMC3    C2 8504   1.216   3.857  16.425 -0.1366 -0.0399 -0.1545
  570TMC3    C3 8505   1.274   3.985  16.442 -0.1548 -0.5230 -0.3969
  570TMC3    C4 8506   1.116   3.882  16.641  0.7594 -0.2192  0.2635
  570TMC3    C5 8507   1.172   4.007  16.653 -0.3925  0.0311 -0.1759
  570TMC3    C6 8508   1.253   4.055  16.551 -0.2602  0.0456 -0.8434
  570TMC3     C 8509   1.051   3.685  16.490 -0.5978  0.5172 -1.1147
  570TMC3     O 8510   1.052   3.649  16.370  0.2336 -0.3600 -0.0529
  570TMC3     H 8511   1.223   3.804  16.330  1.8424 -1.1660  0.6263
  570TMC3    H1 8512   1.034   3.852  16.706  2.3817 -1.6580  1.6308
  570TMC3    H2 8513   1.297   4.153  16.565 -2.5842  1.0216 -0.4059
  570TMC3    C7 8514   1.160   4.086  16.770 -0.1805  0.2325 -0.5560
  570TMC3    C8 8515   1.359   4.038  16.327 -0.6198 -0.4440  0.0499
  570TMC3    O1 8516   1.151   4.024  16.876  0.0881  0.3163  0.5280
  570TMC3    O2 8517   1.419   4.141  16.356  0.2768 -0.1394 -0.3177
  571MPD2     C 8518   3.159   0.650   0.529 -0.1849  0.1111  0.2355
  571MPD2    C1 8519   3.210   0.639   0.655  0.4012  0.0548 -0.7929
  571MPD2    C2 8520   3.210   0.756   0.727  0.0052 -0.2159 -0.5503
  571MPD2    C3 8521   3.172   0.876   0.670  0.4857 -0.1321  0.4437
  571MPD2    C4 8522   3.131   0.876   0.541  0.4616  0.0523 -0.0684
  571MPD2    C5 8523   3.127   0.768   0.466  0.5348 -0.4171 -1.0866
  571MPD2     H 8524   3.235   0.744   0.832  2.2161 -1.5683 -1.2366
  571MPD2    H1 8525   3.105   0.974   0.502 -0.0935  0.8747  2.3129
  571MPD2    H2 8526   3.155   0.565   0.461 -0.2721 -0.6602  1.1923
  571MPD2    H3 8527   3.084   0.771   0.366  4.1362 -1.2542 -2.6643
  571MPD2     N 8528   3.189   1.001   0.733 -0.3665 -0.1867  0.1376
  571MPD2    H5 8529   3.152   1.081   0.682 -1.5785  1.1797  3.1579
  571MPD2    N1 8530   3.262   0.522   0.713  0.2429  0.8766  0.9399
  571MPD2    H7 8531   3.259   0.440   0.653  0.5871  2.5183 -1.3372
  572TMC3    C1 8532   3.234   1.167   0.893 -0.4583  0.1111  0.1776
  572TMC3    C2 8533   3.200   1.209   1.022 -0.2544  0.3358  0.3516
  572TMC3    C3 8534   3.244   1.330   1.059 -0.6398  0.1259 -0.9713
  572TMC3    C4 8535   3.306   1.245   0.801  0.1268 -0.4608 -0.2486
  572TMC3    C5 8536   3.360   1.356   0.853 -0.0432 -0.1308  0.1825
  572TMC3    C6 8537   3.321   1.410   0.970  0.3353  0.3365 -0.2776
  572TMC3     C 8538   3.212   1.021   0.868  0.0024  0.4209 -0.0721
  572TMC3     O 8539   3.179   0.943   0.961  0.6378 -0.4909  0.4743
  572TMC3     H 8540   3.173   1.131   1.093  1.7919  0.1278  0.8921
  572TMC3    H1 8541   3.318   1.214   0.698  0.2486  0.2010 -0.4328
  572TMC3    H2 8542   3.366   1.499   1.013 -1.8214  0.7927  1.0366
  572TMC3    C7 8543   3.423   1.441   0.756 -0.4079  0.1140 -0.4068
  572TMC3    C8 8544   3.195   1.393   1.185  0.4717 -0.1708 -0.1350
  572TMC3    O1 8545   3.395   1.437   0.637  0.2903 -0.3682 -0.3794
  572TMC3    O2 8546   3.238   1.506   1.197 -0.0248  0.5341 -0.2109
  573MPD2     C 8547   4.465   1.934   1.342  0.2194 -0.0610 -0.3733
  573MPD2    C1 8548   4.602   1.919   1.320 -0.0913  0.3508  0.0482
  573MPD2    C2 8549   4.646   1.858   1.197 -0.1836 -1.1177  0.5330
  573MPD2    C3 8550   4.549   1.831   1.098 -0.4019  0.3060 -0.9005
  573MPD2    C4 8551   4.420   1.867   1.123  0.2569  0.4357 -0.2948
  573MPD2    C5 8552   4.373   1.905   1.238  0.5732 -0.1579 -0.8333
  573MPD2     H 8553   0.013   1.843   1.169  0.0256  1.8985 -0.3539
  573MPD2    H1 8554   4.350   1.842   1.043  0.7640 -4.0014  0.6286
  573MPD2    H2 8555   4.420   1.976   1.432 -0.2569 -0.3079 -0.4966
  573MPD2    H3 8556   4.269   1.933   1.250  1.1909  1.7140  0.2224
  573MPD2     N 8557   4.583   1.783   0.973  0.1937  0.2726  0.6406
  573MPD2    H5 8558   4.513   1.808   0.904  1.2846 -2.0405 -1.2798
  573MPD2    N1 8559   4.691   1.967   1.413 -0.4727 -0.2563 -0.0008
  573MPD2    H7 8560   4.660   2.023   1.492  0.6183  0.3573  0.0065
  574TMC3    C1 8561   4.672   1.649   0.804 -0.1634 -0.6034 -0.0466
  574TMC3    C2 8562   4.553   1.645   0.747 -0.4608  0.3805  0.3885
  574TMC3    C3 8563   4.546   1.596   0.621 -0.4136  0.1145  0.2273
  574TMC3    C4 8564   0.048   1.596   0.751  0.0094  0.0327  0.2113
  574TMC3    C5 8565   0.036   1.546   0.625  0.4479  0.0962 -0.0183
  574TMC3    C6 8566   4.660   1.557   0.555  0.0687  0.8588  0.5638
  574TMC3     C 8567   4.690   1.711   0.932 -0.1185 -0.0246  0.1273
  574TMC3     O 8568   0.049   1.679   1.006  0.6329 -0.4170 -0.2772
  574TMC3     H 8569   4.460   1.688   0.784 -0.1199  3.5998 -2.5623
  574TMC3    H1 8570   0.136   1.576   0.810 -0.3668 -0.5915  0.5584
  574TMC3    H2 8571   4.653   1.521   0.453 -2.0475  0.5285  0.8241
  574TMC3    C7 8572   0.157   1.508   0.551 -0.0425 -0.2127 -0.1105
  574TMC3    C8 8573   4.430   1.634   0.545  0.2661 -0.1516 -0.6768
  574TMC3    O1 8574   0.135   1.448   0.448  0.6640 -0.3739 -0.0350
  574TMC3    O2 8575   4.322   1.618   0.605  0.1636 -0.3284  0.0706
  575TMC3    C1 8576   2.627   2.640  11.135  0.7843 -0.2433 -0.1506
  575TMC3    C2 8577   2.550   2.606  11.246  0.3720  0.0070 -0.5279
  575TMC3    C3 8578   2.443   2.530  11.214 -0.3081 -0.6916  0.6988
  575TMC3    C4 8579   2.590   2.604  11.006 -0.6561 -0.8540 -0.6597
  575TMC3    C5 8580   2.471   2.540  10.980 -0.5014  0.0107  0.4807
  575TMC3    C6 8581   2.399   2.497  11.085  0.1684  0.2159  0.3567
  575TMC3     C 8582   2.748   2.714  11.151  0.6643  0.4159  0.2606
  575TMC3     O 8583   2.822   2.714  11.052  0.0971  1.0912 -0.4168
  575TMC3     H 8584   2.576   2.613  11.351  1.5910 -0.4743 -0.7984
  575TMC3    H1 8585   2.637   2.647  10.919 -0.1048  1.2960  0.6834
  575TMC3    H2 8586   2.303   2.450  11.067 -0.4636  1.3325  0.8570
  575TMC3    C7 8587   2.434   2.527  10.839 -0.1964 -0.4090 -0.5679
  575TMC3    C8 8588   2.372   2.470  11.327 -0.7161  0.6550  0.1654
  575TMC3    O1 8589   2.510   2.574  10.756  0.4728  0.5077  0.4253
  575TMC3    O2 8590   2.373   2.524  11.437 -0.2651  0.3969  0.2953
  576MPD2     C 8591   2.148   4.153  13.019 -0.1834  0.7388  0.4467
  576MPD2    C1 8592   2.186   4.249  12.929  0.1320 -0.3019  0.3461
  576MPD2    C2 8593   2.141   4.384  12.959 -0.1803 -0.1331  0.1142
  576MPD2    C3 8594   2.070   4.410  13.078  0.1951  0.2273 -0.0235
  576MPD2    C4 8595   2.037   4.306  13.158  1.0371 -0.3573  0.3669
  576MPD2    C5 8596   2.069   4.178  13.128 -0.7360 -0.3033 -0.6792
  576MPD2     H 8597   2.166   4.459  12.885 -3.5476 -0.4303 -1.3200
  576MPD2    H1 8598   1.977   4.320  13.247  1.0335 -0.3641  0.3654
  576MPD2    H2 8599   2.180   4.050  13.009  1.7754  1.3395  0.5677
  576MPD2    H3 8600   2.040   4.096  13.192  1.3542 -1.0523 -0.7088
  576MPD2     N 8601   2.026   4.541  13.102  0.5715  0.2017 -0.0487
  576MPD2    H5 8602   2.015   4.603  13.022  2.5463  0.7491  0.1159
  576MPD2    N1 8603   2.242   4.230  12.800  0.4443  0.4820  0.7858
  576MPD2    H7 8604   2.247   4.313  12.743  1.1191 -0.3633 -0.3834
  577TMC3    C1 8605   2.328   4.133  12.613 -0.9390 -0.1109 -0.7368
  577TMC3    C2 8606   2.424   4.048  12.566 -0.6439  0.5628  0.1708
  577TMC3    C3 8607   2.472   4.078  12.450 -0.0017  0.7757  0.3322
  577TMC3    C4 8608   2.276   4.236  12.537 -0.0767  0.2934 -0.5176
  577TMC3    C5 8609   2.321   4.256  12.411 -0.6163  0.2504  0.5260
  577TMC3    C6 8610   2.427   4.174  12.370  0.0719 -0.1518 -0.7122
  577TMC3     C 8611   2.285   4.111  12.746 -0.0595  0.4234  0.0144
  577TMC3     O 8612   2.309   4.004  12.801 -0.9030 -0.0466 -0.3511
  577TMC3     H 8613   2.470   3.977  12.634 -0.8167  0.1229 -0.1774
  577TMC3    H1 8614   2.185   4.287  12.565  0.2901  0.0706  1.0684
  577TMC3    H2 8615   2.493   4.206  12.291  2.1232  0.8200  1.4102
  577TMC3    C7 8616   2.286   4.380  12.341  0.3692  0.5379  0.3848
  577TMC3    C8 8617   2.588   4.004  12.409 -0.4352 -0.1660  0.9343
  577TMC3    O1 8618   2.232   4.470  12.404 -0.4205 -0.2445 -0.2916
  577TMC3    O2 8619   2.641   3.931  12.495 -0.2270  0.2015 -0.2445
  578MPD2     C 8620   4.516   4.306   0.467 -0.4375  0.1032 -0.1771
  578MPD2    C1 8621   4.543   4.168   0.469  0.2325 -0.4918 -0.2087
  578MPD2    C2 8622   4.672   4.126   0.504  1.2865  0.2626 -0.7088
  578MPD2    C3 8623   0.035   4.223   0.539 -0.3932 -0.0720 -0.1393
  578MPD2    C4 8624   4.735   4.361   0.533  0.0647 -0.9168 -0.2981
  578MPD2    C5 8625   4.612   4.395   0.490 -0.7620 -0.7227  0.1201
  578MPD2     H 8626   4.695   4.020   0.509 -0.7377 -0.0192  2.1360
  578MPD2    H1 8627   0.073   4.435   0.558 -2.0566  0.3047  2.3836
  578MPD2    H2 8628   4.418   4.340   0.434 -0.3733  0.1996 -0.2708
  578MPD2    H3 8629   4.584   4.499   0.481 -0.7722 -0.6848  0.5692
  578MPD2     N 8630   0.169   4.176   0.572  0.0605  1.0608 -0.3458
  578MPD2    H5 8631   0.184   4.075   0.579  0.8173  1.2882  1.2719
  578MPD2    N1 8632   4.438   4.082   0.422  0.4127  0.3793  0.7221
  578MPD2    H7 8633   4.348   4.119   0.392 -0.2203 -0.7090  1.2652
  579TMC3    C1 8634   0.411   4.197   0.626 -0.3335 -0.6420  0.7301
  579TMC3    C2 8635   0.528   4.264   0.608  0.2386 -0.3120 -0.4573
  579TMC3    C3 8636   0.649   4.192   0.589 -0.2791  0.0707 -0.3125
  579TMC3    C4 8637   0.415   4.061   0.642  0.1808  0.7189  0.3466
  579TMC3    C5 8638   0.530   3.993   0.623 -0.7787 -0.7037 -0.1605
  579TMC3    C6 8639   0.646   4.056   0.596 -0.4917 -0.7387 -0.5317
  579TMC3     C 8640   0.281   4.260   0.585 -1.1992  0.2536 -0.2683
  579TMC3     O 8641   0.294   4.381   0.589  0.3381  0.0145  0.3287
  579TMC3     H 8642   0.527   4.368   0.578 -2.3207 -0.3813 -0.6364
  579TMC3    H1 8643   0.327   4.009   0.677 -0.1358  0.7739 -0.3697
  579TMC3    H2 8644   0.738   4.008   0.564 -0.4332  0.4145 -2.1071
  579TMC3    C7 8645   0.549   3.853   0.671 -0.3328 -0.3169 -0.0550
  579TMC3    C8 8646   0.772   4.267   0.569 -0.1757  0.8021  0.2170
  579TMC3    O1 8647   0.663   3.817   0.700 -0.0950  0.5256 -0.4171
  579TMC3    O2 8648   0.768   4.386   0.548  0.0828 -0.3087  0.5696
  580TMC3    C1 8649   0.313   3.536  12.612 -0.4778  0.1643  0.4339
  580TMC3    C2 8650   0.436   3.595  12.641 -0.4812  0.0744 -0.0273
  580TMC3    C3 8651   0.531   3.504  12.684 -0.0349 -0.1435  0.0534
  580TMC3    C4 8652   0.300   3.402  12.591 -0.0525 -0.1292  0.1819
  580TMC3    C5 8653   0.395   3.320  12.625 -0.3549  0.2958  0.2118
  580TMC3    C6 8654   0.509   3.367  12.686  0.0504  0.1302 -0.1318
  580TMC3     C 8655   0.225   3.620  12.534  0.3551  0.4494  0.2404
  580TMC3     O 8656   0.284   3.683  12.445  0.5480  0.6226  0.4306
  580TMC3     H 8657   0.446   3.700  12.618 -0.1031  0.1438  0.4501
  580TMC3    H1 8658   0.205   3.359  12.560  0.0744  1.0126 -1.8022
  580TMC3    H2 8659   0.589   3.306  12.726 -0.1898 -1.9816 -2.8405
  580TMC3    C7 8660   0.378   3.174  12.632  0.1638 -0.0002  0.4372
  580TMC3    C8 8661   0.664   3.553  12.661  0.0187  1.1711  0.3388
  580TMC3    O1 8662   0.440   3.122  12.721 -0.3786 -0.0233  0.0990
  580TMC3    O2 8663   0.676   3.669  12.691 -0.1405 -0.0026 -0.0700
  581MPD2     C 8664   2.891   2.513  15.053  0.4488  0.8232 -0.7020
  581MPD2    C1 8665   2.774   2.475  15.118 -0.1996 -0.4461 -0.3907
  581MPD2    C2 8666   2.657   2.543  15.083 -0.1224 -0.2078  0.4372
  581MPD2    C3 8667   2.660   2.650  14.995  1.0082  0.2116 -0.0147
  581MPD2    C4 8668   2.778   2.683  14.925 -0.0693 -0.0808 -0.2751
  581MPD2    C5 8669   2.891   2.607  14.954  0.2624 -0.0682  0.8020
  581MPD2     H 8670   2.563   2.524  15.134 -0.6145  1.3422  0.1108
  581MPD2    H1 8671   2.783   2.768  14.859 -0.5158  0.7841  0.8123
  581MPD2    H2 8672   2.982   2.454  15.065  0.4348  0.9757  0.2186
  581MPD2    H3 8673   2.984   2.629  14.902  0.9681 -1.1556  1.6231
  581MPD2     N 8674   2.546   2.733  14.984  0.0103 -0.5247  0.4384
  581MPD2    H5 8675   2.456   2.691  15.001  0.1979 -0.8845  0.5385
  581MPD2    N1 8676   2.783   2.369  15.216  0.1219 -0.2348 -0.0138
  581MPD2    H7 8677   2.870   2.317  15.221  0.7669  0.7944 -0.5374
  582TMC3    C1 8678   2.696   2.218  15.362  0.1140  0.2630 -0.4233
  582TMC3    C2 8679   2.783   2.266  15.461  1.0946 -0.0910 -0.0398
  582TMC3    C3 8680   2.743   2.260  15.596 -0.5446 -0.3404 -0.1437
  582TMC3    C4 8681   2.573   2.164  15.397  0.6538 -0.5368 -0.2820
  582TMC3    C5 8682   2.535   2.164  15.524  0.1698 -0.2613  0.2868
  582TMC3    C6 8683   2.616   2.215  15.623 -0.1272 -0.1186  0.1217
  582TMC3     C 8684   2.671   2.315  15.263 -0.4047 -0.1516  0.2172
  582TMC3     O 8685   2.562   2.366  15.280 -0.1152  0.2952  0.4968
  582TMC3     H 8686   2.870   2.323  15.430  0.4558  1.0734  0.3490
  582TMC3    H1 8687   2.499   2.130  15.325 -1.6707  0.0965  1.7922
  582TMC3    H2 8688   2.575   2.201  15.722  1.8153  1.6266  1.1613
  582TMC3    C7 8689   2.397   2.198  15.547 -0.4648  0.8419 -0.1091
  582TMC3    C8 8690   2.807   2.339  15.700  0.4179  0.1647  1.0766
  582TMC3    O1 8691   2.304   2.154  15.480 -0.3361 -0.4820  0.1974
  582TMC3    O2 8692   2.731   2.401  15.774  0.0756 -0.1550 -0.6732
  583MPD2     C 8693   2.926   4.341  17.178 -0.0171  0.0556  0.4738
  583MPD2    C1 8694   2.873   4.424  17.082 -0.1294  0.1347  0.4791
  583MPD2    C2 8695   2.772   4.499  17.123 -0.7083 -0.6785  0.6095
  583MPD2    C3 8696   2.717   4.496  17.252 -0.0580 -0.0208  0.1666
  583MPD2    C4 8697   2.777   4.413  17.348  0.4884 -0.1831  0.2744
  583MPD2    C5 8698   2.876   4.334  17.301 -0.2179 -0.3850  0.7383
  583MPD2     H 8699   2.730   4.565  17.048 -1.8809 -1.1772  0.8256
  583MPD2    H1 8700   2.750   4.401  17.453 -0.8264  2.2294  0.2037
  583MPD2    H2 8701   3.013   4.278  17.158 -1.0513 -0.6159 -1.8540
  583MPD2    H3 8702   2.912   4.261  17.373  0.6612  1.4305  2.1434
  583MPD2     N 8703   2.609   4.586  17.277 -0.0181 -0.3640  0.3909
  583MPD2    H5 8704   2.573   4.638  17.198  0.8833  1.4074  1.1520
  583MPD2    N1 8705   2.926   4.425  16.952  0.0763  0.2984  0.1498
  583MPD2    H7 8706   2.866   4.461  16.879  0.6604 -1.0911 -1.0003
  584TMC3    C1 8707   2.443   4.699  17.401  0.0586  0.2212 -0.8874
  584TMC3    C2 8708   2.467   0.077  17.324  0.0938 -0.1564  0.3589
  584TMC3    C3 8709   2.401   0.187  17.370  0.1808 -0.4404 -0.4838
  584TMC3    C4 8710   2.374   4.706  17.517 -0.2244  0.0912 -0.0950
  584TMC3    C5 8711   2.312   0.084  17.552  0.0442  0.5740  0.5091
  584TMC3    C6 8712   2.324   0.195  17.481  0.5613  0.4954  0.1251
  584TMC3     C 8713   2.544   4.600  17.402  0.8518  0.4435  0.1499
  584TMC3     O 8714   2.582   4.557  17.514 -0.6751 -0.1227  0.2621
  584TMC3     H 8715   2.522   0.085  17.231  0.7062 -0.3930  0.7035
  584TMC3    H1 8716   2.370   4.616  17.577 -1.4786  1.3268  1.6754
  584TMC3    H2 8717   2.274   0.287  17.506 -0.2974  0.1454 -0.2955
  584TMC3    C7 8718   2.238   0.078  17.683 -0.6149 -0.2194 -0.7691
  584TMC3    C8 8719   2.416   0.309  17.288 -0.4703  0.5892  1.1908
  584TMC3    O1 8720   2.225   4.702  17.728 -0.0709  0.1066  0.0638
  584TMC3    O2 8721   2.450   0.294  17.170  0.1183 -0.1831 -0.1021
  585MPD2     C 8722   2.141   3.277   0.665 -0.1255 -0.2047 -0.0433
  585MPD2    C1 8723   2.253   3.271   0.579 -0.3693 -0.3439  0.4806
  585MPD2    C2 8724   2.268   3.161   0.495 -0.0351  1.0743 -0.6641
  585MPD2    C3 8725   2.184   3.052   0.503 -0.1637  0.1705 -0.4991
  585MPD2    C4 8726   2.079   3.057   0.594  0.1033 -0.0977  0.8694
  585MPD2    C5 8727   2.059   3.166   0.677 -0.7785 -0.8568 -0.2770
  585MPD2     H 8728   2.339   3.172   0.414 -1.4445  3.4105 -1.5558
  585MPD2    H1 8729   2.005   2.978   0.602  1.3371 -1.2800  0.5359
  585MPD2    H2 8730   2.114   3.353   0.737  2.0956  1.0038 -0.5008
  585MPD2    H3 8731   1.981   3.164   0.753  1.1245 -0.5564  1.6987
  585MPD2     N 8732   2.168   2.959   0.397 -0.3929  0.4727 -0.4097
  585MPD2    H5 8733   2.087   2.897   0.403  0.5031 -0.7610 -0.9899
  585MPD2    N1 8734   2.336   3.381   0.584 -0.3644 -0.3911  0.3311
  585MPD2    H7 8735   2.314   3.458   0.646  1.2446 -0.5236  1.0669
  586TMC3    C1 8736   2.197   2.863   0.183  1.0349  0.2415 -0.3057
  586TMC3    C2 8737   2.300   2.867   0.093 -0.3742  0.5533 -0.1860
  586TMC3    C3 8738   2.274   2.922  17.712  0.1320 -0.2539 -0.1338
  586TMC3    C4 8739   2.071   2.893   0.147 -0.4971 -0.0257 -0.3643
  586TMC3    C5 8740   2.053   2.939   0.019 -0.4401  0.4042  0.8557
  586TMC3    C6 8741   2.147   2.954  17.666  0.7401 -0.3579 -0.0690
  586TMC3     C 8742   2.247   2.951   0.291  0.2731 -0.1466  0.8231
  586TMC3     O 8743   2.359   2.996   0.277 -0.4546  0.3798  0.9934
  586TMC3     H 8744   2.403   2.843   0.117 -0.7315  0.3932  1.1782
  586TMC3    H1 8745   1.990   2.899   0.219 -1.2352 -2.4238 -0.9754
  586TMC3    H2 8746   2.130   2.992  17.566 -0.8948 -0.3930  0.2021
  586TMC3    C7 8747   1.923   2.963  17.725  0.0116  0.0415  0.0312
  586TMC3    C8 8748   2.387   2.897  17.622 -0.7339 -0.4274  0.2932
  586TMC3    O1 8749   1.831   2.903   0.038 -0.0503 -0.1600 -0.3367
  586TMC3    O2 8750   2.474   2.818  17.653  0.4217  0.4674  0.2884
  587TMC3    C1 8751   4.107   1.927  16.214  0.3708  0.3217 -0.7214
  587TMC3    C2 8752   4.194   2.020  16.164 -0.3303  0.2429 -0.4745
  587TMC3    C3 8753   4.276   2.090  16.255  0.8689 -0.0655 -0.1796
  587TMC3    C4 8754   4.118   1.876  16.333 -0.2058  0.2074  0.3707
  587TMC3    C5 8755   4.208   1.933  16.418  0.1084 -0.6761 -0.9892
  587TMC3    C6 8756   4.281   2.043  16.390  0.3492  0.5775 -0.3263
  587TMC3     C 8757   4.008   1.878  16.126 -0.4155  0.0584  0.1750
  587TMC3     O 8758   4.023   1.910  16.010 -0.6681  0.3928 -0.6303
  587TMC3     H 8759   4.191   2.056  16.062 -0.8162  0.5767 -0.3410
  587TMC3    H1 8760   4.066   1.784  16.353  2.9080 -1.4327  0.9641
  587TMC3    H2 8761   4.358   2.078  16.457 -0.8992 -1.0279  1.9417
  587TMC3    C7 8762   4.237   1.854  16.536 -0.0779 -0.1258 -1.0206
  587TMC3    C8 8763   4.288   2.231  16.231  0.2911  0.0204  0.4552
  587TMC3    O1 8764   4.156   1.767  16.571 -0.1091  0.0013 -0.1875
  587TMC3    O2 8765   4.297   2.271  16.113  0.4759 -0.3951  0.0997
  588TMC3    C1 8766   2.073   0.013   9.951 -0.0425 -0.1701 -0.4779
  588TMC3    C2 8767   2.030   4.623   9.914 -0.4300  0.1301  0.1365
  588TMC3    C3 8768   2.071   4.511   9.973 -0.0282 -0.4114  0.1446
  588TMC3    C4 8769   2.153   0.021  10.061  0.1393  0.0541  0.3934
  588TMC3    C5 8770   2.195   4.641  10.124  0.8401  0.4864 -0.0522
  588TMC3    C6 8771   2.157   4.518  10.082 -0.1253 -0.1875 -0.2093
  588TMC3     C 8772   2.006   0.129   9.913  0.6370 -1.1429 -0.6561
  588TMC3     O 8773   1.994   0.141   9.791 -0.1461 -0.0977 -0.6898
  588TMC3     H 8774   1.979   4.619   9.818 -1.0050 -0.5690  0.4752
  588TMC3    H1 8775   2.207   0.114  10.072 -1.4669  0.7259  2.5617
  588TMC3    H2 8776   2.208   4.437  10.133  1.3139  0.4824 -0.6068
  588TMC3    C7 8777   2.266   4.661  10.251 -0.3278  0.0518  0.6759
  588TMC3    C8 8778   2.043   4.378   9.921 -0.0675 -0.0257 -0.1186
  588TMC3    O1 8779   2.324   4.563  10.296 -0.2535  0.3072 -0.2941
  588TMC3    O2 8780   1.975   4.368   9.821 -0.2784  0.5020 -0.3548
  589TMC3    C1 8781   1.004   2.142   1.218 -0.7066 -0.2043 -0.9329
  589TMC3    C2 8782   1.101   2.208   1.294 -0.0239 -0.0922 -0.9433
  589TMC3    C3 8783   1.220   2.145   1.307  0.1318  0.3342  0.3381
  589TMC3    C4 8784   1.017   2.028   1.158 -0.5820 -0.1387 -0.1347
  589TMC3    C5 8785   1.136   1.965   1.188  0.2112 -0.7430  0.3185
  589TMC3    C6 8786   1.244   2.016   1.265 -0.1846 -0.0996  0.9418
  589TMC3     C 8787   0.883   2.216   1.189 -0.3647  0.1362 -0.9366
  589TMC3     O 8788   0.807   2.156   1.107  0.2545  0.1176 -0.1679
  589TMC3     H 8789   1.094   2.311   1.327  1.1156 -0.5290  0.6986
  589TMC3    H1 8790   0.948   1.989   1.085 -1.7942 -1.0567  1.4930
  589TMC3    H2 8791   1.328   1.955   1.295 -0.8427 -1.4515  0.0311
  589TMC3    C7 8792   1.160   1.839   1.133 -0.2690  0.0299 -0.7777
  589TMC3    C8 8793   1.327   2.228   1.370  0.0555  0.0259  0.6767
  589TMC3    O1 8794   1.061   1.777   1.103 -0.0814 -0.0179  0.1782
  589TMC3    O2 8795   1.297   2.329   1.434  0.2342  0.3737 -0.0793
  590MPD2     C 8796   0.564   0.716  16.844 -0.7555  0.3564 -0.8803
  590MPD2    C1 8797   0.547   0.735  16.712 -0.3863  0.3806 -1.5542
  590MPD2    C2 8798   0.640   0.795  16.628 -0.0160  0.5011  0.2201
  590MPD2    C3 8799   0.752   0.847  16.680 -0.1112 -0.2532  0.0250
  590MPD2    C4 8800   0.776   0.830  16.815  0.1922 -0.1441  0.5699
  590MPD2    C5 8801   0.681   0.774  16.897  0.0078  0.2369  0.3646
  590MPD2     H 8802   0.631   0.805  16.520  0.4625  0.4772  0.1770
  590MPD2    H1 8803   0.863   0.874  16.863 -1.4305  2.7734  0.8194
  590MPD2    H2 8804   0.496   0.674  16.916 -1.4956  0.3831 -1.5685
  590MPD2    H3 8805   0.704   0.770  17.003 -2.8636 -1.7810  0.9217
  590MPD2     N 8806   0.833   0.921  16.595 -0.3207 -0.2573 -0.3971
  590MPD2    H5 8807   0.811   0.921  16.496 -0.7829  2.0669 -0.3045
  590MPD2    N1 8808   0.422   0.686  16.668 -0.1127 -0.0298  0.2342
  590MPD2    H7 8809   0.363   0.630  16.728  1.4704 -3.1381 -1.0658
  591TMC3    C1 8810   1.031   1.047  16.529  0.1704  0.1378 -0.8683
  591TMC3    C2 8811   1.051   0.989  16.408 -0.5481  0.1547  0.0988
  591TMC3    C3 8812   1.118   1.056  16.305  0.0150 -0.4110 -0.2427
  591TMC3    C4 8813   1.085   1.173  16.554  0.0684 -0.3717  0.3288
  591TMC3    C5 8814   1.141   1.238  16.445  0.3389 -0.3487  0.2331
  591TMC3    C6 8815   1.155   1.183  16.321  1.0312 -0.2587  0.4457
  591TMC3     C 8816   0.953   0.988  16.633 -0.4240  0.2067 -0.1491
  591TMC3     O 8817   0.997   1.017  16.741  0.3100  0.1507  0.3852
  591TMC3     H 8818   1.006   0.891  16.395  0.1019 -0.0504 -0.5975
  591TMC3    H1 8819   1.098   1.207  16.656 -2.9831 -0.2983  0.6762
  591TMC3    H2 8820   1.214   1.232  16.244  0.6277  0.9703  0.9211
  591TMC3    C7 8821   1.184   1.373  16.470 -0.5113  0.1660  0.1878
  591TMC3    C8 8822   1.142   0.972  16.189 -0.5220 -0.5520 -0.4440
  591TMC3    O1 8823   1.148   1.419  16.578  0.3475 -0.4252 -0.0534
  591TMC3    O2 8824   1.130   0.848  16.201  0.3358  0.1901 -0.6012
  592MPD2     C 8825   1.133   2.812  11.558 -0.5220  0.3479 -0.0239
  592MPD2    C1 8826   1.185   2.821  11.681  0.1165 -0.3861  0.1729
  592MPD2    C2 8827   1.129   2.750  11.789  0.1061 -0.7122  0.6417
  592MPD2    C3 8828   1.009   2.683  11.765  0.3269  0.5983 -0.1404
  592MPD2    C4 8829   0.958   2.671  11.637 -0.0544  0.2386 -0.9831
  592MPD2    C5 8830   1.018   2.739  11.534 -0.6970 -0.0698  0.2470
  592MPD2     H 8831   1.162   2.760  11.891 -1.1899  1.1720  0.8644
  592MPD2    H1 8832   0.868   2.620  11.605 -0.6294  0.8289 -0.3023
  592MPD2    H2 8833   1.172   2.865  11.472 -0.0550 -1.3641 -0.8555
  592MPD2    H3 8834   0.965   2.746  11.440 -0.7826  2.7456  0.5304
  592MPD2     N 8835   0.945   2.625  11.876  0.3226 -0.1896 -0.0070
  592MPD2    H5 8836   0.945   2.672  11.966  2.1281  1.1246 -0.6795
  592MPD2    N1 8837   1.291   2.915  11.699 -0.7514  0.0036 -0.2983
  592MPD2    H7 8838   1.323   2.959  11.613  0.0888 -0.5960 -0.2942
  593TMC3    C1 8839   1.471   3.028  11.812  0.8100  0.7990 -0.1109
  593TMC3    C2 8840   1.509   3.091  11.928 -0.3464  0.0717  0.3264
  593TMC3    C3 8841   1.634   3.138  11.942  0.3169 -0.3911  0.5981
  593TMC3    C4 8842   1.553   3.014  11.709  0.5084 -0.9134  0.0787
  593TMC3    C5 8843   1.675   3.069  11.717  0.2664 -0.3505 -1.1122
  593TMC3    C6 8844   1.719   3.130  11.833  0.8083 -0.4847  0.5582
  593TMC3     C 8845   1.347   2.946  11.821  0.5103 -0.5542  0.7061
  593TMC3     O 8846   1.324   2.902  11.937  0.0906 -0.1484  0.1441
  593TMC3     H 8847   1.447   3.094  12.017  0.5554 -3.0580  1.0744
  593TMC3    H1 8848   1.533   2.946  11.627  0.0911 -1.4143  0.6053
  593TMC3    H2 8849   1.818   3.173  11.845  0.6483 -0.2603  1.0558
  593TMC3    C7 8850   1.739   3.119  11.598  0.1720  0.2464 -0.4723
  593TMC3    C8 8851   1.625   3.269  12.007 -1.6123  0.0404  0.0268
  593TMC3    O1 8852   1.854   3.157  11.611 -0.5720  0.3403 -0.4732
  593TMC3    O2 8853   1.518   3.320  11.995 -0.4825 -0.6607 -0.0505
  594MPD2     C 8854   0.185   1.238  15.204  0.1876 -0.3512  0.2204
  594MPD2    C1 8855   0.091   1.286  15.123 -0.4523  0.5284  0.2788
  594MPD2    C2 8856   0.116   1.401  15.041  0.3468  0.1400 -0.4096
  594MPD2    C3 8857   0.247   1.446  15.034 -0.5051  0.0249 -0.5408
  594MPD2    C4 8858   0.342   1.396  15.127 -0.4692 -0.7699 -0.6093
  594MPD2    C5 8859   0.309   1.290  15.210 -0.0189  0.8915 -1.0576
  594MPD2     H 8860   0.041   1.457  14.986 -0.9466 -1.2532 -0.0752
  594MPD2    H1 8861   0.439   1.443  15.146 -1.2916  0.4034  0.6979
  594MPD2    H2 8862   0.161   1.154  15.267 -0.7801  1.4996  2.2991
  594MPD2    H3 8863   0.373   1.250  15.288  1.7132  0.6748 -2.5725
  594MPD2     N 8864   0.285   1.544  14.938 -0.1862  0.7772  0.0572
  594MPD2    H5 8865   0.217   1.571  14.868  2.3965  1.2487 -2.2322
  594MPD2    N1 8866   4.703   1.224  15.120 -1.1410 -0.0566 -0.2039
  594MPD2    H7 8867   4.693   1.138  15.173  0.5476 -0.5302 -0.6603
  595TMC3    C1 8868   0.540   1.817  14.638 -0.2471  0.2424  0.4212
  595TMC3    C2 8869   0.527   1.726  14.742 -0.6230 -0.5567 -0.0860
  595TMC3    C3 8870   0.409   1.696  14.803  0.0594 -0.3301  0.3343
  595TMC3    C4 8871   0.425   1.867  14.582  0.2914 -0.5049 -0.7643
  595TMC3    C5 8872   0.308   1.849  14.648  0.2816  0.1525 -0.1313
  595TMC3    C6 8873   0.299   1.764  14.761  0.4431 -0.1430 -0.5542
  595TMC3     C 8874   0.639   1.924  14.654  0.5099 -1.2518 -0.0724
  595TMC3     O 8875   0.604   2.043  14.640 -0.1306 -0.1901 -0.0694
  595TMC3     H 8876   0.618   1.681  14.782 -0.3773 -0.5924 -0.6800
  595TMC3    H1 8877   0.432   1.932  14.496 -3.8984 -2.7058 -2.7746
  595TMC3    H2 8878   0.201   1.753  14.805 -1.4332  0.3184 -4.5832
  595TMC3    C7 8879   0.245   1.973  14.672 -0.6026 -0.3054 -0.8547
  595TMC3    C8 8880   0.408   1.591  14.906  0.3412 -0.8162  0.0048
  595TMC3    O1 8881   0.136   1.973  14.716 -0.5066  0.4081 -0.2551
  595TMC3    O2 8882   0.514   1.545  14.947  0.0823  0.3201  0.1856
  596MPD2     C 8883   3.789   4.376  17.313 -0.7239 -0.6535  0.1781
  596MPD2    C1 8884   3.730   4.453  17.216  1.1402 -1.0539 -0.7890
  596MPD2    C2 8885   3.760   4.416  17.086 -0.0010  0.6928  0.2282
  596MPD2    C3 8886   3.834   4.308  17.048  0.7363 -0.0746  0.2422
  596MPD2    C4 8887   3.891   4.230  17.146  0.0783  0.0632  0.4823
  596MPD2    C5 8888   3.868   4.268  17.273  0.5501 -0.0709  0.1989
  596MPD2     H 8889   3.717   4.479  17.009  1.1985  2.0663  0.6613
  596MPD2    H1 8890   3.962   4.150  17.126 -3.1972 -2.9927  0.9489
  596MPD2    H2 8891   3.795   4.402  17.418  0.4155 -0.1712 -0.0140
  596MPD2    H3 8892   3.917   4.220  17.358 -0.1118 -1.1418 -0.0267
  596MPD2     N 8893   3.853   4.268  16.913  0.1638 -0.3048 -0.6425
  596MPD2    H5 8894   3.916   4.192  16.892  2.2610  1.3412 -0.3114
  596MPD2    N1 8895   3.655   4.568  17.235 -0.6275 -0.2598 -0.1434
  596MPD2    H7 8896   3.614   4.610  17.152 -1.0609  3.3477  1.9021
  597TMC3    C1 8897   3.555   0.020  17.332  0.1399 -0.1092  0.0175
  597TMC3    C2 8898   3.607   0.097  17.234  0.4830  0.3407 -0.3571
  597TMC3    C3 8899   3.541   0.217  17.212  0.0323  0.0775  0.0621
  597TMC3    C4 8900   3.455   0.057  17.413  0.2438 -1.1980 -0.4894
  597TMC3    C5 8901   3.390   0.177  17.382 -0.0666  1.0574  0.5251
  597TMC3    C6 8902   3.431   0.256  17.281 -0.1950  0.1219  0.0915
  597TMC3     C 8903   3.612   4.627  17.353 -0.1252 -0.0607 -0.2971
  597TMC3     O 8904   3.600   4.582  17.468 -0.4978 -0.2438  0.3497
  597TMC3     H 8905   3.663   0.047  17.156  0.0379  0.6843 -0.9022
  597TMC3    H1 8906   3.411   4.718  17.477  1.0276  0.3619  1.8785
  597TMC3    H2 8907   3.387   0.356  17.279  1.1366  0.6861 -0.9417
  597TMC3    C7 8908   3.270   0.207  17.454 -0.5756  0.1150  0.4689
  597TMC3    C8 8909   3.568   0.294  17.086  0.5615 -0.4172 -0.0392
  597TMC3    O1 8910   3.266   0.139  17.553  0.4582  0.4108  0.0673
  597TMC3    O2 8911   3.481   0.372  17.051  0.4527  0.0979 -0.4450
  598TMC3    C1 8912   1.553   0.991  15.358  0.0596 -0.0349  0.6006
  598TMC3    C2 8913   1.476   0.888  15.317  0.1045 -0.3091 -0.0632
  598TMC3    C3 8914   1.451   0.862  15.183 -0.2989 -0.2258  0.0026
  598TMC3    C4 8915   1.618   1.066  15.263  0.2564 -0.3062  0.3264
  598TMC3    C5 8916   1.586   1.039  15.126  0.2756 -0.0497 -0.7950
  598TMC3    C6 8917   1.501   0.943  15.084 -0.2874  0.2881 -0.2210
  598TMC3     C 8918   1.623   0.964  15.479 -0.0412 -0.3625 -0.2673
  598TMC3     O 8919   1.563   0.919  15.579  0.0676  0.0590 -0.0561
  598TMC3     H 8920   1.444   0.812  15.388 -3.0747  0.8367 -0.2434
  598TMC3    H1 8921   1.684   1.148  15.288 -0.1042  0.8760 -2.5844
  598TMC3    H2 8922   1.471   0.923  14.982 -0.1030  0.0104 -0.2214
  598TMC3    C7 8923   1.644   1.109  15.012  0.1469 -0.2358 -0.4497
  598TMC3    C8 8924   1.459   0.721  15.148 -0.5748  0.1671 -0.9067
  598TMC3    O1 8925   1.589   1.090  14.903 -0.0561  0.5043  0.2917
  598TMC3    O2 8926   1.437   0.636  15.232 -0.4296  0.3675  0.1217
  599MPD2     C 8927   2.120   3.112  16.035 -0.0231  0.4654 -0.3006
  599MPD2    C1 8928   2.018   3.020  16.032 -0.7857 -0.0518 -0.1938
  599MPD2    C2 8929   1.889   3.065  16.043  0.4330  0.0216 -0.0082
  599MPD2    C3 8930   1.855   3.201  16.064  0.1385 -0.7962 -0.2495
  599MPD2    C4 8931   1.960   3.289  16.067 -0.2770  0.8192  0.7749
  599MPD2    C5 8932   2.086   3.243  16.056  0.7915 -0.5127 -0.2243
  599MPD2     H 8933   1.807   2.994  16.040 -0.1990  0.8176 -1.3229
  599MPD2    H1 8934   1.937   3.395  16.076 -1.3604  0.7522 -1.2795
  599MPD2    H2 8935   2.224   3.082  16.032 -0.1435  0.2000 -2.2932
  599MPD2    H3 8936   2.169   3.310  16.073 -0.2930  0.7825  0.0006
  599MPD2     N 8937   1.731   3.253  16.084  0.2112  0.5871  0.2905
  599MPD2    H5 8938   1.718   3.351  16.106 -1.2256  0.5984 -0.5619
  599MPD2    N1 8939   2.053   2.890  16.005  0.0079  1.0352  0.3790
  599MPD2    H7 8940   2.150   2.862  16.004 -0.5237 -0.7956 -1.1041
  600TMC3    C1 8941   1.494   3.238  16.157 -0.0981  0.1926  0.0904
  600TMC3    C2 8942   1.389   3.158  16.191 -0.9780  0.3540  0.0893
  600TMC3    C3 8943   1.306   3.194  16.294 -0.7356  0.3113  0.8059
  600TMC3    C4 8944   1.507   3.359  16.219  0.4515 -0.2324  0.9079
  600TMC3    C5 8945   1.422   3.398  16.313 -0.7343  0.0023  0.0255
  600TMC3    C6 8946   1.323   3.312  16.360 -0.2356 -0.1869 -0.3441
  600TMC3     C 8947   1.615   3.172  16.102  0.8779 -0.3480 -0.0843
  600TMC3     O 8948   1.599   3.051  16.089 -0.0050  0.6838 -0.0401
  600TMC3     H 8949   1.361   3.071  16.133  1.3089  0.1342 -0.6922
  600TMC3    H1 8950   1.577   3.435  16.186 -0.8738  1.1054  1.1634
  600TMC3    H2 8951   1.260   3.323  16.447 -1.2830  1.4788 -1.3260
  600TMC3    C7 8952   1.456   3.504  16.407 -0.1142  0.0209 -0.2653
  600TMC3    C8 8953   1.184   3.116  16.313  0.2934 -0.5541  0.3387
  600TMC3    O1 8954   1.418   3.488  16.521 -0.4908 -0.0104 -0.1041
  600TMC3    O2 8955   1.134   3.084  16.203  0.3377 -0.3870  0.5024
  601MPD2     C 8956   3.707   1.862   0.625  0.1749  0.4316  0.1624
  601MPD2    C1 8957   3.619   1.782   0.553  0.0925 -0.3669  0.7708
  601MPD2    C2 8958   3.562   1.678   0.621  0.0130 -0.1830  0.2803
  601MPD2    C3 8959   3.570   1.655   0.752  0.2737  0.6363  0.8571
  601MPD2    C4 8960   3.652   1.738   0.827 -0.1655  0.4135 -0.1649
  601MPD2    C5 8961   3.719   1.833   0.759  0.5822  0.1593  0.1294
  601MPD2     H 8962   3.504   1.611   0.559 -1.0490 -0.6679  1.7963
  601MPD2    H1 8963   3.666   1.735   0.935  2.7427  1.7869 -0.4831
  601MPD2    H2 8964   3.769   1.942   0.587 -0.6532  0.7927 -0.4399
  601MPD2    H3 8965   3.784   1.887   0.827 -0.9292 -0.1800  1.8426
  601MPD2     N 8966   3.496   1.545   0.815 -0.3165  0.4684  0.2660
  601MPD2    H5 8967   3.495   1.527   0.915 -3.5415 -1.3508 -0.0727
  601MPD2    N1 8968   3.597   1.797   0.415 -0.4719  0.7151 -0.0539
  601MPD2    H7 8969   3.512   1.750   0.385 -0.0673 -0.5810  0.8323
  602TMC3    C1 8970   3.629   1.867   0.190  0.0250  0.9536 -0.4142
  602TMC3    C2 8971   3.683   1.962   0.108 -0.3035  0.2199 -0.1189
  602TMC3    C3 8972   3.674   1.943  17.718 -0.5046  0.5369  0.4375
  602TMC3    C4 8973   3.549   1.765   0.149 -0.2326  0.1950 -0.8962
  602TMC3    C5 8974   3.528   1.760   0.013  0.2361  0.6682 -0.0512
  602TMC3    C6 8975   3.598   1.839  17.667 -0.5186  0.0068 -0.0147
  602TMC3     C 8976   3.671   1.877   0.328 -0.2547  0.2900  0.7874
  602TMC3     O 8977   3.781   1.931   0.345 -0.6340 -0.0253 -0.0730
  602TMC3     H 8978   3.754   2.037   0.141 -0.4078  0.9059 -1.4324
  602TMC3    H1 8979   3.515   1.681   0.208  0.0633 -0.8820 -2.2716
  602TMC3    H2 8980   3.595   1.820  17.560  2.6519 -2.5409  0.3360
  602TMC3    C7 8981   3.422   1.677  17.711 -0.2272  0.1664 -0.1764
  602TMC3    C8 8982   3.723   2.044  17.635 -0.6708 -0.2878  0.0831
  602TMC3    O1 8983   3.397   1.582   0.034 -0.2567 -0.1054  0.0267
  602TMC3    O2 8984   3.806   2.127  17.671  0.3630  0.7066 -0.3606
  603TMC3    C1 8985   1.874   2.179  11.275 -0.3714 -0.2795  0.0098
  603TMC3    C2 8986   1.893   2.215  11.407  0.5336  0.2102  0.4865
  603TMC3    C3 8987   1.936   2.345  11.425  1.0248  0.4044 -0.3501
  603TMC3    C4 8988   1.912   2.260  11.166 -0.0995 -0.4313 -0.9235
  603TMC3    C5 8989   1.969   2.383  11.190 -0.0865  0.2104 -0.3247
  603TMC3    C6 8990   1.983   2.421  11.324  0.2698  0.4836  0.2064
  603TMC3     C 8991   1.844   2.035  11.255  0.2545  0.2309  1.0775
  603TMC3     O 8992   1.888   1.979  11.158  1.0015 -0.8609  0.4278
  603TMC3     H 8993   1.860   2.154  11.491  1.1633  1.8813  1.9455
  603TMC3    H1 8994   1.896   2.228  11.063 -2.8752  1.6943 -1.1464
  603TMC3    H2 8995   1.985   2.528  11.342 -0.2342  0.5189  0.0384
  603TMC3    C7 8996   1.982   2.480  11.077  0.2568  0.1549  0.3858
  603TMC3    C8 8997   1.960   2.379  11.566 -0.5745 -0.7416  0.0882
  603TMC3    O1 8998   2.075   2.563  11.086 -0.4239  0.8920  0.7945
  603TMC3    O2 8999   1.896   2.311  11.645 -0.0098  0.2850 -0.0334
  604MPD2     C 9000   2.686   0.611  16.496  0.2474 -0.2963 -0.0405
  604MPD2    C1 9001   2.591   0.561  16.411  0.3068 -0.3966  0.0498
  604MPD2    C2 9002   2.633   0.526  16.283  0.0178  0.6127  0.2276
  604MPD2    C3 9003   2.762   0.549  16.241 -0.1990 -0.2362 -0.1163
  604MPD2    C4 9004   2.852   0.595  16.331  0.2114  0.0185 -0.2148
  604MPD2    C5 9005   2.815   0.626  16.461  0.3148  0.1274 -0.0388
  604MPD2     H 9006   2.564   0.477  16.215  0.1756  1.3564 -0.4604
  604MPD2    H1 9007   2.956   0.596  16.301  0.3191  2.5536  0.2261
  604MPD2    H2 9008   2.656   0.649  16.593  0.0697  1.2627 -0.7091
  604MPD2    H3 9009   2.883   0.681  16.525  2.4972 -0.3316 -1.9522
  604MPD2     N 9010   2.799   0.518  16.113  0.0358  0.2602 -0.8353
  604MPD2    H5 9011   2.726   0.470  16.061  0.0104  0.6785 -1.1901
  604MPD2    N1 9012   2.456   0.577  16.460 -0.2384 -0.0654 -0.4464
  604MPD2    H7 9013   2.441   0.613  16.554  0.4309  0.5462 -0.5749
  605TMC3    C1 9014   2.231   0.559  16.473  0.0392 -0.4527 -0.1079
  605TMC3    C2 9015   2.255   0.549  16.611  0.4901  0.6201 -0.5132
  605TMC3    C3 9016   2.220   0.649  16.695  0.0007 -0.3294 -0.8045
  605TMC3    C4 9017   2.154   0.662  16.430 -0.3841  0.3521  0.2572
  605TMC3    C5 9018   2.103   0.756  16.520 -0.9598  0.7509  0.3456
  605TMC3    C6 9019   2.137   0.753  16.654  0.0138  0.3521 -0.4703
  605TMC3     C 9020   2.345   0.530  16.394  0.8172  0.2810 -0.0314
  605TMC3     O 9021   2.329   0.503  16.276 -0.3600  0.2403 -0.6657
  605TMC3     H 9022   2.314   0.470  16.656 -0.2944  0.0171 -0.5365
  605TMC3    H1 9023   2.141   0.673  16.323  1.1145  0.8515  0.1346
  605TMC3    H2 9024   2.103   0.827  16.725 -0.4974 -1.1672  0.8711
  605TMC3    C7 9025   2.027   0.872  16.478 -0.3999  0.0645 -0.1898
  605TMC3    C8 9026   2.332   0.687  16.760 -0.2495  1.2898 -0.6664
  605TMC3    O1 9027   1.996   0.946  16.566  0.1924 -0.0071 -0.0378
  605TMC3    O2 9028   2.438   0.633  16.729 -0.0077 -0.0377  0.5474
  606TMC3    C1 9029   3.068   0.097   0.285 -0.1014 -0.9664  0.4033
  606TMC3    C2 9030   3.135   0.186   0.362  0.5219 -0.8390 -0.6279
  606TMC3    C3 9031   3.268   0.196   0.339 -0.0984 -0.2011  0.1865
  606TMC3    C4 9032   3.119   0.011   0.186  0.7091 -0.4391  0.4553
  606TMC3    C5 9033   3.254   0.030   0.179  0.0384  0.1611  0.2394
  606TMC3    C6 9034   3.326   0.121   0.244  0.9438  0.3801 -0.8735
  606TMC3     C 9035   2.934   0.052   0.334 -0.6944  0.1267 -0.3086
  606TMC3     O 9036   2.860   4.728   0.253 -0.3074  0.2665  0.0885
  606TMC3     H 9037   3.088   0.238   0.445  1.0737 -0.5210 -0.5111
  606TMC3    H1 9038   3.061   4.676   0.129  0.3994  0.4942 -0.4059
  606TMC3    H2 9039   3.426   0.139   0.205  1.7817  0.1934  1.2073
  606TMC3    C7 9040   3.338   4.669   0.109  0.7269  0.8471 -0.3578
  606TMC3    C8 9041   3.351   0.266   0.443  0.9253 -0.2875  0.0288
  606TMC3    O1 9042   3.439   4.702   0.047  0.2301 -0.3158  0.0445
  606TMC3    O2 9043   3.301   0.359   0.503  0.0374  0.0501  0.0019
  607MPD2     C 9044   1.098   2.435  12.186 -0.4491 -0.1507 -0.3488
  607MPD2    C1 9045   1.181   2.537  12.226  0.2921 -0.9083 -0.0162
  607MPD2    C2 9046   1.163   2.588  12.351 -0.4628  0.7474  0.3931
  607MPD2    C3 9047   1.078   2.533  12.440  0.7239  0.2975 -0.0910
  607MPD2    C4 9048   0.991   2.438  12.394  0.7241  0.2098  0.4133
  607MPD2    C5 9049   1.005   2.389  12.270  0.0925  0.2600  0.6630
  607MPD2     H 9050   1.234   2.665  12.377  1.8516 -1.2846  0.0895
  607MPD2    H1 9051   0.910   2.404  12.458  0.7947 -0.1805  0.2913
  607MPD2    H2 9052   1.100   2.390  12.087  0.1393 -0.1048 -0.3577
  607MPD2    H3 9053   0.930   2.317  12.241  1.2962 -0.4208 -0.6795
  607MPD2     N 9054   1.082   2.589  12.568 -0.2712  0.0970 -0.4955
  607MPD2    H5 9055   1.130   2.678  12.579 -0.1479 -0.3996  3.2124
  607MPD2    N1 9056   1.290   2.586  12.155  0.0843  0.2978  0.7771
  607MPD2    H7 9057   1.347   2.656  12.200  0.6973 -0.2904  0.9083
  608TMC3    C1 9058   1.488   2.573  12.033  0.1051 -0.1397 -0.7732
  608TMC3    C2 9059   1.556   2.590  12.147  0.1266  0.2852  0.1076
  608TMC3    C3 9060   1.688   2.641  12.136 -0.4502 -0.3063 -1.3251
  608TMC3    C4 9061   1.530   2.593  11.907  0.2370  0.5777 -0.0690
  608TMC3    C5 9062   1.664   2.629  11.903 -0.3204  0.7287  0.0531
  608TMC3    C6 9063   1.740   2.660  12.011  0.5029  0.1744 -0.2524
  608TMC3     C 9064   1.348   2.539  12.040  0.2095  0.0909  0.6412
  608TMC3     O 9065   1.302   2.459  11.965  0.2754 -0.2478 -0.6365
  608TMC3     H 9066   1.518   2.541  12.235 -0.9039 -0.5946 -0.8286
  608TMC3    H1 9067   1.459   2.572  11.828 -1.4016  3.0135  0.7681
  608TMC3    H2 9068   1.836   2.708  11.999 -0.9597  2.7661 -1.7369
  608TMC3    C7 9069   1.698   2.683  11.772 -0.1859 -0.1722 -0.4943
  608TMC3    C8 9070   1.730   2.734  12.242 -0.2223  0.2154 -0.1863
  608TMC3    O1 9071   1.624   2.662  11.675 -0.6908  0.0253 -0.1365
  608TMC3    O2 9072   1.844   2.780  12.236 -0.0587  0.1252  0.3897
  609TMC3    C1 9073   4.465   1.903   9.586  0.2230 -0.1481  0.2803
  609TMC3    C2 9074   4.557   1.959   9.662 -0.4418 -0.6286 -0.1297
  609TMC3    C3 9075   4.677   1.893   9.669 -0.3759 -0.3968 -0.5215
  609TMC3    C4 9076   4.482   1.781   9.519  0.4778 -0.6868  0.6255
  609TMC3    C5 9077   4.601   1.721   9.529  0.1068 -0.6958 -0.2084
  609TMC3    C6 9078   4.697   1.776   9.612  0.0474  0.1050  0.5743
  609TMC3     C 9079   4.325   1.950   9.588 -0.1784 -0.5111 -0.3823
  609TMC3     O 9080   4.239   1.866   9.561 -0.1185  0.3917  0.1320
  609TMC3     H 9081   4.548   2.052   9.716 -0.4052 -1.7242  1.7474
  609TMC3    H1 9082   4.398   1.734   9.469  0.3237 -0.7435  0.9316
  609TMC3    H2 9083   0.062   1.740   9.605 -0.2931 -1.2186  2.2690
  609TMC3    C7 9084   4.622   1.576   9.517  0.0191  0.4778 -0.2387
  609TMC3    C8 9085   0.042   1.956   9.746 -0.1025 -0.7362  1.0233
  609TMC3    O1 9086   4.730   1.531   9.556  0.6942  0.5082  0.8601
  609TMC3    O2 9087   0.025   2.078   9.764 -1.1258  0.1640 -0.2144
  610TMC3    C1 9088   1.953   2.588  12.877 -0.1699  0.1553  0.3887
  610TMC3    C2 9089   2.003   2.707  12.818  0.6993  0.1611  0.1216
  610TMC3    C3 9090   2.131   2.699  12.764 -0.1275 -0.3215 -0.5834
  610TMC3    C4 9091   2.037   2.486  12.899  0.0448  0.5421  0.3878
  610TMC3    C5 9092   2.164   2.481  12.862 -0.2040  0.6418 -0.0153
  610TMC3    C6 9093   2.211   2.587  12.788  0.5661 -0.5395  0.7045
  610TMC3     C 9094   1.868   2.615  12.993  0.1470  0.4153  0.4901
  610TMC3     O 9095   1.873   2.533  13.089  0.2913 -0.1740  0.0974
  610TMC3     H 9096   1.926   2.775  12.784  2.0463  0.6107 -1.9822
  610TMC3    H1 9097   1.991   2.395  12.935  0.5034 -1.4588 -4.1091
  610TMC3    H2 9098   2.310   2.579  12.744  0.0231  0.4383 -0.6890
  610TMC3    C7 9099   2.241   2.366  12.906  0.1801 -0.4900  0.4618
  610TMC3    C8 9100   2.194   2.802  12.689 -0.2036  0.4024  0.9072
  610TMC3    O1 9101   2.182   2.258  12.918 -0.1243  0.1615 -0.5461
  610TMC3    O2 9102   2.290   2.777  12.619 -0.6773 -0.2863  0.1891
  611MPD2     C 9103   0.608   2.465  10.630 -0.0376 -0.6227 -0.3630
  611MPD2    C1 9104   0.716   2.377  10.615  0.0634  0.6954 -0.0349
  611MPD2    C2 9105   0.833   2.418  10.569  0.0214  0.3250  1.1749
  611MPD2    C3 9106   0.845   2.552  10.550 -0.0920  0.0647 -0.4770
  611MPD2    C4 9107   0.738   2.642  10.567 -0.0299 -0.8574  0.5357
  611MPD2    C5 9108   0.617   2.595  10.611  0.4820  0.7481 -0.1511
  611MPD2     H 9109   0.914   2.350  10.544  0.3866  1.2109 -0.0098
  611MPD2    H1 9110   0.761   2.748  10.557  0.7752 -1.2391 -1.7174
  611MPD2    H2 9111   0.511   2.434  10.667 -0.2863  1.3451  0.5965
  611MPD2    H3 9112   0.533   2.661  10.628 -0.1609 -0.6201  2.0376
  611MPD2     N 9113   0.969   2.618  10.516  0.6201  0.4343  0.5183
  611MPD2    H5 9114   0.964   2.718  10.498  1.0647  0.5670  1.1252
  611MPD2    N1 9115   0.691   2.235  10.643  0.2063 -0.7571 -0.0925
  611MPD2    H7 9116   0.596   2.208  10.667 -0.8697  0.7777 -2.6131
  612TMC3    C1 9117   1.196   2.643  10.465  0.5904  0.5318 -0.1368
  612TMC3    C2 9118   1.318   2.636  10.528 -0.1277  0.2696 -0.1401
  612TMC3    C3 9119   1.416   2.716  10.478  0.6704 -0.4125 -1.0116
  612TMC3    C4 9120   1.173   2.721  10.357 -0.6441  0.1663 -0.0626
  612TMC3    C5 9121   1.274   2.802  10.308  0.9653  0.3627  0.0225
  612TMC3    C6 9122   1.402   2.801  10.366 -0.0200 -0.1346 -0.2033
  612TMC3     C 9123   1.090   2.555  10.516  0.7542 -0.7501  0.2321
  612TMC3     O 9124   1.120   2.450  10.570 -0.3668  0.4294  0.0474
  612TMC3     H 9125   1.342   2.584  10.619 -0.8706 -0.5286 -0.3990
  612TMC3    H1 9126   1.080   2.711  10.303 -1.0066 -0.4165  0.6664
  612TMC3    H2 9127   1.493   2.837  10.318 -0.4585 -0.3629 -1.1954
  612TMC3    C7 9128   1.248   2.891  10.200 -0.0289  0.6761 -0.2166
  612TMC3    C8 9129   1.547   2.729  10.540 -0.1349 -0.4010  0.2081
  612TMC3    O1 9130   1.130   2.892  10.172 -0.0648 -0.4530 -0.3661
  612TMC3    O2 9131   1.609   2.822  10.498  0.3256  0.8049 -0.3291
  613MPD2     C 9132   0.585   4.417  17.380  0.4213 -0.2783  0.1889
  613MPD2    C1 9133   0.491   4.469  17.303  0.5937 -0.0383  0.3146
  613MPD2    C2 9134   0.374   4.402  17.277  0.1482  0.2003 -1.2297
  613MPD2    C3 9135   0.364   4.270  17.324  1.0895  0.0452 -0.3332
  613MPD2    C4 9136   0.455   4.223  17.416  0.2241 -0.1864  0.0934
  613MPD2    C5 9137   0.567   4.298  17.440  0.6599  0.4460 -0.3423
  613MPD2     H 9138   0.303   4.448  17.209 -1.4583  1.0043  0.9808
  613MPD2    H1 9139   0.444   4.122  17.455 -0.3656 -0.8982 -1.9309
  613MPD2    H2 9140   0.668   4.475  17.418 -0.3406  0.7313  0.3265
  613MPD2    H3 9141   0.640   4.256  17.507 -0.2364  1.2140  1.1127
  613MPD2     N 9142   0.260   4.178  17.280 -0.0885 -0.2275 -0.3464
  613MPD2    H5 9143   0.263   4.084  17.319  0.9317  0.2676  0.7482
  613MPD2    N1 9144   0.509   4.594  17.245 -0.1583 -0.0667 -0.4285
  613MPD2    H7 9145   0.608   4.618  17.249  0.2111 -2.1460  3.1937
  614TMC3    C1 9146   0.464   4.702  17.040 -0.3270 -0.2570 -0.2340
  614TMC3    C2 9147   0.515   4.592  16.975  0.0850  0.0882 -0.6094
  614TMC3    C3 9148   0.469   4.552  16.850  0.2161 -0.4135 -0.3435
  614TMC3    C4 9149   0.368   0.047  16.978 -0.3416  0.2719 -0.9443
  614TMC3    C5 9150   0.335   0.013  16.851  0.1693 -0.1728  0.4367
  614TMC3    C6 9151   0.384   4.637  16.782  0.1754 -0.5025 -0.1207
  614TMC3     C 9152   0.420   4.670  17.178  0.2928  0.2985 -0.6747
  614TMC3     O 9153   0.299   4.683  17.180 -0.0035 -0.0042  0.0347
  614TMC3     H 9154   0.578   4.519  17.024  0.9930  2.1849  1.3461
  614TMC3    H1 9155   0.343   0.137  17.031  0.9789  0.1758 -0.1436
  614TMC3    H2 9156   0.338   4.602  16.690 -0.9210  1.9955 -0.5072
  614TMC3    C7 9157   0.228   0.092  16.790  0.2952  0.4242  0.2927
  614TMC3    C8 9158   0.472   4.414  16.818  0.1675 -0.1183 -0.2438
  614TMC3    O1 9159   0.169   0.158  16.873  0.2708  0.0202 -0.1552
  614TMC3    O2 9160   0.489   4.344  16.915  0.0792  0.6379  0.5574
  615MPD2     C 9161   3.948   1.177  16.458 -0.0473 -0.1189  0.2065
  615MPD2    C1 9162   4.057   1.228  16.382  0.8373  0.0119  0.5032
  615MPD2    C2 9163   4.067   1.204  16.246 -0.1848  0.1034 -0.4610
  615MPD2    C3 9164   3.971   1.126  16.184 -0.1056  0.2448 -0.0661
  615MPD2    C4 9165   3.864   1.074  16.260 -0.4585  0.0217 -0.0808
  615MPD2    C5 9166   3.854   1.104  16.397  0.1123  0.1704 -0.3887
  615MPD2     H 9167   4.149   1.243  16.187 -1.6506  0.3601 -2.3287
  615MPD2    H1 9168   3.793   1.007  16.214 -0.0751 -0.5743  0.1923
  615MPD2    H2 9169   3.939   1.206  16.562  2.2760  0.1806  0.3148
  615MPD2    H3 9170   3.780   1.058  16.462  1.3762 -0.1933  0.7818
  615MPD2     N 9171   4.002   1.102  16.051  0.0307 -0.1692 -0.3492
  615MPD2    H5 9172   4.085   1.152  16.020 -0.2584  1.0148  0.8019
  615MPD2    N1 9173   4.169   1.297  16.437  0.1142 -0.0408  0.8879
  615MPD2    H7 9174   4.243   1.330  16.375 -0.1970 -2.5905 -0.8642
  616TMC3    C1 9175   4.326   1.371  16.593  0.4518 -0.4143  0.3064
  616TMC3    C2 9176   4.393   1.447  16.500 -0.6506 -0.1956 -0.4043
  616TMC3    C3 9177   4.525   1.473  16.524  0.0723  0.1068  0.0822
  616TMC3    C4 9178   4.390   1.326  16.709  0.6914  0.0943 -0.7279
  616TMC3    C5 9179   4.517   1.352  16.724  0.2558 -0.2711 -0.3256
  616TMC3    C6 9180   4.592   1.411  16.627 -0.0817 -0.2823 -0.0592
  616TMC3     C 9181   4.192   1.328  16.571 -0.3926  0.4251  0.3302
  616TMC3     O 9182   4.112   1.314  16.664  0.3911 -0.3463 -0.4855
  616TMC3     H 9183   4.337   1.497  16.422 -0.0592  1.3071  0.1305
  616TMC3    H1 9184   4.335   1.257  16.771  0.1278 -3.2110 -4.9571
  616TMC3    H2 9185   4.700   1.408  16.637  0.0197  1.1086 -0.9123
  616TMC3    C7 9186   4.596   1.291  16.825 -0.6906  0.0164 -0.2485
  616TMC3    C8 9187   4.587   1.580  16.460  0.6179 -0.2358  0.0642
  616TMC3    O1 9188   4.717   1.273  16.810  0.0859  0.1761  0.5016
  616TMC3    O2 9189   4.516   1.652  16.391 -0.3403 -0.0588 -0.4529
  617MPD2     C 9190   2.554   4.237  13.943 -0.6608 -0.1403 -0.4517
  617MPD2    C1 9191   2.558   4.267  14.075  0.4920 -0.9819  0.1852
  617MPD2    C2 9192   2.448   4.237  14.156  0.5385 -0.7658 -0.1894
  617MPD2    C3 9193   2.346   4.169  14.098  0.5274 -0.3836  1.1420
  617MPD2    C4 9194   2.346   4.140  13.965  0.0419 -0.4103 -0.2858
  617MPD2    C5 9195   2.445   4.179  13.886  0.5385  0.1977  0.2684
  617MPD2     H 9196   2.455   4.253  14.263 -0.3769 -3.0341  0.2054
  617MPD2    H1 9197   2.270   4.076  13.922  0.5568 -2.9078  2.5074
  617MPD2    H2 9198   2.641   4.247  13.880 -1.3431 -0.2759 -1.4186
  617MPD2    H3 9199   2.445   4.149  13.782  0.6799 -1.7729  0.8258
  617MPD2     N 9200   2.231   4.119  14.169 -0.0934 -0.0711  0.3149
  617MPD2    H5 9201   2.157   4.076  14.114 -1.6545  1.6045  1.0699
  617MPD2    N1 9202   2.681   4.321  14.115 -0.7431  0.0965  0.3357
  617MPD2    H7 9203   2.742   4.348  14.038 -2.1760  1.0381 -0.4559
  618TMC3    C1 9204   2.827   4.437  14.237 -0.2077 -0.6258 -0.2130
  618TMC3    C2 9205   2.930   4.386  14.310  0.3337  0.3903  0.1264
  618TMC3    C3 9206   3.061   4.388  14.255  0.1190  0.1701  0.2759
  618TMC3    C4 9207   2.850   4.492  14.115 -0.1934  0.7209 -1.2867
  618TMC3    C5 9208   2.980   4.494  14.062 -0.7577  0.5325 -0.3670
  618TMC3    C6 9209   3.088   4.447  14.129 -0.2593  0.1973  0.0096
  618TMC3     C 9210   2.705   4.367  14.245  0.1554  0.1651  0.2038
  618TMC3     O 9211   2.671   4.328  14.356 -0.0055  0.5450 -0.0423
  618TMC3     H 9212   2.916   4.331  14.402  1.8033  1.1823  0.8178
  618TMC3    H1 9213   2.772   4.535  14.055 -1.1432 -2.4070 -2.2853
  618TMC3    H2 9214   3.183   4.441  14.077 -1.1132  0.1815 -1.5548
  618TMC3    C7 9215   2.967   4.445  13.926 -0.0735  0.8334  0.2167
  618TMC3    C8 9216   3.158   4.331  14.348  0.1574 -0.0370 -0.0497
  618TMC3    O1 9217   2.862   4.385  13.906 -0.3560  0.2933 -0.3943
  618TMC3    O2 9218   3.135   4.357  14.463  0.4882  0.4681  0.3638
  619MPD2     C 9219   3.893   0.171  13.930 -0.1954 -0.3764 -0.3707
  619MPD2    C1 9220   3.878   0.265  13.839  0.1779  0.1093  0.3525
  619MPD2    C2 9221   3.747   0.310  13.805 -0.0738  0.3329 -0.0586
  619MPD2    C3 9222   3.641   0.269  13.885 -0.2207 -0.1944  0.8070
  619MPD2    C4 9223   3.658   0.174  13.979  0.4337  0.2714 -0.3620
  619MPD2    C5 9224   3.784   0.122  14.001  0.0574  0.5887  0.3969
  619MPD2     H 9225   3.737   0.381  13.724 -3.2039 -0.1995 -0.1419
  619MPD2    H1 9226   3.572   0.127  14.024 -0.8919  1.1975 -1.8883
  619MPD2    H2 9227   3.991   0.130  13.950 -0.0120 -0.5027 -1.5099
  619MPD2    H3 9228   3.804   0.040  14.069  0.7228 -0.1063 -0.6398
  619MPD2     N 9229   3.508   0.304  13.861 -1.0374 -0.0264  0.4916
  619MPD2    H5 9230   3.432   0.264  13.915 -0.9310  0.1109  0.7419
  619MPD2    N1 9231   3.988   0.302  13.756  0.3294  0.6175 -0.3526
  619MPD2    H7 9232   3.965   0.358  13.674  1.0641  0.3743 -0.7219
  620TMC3    C1 9233   4.216   0.346  13.705 -1.2471 -0.0909  0.5953
  620TMC3    C2 9234   4.183   0.374  13.571  1.1204  0.6211  0.2816
  620TMC3    C3 9235   4.249   0.470  13.498 -0.0920  0.6114 -0.0413
  620TMC3    C4 9236   4.314   0.425  13.770 -0.5271  0.1425  0.3026
  620TMC3    C5 9237   4.376   0.524  13.696 -0.2181  0.4405 -1.0308
  620TMC3    C6 9238   4.345   0.544  13.565  0.0073 -0.6083 -0.0839
  620TMC3     C 9239   4.114   0.299  13.798 -0.6805  0.8959 -0.4873
  620TMC3     O 9240   4.151   0.273  13.912  0.5702  0.3789 -0.1730
  620TMC3     H 9241   4.101   0.317  13.529  3.8642 -1.0679 -2.8711
  620TMC3    H1 9242   4.330   0.413  13.876 -1.2109 -0.1965  0.3682
  620TMC3    H2 9243   4.386   0.627  13.509  2.4229 -1.6492  0.1288
  620TMC3    C7 9244   4.340   0.656  13.751 -0.8386 -0.4499 -0.2013
  620TMC3    C8 9245   4.148   0.543  13.427 -0.4170 -0.2601  0.9298
  620TMC3    O1 9246   4.223   0.648  13.785  0.1500  0.2759  0.2871
  620TMC3    O2 9247   4.123   0.508  13.313  0.2893 -1.3919  0.0613
  621MPD2     C 9248   3.610   0.722  10.315  0.2373 -0.2147  0.5159
  621MPD2    C1 9249   3.661   0.621  10.392  0.2112 -0.0661 -0.0236
  621MPD2    C2 9250   3.780   0.637  10.453 -0.0064  0.0653  0.2856
  621MPD2    C3 9251   3.853   0.754  10.433 -0.9957  0.1431 -0.0183
  621MPD2    C4 9252   3.807   0.852  10.344 -0.1052  0.3447 -0.5360
  621MPD2    C5 9253   3.688   0.830  10.287  0.2079 -0.4710  0.5814
  621MPD2     H 9254   3.815   0.565  10.526  0.2808 -1.2032 -1.0930
  621MPD2    H1 9255   3.865   0.938  10.312  1.4110 -0.9900 -1.3326
  621MPD2    H2 9256   3.522   0.709  10.252  1.4936 -0.7536 -1.1476
  621MPD2    H3 9257   3.665   0.908  10.215 -3.1182 -0.9814  1.0779
  621MPD2     N 9258   3.970   0.784  10.497 -0.6217  0.0735 -0.5678
  621MPD2    H5 9259   4.010   0.875  10.477  0.3988 -0.3770 -0.5878
  621MPD2    N1 9260   3.615   0.488  10.397  0.5388 -1.0532  0.4044
  621MPD2    H7 9261   3.669   0.424  10.454  0.5590 -1.4101 -0.0132
  622TMC3    C1 9262   3.476   0.318  10.362  0.7884  1.0224 -0.3718
  622TMC3    C2 9263   3.346   0.286  10.342  0.3866 -0.5569  0.3179
  622TMC3    C3 9264   3.313   0.195  10.252 -0.2858  0.2273  0.0775
  622TMC3    C4 9265   3.575   0.251  10.295  0.4238  0.3289  0.6123
  622TMC3    C5 9266   3.541   0.162  10.197 -0.4791 -0.0011  0.2138
  622TMC3    C6 9267   3.409   0.124  10.177  0.5543  0.3239 -0.2730
  622TMC3     C 9268   3.484   0.457  10.358 -0.0447  0.3372 -0.3250
  622TMC3     O 9269   3.400   0.519  10.296 -0.1589 -0.5272 -0.0624
  622TMC3     H 9270   3.277   0.351  10.395 -0.5545 -1.2565 -0.0524
  622TMC3    H1 9271   3.680   0.275  10.307  0.5019 -0.4362  1.4581
  622TMC3    H2 9272   3.383   0.063  10.090 -3.0976  1.5826 -0.0573
  622TMC3    C7 9273   3.615   0.169  10.068  0.3249 -0.3916  0.5177
  622TMC3    C8 9274   3.197   0.228  10.164  0.1006  0.2211  1.0294
  622TMC3    O1 9275   3.585   0.089   9.981  0.1271  1.2774  0.1129
  622TMC3    O2 9276   3.170   0.158  10.068 -0.5470  0.1711 -0.0434
  623MPD2     C 9277   2.812   1.269  15.776 -0.2182  0.1621 -0.4597
  623MPD2    C1 9278   2.742   1.167  15.837 -0.2415 -0.0529 -0.6079
  623MPD2    C2 9279   2.786   1.119  15.961  0.1171 -0.2175  0.2974
  623MPD2    C3 9280   2.902   1.162  16.014 -0.0919 -0.5842 -0.8675
  623MPD2    C4 9281   2.976   1.259  15.958 -0.4878 -0.8904  0.2952
  623MPD2    C5 9282   2.932   1.317  15.839  0.1520  0.0220  0.0335
  623MPD2     H 9283   2.722   1.044  16.008 -0.3009 -0.6415 -0.9569
  623MPD2    H1 9284   3.052   1.318  16.009 -1.1991 -0.2360  0.6054
  623MPD2    H2 9285   2.763   1.331  15.702 -2.5915 -1.7140 -0.4564
  623MPD2    H3 9286   2.983   1.407  15.806 -0.1576 -0.1744 -0.9679
  623MPD2     N 9287   2.943   1.108  16.141 -0.2802 -0.1770  0.4065
  623MPD2    H5 9288   2.876   1.039  16.173  0.5509 -1.0560  0.2659
  623MPD2    N1 9289   2.620   1.116  15.785  0.1646 -0.3038  0.6000
  623MPD2    H7 9290   2.574   1.053  15.850 -0.4826 -2.0946 -1.5709
  624TMC3    C1 9291   3.108   1.060  16.573 -0.7396  0.5957 -0.1412
  624TMC3    C2 9292   2.988   1.012  16.617  0.1704 -0.2903  0.3874
  624TMC3    C3 9293   2.885   0.995  16.521  0.6719  1.0118  0.5597
  624TMC3    C4 9294   3.133   1.088  16.439  0.2970  0.2252  0.2947
  624TMC3    C5 9295   3.032   1.061  16.346 -0.0935 -0.6707 -0.3870
  624TMC3    C6 9296   2.904   1.022  16.386 -0.1509  0.2396  0.2436
  624TMC3     C 9297   3.228   1.045  16.651  0.2910  0.0485 -0.1258
  624TMC3     O 9298   3.330   1.108  16.621 -0.1467  0.4416 -0.4776
  624TMC3     H 9299   2.982   0.975  16.719  2.0269 -1.1287  0.1960
  624TMC3    H1 9300   3.232   1.118  16.407 -0.0091  0.5757 -0.3155
  624TMC3    H2 9301   2.819   1.026  16.319 -0.3723  2.5076  0.6541
  624TMC3    C7 9302   3.054   1.119  16.214 -0.5865 -0.3345 -0.1225
  624TMC3    C8 9303   2.755   0.980  16.573  0.2716  0.3690  0.1849
  624TMC3    O1 9304   3.158   1.181  16.187 -0.5706  0.0600 -0.5734
  624TMC3    O2 9305   2.669   0.943  16.493 -1.0951  0.5825  0.0079
  625MPD2     C 9306   3.418   2.218   0.888  0.3338 -0.4348 -0.5628
  625MPD2    C1 9307   3.460   2.346   0.923 -0.4319  0.1380 -0.1925
  625MPD2    C2 9308   3.588   2.370   0.974  0.2306  0.1239 -0.0517
  625MPD2    C3 9309   3.679   2.272   0.976 -0.3798  0.4209  0.8508
  625MPD2    C4 9310   3.634   2.149   0.948 -0.3212  0.3008  0.1940
  625MPD2    C5 9311   3.513   2.122   0.893 -0.2750  0.5435 -0.4283
  625MPD2     H 9312   3.619   2.470   1.002  1.5046 -0.0487 -0.8254
  625MPD2    H1 9313   3.701   2.064   0.957 -1.4120 -0.6483 -0.6653
  625MPD2    H2 9314   3.319   2.192   0.850  0.6074 -2.4107  0.0525
  625MPD2    H3 9315   3.483   2.018   0.890  0.0944  0.3136  3.5001
  625MPD2     N 9316   3.811   2.304   0.998  0.3716 -0.4793  0.0031
  625MPD2    H5 9317   3.827   2.402   1.015 -0.1520  0.0785 -2.6206
  625MPD2    N1 9318   3.381   2.460   0.899 -0.3094  0.3372 -0.1604
  625MPD2    H7 9319   3.422   2.551   0.919  2.7508 -1.2724  0.9922
  626TMC3    C1 9320   3.183   2.582   0.852 -0.1538 -0.2962  0.8532
  626TMC3    C2 9321   3.097   2.604   0.746  0.2604  0.6155 -0.6153
  626TMC3    C3 9322   3.056   2.735   0.726 -0.3244 -0.0352 -0.7180
  626TMC3    C4 9323   3.209   2.674   0.947 -0.0701  0.0964 -0.0802
  626TMC3    C5 9324   3.149   2.798   0.936 -0.3023  0.3825 -0.3996
  626TMC3    C6 9325   3.089   2.834   0.814  0.3097  0.1787  0.2968
  626TMC3     C 9326   3.250   2.460   0.856 -0.4882 -1.0219  0.0200
  626TMC3     O 9327   3.180   2.366   0.823 -0.0894  1.1572 -0.0125
  626TMC3     H 9328   3.110   2.541   0.658 -0.2074 -0.0439 -0.2081
  626TMC3    H1 9329   3.256   2.640   1.039 -1.2627 -1.5458 -0.0667
  626TMC3    H2 9330   3.065   2.937   0.790 -2.0649 -0.2090  1.0306
  626TMC3    C7 9331   3.215   2.911   1.010  0.2077 -0.1783  0.4122
  626TMC3    C8 9332   2.995   2.782   0.600  0.0741 -0.7222 -0.2926
  626TMC3    O1 9333   3.321   2.895   1.062  0.2272  0.3028  0.6970
  626TMC3    O2 9334   3.017   2.901   0.573 -0.0086 -0.3658 -0.2688
  627MPD2     C 9335   1.964   2.801  14.537  0.5614  1.1866 -0.6974
  627MPD2    C1 9336   2.074   2.734  14.572 -0.0199  0.3743 -0.6276
  627MPD2    C2 9337   2.107   2.613  14.508  0.4664  0.3615  0.6525
  627MPD2    C3 9338   2.010   2.549  14.430  0.2095 -0.2742  0.3535
  627MPD2    C4 9339   1.895   2.618  14.401  0.0586 -0.3519 -0.9304
  627MPD2    C5 9340   1.874   2.743  14.455 -0.3746  0.5183  0.1300
  627MPD2     H 9341   2.201   2.560  14.525  0.2030  0.1029  1.3355
  627MPD2    H1 9342   1.815   2.585  14.337  1.5803 -2.7156 -1.6111
  627MPD2    H2 9343   1.951   2.906  14.559 -0.3536  0.7577  0.8819
  627MPD2    H3 9344   1.787   2.794  14.416 -1.9931 -0.6534  2.1712
  627MPD2     N 9345   2.031   2.418  14.383 -0.2291 -0.1842  0.2070
  627MPD2    H5 9346   2.122   2.378  14.404 -0.5744 -1.0647  0.0238
  627MPD2    N1 9347   2.161   2.797  14.664  0.1915  0.0439  0.5489
  627MPD2    H7 9348   2.257   2.769  14.684  0.4616 -1.4589 -2.9003
  628TMC3    C1 9349   2.223   2.961  14.822  0.0205 -0.2105  0.0138
  628TMC3    C2 9350   2.326   2.880  14.873 -0.8320  0.2510  0.3798
  628TMC3    C3 9351   2.436   2.939  14.926 -0.2310 -0.4160 -0.2086
  628TMC3    C4 9352   2.226   3.099  14.829  0.0807  0.1991 -1.0338
  628TMC3    C5 9353   2.337   3.159  14.876  0.9743 -0.1952 -0.5645
  628TMC3    C6 9354   2.434   3.077  14.929 -0.3021  0.2314 -1.1836
  628TMC3     C 9355   2.119   2.912  14.733 -0.6119 -0.1606  0.0080
  628TMC3     O 9356   2.011   2.969  14.750 -0.6233 -0.2528 -0.6823
  628TMC3     H 9357   2.328   2.772  14.862 -1.4361  0.4374 -1.6299
  628TMC3    H1 9358   2.143   3.161  14.797 -2.0938 -1.5292  1.3614
  628TMC3    H2 9359   2.531   3.126  14.929 -0.4766  0.5896  1.0070
  628TMC3    C7 9360   2.319   3.283  14.942 -0.2566 -0.0353 -0.0294
  628TMC3    C8 9361   2.559   2.868  14.948  0.2494 -0.2920 -0.0906
  628TMC3    O1 9362   2.388   3.297  15.040  0.7835 -0.1694  0.0853
  628TMC3    O2 9363   2.665   2.931  14.935 -0.1239  0.1868  0.3955
  629MPD2     C 9364   0.229   1.938  16.437 -0.2006 -0.5655  0.0802
  629MPD2    C1 9365   0.288   1.816  16.456  0.2112 -0.3812 -0.1484
  629MPD2    C2 9366   0.199   1.708  16.471  0.4204 -0.4230  0.8733
  629MPD2    C3 9367   0.061   1.714  16.457  0.1205 -0.3962 -0.4882
  629MPD2    C4 9368   0.008   1.834  16.428 -0.2663 -0.2289 -0.6413
  629MPD2    C5 9369   0.093   1.939  16.414 -0.4221 -0.0001 -0.3662
  629MPD2     H 9370   0.241   1.613  16.504  0.4679 -0.7534 -0.1345
  629MPD2    H1 9371   4.644   1.850  16.394 -0.7963 -0.7109  0.7020
  629MPD2    H2 9372   0.291   2.027  16.433 -0.2435 -0.3674  3.8483
  629MPD2    H3 9373   0.052   2.036  16.388 -0.1460 -0.1795 -1.4685
  629MPD2     N 9374   4.722   1.594  16.481 -0.3528 -0.0655  0.4256
  629MPD2    H5 9375   0.036   1.514  16.515 -1.6272 -1.8918 -1.9710
  629MPD2    N1 9376   0.426   1.810  16.488 -0.1098 -0.1245 -0.4517
  629MPD2    H7 9377   0.467   1.900  16.467  2.2884 -1.7633 -2.6810
  630TMC3    C1 9378   0.646   1.713  16.541  0.4020  0.1052 -0.2106
  630TMC3    C2 9379   0.708   1.835  16.519 -0.4006 -1.1298  0.2142
  630TMC3    C3 9380   0.837   1.839  16.556 -0.0835  0.2618  0.4864
  630TMC3    C4 9381   0.709   1.601  16.580  0.0422  0.2387 -0.1111
  630TMC3    C5 9382   0.845   1.605  16.606  0.7915 -0.2493 -0.1716
  630TMC3    C6 9383   0.909   1.726  16.595  0.0159  0.7190  0.1441
  630TMC3     C 9384   0.502   1.696  16.529  0.6550 -0.3649 -0.0366
  630TMC3     O 9385   0.461   1.588  16.561 -0.9851 -0.3165  0.2596
  630TMC3     H 9386   0.650   1.923  16.492 -1.1798 -1.4709  0.7806
  630TMC3    H1 9387   0.665   1.509  16.615  1.5351 -0.0220  1.0880
  630TMC3    H2 9388   1.013   1.743  16.621  0.2658  2.1351 -1.7601
  630TMC3    C7 9389   0.895   1.526  16.718  0.1203 -0.1447 -0.2372
  630TMC3    C8 9390   0.907   1.962  16.590  1.1613 -0.0651 -0.7684
  630TMC3    O1 9391   0.967   1.589  16.798  0.3085 -0.4026  0.0915
  630TMC3    O2 9392   0.989   1.960  16.678  0.5768 -0.2951  0.0242
  631MPD2     C 9393   3.594   1.436  15.192  0.0274 -0.5234  0.1118
  631MPD2    C1 9394   3.639   1.513  15.294 -0.6596 -0.7938 -0.2700
  631MPD2    C2 9395   3.703   1.455  15.400 -0.1919  0.1727 -0.0052
  631MPD2    C3 9396   3.720   1.318  15.408  0.1180 -0.1752 -0.2959
  631MPD2    C4 9397   3.647   1.240  15.317 -0.2678  0.2541  0.3663
  631MPD2    C5 9398   3.583   1.300  15.212  0.1879  0.4681 -0.6776
  631MPD2     H 9399   3.752   1.517  15.474  2.4025 -0.2239 -1.3920
  631MPD2    H1 9400   3.639   1.132  15.320  0.4833  0.1814 -0.5395
  631MPD2    H2 9401   3.554   1.475  15.100 -0.7323 -1.0067  0.2330
  631MPD2    H3 9402   3.525   1.237  15.146  0.1462  2.0024 -2.0826
  631MPD2     N 9403   3.815   1.262  15.492 -0.9728  0.6100 -0.5927
  631MPD2    H5 9404   3.859   1.325  15.558 -1.0432  1.4331 -1.3490
  631MPD2    N1 9405   3.612   1.652  15.290 -0.1539 -0.0470 -0.3341
  631MPD2    H7 9406   3.579   1.687  15.201 -0.2914 -0.7082 -0.5440
  632TMC3    C1 9407   3.539   1.853  15.363 -0.3457  0.5063  0.7925
  632TMC3    C2 9408   3.442   1.909  15.449 -0.3327  0.2664 -0.0275
  632TMC3    C3 9409   3.362   2.007  15.398 -0.3349  0.4629 -0.5832
  632TMC3    C4 9410   3.564   1.905  15.235 -0.0679 -0.7030  0.8466
  632TMC3    C5 9411   3.485   2.011  15.197  0.2925 -0.8282  0.3746
  632TMC3    C6 9412   3.382   2.059  15.272  0.0197  0.4085  0.4186
  632TMC3     C 9413   3.605   1.731  15.399  0.3184  0.0205  0.3262
  632TMC3     O 9414   3.603   1.699  15.519 -0.7171 -0.4998 -0.5229
  632TMC3     H 9415   3.434   1.856  15.544 -0.7272  0.9531  0.3214
  632TMC3    H1 9416   3.657   1.878  15.188 -0.1257 -1.8445  1.3883
  632TMC3    H2 9417   3.314   2.142  15.255  0.4701  0.7248  0.1736
  632TMC3    C7 9418   3.521   2.082  15.076  0.2588 -0.0023  0.0536
  632TMC3    C8 9419   3.230   2.030  15.447 -1.3070 -0.1379  0.4043
  632TMC3    O1 9420   3.465   2.192  15.056 -0.4897 -0.1913  0.4700
  632TMC3    O2 9421   3.143   2.019  15.361 -0.3164  0.2424 -0.1984
  633MPD2     C 9422   2.936   4.438   0.077  0.5510 -0.5063 -0.3056
  633MPD2    C1 9423   3.001   4.352  17.740 -0.0702  0.4937 -0.0413
  633MPD2    C2 9424   2.998   4.216   0.025 -0.1594  0.5192 -0.0788
  633MPD2    C3 9425   2.952   4.173   0.146 -0.2087 -0.1246  0.0342
  633MPD2    C4 9426   2.904   4.274   0.231 -0.2006 -0.8452 -0.2924
  633MPD2    C5 9427   2.894   4.403   0.197 -0.3559  0.1222 -0.2642
  633MPD2     H 9428   3.040   4.143  17.702  0.8625  1.7367 -0.7525
  633MPD2    H1 9429   2.869   4.248   0.330 -0.5036 -0.2635 -0.2437
  633MPD2    H2 9430   2.924   4.540   0.041  1.8304  0.5394  2.1366
  633MPD2    H3 9431   2.841   4.480   0.252 -0.8558 -0.9517  0.7589
  633MPD2     N 9432   2.964   4.039   0.188 -0.2709 -0.0720 -0.2862
  633MPD2    H5 9433   2.962   4.018   0.288 -0.8593  0.4432 -0.1902
  633MPD2    N1 9434   3.064   4.388  17.621  0.1757  0.3076 -0.2961
  633MPD2    H7 9435   3.108   4.313  17.568  0.0995 -0.4780  0.7542
  634TMC3    C1 9436   3.159   4.521  17.442 -0.2535  0.4231 -0.1653
  634TMC3    C2 9437   3.254   4.425  17.419 -0.0698 -0.0682 -0.2182
  634TMC3    C3 9438   3.315   4.419  17.295  0.2057 -0.1042  0.2631
  634TMC3    C4 9439   3.122   4.615  17.345  0.3308  0.6641  0.2456
  634TMC3    C5 9440   3.184   4.602  17.224  0.3138 -0.8453  0.6431
  634TMC3    C6 9441   3.285   4.508  17.193 -0.9003  0.0751 -0.5595
  634TMC3     C 9442   3.070   4.514  17.562  0.5155  0.5505  0.0100
  634TMC3     O 9443   2.995   4.603  17.588  0.0330 -0.1784  0.0214
  634TMC3     H 9444   3.290   4.361  17.498  1.8016  1.6257  0.2787
  634TMC3    H1 9445   3.050   4.688  17.379  0.4009  1.0909 -0.5187
  634TMC3    H2 9446   3.331   4.516  17.095 -0.0719 -1.5210 -0.2971
  634TMC3    C7 9447   3.147   4.691  17.114  0.4950 -0.0679 -0.3653
  634TMC3    C8 9448   3.394   4.302  17.257 -1.0093  0.7217  0.1471
  634TMC3    O1 9449   3.204   4.675  17.009  0.5333  0.2914  0.0922
  634TMC3    O2 9450   3.428   4.217  17.334  0.5756  0.0907 -0.3833
  635TMC3    C1 9451   3.370   0.365   0.850  0.0570  0.2762  0.3009
  635TMC3    C2 9452   3.475   0.337   0.932  0.1740 -0.1007 -0.3885
  635TMC3    C3 9453   3.517   0.204   0.939  0.7506 -0.1644  0.4783
  635TMC3    C4 9454   3.295   0.268   0.787 -0.3908 -0.8091  0.4255
  635TMC3    C5 9455   3.339   0.134   0.800  0.6169 -0.4020 -0.5619
  635TMC3    C6 9456   3.446   0.096   0.878 -0.1771 -0.4864  0.0565
  635TMC3     C 9457   3.339   0.503   0.826 -0.0779  0.5526 -0.0384
  635TMC3     O 9458   3.388   0.587   0.901 -0.2064  0.4941 -0.3318
  635TMC3     H 9459   3.523   0.421   0.982 -0.1099  0.2287 -0.6748
  635TMC3    H1 9460   3.220   0.287   0.711  0.5256  0.4672 -0.1542
  635TMC3    H2 9461   3.479   4.731   0.897  1.4459 -0.0918 -0.6377
  635TMC3    C7 9462   3.262   0.035   0.725 -0.2268  0.0587  0.1891
  635TMC3    C8 9463   3.642   0.164   1.015 -0.5143  0.2877  0.0862
  635TMC3    O1 9464   3.164   0.082   0.665 -0.0552  0.1028 -0.4341
  635TMC3    O2 9465   3.643   0.052   1.058 -0.6582  0.0634 -0.3147
  636MPD2     C 9466   4.452   4.626  16.574 -0.4332 -0.0937  0.1173
  636MPD2    C1 9467   4.489   4.647  16.703 -0.2071 -0.4651 -0.2169
  636MPD2    C2 9468   4.539   4.539  16.774  0.0449 -0.1474  0.2382
  636MPD2    C3 9469   4.580   4.423  16.715 -0.3053  0.0113  0.4696
  636MPD2    C4 9470   4.548   4.408  16.581 -0.1715  0.4183 -0.4958
  636MPD2    C5 9471   4.478   4.507  16.511 -0.0167  0.1380 -0.9209
  636MPD2     H 9472   4.557   4.549  16.881  1.0542 -0.7954  0.1296
  636MPD2    H1 9473   4.543   4.312  16.532  2.6553 -1.2489  2.5081
  636MPD2    H2 9474   4.391   4.699  16.523 -0.5275 -0.1679  0.1247
  636MPD2    H3 9475   4.445   4.505  16.408  1.6485 -0.9383 -1.4450
  636MPD2     N 9476   4.652   4.328  16.799 -0.0244 -0.4691 -0.0925
  636MPD2    H5 9477   4.660   4.340  16.900  2.3652  0.8018 -0.4110
  636MPD2    N1 9478   4.477   0.032  16.770 -0.2450 -0.1642 -0.2775
  636MPD2    H7 9479   4.524   0.036  16.860 -0.3593 -2.1031 -0.1295
  637TMC3    C1 9480   0.040   4.136  16.865 -0.0457 -0.0255  0.7846
  637TMC3    C2 9481   0.030   4.158  17.002  0.1552 -0.6183  0.0394
  637TMC3    C3 9482   0.123   4.111  17.092 -0.8564  0.4056  0.4392
  637TMC3    C4 9483   0.129   4.048  16.826  0.3937 -0.1318  0.2036
  637TMC3    C5 9484   0.221   3.998  16.914 -0.3057 -0.0100  0.0296
  637TMC3    C6 9485   0.218   4.020  17.050 -0.3488 -0.6003  0.1752
  637TMC3     C 9486   4.711   4.214  16.763 -0.5229 -0.1110 -0.1524
  637TMC3     O 9487   4.712   4.176  16.645 -0.7760 -0.4722  0.1704
  637TMC3     H 9488   4.695   4.226  17.047 -0.0169 -2.1172  2.0049
  637TMC3    H1 9489   0.125   4.013  16.724 -0.2343  2.0032 -0.4934
  637TMC3    H2 9490   0.285   3.975  17.123 -1.5100  0.0960  1.6557
  637TMC3    C7 9491   0.331   3.910  16.865  0.0606  0.3724  0.5378
  637TMC3    C8 9492   0.156   4.211  17.196  0.0429  0.2009 -0.2782
  637TMC3    O1 9493   0.355   3.812  16.935  0.7108  0.0240  0.2355
  637TMC3    O2 9494   0.115   4.319  17.185  0.2086  0.1518 -0.2680
  638MPD2     C 9495   4.174   3.563  15.453  0.1784 -0.7199  0.2334
  638MPD2    C1 9496   4.113   3.493  15.347  0.0687  0.1121 -0.6323
  638MPD2    C2 9497   4.108   3.359  15.355 -0.6234 -0.2266  0.2376
  638MPD2    C3 9498   4.154   3.291  15.470  0.2716  0.5238  0.6588
  638MPD2    C4 9499   4.192   3.365  15.576  0.4991 -0.5398 -0.6407
  638MPD2    C5 9500   4.217   3.495  15.562  0.0163  0.3658  0.5375
  638MPD2     H 9501   4.068   3.305  15.270  0.8493 -0.0989 -0.5276
  638MPD2    H1 9502   4.231   3.304  15.658 -0.7633 -0.8449 -0.2669
  638MPD2    H2 9503   4.188   3.670  15.453  2.7063 -1.0491  1.5067
  638MPD2    H3 9504   4.267   3.551  15.640  0.2467 -2.7461  2.6211
  638MPD2     N 9505   4.145   3.152  15.489 -0.5556  0.0207 -0.5070
  638MPD2    H5 9506   4.180   3.116  15.578 -0.4250 -1.8923 -1.3365
  638MPD2    N1 9507   4.099   3.562  15.224  0.0622 -0.0612  0.0998
  638MPD2    H7 9508   4.145   3.652  15.227 -1.0424  0.4881  0.7193
  639TMC3    C1 9509   4.122   2.929  15.437 -0.3978 -0.0094 -0.0610
  639TMC3    C2 9510   4.044   2.854  15.351  0.2216  0.2858 -0.5529
  639TMC3    C3 9511   4.106   2.771  15.267  0.3276 -0.3079  0.2073
  639TMC3    C4 9512   4.245   2.876  15.463  0.5239  0.3020  0.5011
  639TMC3    C5 9513   4.295   2.773  15.395  0.2639  0.2183 -0.2836
  639TMC3    C6 9514   4.228   2.722  15.291 -0.0895 -0.1333  0.5945
  639TMC3     C 9515   4.128   3.062  15.390  0.1518 -0.6516  0.2601
  639TMC3     O 9516   4.082   3.078  15.271 -0.1579 -0.1433 -0.6673
  639TMC3     H 9517   3.939   2.876  15.335  0.1524  0.0800 -0.3765
  639TMC3    H1 9518   4.319   2.937  15.514 -0.3462  2.8483 -1.2700
  639TMC3    H2 9519   4.279   2.651  15.226  1.1919  1.4331 -0.1202
  639TMC3    C7 9520   4.426   2.724  15.419  0.1296 -0.3289 -1.0038
  639TMC3    C8 9521   4.050   2.748  15.138 -1.1589  0.4185 -0.2328
  639TMC3    O1 9522   4.471   2.713  15.530 -0.0843  0.2794 -0.2017
  639TMC3    O2 9523   4.122   2.754  15.038 -0.9976  0.3917 -0.3730
  640MPD2     C 9524   4.390   1.728   9.914  0.4879 -0.2289 -0.3468
  640MPD2    C1 9525   4.457   1.829   9.972  0.2926  0.2365 -0.3355
  640MPD2    C2 9526   4.399   1.957   9.981 -0.1952 -0.5428 -0.1255
  640MPD2    C3 9527   4.266   1.973   9.935 -0.6758 -0.2582 -0.3426
  640MPD2    C4 9528   4.204   1.866   9.875 -0.4964  0.1811  0.1340
  640MPD2    C5 9529   4.265   1.740   9.861  0.3624 -0.9206  0.3791
  640MPD2     H 9530   4.458   2.037  10.024  0.4109 -1.1664  0.2125
  640MPD2    H1 9531   4.099   1.876   9.848 -0.4849 -0.5843 -0.1901
  640MPD2    H2 9532   4.437   1.631   9.902 -0.5819 -0.8666  0.6051
  640MPD2    H3 9533   4.226   1.652   9.812  1.4469 -0.0004 -2.1289
  640MPD2     N 9534   4.205   2.099   9.930 -0.0013 -0.1618  0.1342
  640MPD2    H5 9535   4.114   2.102   9.885 -0.0382  1.7734  0.3270
  640MPD2    N1 9536   4.593   1.797  10.015 -0.3089  0.5364 -0.1300
  640MPD2    H7 9537   4.635   1.705  10.009 -1.1845  0.0896  0.5264
  641TMC3    C1 9538   0.055   1.816  10.152 -0.0303  0.7414  0.1785
  641TMC3    C2 9539   0.059   1.682  10.138 -0.3533  0.3849 -0.2645
  641TMC3    C3 9540   0.173   1.626  10.184 -0.2470 -0.2155 -0.1964
  641TMC3    C4 9541   0.146   1.889  10.222  0.7700 -0.6290 -0.3673
  641TMC3    C5 9542   0.254   1.821  10.265 -0.1395  0.3157  0.0661
  641TMC3    C6 9543   0.278   1.693  10.238 -0.4417  0.0745 -0.2607
  641TMC3     C 9544   4.677   1.884  10.087 -0.2746  0.1377 -0.1353
  641TMC3     O 9545   4.665   2.006  10.108 -0.0397  0.5200 -0.4726
  641TMC3     H 9546   4.719   1.616  10.100  0.9338 -1.4168  0.2677
  641TMC3    H1 9547   0.141   1.997  10.231  0.7893 -0.6221 -0.4347
  641TMC3    H2 9548   0.365   1.641  10.277 -0.0335  0.1858 -1.0429
  641TMC3    C7 9549   0.373   1.886  10.314  0.0615 -0.4639  0.0371
  641TMC3    C8 9550   0.185   1.488  10.150 -0.9251 -0.4078  0.9654
  641TMC3    O1 9551   0.475   1.816  10.305  0.4153 -0.0227  0.3398
  641TMC3    O2 9552   0.125   1.446  10.052  0.2451 -0.7128 -0.1461
  642TMC3    C1 9553   1.273   3.297  12.626  0.4911  0.1929 -0.3839
  642TMC3    C2 9554   1.386   3.284  12.555 -0.5826  0.1635 -0.3115
  642TMC3    C3 9555   1.389   3.203  12.441 -0.2762 -0.0644 -0.4497
  642TMC3    C4 9556   1.157   3.240  12.575 -0.6819 -0.1544  0.0753
  642TMC3    C5 9557   1.166   3.155  12.470 -0.3556 -0.0845  0.1823
  642TMC3    C6 9558   1.284   3.117  12.412  0.1538  0.3091 -0.1342
  642TMC3     C 9559   1.260   3.391  12.736 -0.6004  0.6105 -0.2594
  642TMC3     O 9560   1.361   3.445  12.779  0.3260 -0.1086 -0.2446
  642TMC3     H 9561   1.466   3.347  12.594 -0.0986  0.2712 -1.4578
  642TMC3    H1 9562   1.057   3.260  12.614 -0.2107  0.4641  0.9588
  642TMC3    H2 9563   1.293   3.051  12.326 -2.0655 -1.8637  1.3240
  642TMC3    C7 9564   1.058   3.064  12.430 -1.1556 -0.3883  0.1732
  642TMC3    C8 9565   1.514   3.189  12.371 -0.3035  0.0015 -0.0622
  642TMC3    O1 9566   1.046   3.031  12.312 -0.1246  0.0248  0.5241
  642TMC3    O2 9567   1.513   3.105  12.285 -0.5086  0.5355 -0.4978
  643TMC3    C1 9568   0.292   2.415   0.256  0.2096  0.3200 -0.5020
  643TMC3    C2 9569   0.183   2.444   0.177  0.1587 -0.6594  0.7228
  643TMC3    C3 9570   0.144   2.337   0.093  0.6773  0.1650  0.1760
  643TMC3    C4 9571   0.370   2.302   0.232 -0.0861  0.4966 -0.5045
  643TMC3    C5 9572   0.330   2.208   0.141  0.0662  0.0671  0.4946
  643TMC3    C6 9573   0.216   2.222   0.072 -0.5936 -0.4672  0.5233
  643TMC3     C 9574   0.332   2.513   0.362  0.1851 -0.1430  0.4998
  643TMC3     O 9575   0.280   2.621   0.338  0.2828 -0.4308 -0.7620
  643TMC3     H 9576   0.119   2.529   0.200  0.3378 -0.1039 -0.8008
  643TMC3    H1 9577   0.460   2.283   0.289 -0.1046  1.5177 -0.1322
  643TMC3    H2 9578   0.171   2.150   0.005 -1.4136  0.1170  0.4482
  643TMC3    C7 9579   0.408   2.079   0.142 -0.3914  0.0506 -0.4390
  643TMC3    C8 9580   0.082   2.390  17.716  0.2221 -0.3331 -0.5662
  643TMC3    O1 9581   0.470   2.044   0.241  0.5777 -0.1013  0.0281
  643TMC3    O2 9582   0.038   2.311  17.635  0.0001 -0.2369 -0.6260
  644MPD2     C 9583   0.833   2.384   9.921 -0.1247  0.7164 -0.0223
  644MPD2    C1 9584   0.961   2.332   9.926 -0.0653  0.6157  0.3940
  644MPD2    C2 9585   1.069   2.413   9.886 -0.0528 -0.3384 -0.1988
  644MPD2    C3 9586   1.051   2.541   9.844  0.0426  0.0931 -0.3253
  644MPD2    C4 9587   0.922   2.589   9.819 -0.1319 -0.0850  0.0723
  644MPD2    C5 9588   0.816   2.506   9.862 -0.2100 -0.0455 -0.0301
  644MPD2     H 9589   1.170   2.383   9.908  0.2774  2.6807  2.4105
  644MPD2    H1 9590   0.900   2.686   9.776 -2.1260 -0.6295 -0.1702
  644MPD2    H2 9591   0.744   2.330   9.949  0.9913 -0.5588  1.0350
  644MPD2    H3 9592   0.713   2.534   9.845  0.1005  1.4405  0.4498
  644MPD2     N 9593   1.166   2.623   9.838 -0.3040  0.0044  0.8182
  644MPD2    H5 9594   1.256   2.577   9.846  0.5160  1.0529 -2.0688
  644MPD2    N1 9595   0.968   2.202   9.970  0.3925  0.0751  0.6388
  644MPD2    H7 9596   0.886   2.156  10.007 -0.9711  0.3938 -1.9307
  645TMC3    C1 9597   1.299   2.804   9.784  0.1208 -0.8268  0.0066
  645TMC3    C2 9598   1.337   2.917   9.709  0.6041 -0.3128 -0.5954
  645TMC3    C3 9599   1.463   2.967   9.719 -0.8395 -0.9152  0.2736
  645TMC3    C4 9600   1.385   2.757   9.875 -0.8629 -0.2813 -0.4858
  645TMC3    C5 9601   1.515   2.811   9.886 -0.0870  0.4526 -0.1635
  645TMC3    C6 9602   1.553   2.914   9.804 -0.1848  0.4372 -0.0417
  645TMC3     C 9603   1.163   2.757   9.795 -0.1334  0.0241  0.2356
  645TMC3     O 9604   1.072   2.835   9.762 -0.5790  0.0463  0.3166
  645TMC3     H 9605   1.271   2.965   9.637 -0.6369  3.5793  3.1161
  645TMC3    H1 9606   1.350   2.690   9.953 -0.8436  2.9734  2.3064
  645TMC3    H2 9607   1.656   2.946   9.793 -0.3976  0.9380 -0.5894
  645TMC3    C7 9608   1.602   2.768   9.994  0.2967  0.0066  0.0741
  645TMC3    C8 9609   1.506   3.065   9.615 -0.5614 -0.1811  0.2085
  645TMC3    O1 9610   1.556   2.670  10.051 -0.2114  0.5192  0.4283
  645TMC3    O2 9611   1.445   3.060   9.508 -0.2209  0.1955  0.4042
  646MPD2     C 9612   4.625   2.175  14.556 -0.1196 -0.3643 -0.2011
  646MPD2    C1 9613   4.530   2.164  14.655  1.1072  0.1612 -0.4888
  646MPD2    C2 9614   4.407   2.230  14.641 -0.1151  0.1281 -0.0501
  646MPD2    C3 9615   4.388   2.316  14.531  0.5024  0.2591 -0.1844
  646MPD2    C4 9616   4.496   2.346  14.445 -0.0679 -0.1612  0.1069
  646MPD2    C5 9617   4.611   2.278  14.458  0.3078  0.4994  0.6291
  646MPD2     H 9618   4.325   2.210  14.708  0.9518 -0.9160  0.9451
  646MPD2    H1 9619   4.489   2.422  14.367  0.6755 -3.0830 -2.8145
  646MPD2    H2 9620   4.721   2.124  14.560  0.0412  0.0913  1.4946
  646MPD2    H3 9621   4.696   2.308  14.397  0.5237  0.3365  0.8476
  646MPD2     N 9622   4.263   2.384  14.521 -0.0811  0.3112 -0.4360
  646MPD2    H5 9623   4.197   2.385  14.599 -0.7219  0.3901 -0.9762
  646MPD2    N1 9624   4.565   2.093  14.775 -0.3072  0.5831 -0.0278
  646MPD2    H7 9625   4.655   2.046  14.780  1.1264  3.1511 -1.4923
  647TMC3    C1 9626   4.564   2.021  14.997 -0.6507 -0.6476 -0.2795
  647TMC3    C2 9627   4.531   2.053  15.124 -0.0104  0.4419 -0.1650
  647TMC3    C3 9628   4.590   2.001  15.227  0.3470 -0.4812  0.5915
  647TMC3    C4 9629   4.660   1.931  14.967 -0.0214 -0.2241  0.2840
  647TMC3    C5 9630   4.706   1.863  15.082 -0.2280  0.2324 -0.6538
  647TMC3    C6 9631   4.671   1.889  15.211 -0.2461  0.2830  0.2459
  647TMC3     C 9632   4.494   2.096  14.894 -0.2868 -0.3839 -0.1154
  647TMC3     O 9633   4.390   2.149  14.921 -0.1671  0.7151 -0.2263
  647TMC3     H 9634   4.454   2.128  15.137  0.0403  0.2354  1.2903
  647TMC3    H1 9635   4.710   1.900  14.877  0.3115 -0.7542  0.6519
  647TMC3    H2 9636   4.720   1.843  15.295  0.2842  0.2600 -0.0709
  647TMC3    C7 9637   0.104   1.819  15.072  0.1500  0.0923  0.1204
  647TMC3    C8 9638   4.547   2.047  15.360  0.0137 -0.0318 -0.0423
  647TMC3    O1 9639   0.136   1.725  15.144 -0.1623  0.0118 -0.6072
  647TMC3    O2 9640   4.521   2.166  15.361 -0.3090 -0.1501 -0.1683
  648TMC3    C1 9641   3.844   4.283  16.679 -0.7808  0.0372  0.2253
  648TMC3    C2 9642   3.923   4.170  16.684  0.7548 -0.2542  0.3877
  648TMC3    C3 9643   3.940   4.107  16.568 -0.0052 -0.4821  0.1835
  648TMC3    C4 9644   3.799   4.338  16.562 -0.2119 -0.3361  0.2056
  648TMC3    C5 9645   3.834   4.271  16.446  0.4791  0.2861  0.8646
  648TMC3    C6 9646   3.911   4.164  16.451  0.1744 -0.0216 -0.3606
  648TMC3     C 9647   3.815   4.349  16.805 -0.1866 -0.4879  0.1856
  648TMC3     O 9648   3.770   4.462  16.792 -0.6036  0.1931 -0.1825
  648TMC3     H 9649   3.963   4.120  16.772  1.4508  0.0777  0.2563
  648TMC3    H1 9650   3.747   4.433  16.554  1.7037  0.6784 -0.2530
  648TMC3    H2 9651   3.944   4.119  16.358  1.1469  2.0576 -1.0135
  648TMC3    C7 9652   3.794   4.327  16.317  0.1358 -0.3698  0.5911
  648TMC3    C8 9653   4.005   3.975  16.572 -0.0709  0.1720  0.1499
  648TMC3    O1 9654   3.868   4.299  16.222 -0.2828 -0.4416 -0.4589
  648TMC3    O2 9655   3.995   3.913  16.678  0.2008  0.6292  0.1622
  649TMC3    C1 9656   2.243   0.510  13.127 -0.4980 -0.1089 -0.5188
  649TMC3    C2 9657   2.354   0.424  13.118  0.1920  0.4877  0.4736
  649TMC3    C3 9658   2.382   0.341  13.228 -0.1305 -0.3894  0.3278
  649TMC3    C4 9659   2.161   0.510  13.231  0.3297 -0.2414 -0.0213
  649TMC3    C5 9660   2.184   0.414  13.328  0.7628 -0.4659  0.4356
  649TMC3    C6 9661   2.290   0.325  13.330  0.6826  0.2791  0.4459
  649TMC3     C 9662   2.216   0.619  13.030 -0.7147  0.5679 -0.3393
  649TMC3     O 9663   2.147   0.708  13.075 -0.5223  0.3770  0.0225
  649TMC3     H 9664   2.430   0.439  13.042 -1.3349  2.5898 -0.6390
  649TMC3    H1 9665   2.069   0.567  13.232  1.3538  1.4025 -2.1713
  649TMC3    H2 9666   2.320   0.268  13.417 -1.5715 -1.2334  0.2342
  649TMC3    C7 9667   2.082   0.393  13.422 -0.2097 -0.3888  0.0363
  649TMC3    C8 9668   2.494   0.255  13.232 -0.9457 -0.0488 -0.0287
  649TMC3    O1 9669   1.973   0.449  13.415 -0.4158  0.2122 -0.1770
  649TMC3    O2 9670   2.517   0.199  13.336 -0.3002  0.2896 -0.6796
  650TMC3    C1 9671   0.378   2.468  12.988 -0.4985 -0.1133  0.2527
  650TMC3    C2 9672   0.301   2.547  13.071  0.3498 -0.2594  0.0613
  650TMC3    C3 9673   0.187   2.601  13.026 -0.1309 -0.1469 -0.1138
  650TMC3    C4 9674   0.338   2.439  12.863 -0.0862 -0.4605  0.5663
  650TMC3    C5 9675   0.225   2.498  12.821  0.8185  0.2130 -0.1149
  650TMC3    C6 9676   0.155   2.586  12.896  0.2080  0.1415  0.2230
  650TMC3     C 9677   0.495   2.401  13.040  0.4369  0.5376 -0.3268
  650TMC3     O 9678   0.562   2.455  13.128 -0.2486  0.1938 -0.6713
  650TMC3     H 9679   0.333   2.579  13.169  2.1144  0.1168 -0.6311
  650TMC3    H1 9680   0.410   2.397  12.794  0.6482 -1.3589  1.8718
  650TMC3    H2 9681   0.094   2.662  12.849 -0.4271 -0.4630  0.0646
  650TMC3    C7 9682   0.243   2.545  12.687  0.4183 -0.7061  0.7372
  650TMC3    C8 9683   0.175   2.735  13.066 -0.2469  0.5664  0.0253
  650TMC3    O1 9684   0.189   2.484  12.595 -0.5897  0.0496  0.3238
  650TMC3    O2 9685   0.283   2.779  13.105  0.2362 -0.0913  0.5215
  651MPD2     C 9686   3.659   4.202  10.380 -0.1780  0.2668  0.1626
  651MPD2    C1 9687   3.691   4.287  10.486  0.2639 -0.1441  0.2006
  651MPD2    C2 9688   3.822   4.315  10.504  0.2012  0.0085 -0.3315
  651MPD2    C3 9689   3.927   4.261  10.428  0.2756  0.2596 -0.8517
  651MPD2    C4 9690   3.890   4.167  10.335  0.9083 -0.2287  0.4981
  651MPD2    C5 9691   3.760   4.142  10.312  0.4695  0.0796 -0.2533
  651MPD2     H 9692   3.854   4.388  10.577 -3.2003 -0.8498  1.9861
  651MPD2    H1 9693   3.963   4.110  10.278 -0.1055 -1.0139 -0.0033
  651MPD2    H2 9694   3.556   4.171  10.363  0.3849 -1.5250  0.0124
  651MPD2    H3 9695   3.730   4.055  10.255 -0.7684 -0.4167  1.1337
  651MPD2     N 9696   4.058   4.290  10.466  0.2804  0.4507 -0.0526
  651MPD2    H5 9697   4.078   4.338  10.554 -0.6293  0.4461  0.1610
  651MPD2    N1 9698   3.600   4.351  10.571 -0.0752 -1.0269 -0.7418
  651MPD2    H7 9699   3.641   4.427  10.624 -1.6569  1.3525 -2.9412
  652TMC3    C1 9700   4.492   4.332  10.548 -0.0133  0.3130  0.0633
  652TMC3    C2 9701   4.406   4.292  10.447  0.4517 -0.1885  0.5976
  652TMC3    C3 9702   4.288   4.249  10.499 -0.7482 -0.2963  0.0647
  652TMC3    C4 9703   4.453   4.336  10.683 -0.3129  0.1066  0.1002
  652TMC3    C5 9704   4.333   4.281  10.726  0.7146  0.5990  0.3472
  652TMC3    C6 9705   4.247   4.235  10.627  0.2804 -0.0398 -0.1955
  652TMC3     C 9706   4.631   4.370  10.527 -0.5851  0.2581  0.3548
  652TMC3     O 9707   4.712   4.376  10.619  0.6226 -0.1430  0.0941
  652TMC3     H 9708   4.415   4.328  10.346 -0.2244  2.0719  1.3288
  652TMC3    H1 9709   4.528   4.373  10.753 -1.3927 -0.4191  1.5321
  652TMC3    H2 9710   4.152   4.191  10.657  0.1669 -1.2004 -2.2267
  652TMC3    C7 9711   4.294   4.280  10.867 -0.3715 -0.1730  0.0280
  652TMC3    C8 9712   4.174   4.242  10.408  0.6579 -0.3550  0.5046
  652TMC3    O1 9713   4.212   4.200  10.903 -0.6625 -0.6232  0.1378
  652TMC3    O2 9714   4.198   4.207  10.291  0.0645  0.4682  0.0418
  653MPD2     C 9715   2.587   4.153   0.084  0.0347  0.4532  0.3532
  653MPD2    C1 9716   2.578   4.249  17.723  0.2515 -0.3262 -0.4174
  653MPD2    C2 9717   2.576   4.212  17.591  0.9431  0.6173  0.1578
  653MPD2    C3 9718   2.588   4.079  17.559 -0.7197 -0.5006 -0.4519
  653MPD2    C4 9719   2.608   3.988  17.663  0.2108  0.0383 -0.0188
  653MPD2    C5 9720   2.597   4.027   0.047 -0.8457  0.3849  0.9087
  653MPD2     H 9721   2.572   4.282  17.509  1.7504  2.1983  1.4639
  653MPD2    H1 9722   2.634   3.884  17.645 -0.8272 -0.6522  2.5313
  653MPD2    H2 9723   2.594   4.176   0.190 -0.9511  1.3931  0.2166
  653MPD2    H3 9724   2.615   3.958   0.129  1.2123 -1.3068 -0.9450
  653MPD2     N 9725   2.587   4.039  17.421 -0.4379 -0.4512 -0.0938
  653MPD2    H5 9726   2.569   4.111  17.352 -0.9215  0.7531  1.2921
  653MPD2    N1 9727   2.571   4.386   0.006 -0.2873  0.5961 -0.0409
  653MPD2    H7 9728   2.554   4.443  17.670 -1.6074 -0.9812 -0.8712
  654TMC3    C1 9729   2.574   3.877  17.234 -0.0819  0.1197  0.4178
  654TMC3    C2 9730   2.481   3.950  17.173 -0.0093 -0.3514 -1.1489
  654TMC3    C3 9731   2.433   3.904  17.053 -0.2976 -0.3915  0.1152
  654TMC3    C4 9732   2.607   3.749  17.188 -0.1999 -0.2948 -0.3463
  654TMC3    C5 9733   2.544   3.702  17.073 -0.0323 -0.9596  0.0502
  654TMC3    C6 9734   2.459   3.779  16.997  0.9544 -0.3696  0.1972
  654TMC3     C 9735   2.614   3.913  17.372 -0.0320  0.1490 -0.4326
  654TMC3     O 9736   2.663   3.820  17.437 -0.3970  0.4631  0.2577
  654TMC3     H 9737   2.440   4.040  17.217  1.6705  1.9269 -4.2310
  654TMC3    H1 9738   2.683   3.691  17.240 -0.1525  0.3019  0.2408
  654TMC3    H2 9739   2.429   3.740  16.901  0.8748  1.8513 -0.6805
  654TMC3    C7 9740   2.584   3.573  17.025  0.1736  0.3650 -0.3531
  654TMC3    C8 9741   2.332   3.988  16.988  0.3971 -0.4120  0.1315
  654TMC3    O1 9742   2.570   3.561  16.903  0.0662 -0.4383  0.0187
  654TMC3    O2 9743   2.290   4.084  17.051  0.1590  0.1722 -0.2998
  655MPD2     C 9744   4.357   4.428  16.011 -0.3051  0.2423  0.2892
  655MPD2    C1 9745   4.302   4.531  15.934 -0.2458 -0.5538 -0.4573
  655MPD2    C2 9746   4.311   4.519  15.795 -0.3152 -0.2257  0.3585
  655MPD2    C3 9747   4.375   4.413  15.734  0.0149  0.9604 -0.9736
  655MPD2    C4 9748   4.417   4.307  15.812 -0.3203 -0.3822 -0.0652
  655MPD2    C5 9749   4.410   4.319  15.952 -0.3429 -0.1772  0.1764
  655MPD2     H 9750   4.280   4.601  15.732  0.1669  0.6068  1.2129
  655MPD2    H1 9751   4.469   4.224  15.765  0.6292  0.8810 -1.2401
  655MPD2    H2 9752   4.363   4.427  16.119 -0.0666  2.5089  0.3063
  655MPD2    H3 9753   4.454   4.242  16.014  0.0115 -0.9291 -1.0011
  655MPD2     N 9754   4.394   4.406  15.591 -0.0922 -0.4482  0.1230
  655MPD2    H5 9755   4.434   4.323  15.549  1.1442 -0.3953  1.1951
  655MPD2    N1 9756   4.210   4.628  15.980  0.2260  0.0993  0.2165
  655MPD2    H7 9757   4.163   4.685  15.911  3.0011  0.7050 -1.1606
  656TMC3    C1 9758   4.067   4.733  16.130 -1.1000  0.1183  0.9434
  656TMC3    C2 9759   3.991   4.724  16.243  0.3342 -0.1120 -0.8183
  656TMC3    C3 9760   3.878   0.054  16.249 -0.0756 -0.0830 -1.0923
  656TMC3    C4 9761   4.037   0.086  16.029  1.1645  0.2356 -0.0812
  656TMC3    C5 9762   3.912   0.141  16.036  1.1947 -0.0374 -0.0864
  656TMC3    C6 9763   3.831   0.125  16.143 -0.6057 -0.0379  0.1675
  656TMC3     C 9764   4.185   4.655  16.117 -0.1661  0.2393 -1.1009
  656TMC3     O 9765   4.218   4.582  16.211  0.4991  0.0544 -0.7333
  656TMC3     H 9766   4.015   4.649  16.317 -0.1010  0.6174  0.0665
  656TMC3    H1 9767   4.105   0.105  15.947 -0.1130 -1.5492 -1.5503
  656TMC3    H2 9768   3.727   0.156  16.152 -0.3529  0.5031  1.2862
  656TMC3    C7 9769   3.852   0.198  15.915  0.3764  0.0399 -0.2123
  656TMC3    C8 9770   3.786   0.024  16.360  0.5820 -0.1855 -0.4006
  656TMC3    O1 9771   3.926   0.197  15.821  0.0900  0.0727 -0.1091
  656TMC3    O2 9772   3.800   4.654  16.418 -0.1208  0.1059  0.1964
  657TMC3    C1 9773   3.018   3.692  15.246 -0.1824  0.0233 -0.1240
  657TMC3    C2 9774   3.085   3.732  15.358 -0.1215 -0.2278 -0.4786
  657TMC3    C3 9775   3.083   3.863  15.397 -0.2511 -0.8880  0.0882
  657TMC3    C4 9776   2.934   3.782  15.183 -0.3543  0.7017 -0.2775
  657TMC3    C5 9777   2.922   3.909  15.237 -0.0390  0.0789 -0.1769
  657TMC3    C6 9778   3.003   3.955  15.338 -0.2043  0.0446  0.1705
  657TMC3     C 9779   3.055   3.579  15.170 -0.5887 -0.4740  0.0440
  657TMC3     O 9780   2.985   3.562  15.067 -1.0171 -0.0311  0.1887
  657TMC3     H 9781   3.136   3.669  15.429  4.1010  2.4929 -1.0643
  657TMC3    H1 9782   2.873   3.758  15.097  0.0722  1.0191 -0.6699
  657TMC3    H2 9783   2.987   4.056  15.373  2.0007  0.2688  0.5634
  657TMC3    C7 9784   2.882   4.012  15.150  0.4152 -0.3176 -0.2664
  657TMC3    C8 9785   3.151   3.914  15.510 -0.8686 -0.3379  0.6298
  657TMC3    O1 9786   2.822   4.106  15.195 -0.1239 -0.0715  0.3690
  657TMC3    O2 9787   3.154   4.037  15.521  0.1150  0.0089 -0.2914
  658MPD2     C 9788   4.488   0.169  14.874 -0.0224  0.7026  0.1244
  658MPD2    C1 9789   4.467   0.040  14.845  0.0496 -0.1212  0.3900
  658MPD2    C2 9790   4.443   0.007  14.712  0.4134 -0.5311  0.1325
  658MPD2    C3 9791   4.449   0.105  14.613  0.3078 -0.0772  0.2042
  658MPD2    C4 9792   4.469   0.236  14.650  0.2568  0.1169 -0.2160
  658MPD2    C5 9793   4.483   0.266  14.782  0.1006 -0.0284  0.1221
  658MPD2     H 9794   4.427   4.640  14.686  2.0630 -0.2013 -2.2065
  658MPD2    H1 9795   4.463   0.318  14.579  0.9399 -0.8784 -1.4262
  658MPD2    H2 9796   4.512   0.207  14.973  1.5204  0.3490 -0.1308
  658MPD2    H3 9797   4.487   0.370  14.814 -0.3090 -0.3183  1.1243
  658MPD2     N 9798   4.423   0.062  14.478 -0.0845  0.5709 -1.2017
  658MPD2    H5 9799   4.389   4.703  14.474  1.6868 -0.0910 -0.8053
  658MPD2    N1 9800   4.466   4.669  14.940  0.5167  0.5777  0.2277
  658MPD2    H7 9801   4.468   4.574  14.906 -1.4510  0.8162 -0.5576
  659TMC3    C1 9802   4.451   4.569  15.160 -0.1993  0.4423 -0.3356
  659TMC3    C2 9803   4.482   4.572  15.294 -0.6841  0.1401  0.0939
  659TMC3    C3 9804   4.423   4.475  15.373  0.4916  0.6762 -0.5518
  659TMC3    C4 9805   4.353   4.490  15.108 -0.3529  0.2446 -0.1861
  659TMC3    C5 9806   4.302   4.387  15.187 -0.5043  0.2168 -0.6694
  659TMC3    C6 9807   4.344   4.375  15.317 -0.1201 -0.3318  0.2771
  659TMC3     C 9808   4.500   4.678  15.076 -1.2755 -0.5683 -0.3701
  659TMC3     O 9809   4.544   0.028  15.142 -0.7368  0.6891 -0.0026
  659TMC3     H 9810   4.556   4.639  15.336  0.2419 -1.0889  0.4182
  659TMC3    H1 9811   4.311   4.515  15.012  0.4102  0.2337 -0.5207
  659TMC3    H2 9812   4.290   4.305  15.379 -3.2418  0.4956 -1.4979
  659TMC3    C7 9813   4.167   4.344  15.161  0.1374 -0.0607 -0.4348
  659TMC3    C8 9814   4.407   4.515  15.510  0.5158 -0.3122 -0.0889
  659TMC3    O1 9815   4.100   4.311  15.258 -0.4799 -0.1319  0.1545
  659TMC3    O2 9816   4.424   4.632  15.542  0.0735 -0.3205 -0.4429
  660MPD2     C 9817   2.595   3.532  12.928  0.4311 -0.1981 -0.0853
  660MPD2    C1 9818   2.471   3.577  12.889  0.1731  0.6428 -0.2275
  660MPD2    C2 9819   2.364   3.540  12.973 -0.3341 -0.5521 -0.3084
  660MPD2    C3 9820   2.385   3.456  13.086 -0.2146  0.6920 -0.2456
  660MPD2    C4 9821   2.509   3.420  13.118 -0.1491 -0.4338  0.1708
  660MPD2    C5 9822   2.610   3.452  13.035 -0.3285  0.6604  0.1078
  660MPD2     H 9823   2.263   3.564  12.942 -0.1903 -0.0330 -0.3621
  660MPD2    H1 9824   2.534   3.348  13.195 -0.4127  0.5916  1.2326
  660MPD2    H2 9825   2.682   3.555  12.868  0.6545 -0.6701  0.0610
  660MPD2    H3 9826   2.708   3.409  13.056 -0.0285  2.0181  1.5216
  660MPD2     N 9827   2.274   3.422  13.171 -0.4091  0.5393  0.2210
  660MPD2    H5 9828   2.294   3.368  13.255  0.2486  2.2974  1.2009
  660MPD2    N1 9829   2.458   3.643  12.760 -0.1719 -0.5158  0.0388
  660MPD2    H7 9830   2.547   3.637  12.711 -1.0221  0.0587 -1.5481
  661TMC3    C1 9831   2.358   3.728  12.560  0.3027 -0.3434 -0.4320
  661TMC3    C2 9832   2.462   3.663  12.488  0.0307 -0.5178  0.4340
  661TMC3    C3 9833   2.449   3.646  12.355 -0.3383 -0.3392  0.1806
  661TMC3    C4 9834   2.243   3.769  12.490 -0.3964 -0.7259  0.0539
  661TMC3    C5 9835   2.233   3.737  12.356  0.4070 -0.4127  0.3563
  661TMC3    C6 9836   2.330   3.665  12.290 -0.4262 -0.5959  0.0077
  661TMC3     C 9837   2.345   3.694  12.701  0.3285 -0.1831  0.3494
  661TMC3     O 9838   2.231   3.709  12.746 -0.5199 -0.0400 -0.5278
  661TMC3     H 9839   2.556   3.631  12.530  0.4714  0.8989  0.5452
  661TMC3    H1 9840   2.160   3.801  12.552  1.0091  2.7685  0.1226
  661TMC3    H2 9841   2.320   3.630  12.188  0.0509  2.0108 -0.9382
  661TMC3    C7 9842   2.101   3.747  12.297  0.0748  0.1611  0.0902
  661TMC3    C8 9843   2.527   3.534  12.305  0.7768 -0.5254 -0.2494
  661TMC3    O1 9844   2.036   3.839  12.330 -0.5925  0.1329  0.2002
  661TMC3    O2 9845   2.558   3.447  12.390 -0.4850  0.2056 -0.2218
  662MPD2     C 9846   2.644   3.004  17.193  0.4801 -0.3599 -0.2803
  662MPD2    C1 9847   2.646   2.891  17.278 -0.3194  0.4697  0.4015
  662MPD2    C2 9848   2.563   2.881  17.389 -0.0443  0.1829  0.1381
  662MPD2    C3 9849   2.483   2.986  17.417  0.1123  0.2487  0.4992
  662MPD2    C4 9850   2.473   3.096  17.337  0.1067  0.0308 -0.1331
  662MPD2    C5 9851   2.561   3.109  17.229 -0.0836 -0.3836 -0.3556
  662MPD2     H 9852   2.563   2.790  17.448 -1.6349  1.7862  2.6249
  662MPD2    H1 9853   2.406   3.180  17.352 -0.6566 -0.4714 -0.7621
  662MPD2    H2 9854   2.716   3.020  17.114  0.8223 -2.6339 -0.4280
  662MPD2    H3 9855   2.571   3.196  17.165  1.2491 -0.9909 -0.9652
  662MPD2     N 9856   2.386   2.984  17.516  0.2293 -0.0924  0.8082
  662MPD2    H5 9857   2.327   3.066  17.522  1.0505  0.3915  2.3159
  662MPD2    N1 9858   2.726   2.773  17.257  0.0213 -0.3695  0.5234
  662MPD2    H7 9859   2.712   2.696  17.321 -2.1998 -0.2104  0.2214
  663TMC3    C1 9860   2.897   2.637  17.182 -0.0720  0.4540 -0.8057
  663TMC3    C2 9861   2.884   2.570  17.302 -0.7157  0.2845 -0.5710
  663TMC3    C3 9862   2.978   2.466  17.323 -0.5308  0.2770 -0.0944
  663TMC3    C4 9863   2.963   2.583  17.073  1.0329  0.6571  0.0753
  663TMC3    C5 9864   3.036   2.466  17.096  0.0864 -0.5984  0.3639
  663TMC3    C6 9865   3.047   2.412  17.217  0.8650 -0.8634 -0.4248
  663TMC3     C 9866   2.821   2.752  17.155  0.2489  0.3787 -0.0357
  663TMC3     O 9867   2.846   2.823  17.058 -0.1334 -0.1077 -0.3863
  663TMC3     H 9868   2.843   2.618  17.390 -0.6213  0.6039 -0.7008
  663TMC3    H1 9869   2.954   2.636  16.979 -0.8509 -1.0149 -0.6944
  663TMC3    H2 9870   3.127   2.340  17.230  1.1814 -0.1278  1.6413
  663TMC3    C7 9871   3.017   2.361  17.004  0.1085 -0.4596  0.0929
  663TMC3    C8 9872   2.924   2.357  17.398  0.0440  0.4309 -0.3810
  663TMC3    O1 9873   3.034   2.387  16.883 -0.7313 -0.4913  0.0877
  663TMC3    O2 9874   2.951   2.249  17.346 -0.2883 -0.6857  0.3338
  664MPD2     C 9875   0.333   1.303  17.600  0.0954 -0.7309 -0.1338
  664MPD2    C1 9876   0.439   1.349  17.680 -0.1141 -0.2150  0.3547
  664MPD2    C2 9877   0.440   1.311   0.068  0.1259 -0.5734 -0.2468
  664MPD2    C3 9878   0.345   1.231   0.127 -0.1435 -0.7478 -0.9567
  664MPD2    C4 9879   0.240   1.190   0.044  0.4163 -0.4660 -0.6994
  664MPD2    C5 9880   0.240   1.220  17.654  0.1387  0.4365  0.9982
  664MPD2     H 9881   0.529   1.323   0.129 -0.4440 -0.7170  0.6169
  664MPD2    H1 9882   0.156   1.129   0.076 -1.7540  2.8700 -0.0176
  664MPD2    H2 9883   0.328   1.327  17.494 -0.3516  0.5544  0.1698
  664MPD2    H3 9884   0.154   1.191  17.593  2.3177 -0.0252 -1.8330
  664MPD2     N 9885   0.353   1.208   0.264 -0.8213 -0.8039 -0.3325
  664MPD2    H5 9886   0.428   1.258   0.309 -0.6622 -0.5318 -0.9024
  664MPD2    N1 9887   0.542   1.430  17.630 -0.2561 -0.0941  0.3108
  664MPD2    H7 9888   0.607   1.471  17.696 -0.7234  1.8515 -0.4358
  665TMC3    C1 9889   0.288   1.152   0.487 -0.0329 -0.1259  0.0351
  665TMC3    C2 9890   0.185   1.159   0.575  0.5301  0.4866  0.4838
  665TMC3    C3 9891   0.214   1.187   0.709 -0.2774  0.2567  0.3952
  665TMC3    C4 9892   0.421   1.171   0.524 -0.2616  0.5446 -0.3638
  665TMC3    C5 9893   0.439   1.198   0.658 -0.0530  0.6085 -0.0340
  665TMC3    C6 9894   0.340   1.204   0.750 -0.6921  0.3844 -0.2144
  665TMC3     C 9895   0.257   1.146   0.346  0.3899 -0.0979  0.4515
  665TMC3     O 9896   0.156   1.094   0.310 -0.1703 -0.4909  0.3813
  665TMC3     H 9897   0.084   1.139   0.540  0.1989  0.0890  1.6392
  665TMC3    H1 9898   0.507   1.159   0.460 -0.4913  2.2935 -0.9921
  665TMC3    H2 9899   0.355   1.207   0.857  0.5665  3.4814 -0.4482
  665TMC3    C7 9900   0.577   1.220   0.693  0.5335 -0.1740  0.1134
  665TMC3    C8 9901   0.125   1.264   0.792 -0.1408 -0.0432  0.3687
  665TMC3    O1 9902   0.670   1.188   0.621 -0.9450  0.7419  0.2600
  665TMC3    O2 9903   0.185   1.347   0.851 -0.3913 -0.4818  0.2513
  666TMC3    C1 9904   4.139   0.774  10.664 -0.1834 -0.2338 -0.1814
  666TMC3    C2 9905   4.226   0.710  10.748 -0.1559  0.1550 -0.1581
  666TMC3    C3 9906   4.343   0.770  10.787  0.0631 -0.0275 -0.1637
  666TMC3    C4 9907   4.171   0.897  10.618  0.0759  0.1105  0.0570
  666TMC3    C5 9908   4.288   0.958  10.660  0.4037  0.1040 -0.2017
  666TMC3    C6 9909   4.371   0.897  10.748  0.1565  0.4670  0.2828
  666TMC3     C 9910   4.033   0.707  10.594 -0.4755  0.1833 -0.9688
  666TMC3     O 9911   3.999   0.597  10.627 -0.0737  0.4648 -0.5254
  666TMC3     H 9912   4.207   0.605  10.768  0.3146  0.3286  1.1847
  666TMC3    H1 9913   4.096   0.958  10.570 -2.1712 -0.9487  2.1834
  666TMC3    H2 9914   4.435   0.957  10.812  0.9434  1.2325 -1.2367
  666TMC3    C7 9915   4.323   1.082  10.581 -0.3307  0.3479  0.6275
  666TMC3    C8 9916   4.437   0.684  10.862  0.1816 -0.7104 -0.2695
  666TMC3    O1 9917   4.249   1.119  10.494  1.1337 -0.4779  0.0554
  666TMC3    O2 9918   4.403   0.566  10.878 -0.0768 -0.1910  0.2542
  667MPD2     C 9919   1.371   1.319  14.409 -0.1373  0.1549 -0.5350
  667MPD2    C1 9920   1.404   1.266  14.528  1.0968 -0.4518 -0.3859
  667MPD2    C2 9921   1.356   1.146  14.564 -0.7415 -0.8235 -0.6103
  667MPD2    C3 9922   1.263   1.076  14.489  0.1741 -0.9838  0.0869
  667MPD2    C4 9923   1.227   1.124  14.373 -0.1653 -0.6901  0.5076
  667MPD2    C5 9924   1.285   1.241  14.328 -0.0234 -0.5262 -0.0337
  667MPD2     H 9925   1.389   1.117  14.663 -0.9332 -0.9693 -0.5892
  667MPD2    H1 9926   1.151   1.078  14.311 -1.1621  0.1112  1.1541
  667MPD2    H2 9927   1.405   1.419  14.384  3.2221 -1.1463 -1.2279
  667MPD2    H3 9928   1.254   1.274  14.229 -1.8198 -1.4077  0.2462
  667MPD2     N 9929   1.193   0.967  14.545  0.2356  0.0596  0.4217
  667MPD2    H5 9930   1.111   0.928  14.498  1.0037 -1.2762  0.2062
  667MPD2    N1 9931   1.484   1.331  14.621 -0.9575  0.2659  0.3651
  667MPD2    H7 9932   1.484   1.293  14.715  0.9468  2.2878  1.2019
  668TMC3    C1 9933   1.592   1.516  14.718  0.2684 -0.4567 -0.1177
  668TMC3    C2 9934   1.648   1.639  14.696 -0.2102 -0.3364  0.2984
  668TMC3    C3 9935   1.647   1.718  14.800  0.5871 -0.1525 -0.0778
  668TMC3    C4 9936   1.554   1.468  14.841 -0.2025 -0.0560  0.5286
  668TMC3    C5 9937   1.554   1.557  14.941 -0.1143  0.6712  0.1188
  668TMC3    C6 9938   1.593   1.680  14.919 -0.1446  0.4108  0.7248
  668TMC3     C 9939   1.560   1.443  14.594 -0.2447 -0.0446 -0.3163
  668TMC3     O 9940   1.586   1.507  14.492  0.1891 -0.2416 -0.9250
  668TMC3     H 9941   1.674   1.676  14.597 -1.5175 -1.3957 -0.4499
  668TMC3    H1 9942   1.510   1.370  14.853  0.0479 -0.2951 -0.4631
  668TMC3    H2 9943   1.601   1.748  15.003 -1.1533  0.4232  0.8172
  668TMC3    C7 9944   1.546   1.497  15.068  0.1442 -0.6445  0.3983
  668TMC3    C8 9945   1.683   1.857  14.779  0.3384 -0.4306 -0.1054
  668TMC3    O1 9946   1.609   1.557  15.153  0.2464  0.9309 -0.7806
  668TMC3    O2 9947   1.628   1.940  14.848  0.3192  0.4273 -0.8253
  669TMC3    C1 9948   4.372   0.981  15.159  0.1490  0.0978 -0.2466
  669TMC3    C2 9949   4.284   0.974  15.063  0.2705 -0.0889  0.7092
  669TMC3    C3 9950   4.287   1.070  14.962  0.0715  0.8054  0.2798
  669TMC3    C4 9951   4.483   1.062  15.155 -0.8689  0.6125  0.5042
  669TMC3    C5 9952   4.493   1.147  15.048 -0.6111  0.6160  0.2343
  669TMC3    C6 9953   4.399   1.143  14.946 -0.3838 -1.1432  0.9813
  669TMC3     C 9954   4.350   0.883  15.268  0.3857 -0.4022  0.8754
  669TMC3     O 9955   4.240   0.831  15.278 -0.4278 -0.1381  0.0509
  669TMC3     H 9956   4.210   0.895  15.058  0.8929 -0.5531 -1.0910
  669TMC3    H1 9957   4.558   1.060  15.233  0.5154 -0.4853 -0.8706
  669TMC3    H2 9958   4.403   1.207  14.858 -0.2068  0.2906  2.0190
  669TMC3    C7 9959   4.594   1.252  15.038 -0.3242  0.3458 -0.2380
  669TMC3    C8 9960   4.186   1.068  14.856 -0.0265 -0.6787  0.6955
  669TMC3    O1 9961   4.594   1.327  14.942  1.0361 -0.4549  0.0829
  669TMC3    O2 9962   4.126   0.962  14.836 -0.2804  0.3733 -0.7564
  670MPD2     C 9963   2.159   3.939  13.665 -0.2988  0.0264  0.2431
  670MPD2    C1 9964   2.289   3.905  13.657  0.6581  0.1855 -0.1247
  670MPD2    C2 9965   2.353   3.838  13.759 -0.1650 -0.0815  0.0590
  670MPD2    C3 9966   2.290   3.817  13.881 -0.2775 -0.6051 -0.1671
  670MPD2    C4 9967   2.159   3.842  13.886 -0.5175  0.0829  0.0779
  670MPD2    C5 9968   2.096   3.904  13.783 -0.1623 -0.9408 -0.5648
  670MPD2     H 9969   2.458   3.812  13.748 -0.3758 -0.5102 -0.9828
  670MPD2    H1 9970   2.108   3.840  13.982 -1.8555  0.7253 -0.6256
  670MPD2    H2 9971   2.107   3.979  13.579  0.4586  0.1241 -0.1712
  670MPD2    H3 9972   1.996   3.938  13.807 -0.1351 -1.4159  0.2285
  670MPD2     N 9973   2.368   3.771  13.992  0.3841  0.5558  1.0020
  670MPD2    H5 9974   2.460   3.735  13.970 -0.6070  0.6945 -3.3102
  670MPD2    N1 9975   2.375   3.943  13.548 -0.6661 -0.2435  0.0822
  670MPD2    H7 9976   2.475   3.932  13.565 -0.4231  0.8561 -0.6546
  671TMC3    C1 9977   2.437   3.728  14.222 -0.1357  0.0485  0.2479
  671TMC3    C2 9978   2.553   3.705  14.162 -0.1125  0.1263 -0.0855
  671TMC3    C3 9979   2.650   3.627  14.222 -0.0100 -0.8129  0.0824
  671TMC3    C4 9980   2.403   3.658  14.332 -0.3110 -0.3937 -1.0829
  671TMC3    C5 9981   2.497   3.569  14.387  0.3971 -0.1218 -0.1504
  671TMC3    C6 9982   2.622   3.554  14.330 -0.4502 -0.4885 -0.3507
  671TMC3     C 9983   2.332   3.780  14.132 -0.0274  0.3876 -1.0471
  671TMC3     O 9984   2.223   3.797  14.183  0.1822 -0.4016 -0.1883
  671TMC3     H 9985   2.587   3.772  14.084  0.3350 -1.3500 -1.1522
  671TMC3    H1 9986   2.307   3.679  14.379  0.6776 -1.2094  1.2364
  671TMC3    H2 9987   2.683   3.476  14.374  1.4554  1.6865  0.8612
  671TMC3    C7 9988   2.433   3.461  14.462  0.3447  0.3726  0.0065
  671TMC3    C8 9989   2.749   3.565  14.139 -0.5494  0.1275  0.4893
  671TMC3    O1 9990   2.317   3.449  14.433 -0.5244 -0.0528  0.0275
  671TMC3    O2 9991   2.773   3.446  14.147  0.0881 -0.2962  0.5328
  672MPD2     C 9992   2.720   4.157   0.827  0.0431 -0.4350  0.7227
  672MPD2    C1 9993   2.794   4.086   0.918  0.8397  0.2523 -0.2539
  672MPD2    C2 9994   2.916   4.137   0.952  0.0902  0.5779  0.2138
  672MPD2    C3 9995   2.952   4.274   0.918 -0.2897  0.3871  0.9823
  672MPD2    C4 9996   2.866   4.347   0.838 -0.1730 -0.2225 -0.2615
  672MPD2    C5 9997   2.756   4.280   0.788  0.2554  0.2723 -0.1784
  672MPD2     H 9998   2.962   4.083   1.035 -0.2544  0.4455  0.3200
  672MPD2    H1 9999   2.894   4.443   0.798  1.0377  0.4134  2.1304
  672MPD2    H210000   2.626   4.123   0.783 -0.4259  0.1644  1.2693
  672MPD2    H310001   2.700   4.334   0.713 -2.2546  0.5348  1.8796
  672MPD2     N10002   3.073   4.342   0.944  0.0853  1.2486 -0.4758
  672MPD2    H510003   3.081   4.440   0.918  0.1663  1.3780  0.0283
  672MPD2    N110004   2.762   3.960   0.959  0.4692  0.1191  0.2639
  672MPD2    H710005   2.827   3.907   1.017 -0.1158 -2.0547 -1.0441
  673TMC3    C110006   2.631   3.768   0.978 -0.5190 -1.0746 -0.1229
  673TMC3    C210007   2.729   3.687   0.929 -0.3906 -0.1772 -0.1305
  673TMC3    C310008   2.683   3.568   0.884 -0.0988  0.1795 -0.1543
  673TMC3    C410009   2.502   3.729   1.001 -0.3175 -0.4036 -0.2121
  673TMC3    C510010   2.463   3.620   0.935  0.4140 -0.1494 -0.0990
  673TMC3    C610011   2.551   3.533   0.880  0.5225 -0.4028 -0.2750
  673TMC3     C10012   2.638   3.901   0.936 -0.0626  0.2324  0.8115
  673TMC3     O10013   2.536   3.947   0.890  0.4683  0.5079  0.3647
  673TMC3     H10014   2.824   3.724   0.894 -0.5067  0.8791  0.6766
  673TMC3    H110015   2.435   3.798   1.052 -0.9542 -1.6771  0.6574
  673TMC3    H210016   2.521   3.442   0.829 -1.7982  0.3482 -0.2765
  673TMC3    C710017   2.330   3.624   0.876 -0.0844  0.0896  0.0674
  673TMC3    C810018   2.779   3.468   0.844 -0.1303  0.5939  0.6079
  673TMC3    O110019   2.291   3.513   0.833 -0.2402  0.0383 -0.2020
  673TMC3    O210020   2.735   3.369   0.788  0.0752 -0.2528 -0.3816
  674MPD2     C10021   2.690   3.079  17.699 -0.1740  0.9761  0.4274
  674MPD2    C110022   2.658   3.055   0.088 -0.5315  0.0157  0.1912
  674MPD2    C210023   2.629   3.164   0.160  0.3490 -0.5855 -0.2952
  674MPD2    C310024   2.637   3.295   0.113  0.0565 -0.1766  0.6326
  674MPD2    C410025   2.660   3.319  17.724  0.1574  1.3231 -0.5488
  674MPD2    C510026   2.685   3.209  17.647  0.0752 -0.6835 -0.0055
  674MPD2     H10027   2.592   3.150   0.261  0.9627 -2.1322 -0.2741
  674MPD2    H110028   2.668   3.419  17.685 -0.8816  1.1871 -1.1297
  674MPD2    H210029   2.700   3.001  17.625 -0.9170 -0.6371  2.0326
  674MPD2    H310030   2.707   3.233  17.544 -0.3724 -0.5299 -0.0636
  674MPD2     N10031   2.621   3.401   0.205 -0.2271  0.1345  0.1494
  674MPD2    H510032   2.593   3.376   0.299 -0.5034  2.3843  0.6750
  674MPD2    N110033   2.647   2.918   0.122 -0.3863  0.1264  0.1065
  674MPD2    H710034   2.638   2.864   0.037  1.9851 -0.5715  0.2812
  675TMC3    C110035   2.666   2.945   0.361  0.4087  0.1138  0.4465
  675TMC3    C210036   2.588   2.932   0.472 -0.1341 -0.0085  1.0383
  675TMC3    C310037   2.604   3.022   0.575  0.4926 -0.3038  0.2359
  675TMC3    C410038   2.778   3.025   0.364  0.0343  0.4258 -0.2513
  675TMC3    C510039   2.801   3.103   0.474  0.4742 -0.4376 -0.6127
  675TMC3    C610040   2.715   3.108   0.579 -0.5607  0.5798 -0.0728
  675TMC3     C10041   2.621   2.862   0.245  0.3748  0.0772 -0.5511
  675TMC3     O10042   2.583   2.751   0.278 -0.1064  0.3918 -0.5061
  675TMC3     H10043   2.496   2.876   0.463 -1.9089  3.2281 -1.3002
  675TMC3    H110044   2.842   3.024   0.277  0.2034 -0.9542 -0.1201
  675TMC3    H210045   2.739   3.161   0.670  0.6368  0.9066 -0.5760
  675TMC3    C710046   2.883   3.216   0.434  0.1084 -0.4992 -0.0521
  675TMC3    C810047   2.509   3.014   0.678  0.0089  0.2131 -0.1127
  675TMC3    O110048   2.945   3.209   0.331  0.2047 -0.2030  0.0289
  675TMC3    O210049   2.450   2.909   0.701  0.0740  0.3098  0.2179
  676MPD2     C10050   0.805   2.092  11.412 -0.1838  0.3111 -0.6419
  676MPD2    C110051   0.697   2.063  11.482 -0.5611 -0.0560  0.5545
  676MPD2    C210052   0.663   1.933  11.514 -0.0833 -0.4354 -0.4037
  676MPD2    C310053   0.728   1.826  11.451 -0.2581 -0.0168 -0.2900
  676MPD2    C410054   0.829   1.854  11.367  0.4637 -0.0667 -0.1925
  676MPD2    C510055   0.875   1.980  11.357 -0.0074  0.5467 -0.4683
  676MPD2     H10056   0.587   1.910  11.587 -0.7327 -1.4694 -1.4175
  676MPD2    H110057   0.887   1.774  11.322 -0.1280 -0.5353 -0.1123
  676MPD2    H210058   0.835   2.188  11.373 -1.4559  0.8114 -0.3624
  676MPD2    H310059   0.960   1.997  11.292  0.7307 -0.2971  0.2718
  676MPD2     N10060   0.695   1.688  11.461  0.1594  0.1636  0.1631
  676MPD2    H510061   0.758   1.638  11.398  2.0025  0.9318  1.3860
  676MPD2    N110062   0.610   2.163  11.525 -0.2373 -0.5444  0.1634
  676MPD2    H710063   0.527   2.131  11.574 -1.5337  2.4802 -0.1154
  677TMC3    C110064   0.510   2.366  11.564  0.6807  0.4962  0.0492
  677TMC3    C210065   0.387   2.307  11.541 -1.0018  0.2024 -0.1872
  677TMC3    C310066   0.276   2.356  11.611  0.6242  0.0261 -0.3276
  677TMC3    C410067   0.526   2.471  11.646 -0.3366 -0.5584  0.3352
  677TMC3    C510068   0.409   2.522  11.704  0.0124 -0.5001 -0.0056
  677TMC3    C610069   0.292   2.461  11.688  0.1779  1.0471  0.2923
  677TMC3     C10070   0.631   2.301  11.524 -0.3074  0.3579  0.0877
  677TMC3     O10071   0.727   2.364  11.484  0.1373  1.2644  0.0556
  677TMC3     H10072   0.372   2.228  11.469 -1.5900 -0.8305  1.0687
  677TMC3    H110073   0.625   2.494  11.685  0.7088 -2.3059 -1.2545
  677TMC3    H210074   0.207   2.499  11.743  0.1222 -0.5641  1.3027
  677TMC3    C710075   0.417   2.611  11.819  0.3933 -0.1442  0.5521
  677TMC3    C810076   0.150   2.279  11.601  0.1786  0.8920 -0.1146
  677TMC3    O110077   0.326   2.616  11.900 -0.1087  0.1632 -0.0927
  677TMC3    O210078   0.126   2.238  11.484 -0.3251 -0.9110 -0.4289
  678MPD2     C10079   1.803   2.270   1.550 -0.1597  0.1103  0.1329
  678MPD2    C110080   1.800   2.173   1.454  0.3293 -0.0672  0.0353
  678MPD2    C210081   1.687   2.141   1.393 -0.1832 -0.5616 -0.3285
  678MPD2    C310082   1.570   2.200   1.434  0.0938  0.0918  0.4998
  678MPD2    C410083   1.571   2.306   1.526  0.3905 -0.7364 -0.7477
  678MPD2    C510084   1.687   2.331   1.590  0.1256 -0.0467 -0.2468
  678MPD2     H10085   1.690   2.072   1.309  0.5889 -1.3340  0.3308
  678MPD2    H110086   1.488   2.358   1.571  0.2682 -2.3320  0.8604
  678MPD2    H210087   1.896   2.307   1.592  0.7482 -1.7262 -0.2766
  678MPD2    H310088   1.686   2.405   1.669 -0.6197  0.1197 -0.4120
  678MPD2     N10089   1.456   2.160   1.363 -0.0658  0.0311 -0.2139
  678MPD2    H510090   1.470   2.086   1.295 -2.3460 -1.3551  0.8170
  678MPD2    N110091   1.918   2.106   1.422  0.2117  0.3482 -0.2578
  678MPD2    H710092   1.915   2.015   1.378 -0.2976  0.1247  0.2413
  679TMC3    C110093   2.231   1.866   1.347  0.5726 -0.6221 -0.1225
  679TMC3    C210094   2.126   1.940   1.391 -0.2202  0.0309 -0.1735
  679TMC3    C310095   2.139   2.074   1.367  0.3044 -0.8236 -0.5232
  679TMC3    C410096   2.337   1.911   1.278 -0.1527  1.3075  0.1248
  679TMC3    C510097   2.341   2.050   1.246 -0.2890  0.0956 -0.0384
  679TMC3    C610098   2.247   2.126   1.302  0.2009  0.5708  0.3594
  679TMC3     C10099   2.212   1.723   1.331 -0.1107 -0.7495  0.6008
  679TMC3     O10100   2.314   1.661   1.358 -0.3380  0.4551 -0.0155
  679TMC3     H10101   2.056   1.896   1.462  0.3568  2.4986  1.9384
  679TMC3    H110102   2.394   1.837   1.224  0.7489  1.9131  0.2537
  679TMC3    H210103   2.246   2.235   1.298  2.1689  0.5437 -0.7977
  679TMC3    C710104   2.389   2.090   1.116 -0.3205  0.3151  0.0652
  679TMC3    C810105   2.041   2.165   1.414 -0.2588  0.4566 -0.4053
  679TMC3    O110106   2.333   2.182   1.061 -0.1721  0.5941 -0.1811
  679TMC3    O210107   2.068   2.282   1.437 -0.1089  0.0352 -0.1472
  680MPD2     C10108   1.963   1.208  13.932  0.0823  0.0203  0.0957
  680MPD2    C110109   2.022   1.120  14.021  0.9175  0.6863 -0.1394
  680MPD2    C210110   2.143   1.148  14.073 -1.0129  0.3507 -0.1628
  680MPD2    C310111   2.217   1.263  14.044  0.5132  0.0067  0.4568
  680MPD2    C410112   2.159   1.347  13.946 -0.0054 -0.1409  0.2810
  680MPD2    C510113   2.040   1.319  13.899 -0.1555  0.2188 -0.5018
  680MPD2     H10114   2.175   1.081  14.152  0.7627  2.4398  0.8916
  680MPD2    H110115   2.222   1.428  13.912  0.8994  0.2624  2.8778
  680MPD2    H210116   1.868   1.191  13.883 -0.2153 -1.9414  1.3430
  680MPD2    H310117   1.992   1.387  13.829 -1.2046  0.2197  0.2259
  680MPD2     N10118   2.334   1.292  14.106  0.1620 -0.3480 -0.5954
  680MPD2    H510119   2.376   1.381  14.081 -0.8997  0.2509 -0.2562
  680MPD2    N110120   1.964   0.999  14.062 -0.2668 -0.5246  0.6749
  680MPD2    H710121   2.018   0.937  14.122 -0.0685 -1.2840 -0.3016
  681TMC3    C110122   1.813   0.828  14.069  0.3917 -0.6626 -0.4489
  681TMC3    C210123   1.848   0.813  14.196 -0.0403 -0.1690  0.9211
  681TMC3    C310124   1.821   0.703  14.259  0.2198  0.0858 -0.2503
  681TMC3    C410125   1.765   0.719  13.997 -0.2720 -0.1294 -0.6086
  681TMC3    C510126   1.735   0.606  14.065 -0.9283  0.6640  0.1521
  681TMC3    C610127   1.760   0.599  14.196 -0.0626  0.5440  0.2919
  681TMC3     C10128   1.856   0.946  14.000  0.2471 -0.0181  0.6675
  681TMC3     O10129   1.801   0.973  13.891  0.4946  0.1668  0.3088
  681TMC3     H10130   1.900   0.886  14.257 -2.5543  1.1089  1.5376
  681TMC3    H110131   1.736   0.738  13.895  0.3983 -0.6824 -0.9018
  681TMC3    H210132   1.752   0.508  14.254 -0.4684 -0.1146 -0.7918
  681TMC3    C710133   1.756   0.481  13.996 -0.2990 -0.2605  0.3007
  681TMC3    C810134   1.868   0.678  14.392  0.2157  0.1085  1.1456
  681TMC3    O110135   1.724   0.377  14.059  0.3529  0.2551  0.6827
  681TMC3    O210136   1.786   0.627  14.468 -0.1773 -0.1171 -0.4480
  682MPD2     C10137   4.255   2.234  10.645  0.3351  0.0582  0.1259
  682MPD2    C110138   4.226   2.098  10.642  0.0331 -0.2705  0.1349
  682MPD2    C210139   4.173   2.027  10.751 -0.0720 -0.1320 -0.1386
  682MPD2    C310140   4.157   2.092  10.877  0.0480  0.5188 -0.1581
  682MPD2    C410141   4.173   2.230  10.874 -0.0853  0.2485 -0.3596
  682MPD2    C510142   4.224   2.298  10.766  0.0239  0.5117  0.1050
  682MPD2     H10143   4.138   1.924  10.745  0.2469 -0.2782  0.5757
  682MPD2    H110144   4.150   2.290  10.961 -0.9900 -2.7307  1.4695
  682MPD2    H210145   4.288   2.295  10.562 -0.7369  0.7290  0.1993
  682MPD2    H310146   4.220   2.406  10.779  2.1217  0.7961 -1.5615
  682MPD2     N10147   4.100   2.032  10.990 -0.4024  0.3315 -0.6026
  682MPD2    H510148   4.102   2.088  11.075 -1.3206 -1.1722  0.4204
  682MPD2    N110149   4.240   2.021  10.523 -0.0559  0.2448 -0.5164
  682MPD2    H710150   4.217   1.923  10.537 -1.4190  0.9054  1.9448
  683TMC3    C110151   3.930   1.936  11.343 -0.7255  0.7569  0.0741
  683TMC3    C210152   3.907   1.802  11.379  0.4891 -0.3025 -0.2015
  683TMC3    C310153   3.944   1.698  11.296  0.1901  0.8378 -0.5526
  683TMC3    C410154   3.972   1.966  11.218  0.5733  0.0155 -0.5089
  683TMC3    C510155   4.002   1.860  11.134 -0.1939  1.1910 -0.0194
  683TMC3    C610156   3.989   1.725  11.173 -1.2367 -0.1212 -0.2254
  683TMC3     C10157   3.925   2.026  11.452 -0.0344  0.2946  0.0961
  683TMC3     O10158   3.888   1.985  11.561  0.1900  0.0744  0.0429
  683TMC3     H10159   3.866   1.771  11.474  0.8422 -0.6377 -0.1577
  683TMC3    H110160   3.994   2.070  11.195  4.5243 -0.1380  2.5469
  683TMC3    H210161   4.037   1.652  11.109  0.9302  0.7848  0.3690
  683TMC3    C710162   4.078   1.894  11.014 -1.0128  0.2689  0.1193
  683TMC3    C810163   3.981   1.571  11.357  0.4064 -0.3175  0.2248
  683TMC3    O110164   4.085   1.803  10.930  0.5172 -0.7195 -0.5217
  683TMC3    O210165   4.003   1.566  11.479  0.1900 -0.7143  0.0763
  684MPD2     C10166   2.323   0.921  16.280  0.4547 -0.7622 -0.4291
  684MPD2    C110167   2.296   1.036  16.214  0.2922 -0.2312 -0.0009
  684MPD2    C210168   2.294   1.157  16.288  0.2859  0.2063  0.4457
  684MPD2    C310169   2.317   1.158  16.423 -0.5137 -0.0241 -0.2049
  684MPD2    C410170   2.350   1.035  16.484  0.0087  0.1829 -0.3137
  684MPD2    C510171   2.346   0.918  16.417 -0.4600  0.1290 -0.2622
  684MPD2     H10172   2.262   1.247  16.237 -1.2269 -0.3090  0.4911
  684MPD2    H110173   2.380   1.036  16.588  3.3421 -0.6669 -1.2386
  684MPD2    H210174   2.324   0.823  16.233  0.5644 -1.5655  1.2808
  684MPD2    H310175   2.379   0.823  16.458 -0.2573  0.2299 -0.1903
  684MPD2     N10176   2.312   1.271  16.507 -0.0006 -0.4315 -0.8802
  684MPD2    H510177   2.339   1.262  16.604 -1.5211  0.1998 -0.3953
  684MPD2    N110178   2.261   1.047  16.072 -0.6084  0.1859  0.2347
  684MPD2    H710179   2.235   1.140  16.041 -0.9311 -0.4641 -1.4414
  685TMC3    C110180   2.289   1.007  15.840  0.2071  0.3602 -0.3034
  685TMC3    C210181   2.200   1.111  15.823 -0.1855 -0.6831 -0.2561
  685TMC3    C310182   2.221   1.181  15.703  0.2936  0.5924  0.0389
  685TMC3    C410183   2.401   1.004  15.765  0.2253  0.3115  0.5579
  685TMC3    C510184   2.427   1.083  15.656 -0.2284 -0.4200 -0.2731
  685TMC3    C610185   2.333   1.173  15.624 -0.0306  0.1386  0.0474
  685TMC3     C10186   2.300   0.956  15.975 -0.8151 -0.2466 -0.0733
  685TMC3     O10187   2.365   0.853  15.986  0.5349  0.5179 -0.3923
  685TMC3     H10188   2.103   1.112  15.871 -1.3733 -1.0027 -2.6646
  685TMC3    H110189   2.478   0.929  15.781  1.0816  1.3929  1.5208
  685TMC3    H210190   2.344   1.223  15.529  1.5611  1.7131  1.0719
  685TMC3    C710191   2.556   1.147  15.666 -1.2160  0.1177  0.3986
  685TMC3    C810192   2.109   1.247  15.657 -0.9753  0.5429 -0.2075
  685TMC3    O110193   2.584   1.227  15.575 -0.1932 -0.5804  0.1556
  685TMC3    O210194   2.110   1.277  15.538  0.0332  0.4595  0.2592
  686MPD2     C10195   4.010   1.494  16.125 -0.4140  0.1679  0.4695
  686MPD2    C110196   3.940   1.449  16.011  0.0291 -0.3874  0.1655
  686MPD2    C210197   4.022   1.422  15.902 -0.2360 -0.8397 -0.0006
  686MPD2    C310198   4.158   1.444  15.910  0.8832  0.9027  0.2235
  686MPD2    C410199   4.216   1.503  16.019 -0.5318 -0.3129 -0.1294
  686MPD2    C510200   4.144   1.524  16.128 -0.6953  0.2773 -0.0709
  686MPD2     H10201   3.994   1.380  15.806 -1.8755  0.9259 -0.3008
  686MPD2    H110202   4.321   1.524  16.032 -0.7872  1.5684 -1.2315
  686MPD2    H210203   3.958   1.508  16.219 -1.8368 -0.7257 -0.1648
  686MPD2    H310204   4.176   1.579  16.216 -2.3524  1.3599 -0.1464
  686MPD2     N10205   4.248   1.403  15.810 -0.6065  0.1251 -0.1345
  686MPD2    H510206   4.340   1.448  15.817 -0.9268  1.0950 -2.1959
  686MPD2    N110207   3.806   1.413  16.017 -0.7200  0.5465 -0.3042
  686MPD2    H710208   3.752   1.443  16.098  0.9024  2.3685  0.1086
  687TMC3    C110209   4.125   1.214  15.712 -0.5634  0.0423  0.7823
  687TMC3    C210210   4.040   1.210  15.608 -0.0627  0.3111 -0.7918
  687TMC3    C310211   3.946   1.112  15.610  0.2530  0.3507  0.2389
  687TMC3    C410212   4.109   1.132  15.827  0.5056  0.7621  0.7456
  687TMC3    C510213   3.999   1.044  15.831 -0.0069  0.5945 -0.4738
  687TMC3    C610214   3.920   1.035  15.721  0.4381 -0.8000  0.1529
  687TMC3     C10215   4.230   1.313  15.700 -0.5049 -0.0279 -0.0298
  687TMC3     O10216   4.304   1.295  15.604 -0.4234  0.3765  0.0335
  687TMC3     H10217   4.065   1.272  15.522  0.3685  0.8511 -0.2744
  687TMC3    H110218   4.185   1.128  15.904  0.8695 -0.5473  0.3150
  687TMC3    H210219   3.834   0.970  15.728  1.6555 -2.4769 -0.1978
  687TMC3    C710220   3.936   1.027  15.961 -0.1081  0.2209  0.6653
  687TMC3    C810221   3.839   1.129  15.517  0.9788  0.4665  0.1818
  687TMC3    O110222   3.827   0.968  15.966 -0.6333 -0.1235 -0.4047
  687TMC3    O210223   3.768   1.036  15.483 -0.3472 -0.9500 -0.6503
  688MPD2     C10224   2.774   0.267  17.435  0.5739 -0.1767 -0.8393
  688MPD2    C110225   2.847   0.182  17.512  0.1821 -0.0813  0.1872
  688MPD2    C210226   2.982   0.181  17.485 -0.7132  0.9293  0.1412
  688MPD2    C310227   3.046   0.270  17.402 -0.5654 -0.5711  0.1532
  688MPD2    C410228   2.974   0.357  17.326  0.0363 -0.3701 -0.2784
  688MPD2    C510229   2.844   0.357  17.349  0.6537 -0.4230  0.7708
  688MPD2     H10230   3.041   0.116  17.549 -2.7271 -0.6877  0.3662
  688MPD2    H110231   3.021   0.423  17.254  0.1983 -1.6975 -1.3862
  688MPD2    H210232   2.667   0.276  17.427  0.5708 -0.2672 -0.9047
  688MPD2    H310233   2.789   0.438  17.302  2.7702 -0.4032 -1.6491
  688MPD2     N10234   3.181   0.261  17.371  0.1875 -0.2999  0.1140
  688MPD2    H510235   3.211   0.305  17.285  0.4338  0.8087  0.7734
  688MPD2    N110236   2.794   0.108  17.614  0.7308 -0.1468 -0.2271
  688MPD2    H710237   2.850   0.037  17.660  0.1876 -1.1717 -1.1344
  689TMC3    C110238   2.646   0.058   0.053  0.3892 -0.0153 -0.3124
  689TMC3    C210239   2.576   0.124   0.150  0.3215 -0.2658 -0.9242
  689TMC3    C310240   2.496   0.054   0.236 -0.2959  0.4970 -0.1694
  689TMC3    C410241   2.639   4.659   0.046  0.2110 -0.0160 -0.7180
  689TMC3    C510242   2.553   4.588   0.130 -0.0759 -0.2358  0.1897
  689TMC3    C610243   2.479   4.654   0.225  0.5616  0.3757  0.7604
  689TMC3     C10244   2.672   0.133  17.670  0.0014  0.1103 -0.5384
  689TMC3     O10245   2.596   0.226  17.648  0.3603 -0.5236  0.6717
  689TMC3     H10246   2.583   0.232   0.145 -1.8029 -0.1873 -2.0760
  689TMC3    H110247   2.701   4.603  17.723  0.3350 -1.8514  0.9044
  689TMC3    H210248   2.432   4.596   0.304  0.7513 -0.5627  0.1917
  689TMC3    C710249   2.542   4.445   0.128  0.0501 -0.4716 -0.2378
  689TMC3    C810250   2.478   0.128   0.365 -0.5996 -0.0916 -1.1553
  689TMC3    O110251   2.521   4.383   0.230 -0.0451 -0.2612  0.5672
  689TMC3    O210252   2.553   0.222   0.377  0.0831 -0.3242 -0.1612
  690MPD2     C10253   1.183   2.631  16.078 -0.5696  0.6302  0.2587
  690MPD2    C110254   1.149   2.594  15.950 -0.1043 -1.1226  0.7943
  690MPD2    C210255   1.190   2.664  15.842  0.1898 -0.4848 -0.2259
  690MPD2    C310256   1.253   2.788  15.843  0.1265 -0.1107 -0.1147
  690MPD2    C410257   1.275   2.836  15.976  0.5354 -0.0576  0.1930
  690MPD2    C510258   1.248   2.756  16.084  0.6651 -0.1196 -0.2814
  690MPD2     H10259   1.177   2.619  15.744  1.5465 -0.9734 -0.1801
  690MPD2    H110260   1.338   2.922  15.997  0.9824  0.0193 -1.4341
  690MPD2    H210261   1.154   2.575  16.167 -2.6152 -3.4251 -2.9422
  690MPD2    H310262   1.257   2.799  16.184  1.1187 -2.8340  0.8473
  690MPD2     N10263   1.297   2.854  15.726 -0.8536 -0.0082 -0.2688
  690MPD2    H510264   1.277   2.820  15.632  1.0103 -0.3281 -0.5484
  690MPD2    N110265   1.060   2.482  15.919 -0.4825  0.4273 -0.1925
  690MPD2    H710266   1.001   2.498  15.838  0.8865  2.0280 -0.8704
  691TMC3    C110267   0.888   2.328  15.990 -0.7805 -0.2598 -0.0216
  691TMC3    C210268   0.807   2.368  15.891  0.5611 -0.5596 -0.0556
  691TMC3    C310269   0.680   2.311  15.882 -0.4462 -0.1212 -0.0050
  691TMC3    C410270   0.856   2.222  16.067  0.4229  0.0080  0.9634
  691TMC3    C510271   0.733   2.161  16.046  0.0961  0.2156  0.5289
  691TMC3    C610272   0.636   2.207  15.960  0.4712 -0.6211  0.1504
  691TMC3     C10273   1.019   2.389  16.013 -0.1336  0.4448 -0.0807
  691TMC3     O10274   1.086   2.345  16.102 -0.1511 -0.8742  0.4529
  691TMC3     H10275   0.840   2.442  15.819  0.9628 -1.1922 -0.5219
  691TMC3    H110276   0.925   2.180  16.139  1.7623  0.9130  0.2287
  691TMC3    H210277   0.546   2.157  15.927  0.4517 -0.4932  0.0121
  691TMC3    C710278   0.707   2.045  16.127  1.0381  0.6543 -0.0393
  691TMC3    C810279   0.594   2.372  15.783 -0.3548 -0.2128  0.1639
  691TMC3    O110280   0.775   2.030  16.221 -0.1308 -0.6732 -0.5769
  691TMC3    O210281   0.632   2.455  15.701 -0.1935 -0.2188  0.2229
  692TMC3    C110282   2.037   2.656  16.014 -0.0631 -0.5761 -0.3231
  692TMC3    C210283   2.174   2.657  16.015 -0.3531 -0.3291  0.0920
  692TMC3    C310284   2.254   2.560  16.075  0.0403 -0.1735 -0.5905
  692TMC3    C410285   1.969   2.557  16.071  0.4693  0.0304 -0.1336
  692TMC3    C510286   2.037   2.461  16.138 -0.2564  0.2424 -0.9842
  692TMC3    C610287   2.176   2.473  16.157 -0.1475 -0.5721 -0.2870
  692TMC3     C10288   1.968   2.776  15.976  0.3824  0.2995 -0.9057
  692TMC3     O10289   1.846   2.774  15.959 -0.0087 -0.3518 -0.6798
  692TMC3     H10290   2.227   2.718  15.943  0.7810 -1.9230 -0.4392
  692TMC3    H110291   1.861   2.570  16.068  0.4076  0.0112  2.0556
  692TMC3    H210292   2.227   2.402  16.222 -1.0091  0.5701  1.6075
  692TMC3    C710293   1.959   2.368  16.212 -0.8033 -0.1346  0.5542
  692TMC3    C810294   2.348   2.622  16.164 -0.6365  0.1420  0.1196
  692TMC3    O110295   1.853   2.419  16.245  0.4283 -0.0564 -0.2460
  692TMC3    O210296   2.472   2.605  16.164  0.1737  0.1923 -0.3360
  693MPD2     C10297   1.543   1.039  10.840  0.6049 -0.2581  0.2679
  693MPD2    C110298   1.481   0.968  10.938 -0.1863 -0.3276  1.0719
  693MPD2    C210299   1.550   0.898  11.026 -1.0603 -0.3369 -0.2508
  693MPD2    C310300   1.690   0.891  11.020  0.3899 -0.1484  0.1769
  693MPD2    C410301   1.755   0.962  10.923 -0.2479  0.2392 -0.5024
  693MPD2    C510302   1.679   1.034  10.837  0.4579 -0.0113 -0.8464
  693MPD2     H10303   1.495   0.858  11.111 -2.5701 -0.7353 -1.4099
  693MPD2    H110304   1.863   0.970  10.930 -0.1910  0.3021 -1.4168
  693MPD2    H210305   1.500   1.105  10.767 -0.9448 -1.6135 -0.0437
  693MPD2    H310306   1.724   1.100  10.764  0.0887  1.0752 -0.0845
  693MPD2     N10307   1.763   0.835  11.130 -0.0885 -0.5531 -0.5207
  693MPD2    H510308   1.862   0.841  11.112 -0.1116  0.2630 -0.3714
  693MPD2    N110309   1.344   0.967  10.954  0.8131 -0.2316  0.3701
  693MPD2    H710310   1.300   0.941  11.042  0.6375 -2.3270 -0.3293
  694TMC3    C110311   1.123   0.971  10.919 -0.5000 -0.0170 -0.3357
  694TMC3    C210312   1.028   0.889  10.865 -0.1814 -0.7372 -0.1526
  694TMC3    C310313   0.933   0.823  10.941  0.1356  1.0784  0.1340
  694TMC3    C410314   1.106   1.012  11.048 -0.1771 -0.3373  0.1835
  694TMC3    C510315   1.010   0.946  11.126 -0.1715 -0.5904 -0.3857
  694TMC3    C610316   0.923   0.848  11.072  0.3201 -0.3364 -0.3524
  694TMC3     C10317   1.253   0.981  10.855 -0.2695  0.4525 -0.1362
  694TMC3     O10318   1.275   0.994  10.736  0.4922 -0.4577 -0.3067
  694TMC3     H10319   1.049   0.873  10.760  0.7694 -0.3249 -0.0256
  694TMC3    H110320   1.172   1.086  11.094 -0.4611  1.5343 -2.3828
  694TMC3    H210321   0.831   0.832  11.127  0.8414  2.7253  1.4278
  694TMC3    C710322   0.995   0.983  11.263  0.2336  0.4404  0.4006
  694TMC3    C810323   0.803   0.765  10.891 -0.6941 -0.8795 -0.4758
  694TMC3    O110324   0.969   1.102  11.292 -0.9899  0.4683  0.2266
  694TMC3    O210325   0.729   0.717  10.973  0.6227  0.3506  0.0959
  695MPD2     C10326   2.734   2.588  13.819 -0.3616  0.1479 -0.9216
  695MPD2    C110327   2.725   2.729  13.824  0.2744  0.8824 -0.2203
  695MPD2    C210328   2.604   2.787  13.853  0.0865  0.1887  0.7370
  695MPD2    C310329   2.499   2.708  13.893  0.9572  0.4470 -0.5263
  695MPD2    C410330   2.516   2.576  13.897  0.1200  0.0253 -0.1223
  695MPD2    C510331   2.632   2.511  13.871 -0.0140 -0.4458 -0.1743
  695MPD2     H10332   2.594   2.894  13.866 -0.3952  0.0087  1.8488
  695MPD2    H110333   2.431   2.511  13.920  0.9182 -0.8535  0.3633
  695MPD2    H210334   2.826   2.538  13.790 -1.0991 -1.3346 -0.6815
  695MPD2    H310335   2.640   2.404  13.884  2.1563 -0.2780 -0.0949
  695MPD2     N10336   2.381   2.775  13.933  0.2333  0.0564  0.1229
  695MPD2    H510337   2.377   2.876  13.926  0.6625  0.0553 -0.0922
  695MPD2    N110338   2.828   2.814  13.791  0.1099 -0.5986 -0.0549
  695MPD2    H710339   2.813   2.914  13.800  1.5365 -0.2865 -1.1356
  696TMC3    C110340   2.207   2.818  14.076 -0.1540  0.3285 -0.2991
  696TMC3    C210341   2.232   2.825  14.209  0.6977 -0.1899  0.2707
  696TMC3    C310342   2.166   2.931  14.267  0.0190  0.3359 -0.0238
  696TMC3    C410343   2.147   2.903  13.992  0.1571  0.4023  0.6055
  696TMC3    C510344   2.103   3.017  14.057  0.0671  0.3887  0.4802
  696TMC3    C610345   2.103   3.025  14.193 -0.1193  0.3340  0.6757
  696TMC3     C10346   2.283   2.715  14.012  0.1293 -0.2371  0.2604
  696TMC3     O10347   2.274   2.607  14.065 -0.2078  0.4616 -0.0479
  696TMC3     H10348   2.255   2.746  14.280  1.5874  0.8559  1.1469
  696TMC3    H110349   2.136   2.889  13.885  1.1382 -0.2617  0.5877
  696TMC3    H210350   2.058   3.107  14.247 -1.1931  1.6555 -2.2260
  696TMC3    C710351   2.042   3.115  13.979  0.1421 -0.1229 -0.5452
  696TMC3    C810352   2.231   2.995  14.386 -0.0401 -0.4495 -0.0576
  696TMC3    O110353   1.981   3.085  13.879 -0.4615 -0.1646 -0.3625
  696TMC3    O210354   2.169   3.078  14.447 -0.6464 -0.0498 -0.1813
  697MPD2     C10355   1.820   0.247  15.919  0.0666  0.3739 -0.6917
  697MPD2    C110356   1.863   0.166  15.813  0.3675  0.0995  0.3416
  697MPD2    C210357   1.838   0.204  15.682  0.4189  0.2175 -0.0320
  697MPD2    C310358   1.773   0.326  15.658 -0.3996 -0.1413 -0.2387
  697MPD2    C410359   1.738   0.403  15.763  0.1925 -0.2313 -0.1278
  697MPD2    C510360   1.767   0.368  15.889 -0.0575 -0.4712  0.5394
  697MPD2     H10361   1.866   0.134  15.604  1.0073  0.8787 -0.4138
  697MPD2    H110362   1.689   0.500  15.759  1.2295  0.3575  1.2810
  697MPD2    H210363   1.831   0.240  16.027 -0.2092  0.3001 -0.6679
  697MPD2    H310364   1.732   0.439  15.963  1.0504 -1.5549  2.1002
  697MPD2     N10365   1.762   0.363  15.519 -0.0765  0.0362  0.3118
  697MPD2    H510366   1.787   0.291  15.451 -1.4179  0.0887 -0.2455
  697MPD2    N110367   1.916   0.036  15.826  0.5982 -0.0434  0.2853
  697MPD2    H710368   1.953   4.722  15.747  1.4740  2.4708 -0.9065
  698TMC3    C110369   1.738   0.511  15.339 -0.0676  0.8756  0.3325
  698TMC3    C210370   1.776   0.638  15.296 -0.1075  0.0507 -0.5272
  698TMC3    C310371   1.854   0.651  15.188 -0.0516 -0.0561  0.3179
  698TMC3    C410372   1.780   0.402  15.264 -1.0291  0.1006 -0.5840
  698TMC3    C510373   1.864   0.416  15.160 -0.5762  0.7757 -0.0734
  698TMC3    C610374   1.901   0.541  15.119  0.0791  0.4591 -0.0793
  698TMC3     C10375   1.713   0.489  15.480 -0.1136  0.6526 -0.4354
  698TMC3     O10376   1.650   0.573  15.542  0.1761 -0.2857  0.6673
  698TMC3     H10377   1.760   0.729  15.352 -0.0191 -0.1079 -0.2444
  698TMC3    H110378   1.751   0.298  15.280  0.4863 -0.3594 -0.8643
  698TMC3    H210379   1.968   0.559  15.036  0.8196 -1.9540  0.0108
  698TMC3    C710380   1.855   0.324  15.046  0.5152 -0.2099 -0.0408
  698TMC3    C810381   1.915   0.783  15.181 -0.1169  0.7879 -0.0616
  698TMC3    O110382   1.771   0.232  15.054 -0.0034  0.2119  0.6117
  698TMC3    O210383   1.848   0.889  15.183  0.3207  0.1570 -0.8947
  699TMC3    C110384   2.061   3.434  13.268 -0.2338  0.1036  0.6768
  699TMC3    C210385   2.099   3.322  13.344  0.0089 -0.4009  0.6072
  699TMC3    C310386   2.042   3.306  13.473 -0.6344  0.2208 -1.0199
  699TMC3    C410387   1.967   3.518  13.313  0.9797  0.2175  0.4018
  699TMC3    C510388   1.900   3.479  13.428  0.1643 -0.0994 -0.0195
  699TMC3    C610389   1.941   3.381  13.514  0.5759 -0.0350  0.3002
  699TMC3     C10390   2.146   3.477  13.169 -0.3705  0.0573 -0.5099
  699TMC3     O10391   2.109   3.575  13.115  0.6053 -0.2699 -0.0859
  699TMC3     H10392   2.164   3.245  13.306  0.7042  0.0338  0.9206
  699TMC3    H110393   1.944   3.607  13.256  0.7843  1.5910  2.6035
  699TMC3    H210394   1.888   3.364  13.607  1.6846  0.3990  1.0155
  699TMC3    C710395   1.763   3.522  13.449 -0.4145 -0.1414 -0.4531
  699TMC3    C810396   2.053   3.178  13.538  0.2263  0.0743 -0.3107
  699TMC3    O110397   1.724   3.547  13.561  0.3927 -0.4249 -0.0955
  699TMC3    O210398   1.950   3.124  13.573 -0.0991 -0.2574  0.1486
  700TMC3    C110399   1.510   0.700  17.509 -0.8059  0.7035 -0.9741
  700TMC3    C210400   1.565   0.608  17.421  0.4203 -0.3429 -0.1267
  700TMC3    C310401   1.667   0.535  17.478 -0.3244 -0.0874 -0.0608
  700TMC3    C410402   1.548   0.714  17.635  0.4137  0.3610  0.3899
  700TMC3    C510403   1.658   0.645  17.683 -0.0313 -0.6735  0.4348
  700TMC3    C610404   1.720   0.555  17.602  0.2043  0.4314 -0.8078
  700TMC3     C10405   1.401   0.779  17.458 -0.2460  0.0349  0.5354
  700TMC3     O10406   1.305   0.802  17.526  0.3497  0.1410  0.3735
  700TMC3     H10407   1.520   0.586  17.325 -1.5149 -0.8168  0.8754
  700TMC3    H110408   1.496   0.793  17.689 -0.1186 -0.0951  0.5450
  700TMC3    H210409   1.813   0.522  17.647  0.5529  3.7021  0.8527
  700TMC3    C710410   1.727   0.708   0.048 -0.9806  0.4951 -0.4434
  700TMC3    C810411   1.700   0.411  17.402  0.1086 -0.1829  0.1700
  700TMC3    O110412   1.848   0.702   0.042 -0.2527  0.4149  0.6054
  700TMC3    O210413   1.681   0.411  17.281 -0.7303 -0.1813  0.7778
  701TMC3    C110414   1.015   4.149  16.039  0.1210  0.6280 -0.7470
  701TMC3    C210415   1.009   4.054  15.932  0.6967  0.4487 -0.4477
  701TMC3    C310416   1.052   4.098  15.805 -0.0716 -0.6015 -0.0882
  701TMC3    C410417   1.069   4.276  16.026  0.0769  0.1823 -0.9658
  701TMC3    C510418   1.109   4.311  15.897  0.0158 -0.1256 -0.5746
  701TMC3    C610419   1.106   4.224  15.792  0.8333  0.2377  0.0636
  701TMC3     C10420   0.938   4.130  16.162 -0.2885  0.3299 -0.1880
  701TMC3     O10421   0.943   4.225  16.239 -0.6003  0.2186  0.0442
  701TMC3     H10422   0.971   3.954  15.948 -0.3410  0.5357 -2.4462
  701TMC3    H110423   1.051   4.355  16.097 -2.3177  0.9482 -2.4187
  701TMC3    H210424   1.141   4.251  15.693  3.1457 -0.2589  0.7524
  701TMC3    C710425   1.198   4.418  15.879 -1.0027  0.3644  0.1155
  701TMC3    C810426   1.061   4.002  15.700 -0.3291 -0.0401  0.2807
  701TMC3    O110427   1.177   4.467  15.768 -0.2289 -0.0812 -0.6453
  701TMC3    O210428   1.123   3.900  15.724 -0.3178  0.1728  0.0478
  702MPD2     C10429   0.810   1.228  11.002  0.1330 -0.0005 -0.2393
  702MPD2    C110430   0.769   1.345  11.052  0.7672 -0.3144 -0.2492
  702MPD2    C210431   0.795   1.464  10.982  0.1839  0.4961  0.2276
  702MPD2    C310432   0.869   1.454  10.864  0.0587  0.0759  0.1600
  702MPD2    C410433   0.902   1.328  10.808 -0.0752  0.6818  0.5286
  702MPD2    C510434   0.879   1.216  10.885  0.2403 -0.5582  0.3575
  702MPD2     H10435   0.758   1.559  11.016 -1.5979 -0.5893  1.3341
  702MPD2    H110436   0.937   1.321  10.706  1.4678  0.1768  1.0857
  702MPD2    H210437   0.809   1.144  11.070 -2.8774  0.1097 -0.1676
  702MPD2    H310438   0.917   1.122  10.845  2.1721 -0.2817  1.5556
  702MPD2     N10439   0.883   1.567  10.777  0.2930 -0.0224 -0.0009
  702MPD2    H510440   0.897   1.552  10.678 -2.4535  1.4348 -0.5959
  702MPD2    N110441   0.703   1.358  11.175  0.2088  0.2901 -1.1981
  702MPD2    H710442   0.664   1.448  11.203 -0.4746  0.0149 -1.2681
  703TMC3    C110443   0.834   1.785  10.709 -0.5060 -0.8880 -0.0088
  703TMC3    C210444   0.710   1.733  10.659  0.2872 -0.2166 -0.4583
  703TMC3    C310445   0.608   1.823  10.636 -0.2870  0.7595 -0.4626
  703TMC3    C410446   0.851   1.920  10.741 -0.4678 -0.4796 -0.1790
  703TMC3    C510447   0.750   2.008  10.693  0.7379 -0.4408 -0.5400
  703TMC3    C610448   0.633   1.959  10.639 -0.2315  0.8781  0.5068
  703TMC3     C10449   0.868   1.699  10.817  0.3003  0.3235 -0.1296
  703TMC3     O10450   0.871   1.746  10.929  0.0346  0.5143 -0.4905
  703TMC3     H10451   0.683   1.628  10.661 -1.9577  0.3738 -0.1038
  703TMC3    H110452   0.938   1.956  10.794  0.2720  0.5256 -2.0691
  703TMC3    H210453   0.556   2.027  10.606  0.1967  0.2102 -1.8485
  703TMC3    C710454   0.789   2.142  10.658  0.3865 -0.7242  0.8162
  703TMC3    C810455   0.478   1.768  10.633  0.0811  0.8606  0.9645
  703TMC3    O110456   0.908   2.145  10.639 -0.0881 -0.4070  0.0951
  703TMC3    O210457   0.459   1.648  10.646 -0.1410  0.2297 -0.6266
  704TMC3    C110458   2.681   0.134  12.217  0.0643 -0.2864 -0.3185
  704TMC3    C210459   2.782   0.109  12.130  0.8722  0.2690  0.3454
  704TMC3    C310460   2.821   4.715  12.112 -0.2605  0.0441  0.2327
  704TMC3    C410461   2.626   0.037  12.296  0.5964 -0.2862  1.1593
  704TMC3    C510462   2.667   4.645  12.281  0.1336  0.3134  0.3546
  704TMC3    C610463   2.770   4.616  12.190 -0.0254 -0.3282  0.5428
  704TMC3     C10464   2.626   0.275  12.222 -0.0142  0.2048  0.2783
  704TMC3     O10465   2.548   0.292  12.313 -0.6540  0.0896 -0.2172
  704TMC3     H10466   2.834   0.195  12.088 -0.0879 -0.3836 -2.1720
  704TMC3    H110467   2.536   0.064  12.351  0.2441 -1.0378  0.9560
  704TMC3    H210468   2.794   4.512  12.169  1.7388 -0.1488  1.6192
  704TMC3    C710469   2.631   4.551  12.384  0.1660 -0.2932  0.1092
  704TMC3    C810470   2.917   4.678  12.012  0.2900  0.0987 -0.4712
  704TMC3    O110471   2.536   4.577  12.455 -0.0919  0.2892  0.6762
  704TMC3    O210472   2.963   4.568  12.035  0.3382  0.0169 -0.2121
  705MPD2     C10473   2.367   2.335  16.495 -0.4283  0.0897  0.1710
  705MPD2    C110474   2.368   2.473  16.481 -0.2366  0.4472 -1.2126
  705MPD2    C210475   2.249   2.542  16.497 -0.3602 -1.0347  0.1431
  705MPD2    C310476   2.131   2.478  16.531 -0.0105 -0.1243  0.0801
  705MPD2    C410477   2.133   2.340  16.553  0.3834  0.1200 -0.2723
  705MPD2    C510478   2.252   2.273  16.529  0.3991  0.2823  0.6873
  705MPD2     H10479   2.257   2.650  16.491  1.0594 -1.2954 -3.0264
  705MPD2    H110480   2.048   2.280  16.580  0.5666 -1.0707 -2.3343
  705MPD2    H210481   2.451   2.267  16.490 -1.1449 -0.6628 -1.5756
  705MPD2    H310482   2.260   2.165  16.539  3.3401  0.5236  0.9178
  705MPD2     N10483   2.012   2.545  16.573  0.2075  0.3922 -0.1089
  705MPD2    H510484   1.935   2.489  16.608  0.0712  0.6570  0.0191
  705MPD2    N110485   2.484   2.553  16.461  0.0682 -0.2693 -0.3224
  705MPD2    H710486   2.473   2.653  16.446  1.9379 -0.5200 -3.2301
  706TMC3    C110487   2.925   2.649  16.327  0.8319 -0.2185  0.5567
  706TMC3    C210488   2.905   2.782  16.357  0.1545  0.0904  0.6142
  706TMC3    C310489   2.793   2.823  16.428  0.3879  0.7129 -0.7670
  706TMC3    C410490   2.823   2.564  16.345  0.0270  0.2815 -0.3297
  706TMC3    C510491   2.707   2.605  16.391  0.4996 -0.6312  0.2537
  706TMC3    C610492   2.692   2.732  16.444 -0.4108 -0.3456  0.7628
  706TMC3     C10493   3.034   2.609  16.246 -0.1375  0.4852 -0.5237
  706TMC3     O10494   3.150   2.634  16.274  0.1542 -0.7132 -0.2321
  706TMC3     H10495   2.986   2.851  16.335  0.6841 -0.9724 -0.7887
  706TMC3    H110496   2.835   2.463  16.306 -0.1164 -0.3705  1.3162
  706TMC3    H210497   2.599   2.756  16.494 -0.3184  1.5527  0.0308
  706TMC3    C710498   2.609   2.502  16.429  0.4339 -0.3917 -0.4620
  706TMC3    C810499   2.775   2.962  16.470  0.7098  0.4871 -0.0255
  706TMC3    O110500   2.644   2.386  16.424 -0.0496  0.6978  0.2905
  706TMC3    O210501   2.820   3.049  16.394  0.3439  0.2787  0.2668
  707TMC3    C110502   4.117   2.327   1.892 -0.3412  0.3387  0.2740
  707TMC3    C210503   4.058   2.259   1.789  0.1556  0.0875 -0.5231
  707TMC3    C310504   3.921   2.238   1.788  0.7208 -0.1461 -0.3561
  707TMC3    C410505   4.034   2.386   1.995  0.4563 -0.0356 -0.1700
  707TMC3    C510506   3.900   2.364   1.986 -0.2902  0.3868 -0.4635
  707TMC3    C610507   3.839   2.291   1.883 -0.2428 -0.0386  0.5805
  707TMC3     C10508   4.261   2.324   1.895  0.2412 -0.5761 -0.4542
  707TMC3     O10509   4.308   2.251   1.812  0.0032  0.3790 -0.4706
  707TMC3     H10510   4.118   2.237   1.702  0.8229  0.1519 -0.0834
  707TMC3    H110511   4.065   2.442   2.082 -2.8409 -0.3005  1.1739
  707TMC3    H210512   3.731   2.281   1.878 -0.1694 -1.1600  1.2706
  707TMC3    C710513   3.821   2.412   2.098 -0.4684 -0.0260  0.0059
  707TMC3    C810514   3.868   2.129   1.710 -0.2826 -0.0764 -0.0077
  707TMC3    O110515   3.844   2.509   2.167 -0.1321 -0.6196 -0.0784
  707TMC3    O210516   3.745   2.106   1.706  0.8670  0.0557 -0.2459
  708MPD2     C10517   0.979   1.954  13.831 -0.9715 -0.3936 -0.2465
  708MPD2    C110518   0.984   1.842  13.913  0.3426  0.2076 -0.2867
  708MPD2    C210519   1.083   1.835  14.011 -0.1517 -0.1229  0.1433
  708MPD2    C310520   1.180   1.927  14.025  0.6219 -0.8667  0.7149
  708MPD2    C410521   1.182   2.038  13.942  0.3077  1.1832 -0.5687
  708MPD2    C510522   1.074   2.052  13.852  1.0340 -0.1299  0.5852
  708MPD2     H10523   1.067   1.766  14.094 -0.5812 -2.1350 -1.6182
  708MPD2    H110524   1.255   2.118  13.948  1.6618  0.0688 -2.1428
  708MPD2    H210525   0.895   1.986  13.770  0.9776  0.5292 -2.4709
  708MPD2    H310526   1.053   2.153  13.818  1.8140 -0.2925 -0.3467
  708MPD2     N10527   1.282   1.917  14.118 -0.6148  0.6887 -0.4459
  708MPD2    H510528   1.358   1.983  14.110  1.2429 -1.1127  2.3299
  708MPD2    N110529   0.893   1.727  13.913 -0.0237 -0.2504 -0.0778
  708MPD2    H710530   0.903   1.661  13.989  0.9988 -1.6320 -1.4146
  709TMC3    C110531   0.720   1.590  13.857  0.6533  0.5338 -0.2298
  709TMC3    C210532   0.743   1.496  13.760 -0.7486  0.4075  0.4321
  709TMC3    C310533   0.799   1.378  13.797 -0.1848  0.3080 -0.1636
  709TMC3    C410534   0.750   1.557  13.984  0.2402  0.4504 -0.3690
  709TMC3    C510535   0.783   1.432  14.026 -0.3658  0.5758 -0.4413
  709TMC3    C610536   0.821   1.346  13.929  0.2668 -0.8826  0.5417
  709TMC3     C10537   0.793   1.712  13.825  0.0292 -0.1733  0.3803
  709TMC3     O10538   0.775   1.762  13.710  0.2122  0.1501 -0.8739
  709TMC3     H10539   0.725   1.525  13.657  0.4019 -0.5345 -0.0495
  709TMC3    H110540   0.729   1.631  14.060 -0.5914 -0.7552  0.5535
  709TMC3    H210541   0.871   1.254  13.956  0.3484 -1.9874 -3.4936
  709TMC3    C710542   0.886   1.442  14.128 -0.7108  0.2340  0.8020
  709TMC3    C810543   0.857   1.287  13.700 -0.3800  0.5401 -0.1353
  709TMC3    O110544   0.961   1.535  14.103  0.7173 -0.3271  0.0243
  709TMC3    O210545   0.898   1.183  13.751 -0.7731 -0.1964  0.0874
  710TMC3    C110546   2.261   2.523   0.400  0.1929  0.4169 -0.2861
  710TMC3    C210547   2.334   2.508   0.285  0.0745  0.1013  0.1020
  710TMC3    C310548   2.434   2.415   0.268  0.0741 -0.6244 -0.2596
  710TMC3    C410549   2.272   2.429   0.497  0.1784 -0.2315  0.3861
  710TMC3    C510550   2.371   2.334   0.480  0.6249 -0.7426  0.3514
  710TMC3    C610551   2.459   2.328   0.374  0.4697 -0.6821 -0.2009
  710TMC3     C10552   2.142   2.600   0.389  0.5845 -0.1954 -0.5633
  710TMC3     O10553   2.085   2.592   0.281  0.0618 -0.0730 -0.2156
  710TMC3     H10554   2.313   2.565   0.195  2.6802  1.7250  0.5356
  710TMC3    H110555   2.198   2.416   0.576 -0.7140 -0.9436 -0.5651
  710TMC3    H210556   2.546   2.264   0.376  0.2275 -1.0080 -0.0384
  710TMC3    C710557   2.400   2.256   0.606  0.3072 -0.8372  0.5193
  710TMC3    C810558   2.494   2.396   0.139 -0.1590  0.3053  0.9020
  710TMC3    O110559   2.352   2.311   0.704 -0.4779  0.0013  0.3896
  710TMC3    O210560   2.482   2.482   0.053 -0.2681  0.2346  0.1341
  711TMC3    C110561   1.740   4.008  15.258  0.0710  0.6353  0.5366
  711TMC3    C210562   1.757   4.072  15.384  0.7601  0.4930  0.8692
  711TMC3    C310563   1.864   4.027  15.460 -0.1620 -0.5284  0.4596
  711TMC3    C410564   1.831   3.916  15.214 -0.2363  0.4069 -0.4439
  711TMC3    C510565   1.937   3.888  15.290  0.1632  0.2351 -0.9066
  711TMC3    C610566   1.956   3.946  15.411  0.3843 -0.0983 -0.3067
  711TMC3     C10567   1.613   4.022  15.188  0.5400  0.7020  0.2500
  711TMC3     O10568   1.605   3.929  15.105 -0.6077 -0.1195 -0.3333
  711TMC3     H10569   1.686   4.140  15.430 -0.4391  0.4748 -0.9624
  711TMC3    H110570   1.825   3.876  15.113  3.4824 -1.7777  0.1906
  711TMC3    H210571   2.051   3.926  15.460  0.1311 -0.2234  0.1272
  711TMC3    C710572   2.013   3.768  15.264 -0.0411  0.4065  0.4819
  711TMC3    C810573   1.821   4.009  15.599 -0.1601  0.0348  0.4018
  711TMC3    O110574   2.119   3.750  15.323  0.1148 -0.0684 -0.0477
  711TMC3    O210575   1.706   4.035  15.622 -0.4411 -0.3985 -0.1297
  712MPD2     C10576   2.724   4.656  13.725  0.2031 -0.9721 -0.6377
  712MPD2    C110577   2.703   0.007  13.829  0.4885  0.1180 -0.1844
  712MPD2    C210578   2.810   0.087  13.870 -0.4061  0.2194 -0.4675
  712MPD2    C310579   2.935   0.086  13.807  0.3257 -0.3634  0.7746
  712MPD2    C410580   2.954   4.728  13.708 -0.3307  0.2794 -0.8792
  712MPD2    C510581   2.850   4.646  13.664  0.4369 -0.2546  0.2998
  712MPD2     H10582   2.783   0.150  13.954 -3.6200  1.1887 -2.1964
  712MPD2    H110583   3.039   4.726  13.641 -0.3631 -1.7329 -0.8796
  712MPD2    H210584   2.646   4.587  13.693 -1.8453  1.2938 -0.5280
  712MPD2    H310585   2.871   4.580  13.581 -0.4702  0.0497 -0.1739
  712MPD2     N10586   3.044   0.161  13.842 -0.7054  0.3101  0.4650
  712MPD2    H510587   3.128   0.158  13.785 -1.9386 -1.7601 -1.2497
  712MPD2    N110588   2.581   0.033  13.892 -0.6589 -0.5336 -0.6656
  712MPD2    H710589   2.577   0.091  13.975 -0.1671 -0.0579 -0.9745
  713TMC3    C110590   3.126   0.373  13.883 -0.0910  0.5529 -0.4566
  713TMC3    C210591   3.247   0.341  13.826  0.1822 -0.2175 -0.1581
  713TMC3    C310592   3.327   0.440  13.784  0.9113 -0.6224  0.2333
  713TMC3    C410593   3.091   0.502  13.905 -0.4342 -0.5540 -0.6421
  713TMC3    C510594   3.175   0.603  13.866  0.1593  0.8171 -0.0015
  713TMC3    C610595   3.294   0.571  13.813 -0.9277  0.3625 -0.5588
  713TMC3     C10596   3.029   0.280  13.904  0.2072 -0.5215  0.4350
  713TMC3     O10597   2.924   0.319  13.949 -0.1823  0.3157 -0.4031
  713TMC3     H10598   3.271   0.235  13.822 -0.3367 -0.3664  0.5828
  713TMC3    H110599   2.996   0.524  13.952  0.4828  2.0447  0.0051
  713TMC3    H210600   3.349   0.651  13.764 -1.7950  0.9948 -0.4919
  713TMC3    C710601   3.140   0.744  13.883 -0.1515 -0.3086  0.5800
  713TMC3    C810602   3.472   0.417  13.793 -0.5471  0.2109 -0.0282
  713TMC3    O110603   3.223   0.830  13.891 -0.4604  0.1044 -0.3656
  713TMC3    O210604   3.548   0.504  13.756 -0.0808 -0.0173  0.3741
  714MPD2     C10605   0.618   3.970   1.009 -0.0271  0.7162  0.2501
  714MPD2    C110606   0.596   3.839   1.051  0.3743  0.5857  0.4776
  714MPD2    C210607   0.467   3.788   1.042  0.7715  0.2862  0.2125
  714MPD2    C310608   0.362   3.861   0.980 -0.7322  0.5191 -0.4243
  714MPD2    C410609   0.385   3.986   0.934 -0.3285 -0.3780 -0.1308
  714MPD2    C510610   0.512   4.042   0.960 -0.2991 -0.7309 -0.6458
  714MPD2     H10611   0.450   3.687   1.078  3.0180  0.0237  0.5293
  714MPD2    H110612   0.321   4.060   0.888 -0.4643 -0.2613  0.2419
  714MPD2    H210613   0.717   4.011   0.997 -0.3172  1.2121 -0.4560
  714MPD2    H310614   0.541   4.141   0.927 -2.3538  0.1219  0.0631
  714MPD2     N10615   0.240   3.796   0.950 -0.5641 -0.2145  0.7292
  714MPD2    H510616   0.213   3.717   1.008  1.2705 -2.3823 -1.3393
  714MPD2    N110617   0.713   3.766   1.088 -0.8104 -0.3814  0.0898
  714MPD2    H710618   0.801   3.813   1.103  0.1691 -1.9716 -0.6840
  715TMC3    C110619   0.854   3.569   1.131  0.6177  0.6673  0.1746
  715TMC3    C210620   0.868   3.432   1.124  0.0744  0.2484 -0.0262
  715TMC3    C310621   0.983   3.379   1.184  1.2442  0.0152  0.3781
  715TMC3    C410622   0.957   3.648   1.172 -0.4523 -0.5079  0.1923
  715TMC3    C510623   1.075   3.585   1.220 -0.1287  0.2741  0.8525
  715TMC3    C610624   1.095   3.450   1.224  0.3597  0.2911 -0.5237
  715TMC3     C10625   0.724   3.626   1.097  0.2794 -0.0221 -0.3958
  715TMC3     O10626   0.635   3.545   1.087 -0.3977 -0.0338  0.2403
  715TMC3     H10627   0.788   3.369   1.086  1.9842 -1.1526 -1.7044
  715TMC3    H110628   0.943   3.755   1.173  0.6945 -0.3631  1.0267
  715TMC3    H210629   1.178   3.402   1.276 -2.1827  0.2683  3.5428
  715TMC3    C710630   1.188   3.666   1.252 -0.2672 -0.1008 -0.2157
  715TMC3    C810631   0.977   3.234   1.208  0.0821  0.0483  0.3229
  715TMC3    O110632   1.286   3.619   1.306  0.0257  1.0923 -0.1042
  715TMC3    O210633   0.907   3.174   1.132  0.4386 -0.2908 -0.3482
  716MPD2     C10634   0.431   1.235  10.275  0.3680  0.1383 -0.6091
  716MPD2    C110635   0.327   1.288  10.198  0.3081 -1.6651 -0.7710
  716MPD2    C210636   0.259   1.200  10.125 -0.9714  0.1666  0.1697
  716MPD2    C310637   0.307   1.070  10.104 -0.3434 -0.1440 -0.0241
  716MPD2    C410638   0.405   1.025  10.188  0.3336  0.1798 -0.5147
  716MPD2    C510639   0.475   1.108  10.264 -0.2542 -0.4655  0.1523
  716MPD2     H10640   0.182   1.226  10.054 -2.1550  0.8921  1.7249
  716MPD2    H110641   0.447   0.925  10.180 -1.6251 -0.6516 -0.3007
  716MPD2    H210642   0.484   1.310  10.334 -2.4268  0.7603  1.1407
  716MPD2    H310643   0.564   1.076  10.316  1.0619  1.5808 -0.8768
  716MPD2     N10644   0.245   0.995   9.998 -0.3227 -0.4732 -0.0993
  716MPD2    H510645   0.180   1.049   9.942 -0.0482  0.7757  0.7696
  716MPD2    N110646   0.291   1.425  10.215 -0.4036 -0.0298 -0.4024
  716MPD2    H710647   0.338   1.481  10.285  0.2818 -0.6644 -0.3593
  717TMC3    C110648   0.196   0.832   9.843 -0.5097 -1.0448  0.1782
  717TMC3    C210649   0.154   0.941   9.771  0.5394  0.5162  0.0873
  717TMC3    C310650   0.037   0.924   9.705  0.2272 -0.4868 -0.0094
  717TMC3    C410651   0.130   0.710   9.845 -0.0258  0.0204  0.6168
  717TMC3    C510652   0.019   0.700   9.766 -0.4483 -0.1459  0.4295
  717TMC3    C610653   4.697   0.808   9.706 -0.2541 -0.1482  0.5253
  717TMC3     C10654   0.257   0.862   9.969  0.5408 -0.5139 -0.3478
  717TMC3     O10655   0.302   0.761  10.019 -0.1655 -0.3282 -0.3978
  717TMC3     H10656   0.208   1.035   9.779 -0.3329  1.0353 -0.2231
  717TMC3    H110657   0.163   0.629   9.909 -0.8445 -2.1900 -1.7754
  717TMC3    H210658   4.601   0.797   9.657 -0.1438  1.4301 -0.0433
  717TMC3    C710659   4.672   0.579   9.774  0.0434  0.1351 -0.1538
  717TMC3    C810660   4.708   1.044   9.672  0.1196 -0.3264 -0.3250
  717TMC3    O110661   4.551   0.595   9.793 -0.3250  0.1605 -0.4143
  717TMC3    O210662   0.011   1.152   9.714  0.3107 -0.0346  0.2770
  718MPD2     C10663   4.655   4.619  13.020  0.5475  0.6956 -0.6365
  718MPD2    C110664   4.609   4.628  12.894 -0.6759 -0.2213  0.0392
  718MPD2    C210665   4.473   4.589  12.876 -0.2041 -0.5198  0.2565
  718MPD2    C310666   4.394   4.560  12.982 -0.0119 -0.4246  0.5569
  718MPD2    C410667   4.449   4.548  13.105  0.6886 -0.3222 -0.4219
  718MPD2    C510668   4.580   4.577  13.127 -0.1898  0.4693  0.1837
  718MPD2     H10669   4.432   4.580  12.776 -0.4149  1.3838  0.1682
  718MPD2    H110670   4.389   4.523  13.191  1.5961 -0.1457  0.2658
  718MPD2    H210671   0.021   4.642  13.050  0.8601  0.0359 -1.2202
  718MPD2    H310672   4.631   4.545  13.218 -1.8039 -0.5273  0.7401
  718MPD2     N10673   4.253   4.554  12.960 -1.2722  0.0708  0.5372
  718MPD2    H510674   4.220   4.575  12.867 -0.3305  0.2341  0.2400
  718MPD2    N110675   4.699   4.662  12.793  0.2238  0.3740  0.2170
  718MPD2    H710676   0.052   4.703  12.814  1.0284 -1.8573  1.1809
  719TMC3    C110677   0.028   4.726  12.577  0.5751 -0.3775  0.2792
  719TMC3    C210678   4.708   0.053  12.468  0.3718  0.1690  0.3220
  719TMC3    C310679   4.727   0.187  12.445  0.3308  1.1559  0.8227
  719TMC3    C410680   0.130   0.055  12.644 -0.2630  0.2538  0.5312
  719TMC3    C510681   0.153   0.188  12.619 -0.0956 -0.2422 -0.2709
  719TMC3    C610682   0.075   0.250  12.531  0.0914 -0.2609  0.5851
  719TMC3     C10683   4.669   4.657  12.659 -0.1503 -0.0275  0.5909
  719TMC3     O10684   4.564   4.623  12.601  0.1264  0.6918  0.0325
  719TMC3     H10685   4.645   0.005  12.394 -0.8830  0.9930  0.8719
  719TMC3    H110686   0.197   4.730  12.703 -2.5505 -0.8227  2.0061
  719TMC3    H210687   0.111   0.346  12.496 -2.3683  0.6191  0.5152
  719TMC3    C710688   0.288   0.238  12.628  0.2842  0.2634 -0.5336
  719TMC3    C810689   4.603   0.267  12.447  0.1163  0.2287  0.4605
  719TMC3    O110690   0.332   0.282  12.525  0.3776  0.8812 -0.5102
  719TMC3    O210691   4.620   0.380  12.405  0.8839 -0.5785 -0.7458
  720MPD2     C10692   3.345   1.184  13.968 -0.1819  0.1991 -0.5244
  720MPD2    C110693   3.336   1.315  14.008  0.3393  0.0322  0.2073
  720MPD2    C210694   3.409   1.361  14.117  0.7497 -0.7409  0.7249
  720MPD2    C310695   3.507   1.281  14.170 -0.3263 -0.1725 -0.1413
  720MPD2    C410696   3.504   1.151  14.135 -0.0776  0.0925 -0.1202
  720MPD2    C510697   3.433   1.103  14.031 -0.2376  0.9761 -0.3120
  720MPD2     H10698   3.393   1.467  14.134  1.5781 -0.0036 -3.0753
  720MPD2    H110699   3.582   1.086  14.172  1.6913  1.5991 -1.1863
  720MPD2    H210700   3.291   1.161  13.878  0.6644 -0.1127 -0.9491
  720MPD2    H310701   3.450   1.004  13.989 -0.5583  0.6106  0.4050
  720MPD2     N10702   3.613   1.339  14.233 -0.7662  0.2066  0.2477
  720MPD2    H510703   3.703   1.292  14.220 -0.8225  0.4936 -1.1902
  720MPD2    N110704   3.256   1.407  13.941  0.1829  0.5898  0.4565
  720MPD2    H710705   3.254   1.496  13.988  1.1834 -0.1471  1.9072
  721TMC3    C110706   3.714   1.542  14.292 -0.5229 -0.2984  0.1501
  721TMC3    C210707   3.715   1.657  14.372 -0.1127  0.2621 -1.0613
  721TMC3    C310708   3.800   1.764  14.344  0.3269  0.5231  0.3499
  721TMC3    C410709   3.810   1.527  14.199  0.3244 -0.5652  0.3063
  721TMC3    C510710   3.902   1.630  14.178  0.1639 -0.2974 -0.2802
  721TMC3    C610711   3.898   1.746  14.245 -0.2275  0.5307 -1.0194
  721TMC3     C10712   3.595   1.463  14.285 -0.0263  0.1388 -0.0168
  721TMC3     O10713   3.497   1.514  14.339  0.2387  0.5480  0.0031
  721TMC3     H10714   3.639   1.666  14.449  1.3646 -2.6301  0.6952
  721TMC3    H110715   3.810   1.440  14.134 -1.6635 -1.3808  1.3907
  721TMC3    H210716   3.970   1.824  14.225  1.2865 -0.8678 -1.0480
  721TMC3    C710717   4.031   1.603  14.113  0.6119  0.7565 -0.1476
  721TMC3    C810718   3.774   1.891  14.410 -0.6218 -0.1601  0.0560
  721TMC3    O110719   4.090   1.700  14.076 -0.4527  0.2074 -0.0479
  721TMC3    O210720   3.816   1.991  14.347  0.7377  0.3556  0.5480
  722MPD2     C10721   1.906   0.791  13.583 -0.5966  0.5856  0.7514
  722MPD2    C110722   1.972   0.866  13.489 -0.4747  0.4543 -0.6395
  722MPD2    C210723   1.946   0.840  13.355 -0.3823 -0.0112  0.5192
  722MPD2    C310724   1.840   0.767  13.311  0.1710  0.0183  0.1281
  722MPD2    C410725   1.763   0.706  13.407 -0.1639  0.3689  0.3330
  722MPD2    C510726   1.798   0.725  13.539  0.8933  0.3113  0.6727
  722MPD2     H10727   2.017   0.885  13.286 -1.9320  0.2776 -0.9073
  722MPD2    H110728   1.672   0.657  13.375 -0.8996  0.6129  2.1112
  722MPD2    H210729   1.921   0.803  13.689  1.6887 -1.7428  0.7023
  722MPD2    H310730   1.725   0.687  13.611  1.2846 -1.8418 -0.0787
  722MPD2     N10731   1.822   0.759  13.169  0.2755  0.3957 -0.3512
  722MPD2    H510732   1.897   0.801  13.114 -0.6051  1.7836 -0.4642
  722MPD2    N110733   2.075   0.955  13.535  0.3040 -0.1205 -0.3329
  722MPD2    H710734   2.119   1.021  13.472 -1.4791  0.3174 -1.1399
  723TMC3    C110735   1.765   0.667  12.975  0.8855  0.2801 -1.0825
  723TMC3    C210736   1.701   0.563  12.908  0.2721 -0.3156  0.0562
  723TMC3    C310737   1.707   0.570  12.775 -0.3955  0.8659  0.8540
  723TMC3    C410738   1.832   0.773  12.910  0.7353 -0.2740  0.4739
  723TMC3    C510739   1.830   0.771  12.775  0.3863 -1.2505  0.1606
  723TMC3    C610740   1.777   0.664  12.705 -0.0086  0.3741  0.5307
  723TMC3     C10741   1.734   0.674  13.113  0.1222  0.0027  0.9250
  723TMC3     O10742   1.640   0.605  13.158 -0.7215 -0.0579 -0.1171
  723TMC3     H10743   1.625   0.502  12.954  0.3748 -0.3346  0.2030
  723TMC3    H110744   1.887   0.854  12.956  2.1968 -0.1522 -1.5299
  723TMC3    H210745   1.780   0.670  12.597 -1.9846  1.1758  0.5157
  723TMC3    C710746   1.866   0.890  12.700  0.5793 -0.5583 -0.4133
  723TMC3    C810747   1.623   0.480  12.682  0.3086 -0.6280 -0.6302
  723TMC3    O110748   1.902   0.883  12.587 -0.4278  0.0397  0.7413
  723TMC3    O210749   1.597   0.531  12.575  0.7161 -0.2394  0.1217
  724TMC3    C110750   3.087   3.237  10.381  0.6553 -0.1175  0.2972
  724TMC3    C210751   2.996   3.336  10.364 -0.2748 -0.2289  0.4286
  724TMC3    C310752   3.035   3.453  10.309  0.2128  0.5504  0.0545
  724TMC3    C410753   3.208   3.243  10.321 -0.1340  0.6574 -0.3306
  724TMC3    C510754   3.238   3.359  10.254  0.1489  0.3838  0.1360
  724TMC3    C610755   3.160   3.466  10.252  0.1518  0.7006  0.5432
  724TMC3     C10756   3.038   3.115  10.435  0.0318 -0.0864  0.1225
  724TMC3     O10757   3.121   3.025  10.441 -0.2642 -0.3066 -0.0948
  724TMC3     H10758   2.904   3.338  10.420 -0.9696  1.1147 -0.7641
  724TMC3    H110759   3.280   3.162  10.323  2.7334  3.1436 -1.3321
  724TMC3    H210760   3.190   3.560  10.208 -0.9427  0.2661 -1.1553
  724TMC3    C710761   3.349   3.371  10.165  0.8609 -0.0873  0.5709
  724TMC3    C810762   2.930   3.548  10.284  0.2980 -0.0784  0.1154
  724TMC3    O110763   3.335   3.430  10.057 -0.5418 -0.5408 -0.2695
  724TMC3    O210764   2.820   3.490  10.284 -0.0162 -0.0248 -0.4322
  725TMC3    C110765   3.961   2.337  13.248 -0.1547  0.1042  0.1935
  725TMC3    C210766   3.831   2.323  13.197  0.1249 -0.1199  0.0298
  725TMC3    C310767   3.795   2.204  13.137  0.8800 -0.9391 -1.1219
  725TMC3    C410768   4.056   2.241  13.232  0.3555  0.1839  0.1061
  725TMC3    C510769   4.016   2.129  13.168  0.6786 -0.3649  0.4451
  725TMC3    C610770   3.888   2.109  13.126  0.1509  0.4853  0.2625
  725TMC3     C10771   3.983   2.422  13.360  0.0614  0.3634  0.1942
  725TMC3     O10772   3.926   2.529  13.361  0.0515  0.3895  0.3052
  725TMC3     H10773   3.750   2.394  13.212 -0.0958 -0.5591  0.9545
  725TMC3    H110774   4.163   2.256  13.244  0.8984 -1.2674 -2.7915
  725TMC3    H210775   3.859   2.015  13.082  1.7128 -1.0440  2.4806
  725TMC3    C710776   4.121   2.040  13.122 -0.5292 -0.2746  0.6120
  725TMC3    C810777   3.654   2.165  13.142 -0.4437  0.1015  0.0729
  725TMC3    O110778   4.103   1.974  13.021  0.5321 -0.7435 -0.3791
  725TMC3    O210779   3.626   2.064  13.210  0.2410  0.4241 -0.4499
  726MPD2     C10780   1.893   3.635  10.365  0.3823  0.3276  0.3417
  726MPD2    C110781   1.851   3.761  10.400  0.5443  0.4428  0.0902
  726MPD2    C210782   1.809   3.778  10.531 -0.0691  0.6802 -0.5609
  726MPD2    C310783   1.800   3.675  10.622  0.1481  0.3682 -0.3037
  726MPD2    C410784   1.855   3.552  10.585  0.1503  0.0398 -0.1439
  726MPD2    C510785   1.899   3.526  10.453 -0.5184  0.5639  0.6792
  726MPD2     H10786   1.760   3.873  10.551  0.7768  0.5171  2.3056
  726MPD2    H110787   1.851   3.471  10.657 -0.0811 -0.5989 -0.8852
  726MPD2    H210788   1.921   3.611  10.263  2.2062  1.2966  0.6057
  726MPD2    H310789   1.937   3.429  10.424 -1.1133  1.0115 -1.6605
  726MPD2     N10790   1.735   3.705  10.746 -0.4044 -0.1292  0.2633
  726MPD2    H510791   1.711   3.801  10.766  2.1719  0.4674  0.5447
  726MPD2    N110792   1.822   3.868  10.312 -0.5238 -0.1253  0.2644
  726MPD2    H710793   1.784   3.952  10.355 -0.0284  0.1101  0.2476
  727TMC3    C110794   1.777   3.992  10.116  0.0925 -0.2185 -0.4731
  727TMC3    C210795   1.788   4.115  10.186 -0.3673 -0.2032 -0.1199
  727TMC3    C310796   1.762   4.230  10.120  0.7338  0.6367 -0.1769
  727TMC3    C410797   1.743   3.995   9.984 -1.2009 -0.4291  0.3506
  727TMC3    C510798   1.726   4.121   9.931  0.6213 -0.4316 -0.5102
  727TMC3    C610799   1.732   4.236   9.993 -0.5586  0.6237  0.1834
  727TMC3     C10800   1.814   3.864  10.175 -0.0724  0.4774  0.1313
  727TMC3     O10801   1.809   3.759  10.115 -0.0950 -0.2794 -0.2889
  727TMC3     H10802   1.811   4.123  10.292  2.9340  2.0437 -1.0058
  727TMC3    H110803   1.728   3.908   9.921 -1.8475 -0.2047  0.2038
  727TMC3    H210804   1.716   4.329   9.939 -0.4780  0.6308  0.1720
  727TMC3    C710805   1.728   4.113   9.785 -0.7382  0.2340 -1.0842
  727TMC3    C810806   1.815   4.350  10.183 -0.4557 -0.4057  0.1838
  727TMC3    O110807   1.727   4.001   9.736 -0.1876  0.6781  0.0916
  727TMC3    O210808   1.887   4.326  10.279 -0.5268 -0.3170 -0.6607
  728TMC3    C110809   1.390   3.041  15.612  0.2891 -0.3976 -0.1833
  728TMC3    C210810   1.458   3.161  15.623 -0.0528 -0.1347 -0.4720
  728TMC3    C310811   1.471   3.234  15.510 -0.8260 -0.3308  0.0154
  728TMC3    C410812   1.325   2.998  15.499 -0.3919 -0.4833  0.3168
  728TMC3    C510813   1.337   3.078  15.386 -0.3678 -0.7298  0.3050
  728TMC3    C610814   1.410   3.193  15.394 -0.1253  1.0975 -0.0450
  728TMC3     C10815   1.359   2.986  15.735  0.3045 -0.2503  1.3441
  728TMC3     O10816   1.352   3.067  15.827  0.2783 -0.1848 -0.6019
  728TMC3     H10817   1.514   3.181  15.714 -2.1127 -1.3373  1.0559
  728TMC3    H110818   1.269   2.905  15.504 -3.3734  1.4128  1.3458
  728TMC3    H210819   1.415   3.265  15.312 -0.3958  0.2835 -0.7722
  728TMC3    C710820   1.247   3.047  15.285  0.6629  1.0885 -0.2868
  728TMC3    C810821   1.576   3.332  15.500 -0.4055  0.0422  0.5901
  728TMC3    O110822   1.255   2.930  15.253 -0.4356 -0.0625 -0.0978
  728TMC3    O210823   1.605   3.360  15.383 -0.3703 -0.3217 -0.0315
  729MPD2     C10824   3.093   3.561  17.168  0.4463  0.2234  0.3974
  729MPD2    C110825   3.197   3.513  17.242  0.3814 -0.9553  0.5514
  729MPD2    C210826   3.182   3.521  17.382  0.0040 -0.0624  0.4718
  729MPD2    C310827   3.077   3.586  17.444  0.5204 -0.2278  0.3588
  729MPD2    C410828   2.973   3.633  17.367 -0.3120 -0.0291 -0.2448
  729MPD2    C510829   2.978   3.607  17.229  0.5569  0.3065  0.3397
  729MPD2     H10830   3.259   3.476  17.444  0.3302 -0.0658  0.0684
  729MPD2    H110831   2.890   3.696  17.399 -0.8185 -0.3482 -0.9336
  729MPD2    H210832   3.088   3.543  17.061  1.3239  1.4929  0.1475
  729MPD2    H310833   2.900   3.638  17.160  1.2622  0.7867 -0.2436
  729MPD2     N10834   3.067   3.616  17.583 -0.4931 -0.2893 -0.2762
  729MPD2    H510835   2.992   3.682  17.600 -0.0919 -0.1194  0.8031
  729MPD2    N110836   3.316   3.490  17.175  0.3360  0.8801 -0.0544
  729MPD2    H710837   3.322   3.510  17.076 -2.0146 -0.0728 -0.4013
  730TMC3    C110838   3.164   3.675   0.034 -0.1509 -0.0019 -0.8962
  730TMC3    C210839   3.290   3.721   0.073 -0.5301 -0.8219 -0.1079
  730TMC3    C310840   3.292   3.820   0.164 -0.1610  0.0379  0.0541
  730TMC3    C410841   3.043   3.724   0.070  0.5236  0.2527 -0.7503
  730TMC3    C510842   3.050   3.823   0.162 -0.4831 -0.1027  0.4284
  730TMC3    C610843   3.172   3.867   0.215 -0.1486  1.1403 -0.0239
  730TMC3     C10844   3.159   3.578  17.673  0.3260  0.1998 -0.5368
  730TMC3     O10845   3.245   3.489  17.667  0.0666  0.3990  0.1442
  730TMC3     H10846   3.384   3.680   0.040 -1.0524 -1.0527 -1.2978
  730TMC3    H110847   2.943   3.692   0.041  1.5486 -2.0595 -1.6979
  730TMC3    H210848   3.177   3.947   0.288 -4.6644  0.2438  1.2933
  730TMC3    C710849   2.973   3.937   0.101 -0.4976 -0.3628  0.4777
  730TMC3    C810850   3.384   3.921   0.118 -0.3842 -0.0569  0.1295
  730TMC3    O110851   2.956   3.931  17.726 -0.1807 -0.2727 -0.0083
  730TMC3    O210852   3.486   3.882   0.068 -0.4161  0.0069 -0.5750
  731MPD2     C10853   3.788   2.005  12.653  0.2184  0.3341 -0.2397
  731MPD2    C110854   3.713   1.920  12.570  0.0591  0.2209 -0.3587
  731MPD2    C210855   3.611   1.840  12.624  0.3454 -0.0852  0.7444
  731MPD2    C310856   3.583   1.832  12.762 -0.2340 -0.1422 -0.0421
  731MPD2    C410857   3.656   1.919  12.835 -1.0379  0.0279 -0.0972
  731MPD2    C510858   3.745   2.006  12.785 -0.2327  0.1449 -0.3227
  731MPD2     H10859   3.550   1.772  12.565  2.4140  0.9473 -2.6183
  731MPD2    H110860   3.626   1.942  12.936  2.3174  0.1350  0.8733
  731MPD2    H210861   3.873   2.068  12.629 -1.4265  2.2137 -1.1052
  731MPD2    H310862   3.777   2.087  12.850  1.2933 -1.0586  0.3920
  731MPD2     N10863   3.488   1.743  12.825  0.0208  0.5154  0.3517
  731MPD2    H510864   3.427   1.691  12.762  0.5012 -2.6096  2.4510
  731MPD2    N110865   3.742   1.924  12.428 -0.0837 -0.6053  0.9246
  731MPD2    H710866   3.810   1.991  12.394 -0.4762 -1.0073 -0.6834
  732TMC3    C110867   3.676   1.912  12.201  0.7896  0.1850  0.1830
  732TMC3    C210868   3.575   1.885  12.113 -0.2332  0.0229 -0.2696
  732TMC3    C310869   3.591   1.932  11.984 -0.6422  0.0288  0.3014
  732TMC3    C410870   3.797   1.961  12.160  0.1045 -0.0222 -0.2024
  732TMC3    C510871   3.816   1.988  12.024 -0.3773  0.0471  0.4571
  732TMC3    C610872   3.711   1.983  11.936  0.5895  0.0686  0.5330
  732TMC3     C10873   3.663   1.856  12.331  0.1940  0.8514 -0.0878
  732TMC3     O10874   3.570   1.776  12.347 -0.1028  0.4977 -0.2743
  732TMC3     H10875   3.478   1.856  12.150 -0.8709  0.4319 -1.6160
  732TMC3    H110876   3.879   1.967  12.231 -0.8869 -0.8428  1.0025
  732TMC3    H210877   3.735   1.995  11.831 -1.2402  1.6308  0.2948
  732TMC3    C710878   3.946   2.040  11.986  0.1018 -0.0873 -0.4120
  732TMC3    C810879   3.493   1.903  11.880 -0.0048  0.6256 -0.4404
  732TMC3    O110880   3.954   2.140  11.921 -0.2572  0.3423 -0.5542
  732TMC3    O210881   3.527   1.927  11.765  0.1759 -0.4804  0.0941
  733TMC3    C110882   3.809   4.668  13.007  0.3044 -0.7709  0.3627
  733TMC3    C210883   3.926   4.616  13.057  0.3437 -0.9300 -0.9691
  733TMC3    C310884   4.042   4.640  13.001  0.2435 -0.7786 -1.0953
  733TMC3    C410885   3.814   0.015  12.900 -0.4863  1.1771 -0.7974
  733TMC3    C510886   3.939   0.031  12.842  0.0748  0.1533  0.1808
  733TMC3    C610887   4.058   4.721  12.895 -0.6983  0.2565  0.1124
  733TMC3     C10888   3.698   4.666  13.099 -0.3455 -0.5094  0.9180
  733TMC3     O10889   3.700   4.570  13.180  0.3296 -0.2261 -0.1846
  733TMC3     H10890   3.928   4.537  13.131 -1.8336 -0.6759 -0.6342
  733TMC3    H110891   3.731   0.066  12.853 -1.4158 -0.6608 -1.1203
  733TMC3    H210892   4.157   0.010  12.860 -0.7300 -1.3293 -1.1420
  733TMC3    C710893   3.962   0.143  12.749  0.1563 -0.5057  0.2604
  733TMC3    C810894   4.162   4.583  13.057 -0.1453 -0.1180 -0.2829
  733TMC3    O110895   3.894   0.247  12.759 -0.2271 -0.6037 -0.6168
  733TMC3    O210896   4.162   4.578  13.179  0.3904  0.5088  0.0854
  734MPD2     C10897   1.624   2.956  12.697  0.4244 -0.1427 -0.0912
  734MPD2    C110898   1.508   2.899  12.653 -0.2083 -0.6573 -0.6370
  734MPD2    C210899   1.514   2.841  12.526  0.2622  0.3824  0.0567
  734MPD2    C310900   1.637   2.821  12.459 -0.2299 -0.6089 -0.1184
  734MPD2    C410901   1.751   2.871  12.515 -0.4712 -1.3036 -0.7344
  734MPD2    C510902   1.743   2.946  12.631  1.4399 -0.0657  0.5994
  734MPD2     H10903   1.428   2.789  12.485  0.1614 -0.3072  1.1367
  734MPD2    H110904   1.850   2.855  12.474  0.5428  1.4647  0.6035
  734MPD2    H210905   1.623   2.995  12.798  2.2002 -0.5285  0.0832
  734MPD2    H310906   1.835   2.978  12.678  0.6064  1.2035  1.3863
  734MPD2     N10907   1.635   2.747  12.342  0.1694  0.0082 -0.0313
  734MPD2    H510908   1.538   2.729  12.319  0.2550 -0.3473 -0.1129
  734MPD2    N110909   1.393   2.915  12.726 -0.4502 -0.3340  0.2703
  734MPD2    H710910   1.391   2.954  12.820 -0.9943 -2.1819  1.0278
  735TMC3    C110911   1.202   2.822  12.800  0.7014  0.6980  0.0389
  735TMC3    C210912   1.087   2.772  12.758 -0.4455  0.2169  0.1176
  735TMC3    C310913   1.072   2.633  12.791 -0.3533  0.7030 -0.2645
  735TMC3    C410914   1.286   2.754  12.893  0.0895  0.4589 -0.1157
  735TMC3    C510915   1.274   2.623  12.909  0.3347  0.9081  0.0695
  735TMC3    C610916   1.158   2.562  12.869  0.7757 -0.3777  0.5272
  735TMC3     C10917   1.272   2.866  12.684  0.4083  0.1158  0.0377
  735TMC3     O10918   1.234   2.827  12.575 -0.5440  0.2479 -0.1555
  735TMC3     H10919   1.029   2.808  12.674 -2.1414  2.2694  2.1738
  735TMC3    H110920   1.383   2.784  12.929 -0.6481  0.2464  2.0485
  735TMC3    H210921   1.142   2.458  12.898  2.0853 -0.4705  0.8824
  735TMC3    C710922   1.390   2.562  12.856  0.0229 -0.7100  0.1361
  735TMC3    C810923   1.024   2.550  12.684  0.3514  0.1856  0.1408
  735TMC3    O110924   1.421   2.609  12.746 -0.3111 -0.1330 -0.9603
  735TMC3    O210925   0.964   2.449  12.713  0.6686  0.4143 -0.5982
  736MPD2     C10926   1.561   2.269  12.993  0.4662  0.4565 -0.3552
  736MPD2    C110927   1.545   2.371  12.902  0.0396 -0.2140 -0.0070
  736MPD2    C210928   1.639   2.386  12.802  0.4045 -0.1209 -0.1910
  736MPD2    C310929   1.736   2.287  12.794  0.1808  0.0049 -0.1282
  736MPD2    C410930   1.746   2.181  12.878 -0.4441  0.6099 -0.4279
  736MPD2    C510931   1.662   2.177  12.986 -0.4464  0.2608 -0.0615
  736MPD2     H10932   1.633   2.477  12.743  2.0372 -1.0795 -1.8277
  736MPD2    H110933   1.826   2.108  12.864 -2.3364 -1.4556 -0.4535
  736MPD2    H210934   1.482   2.254  13.066  0.5487 -0.4880 -0.4567
  736MPD2    H310935   1.666   2.091  13.052 -0.3878  0.3868  0.0994
  736MPD2     N10936   1.836   2.279  12.697  0.0542 -0.5307 -0.0104
  736MPD2    H510937   1.898   2.199  12.695 -1.6364 -1.7924 -1.8666
  736MPD2    N110938   1.436   2.456  12.932  0.0209 -0.8134 -0.2455
  736MPD2    H710939   1.386   2.442  13.019  0.0687 -1.1652 -0.2734
  737TMC3    C110940   1.948   2.350  12.500 -0.3302 -0.2543  0.2513
  737TMC3    C210941   1.980   2.453  12.418 -0.3380 -0.3200 -0.3762
  737TMC3    C310942   2.034   2.421  12.295  0.6827 -0.1885  0.4142
  737TMC3    C410943   1.948   2.222  12.446 -0.2960 -0.0101 -0.0312
  737TMC3    C510944   2.016   2.194  12.333  0.1051  0.1828 -0.0574
  737TMC3    C610945   2.060   2.292  12.250  0.0319  0.0950  0.0455
  737TMC3     C10946   1.859   2.379  12.603  0.1840 -0.8001 -0.1815
  737TMC3     O10947   1.806   2.490  12.595 -0.1963 -0.6226 -0.5015
  737TMC3     H10948   1.976   2.557  12.446 -1.3555  0.3767 -3.0743
  737TMC3    H110949   1.915   2.146  12.515  2.1849 -0.6828  0.4074
  737TMC3    H210950   2.115   2.275  12.158 -0.5608  0.1343 -0.3108
  737TMC3    C710951   2.043   2.057  12.293  0.2141  0.8708  1.1713
  737TMC3    C810952   2.066   2.526  12.206 -0.1109  0.8735  0.2183
  737TMC3    O110953   1.989   1.983  12.375  0.0536  0.4130  1.0166
  737TMC3    O210954   2.141   2.618  12.239 -0.1626  0.0765  0.2179
  738MPD2     C10955   2.108   1.008  15.164 -0.9125  0.0773 -0.0945
  738MPD2    C110956   2.142   0.875  15.188 -0.6428  0.0634 -0.2722
  738MPD2    C210957   2.276   0.858  15.200 -0.4466  0.1960  0.0135
  738MPD2    C310958   2.366   0.964  15.182  0.6537  0.4895 -0.9675
  738MPD2    C410959   2.321   1.097  15.163  0.0796 -0.0538 -0.5606
  738MPD2    C510960   2.184   1.118  15.166 -0.1188 -0.5937  0.3396
  738MPD2     H10961   2.310   0.756  15.210 -1.9058 -0.2984 -0.0255
  738MPD2    H110962   2.391   1.179  15.148  0.3660 -0.1461  0.2679
  738MPD2    H210963   2.004   1.029  15.141 -0.8350 -0.2434 -0.7114
  738MPD2    H310964   2.139   1.215  15.150  1.1242 -0.2177 -0.8968
  738MPD2     N10965   2.504   0.953  15.183 -0.0714 -0.2804  0.1687
  738MPD2    H510966   2.560   1.035  15.160 -0.6129 -0.2341 -0.9773
  738MPD2    N110967   2.053   0.766  15.192 -0.1967  0.0562  0.0428
  738MPD2    H710968   2.099   0.677  15.205  1.0346  0.6025 -0.6253
  739TMC3    C110969   2.707   0.865  15.200  0.3938 -0.0675  0.3760
  739TMC3    C210970   2.747   0.964  15.115  0.1427 -0.0385  0.1130
  739TMC3    C310971   2.880   0.991  15.088 -0.5646 -0.4877 -0.2403
  739TMC3    C410972   2.802   0.803  15.280  1.0394  0.2939 -0.1560
  739TMC3    C510973   2.929   0.835  15.252 -0.2224 -0.0658  0.6271
  739TMC3    C610974   2.974   0.921  15.155  0.1993  0.4018  0.3282
  739TMC3     C10975   2.571   0.850  15.236 -0.7621 -0.5001  0.8805
  739TMC3     O10976   2.536   0.764  15.314 -0.0593 -0.1415  0.2468
  739TMC3     H10977   2.673   1.019  15.058  0.8961 -0.6483 -1.4507
  739TMC3    H110978   2.776   0.744  15.368 -1.3485 -1.6357 -2.1695
  739TMC3    H210979   3.074   0.958  15.135  0.5254 -1.7632 -2.0610
  739TMC3    C710980   3.024   0.795  15.354 -0.2399  0.5700 -0.5892
  739TMC3    C810981   2.898   1.020  14.949  0.3528 -0.5804 -0.7309
  739TMC3    O110982   3.000   0.697  15.424  0.7294  0.5734 -0.0507
  739TMC3    O210983   2.798   1.008  14.882 -0.0051  0.5791  0.3223
  740TMC3    C110984   3.115   2.064  14.896  0.1717  0.4326  0.0547
  740TMC3    C210985   3.133   1.978  14.999 -0.4221  0.1747  0.1626
  740TMC3    C310986   3.240   1.896  14.995  0.2707  0.1053 -0.3771
  740TMC3    C410987   3.200   2.061  14.788  0.0309  0.8214  0.1745
  740TMC3    C510988   3.293   1.969  14.780  0.2669  0.3022 -0.2020
  740TMC3    C610989   3.318   1.890  14.891  0.3284 -0.1011  0.0042
  740TMC3     C10990   2.994   2.150  14.884 -0.8189  0.5060  0.3500
  740TMC3     O10991   3.002   2.220  14.784 -0.5061  0.6912 -0.4019
  740TMC3     H10992   3.066   1.972  15.083 -0.8408 -1.0529 -0.2633
  740TMC3    H110993   3.178   2.120  14.700 -3.1074  0.2974  0.6239
  740TMC3    H210994   3.402   1.821  14.889  2.4701  2.5012 -0.9949
  740TMC3    C710995   3.332   1.906  14.654 -0.4345  0.7893  0.1680
  740TMC3    C810996   3.254   1.784  15.092  0.2740 -0.8248 -0.6943
  740TMC3    O110997   3.362   1.788  14.656 -0.2267  0.1327 -0.4177
  740TMC3    O210998   3.342   1.704  15.067 -0.1380 -0.4371 -0.5065
  741TMC3    C110999   2.582   1.539  14.524 -0.7239 -0.7431  0.1524
  741TMC3    C211000   2.472   1.459  14.512 -0.3556  0.4386 -0.3005
  741TMC3    C311001   2.444   1.360  14.599  0.3208  0.3699  0.5153
  741TMC3    C411002   2.681   1.502  14.611 -0.7348 -0.0634  0.0426
  741TMC3    C511003   2.661   1.390  14.688  0.6417  0.5176 -0.1044
  741TMC3    C611004   2.536   1.332  14.694  0.3655  1.0716  0.0797
  741TMC3     C11005   2.586   1.649  14.431  0.0451 -0.3333  0.0521
  741TMC3     O11006   2.483   1.685  14.385  0.3738  0.0395 -0.1668
  741TMC3     H11007   2.397   1.491  14.440 -0.4724  2.2145  0.5995
  741TMC3    H111008   2.774   1.555  14.625 -0.0470 -1.7342  1.7613
  741TMC3    H211009   2.517   1.249  14.762 -0.9730  0.4629 -1.0401
  741TMC3    C711010   2.753   1.370  14.790 -0.3512 -0.4617  0.4222
  741TMC3    C811011   2.319   1.292  14.587 -0.5926  0.5149  0.4131
  741TMC3    O111012   2.873   1.399  14.778 -0.2626  0.2385 -0.4818
  741TMC3    O211013   2.226   1.345  14.524  0.4457  0.1301 -0.4277
  742TMC3    C111014   2.462   4.411  15.774 -0.3082  0.2264  0.6956
  742TMC3    C211015   2.397   4.483  15.678  0.3213 -0.5430 -0.2035
  742TMC3    C311016   2.466   4.489  15.561  0.1265 -0.2140 -0.2767
  742TMC3    C411017   2.594   4.376  15.771  0.0692  0.5822 -0.2850
  742TMC3    C511018   2.654   4.380  15.648 -0.6509 -0.6156  0.7615
  742TMC3    C611019   2.592   4.443  15.544  0.1550 -0.1613  0.3803
  742TMC3     C11020   2.384   4.386  15.895 -0.7173  0.3279  0.7977
  742TMC3     O11021   2.264   4.416  15.893  0.7775 -0.0810 -0.3913
  742TMC3     H11022   2.289   4.486  15.686  0.5121  1.2826  1.6255
  742TMC3    H111023   2.628   4.308  15.848 -1.0889  1.3046  0.8503
  742TMC3    H211024   2.646   4.449  15.450 -3.7012 -0.7139 -1.8699
  742TMC3    C711025   2.801   4.373  15.633  0.3831 -0.3898  0.1310
  742TMC3    C811026   2.394   4.523  15.440  0.1534 -0.0290 -0.0954
  742TMC3    O111027   2.840   4.324  15.526  0.0295 -0.2559  0.3164
  742TMC3    O211028   2.442   4.503  15.330 -0.1774 -0.0682 -0.0757
  743MPD2     C11029   0.115   1.888   1.923 -0.2773 -0.1230  0.6096
  743MPD2    C111030   0.155   1.790   1.833  0.1359 -0.3969 -0.2599
  743MPD2    C211031   0.294   1.758   1.830 -0.1740  0.4130 -0.2147
  743MPD2    C311032   0.388   1.804   1.922  0.1447  0.5647  0.5724
  743MPD2    C411033   0.342   1.904   2.007 -0.3774 -0.4845  0.1412
  743MPD2    C511034   0.208   1.943   2.005 -0.0540 -0.5423  0.1113
  743MPD2     H11035   0.324   1.692   1.749 -2.6983 -0.4176 -0.4716
  743MPD2    H111036   0.409   1.954   2.076 -1.1552 -1.1334  1.3627
  743MPD2    H211037   0.013   1.922   1.937  0.3639  0.9206  2.6864
  743MPD2    H311038   0.185   2.038   2.053  0.5182 -0.1451 -0.4117
  743MPD2     N11039   0.525   1.774   1.900  0.0297  0.1377  0.0596
  743MPD2    H511040   0.537   1.716   1.817 -0.2983 -0.2308  0.2681
  743MPD2    N111041   0.057   1.739   1.744  0.3809  0.1994 -0.1835
  743MPD2    H711042   4.698   1.770   1.757  0.7683  1.5753 -0.6363
  744TMC3    C111043   4.700   1.613   1.569  0.0222  0.1722 -0.6854
  744TMC3    C211044   4.576   1.652   1.609  0.2984 -0.6561 -0.3326
  744TMC3    C311045   4.464   1.624   1.537 -0.1144  0.0551 -0.4811
  744TMC3    C411046   4.720   1.555   1.446 -0.4950  0.0159 -0.2865
  744TMC3    C511047   4.612   1.523   1.371 -0.0095 -0.1376 -0.0999
  744TMC3    C611048   4.484   1.561   1.417 -0.6327  0.3994 -0.6986
  744TMC3     C11049   0.086   1.668   1.631 -0.2516 -0.2931 -1.5306
  744TMC3     O11050   0.190   1.616   1.598  0.2737  0.3695  0.6795
  744TMC3     H11051   4.559   1.675   1.714 -0.6691  0.0917 -0.6549
  744TMC3    H111052   0.080   1.511   1.426 -0.6194  0.1076 -1.0866
  744TMC3    H211053   4.403   1.539   1.348 -2.2430  1.3207  0.9154
  744TMC3    C711054   4.636   1.455   1.237  0.0702  0.2577 -0.3628
  744TMC3    C811055   4.339   1.688   1.576  0.0764  0.6802  0.5603
  744TMC3    O111056   0.009   1.413   1.206  0.5235  0.2655  0.8238
  744TMC3    O211057   4.343   1.745   1.686  0.0687 -0.7614 -0.7285
  745TMC3    C111058   2.367   0.102  13.890  0.2783  0.0720  0.2935
  745TMC3    C211059   2.372   0.113  14.023  0.3744  0.0384 -0.2079
  745TMC3    C311060   2.365   0.239  14.088 -0.0323 -1.0626 -0.4548
  745TMC3    C411061   2.363   0.212  13.811 -0.0900  0.0605  0.0991
  745TMC3    C511062   2.372   0.333  13.879  0.5803  0.0988  0.7448
  745TMC3    C611063   2.368   0.354  14.015 -0.5531  0.3334  0.1913
  745TMC3     C11064   2.460   4.735  13.838  0.0781  0.0762  0.4386
  745TMC3     O11065   2.436   4.711  13.718  1.3369  0.1889  0.0744
  745TMC3     H11066   2.389   0.020  14.075 -3.0136  0.3800  1.5641
  745TMC3    H111067   2.373   0.207  13.704 -0.9485  0.0365  0.0221
  745TMC3    H211068   2.377   0.449  14.068 -0.8977 -0.5072  1.7518
  745TMC3    C711069   2.380   0.448  13.790 -0.1896 -0.4872 -0.1792
  745TMC3    C811070   2.452   0.240  14.207 -0.7832  0.2788 -0.2606
  745TMC3    O111071   2.327   0.550  13.835 -0.1885 -0.1051 -0.0045
  745TMC3    O211072   2.541   0.322  14.207 -0.8346 -0.1645  0.4489
  746TMC3    C111073   0.543   1.510  11.476 -0.2727  0.4159 -0.6550
  746TMC3    C211074   0.628   1.423  11.422 -0.0296  0.8404 -0.4733
  746TMC3    C311075   0.581   1.313  11.356  0.4436  1.1736  0.0141
  746TMC3    C411076   0.406   1.491  11.483 -0.8085  0.0162  0.1719
  746TMC3    C511077   0.360   1.381  11.410 -0.4525  0.1387 -0.1912
  746TMC3    C611078   0.448   1.293  11.348  0.2838  0.4893 -0.2883
  746TMC3     C11079   0.584   1.644  11.518 -0.3494  0.3054  0.8878
  746TMC3     O11080   0.515   1.694  11.609 -0.2827 -0.3549  0.2345
  746TMC3     H11081   0.735   1.437  11.424 -0.2286  2.4353 -0.9829
  746TMC3    H111082   0.349   1.568  11.533 -1.5885 -0.1513 -0.4655
  746TMC3    H211083   0.414   1.205  11.293  0.8459 -0.4180  0.8168
  746TMC3    C711084   0.222   1.378  11.377 -0.1793 -0.0820  0.2298
  746TMC3    C811085   0.654   1.256  11.247  0.2002  0.1153  0.0809
  746TMC3    O111086   0.183   1.324  11.274 -0.4802 -0.6473  0.7196
  746TMC3    O211087   0.645   1.137  11.211  0.3113  0.2491  0.1094
  747TMC3    C111088   2.701   1.914  11.486  0.7115  0.7550  0.2518
  747TMC3    C211089   2.614   1.841  11.564  0.6629  0.6065  0.0454
  747TMC3    C311090   2.618   1.842  11.704  0.3716  0.4461 -0.5053
  747TMC3    C411091   2.793   1.988  11.553  0.1028 -0.1317  0.2634
  747TMC3    C511092   2.792   1.990  11.690 -0.0643  1.3020  0.5040
  747TMC3    C611093   2.709   1.922  11.767 -0.2941 -0.0142  0.4875
  747TMC3     C11094   2.715   1.906  11.340  0.9740 -0.2791 -0.1560
  747TMC3     O11095   2.762   2.009  11.292 -1.0407 -0.0029  0.3798
  747TMC3     H11096   2.529   1.788  11.522  0.1098 -0.7445  2.8764
  747TMC3    H111097   2.866   2.046  11.498  1.8133 -1.1644  1.4372
  747TMC3    H211098   2.715   1.939  11.874  0.5410 -2.0908  0.7789
  747TMC3    C711099   2.913   2.049  11.750 -0.1715 -0.1395 -0.8094
  747TMC3    C811100   2.501   1.802  11.782 -0.0534 -0.3994 -0.8805
  747TMC3    O111101   2.912   2.100  11.859 -0.2152 -0.1297 -0.1926
  747TMC3    O211102   2.423   1.726  11.727  0.1202  0.0646 -0.0458
  748MPD2     C11103   3.806   2.558   1.670 -0.7696 -0.0976 -0.4803
  748MPD2    C111104   3.842   2.484   1.558 -0.3941 -0.0069 -0.4088
  748MPD2    C211105   3.969   2.474   1.517  0.1068  0.1081  0.1634
  748MPD2    C311106   4.071   2.537   1.591 -0.7204 -0.0776 -0.0135
  748MPD2    C411107   4.035   2.617   1.703 -0.2996  0.0947  0.6057
  748MPD2    C511108   3.908   2.617   1.741 -0.4008 -0.3861 -0.5838
  748MPD2     H11109   3.996   2.417   1.429  0.4826 -0.3565  0.5813
  748MPD2    H111110   4.106   2.667   1.768 -1.5859  0.2360  1.9146
  748MPD2    H211111   3.707   2.565   1.713 -0.6382  1.3501 -0.3850
  748MPD2    H311112   3.892   2.687   1.822 -2.6153 -0.2160 -1.1630
  748MPD2     N11113   4.205   2.526   1.538 -0.1490  0.0030 -0.2860
  748MPD2    H511114   4.212   2.475   1.451  0.5436  0.6497 -0.6058
  748MPD2    N111115   3.734   2.412   1.496  0.2349 -0.4437  0.1729
  748MPD2    H711116   3.646   2.429   1.544 -0.0011 -1.4361  0.0812
  749TMC3    C111117   4.429   2.583   1.510  0.1853  0.4185 -0.2846
  749TMC3    C211118   4.555   2.556   1.563 -0.0594  0.6365  0.4536
  749TMC3    C311119   4.658   2.535   1.475 -0.2137 -0.6561  0.4464
  749TMC3    C411120   4.408   2.588   1.378 -0.6039  0.0225 -0.0569
  749TMC3    C511121   4.515   2.579   1.298  0.5949  0.0417  0.1016
  749TMC3    C611122   4.644   2.550   1.336 -0.2487 -0.8034 -0.1278
  749TMC3     C11123   4.316   2.581   1.598 -0.0126 -0.6037 -0.2888
  749TMC3     O11124   4.329   2.605   1.715 -0.1027 -0.3774 -0.0818
  749TMC3     H11125   4.578   2.560   1.669  1.6189 -1.6547  0.1749
  749TMC3    H111126   4.315   2.620   1.333 -1.1016 -1.1529  0.1362
  749TMC3    H211127   4.736   2.558   1.279  0.0578  0.0042  0.4749
  749TMC3    C711128   4.498   2.614   1.158  0.4459  0.5031 -0.7014
  749TMC3    C811129   0.055   2.542   1.523  0.4679 -0.8807  0.4174
  749TMC3    O111130   4.403   2.690   1.128  0.4893  0.1373  0.1921
  749TMC3    O211131   0.078   2.588   1.635 -0.0059 -0.2932  0.0895
  750MPD2     C11132   0.428   3.430  11.661 -0.3583 -0.1092  0.0060
  750MPD2    C111133   0.338   3.503  11.586  0.0218  0.1508 -0.5020
  750MPD2    C211134   0.334   3.482  11.448  0.4238  0.5425 -0.2038
  750MPD2    C311135   0.389   3.364  11.402  0.0731  0.7762  0.5735
  750MPD2    C411136   0.475   3.283  11.477 -0.2062 -0.5709 -0.2908
  750MPD2    C511137   0.507   3.333  11.603 -0.2128 -0.4179 -0.9945
  750MPD2     H11138   0.272   3.550  11.391 -0.1026  1.1124  1.0390
  750MPD2    H111139   0.514   3.187  11.446  0.5183 -0.1631 -0.6231
  750MPD2    H211140   0.427   3.442  11.769  1.4485  1.5060 -0.1567
  750MPD2    H311141   0.579   3.280  11.663  0.5229 -0.5092 -1.9633
  750MPD2     N11142   0.363   3.307  11.276 -0.1394  0.0211 -0.0294
  750MPD2    H511143   0.400   3.214  11.263 -0.9880 -0.5605  1.6540
  750MPD2    N111144   0.262   3.611  11.633 -0.0818 -0.1445  0.1445
  750MPD2    H711145   0.205   3.658  11.564 -0.6824 -0.3040  0.5337
  751TMC3    C111146   0.273   3.284  11.069  0.2412 -0.3217  0.4606
  751TMC3    C211147   0.218   3.165  11.096 -0.0913 -0.2013 -0.1236
  751TMC3    C311148   0.173   3.086  10.989  0.1443 -0.7867  0.4197
  751TMC3    C411149   0.335   3.308  10.950 -0.3784 -0.6840 -0.3765
  751TMC3    C511150   0.309   3.221  10.853  0.7956 -0.4761  0.6432
  751TMC3    C611151   0.216   3.116  10.863 -0.3197 -0.0143 -0.2285
  751TMC3     C11152   0.297   3.375  11.174  0.7309  0.6694  0.4867
  751TMC3     O11153   0.258   3.491  11.150 -0.0575  0.3880  0.4527
  751TMC3     H11154   0.175   3.151  11.194  0.3260 -0.9276 -0.0478
  751TMC3    H111155   0.401   3.393  10.942 -1.4258 -0.0513 -2.2355
  751TMC3    H211156   0.205   3.045  10.781  0.7383 -1.0767  0.5397
  751TMC3    C711157   0.381   3.250  10.725  0.0253 -1.0502 -0.1033
  751TMC3    C811158   0.141   2.946  11.014 -0.3715 -0.1803 -0.8364
  751TMC3    O111159   0.481   3.320  10.725 -0.2504  0.1781 -0.4299
  751TMC3    O211160   0.081   2.884  10.925  0.0168  0.3058 -0.8642
  752TMC3    C111161   4.061   2.620  17.497 -0.1875  0.4219  0.0569
  752TMC3    C211162   4.102   2.494  17.490  0.6271  1.1672 -0.4061
  752TMC3    C311163   4.051   2.396  17.576  0.3497 -0.3418  0.2792
  752TMC3    C411164   3.962   2.663  17.579  0.7208  0.1300 -0.3240
  752TMC3    C511165   3.912   2.566  17.665  0.1460  0.2644 -0.1418
  752TMC3    C611166   3.962   2.431  17.677 -0.2553 -0.2725 -0.1937
  752TMC3     C11167   4.124   2.708  17.398 -0.1953 -0.6632 -0.2585
  752TMC3     O11168   4.229   2.676  17.352 -0.4278 -0.0385  0.0124
  752TMC3     H11169   4.164   2.469  17.405 -0.4141 -0.7247 -0.5982
  752TMC3    H111170   3.916   2.759  17.559  2.7079  1.3510  1.1414
  752TMC3    H211171   3.920   2.355  17.743  0.2081 -0.3779 -0.0154
  752TMC3    C711172   3.802   2.597   0.009  0.2055 -0.4594  0.5646
  752TMC3    C811173   4.107   2.267  17.576  0.1118  0.0525  0.1707
  752TMC3    O111174   3.746   2.499   0.058  0.2663  0.4509  0.3227
  752TMC3    O211175   4.100   2.210  17.684  0.6315 -0.4885 -0.0207
  753TMC3    C111176   1.302   4.369  13.174 -0.4160  0.5488  0.2845
  753TMC3    C211177   1.393   4.445  13.250  0.1584  0.3201  0.2060
  753TMC3    C311178   1.415   4.415  13.378  0.9956 -0.1871  0.0121
  753TMC3    C411179   1.217   4.278  13.226  0.5212  0.0723  0.3371
  753TMC3    C511180   1.227   4.270  13.363 -0.0187 -0.3862  0.0618
  753TMC3    C611181   1.320   4.334  13.444 -0.1301  0.2663 -0.0009
  753TMC3     C11182   1.256   4.444  13.057 -1.0175 -0.3599 -0.1412
  753TMC3     O11183   1.197   4.383  12.969  1.0282  0.0332 -0.1139
  753TMC3     H11184   1.466   4.508  13.201  0.5336 -0.5940 -0.4187
  753TMC3    H111185   1.141   4.236  13.162  2.5972 -2.3271 -0.5646
  753TMC3    H211186   1.324   4.313  13.550  1.5673 -1.7549 -0.4571
  753TMC3    C711187   1.137   4.188  13.437 -0.2343  0.1113 -0.5190
  753TMC3    C811188   1.527   4.482  13.441 -0.2301  0.0434  0.0155
  753TMC3    O111189   1.118   4.219  13.554 -0.0514  0.8046 -0.4809
  753TMC3    O211190   1.616   4.517  13.367  0.4779  0.1771  0.3981
  754MPD2     C11191   0.383   3.349  13.390  0.4302  0.6857  0.3282
  754MPD2    C111192   0.355   3.221  13.411 -0.4266 -0.3303  0.5566
  754MPD2    C211193   0.229   3.186  13.411 -0.0366 -0.2255  0.6268
  754MPD2    C311194   0.128   3.275  13.427 -0.2331  0.3473  0.9212
  754MPD2    C411195   0.153   3.412  13.418 -0.7803 -0.6997 -0.1151
  754MPD2    C511196   0.280   3.441  13.385 -0.6400  0.8766 -0.8282
  754MPD2     H11197   0.196   3.086  13.385 -1.5707  1.6718 -4.6020
  754MPD2    H111198   0.082   3.493  13.426  0.3000  0.0359  2.0961
  754MPD2    H211199   0.484   3.385  13.375 -0.3215  2.0880 -1.3349
  754MPD2    H311200   0.310   3.544  13.369  0.0417  0.8897  0.5830
  754MPD2     N11201   4.730   3.235  13.433 -0.0436  0.1645 -0.1111
  754MPD2    H511202   4.663   3.311  13.436 -0.7248 -0.4569  0.6098
  754MPD2    N111203   0.458   3.126  13.414 -0.0817 -0.3437 -0.7047
  754MPD2    H711204   0.555   3.155  13.408  0.4326 -1.9190 -0.0306
  755MPD2     C11205   4.083   3.828  13.490 -0.1145 -0.6649 -0.2909
  755MPD2    C111206   4.095   3.732  13.592 -0.1440  0.5404 -0.4446
  755MPD2    C211207   4.156   3.609  13.563  0.5697 -0.0381  0.2766
  755MPD2    C311208   4.216   3.581  13.442  0.4422 -0.1947  0.0390
  755MPD2    C411209   4.216   3.684  13.350 -0.0409  0.0125  0.1468
  755MPD2    C511210   4.148   3.804  13.371 -0.3589 -0.4547 -0.2419
  755MPD2     H11211   4.163   3.537  13.643  0.4596 -0.8537 -0.4388
  755MPD2    H111212   4.262   3.661  13.255  1.6665  0.5167  0.8484
  755MPD2    H211213   4.029   3.921  13.502  0.3824 -0.4478  0.2761
  755MPD2    H311214   4.138   3.867  13.283 -1.8735  1.8534  1.5794
  755MPD2     N11215   4.262   3.449  13.402  0.0273  0.1783  0.0507
  755MPD2    H511216   4.303   3.444  13.309 -1.0314 -0.8942 -0.3733
  755MPD2    N111217   4.021   3.739  13.715 -0.4467 -0.0767 -0.3711
  755MPD2    H711218   4.029   3.664  13.784 -1.8046 -1.1912 -1.4090
  756MPD2     C11219   0.297   4.249   9.560  0.1221  0.3650  0.0754
  756MPD2    C111220   0.192   4.231   9.645 -0.3994  0.3539 -0.3563
  756MPD2    C211221   0.067   4.247   9.588  0.2201 -0.1854 -0.2018
  756MPD2    C311222   0.052   4.273   9.455  1.1205 -0.2301 -0.6089
  756MPD2    C411223   0.164   4.295   9.375  0.4510  0.6574 -0.3048
  756MPD2    C511224   0.289   4.282   9.427  0.3331 -1.3249  0.2119
  756MPD2     H11225   4.717   4.236   9.653  0.4250 -4.7158 -0.6878
  756MPD2    H111226   0.147   4.332   9.274 -0.9855 -0.4326 -0.4644
  756MPD2    H211227   0.399   4.239   9.596  0.6028 -2.3864 -2.0853
  756MPD2    H311228   0.379   4.304   9.370  0.1057  1.1044  0.8166
  756MPD2     N11229   4.671   4.286   9.380 -0.3296 -0.1795  0.2786
  756MPD2    H511230   4.676   4.319   9.285 -2.0566  2.1459  1.0034
  756MPD2    N111231   0.202   4.198   9.782 -1.2805 -0.3447  0.0355
  756MPD2    H711232   0.123   4.155   9.829 -1.9553  1.4101  0.5057
  757MPD2     C11233   3.909   3.747   9.176 -0.3657 -0.4151 -0.2788
  757MPD2    C111234   4.012   3.737   9.268 -0.0752 -0.5759 -0.0740
  757MPD2    C211235   4.094   3.849   9.282  0.1657 -0.1667  0.4462
  757MPD2    C311236   4.080   3.964   9.204  0.1687  0.1647 -0.1666
  757MPD2    C411237   3.976   3.966   9.108  0.1465  0.6278 -0.9641
  757MPD2    C511238   3.891   3.860   9.097 -0.3659 -0.9346 -0.7919
  757MPD2     H11239   4.174   3.850   9.356  1.0455 -1.8031 -0.4603
  757MPD2    H111240   3.969   4.043   9.032 -0.7385  0.1249 -1.3826
  757MPD2    H211241   3.847   3.662   9.147 -0.3533 -0.8355  0.9125
  757MPD2    H311242   3.809   3.860   9.026 -0.5517  1.3570 -0.5643
  757MPD2     N11243   4.158   4.076   9.224  0.1165  1.0382  0.0236
  757MPD2    H511244   4.227   4.068   9.299 -1.6311  0.8243  1.5980
  757MPD2    N111245   4.026   3.612   9.340  0.1741  0.2749 -0.1033
  757MPD2    H711246   3.966   3.534   9.315  1.4578 -1.0713  0.9874
  758MPD2     C11247   0.182   3.311  15.804  0.2099 -0.3502 -0.3379
  758MPD2    C111248   0.112   3.191  15.843 -0.4600  0.2435  0.0902
  758MPD2    C211249   0.042   3.184  15.965 -0.0115 -0.3165 -0.2414
  758MPD2    C311250   0.048   3.289  16.054 -0.0612 -0.5670  0.1442
  758MPD2    C411251   0.108   3.407  16.010  0.5000  0.0596 -0.1391
  758MPD2    C511252   0.176   3.416  15.888 -0.4495 -0.2658 -0.3332
  758MPD2     H11253   4.716   3.100  15.993  0.9907 -0.7895  0.5963
  758MPD2    H111254   0.098   3.497  16.069 -1.1145 -0.9126  1.0892
  758MPD2    H211255   0.231   3.319  15.708 -2.0110  0.5245 -1.3816
  758MPD2    H311256   0.218   3.512  15.861  0.2882 -0.8354 -1.1969
  758MPD2     N11257   0.004   3.280  16.183 -0.4234 -0.2663  0.3478
  758MPD2    H511258   0.000   3.367  16.236  1.6660  0.8638 -1.3456
  758MPD2    N111259   0.129   3.080  15.758  0.4153 -0.3306  0.1176
  758MPD2    H711260   0.190   3.092  15.677 -0.7560 -0.6232 -0.8141
  759MPD2     C11261   3.469   1.333  10.054  0.0254 -0.2580 -0.5810
  759MPD2    C111262   3.354   1.407  10.059 -0.7398  0.6699 -0.2622
  759MPD2    C211263   3.345   1.536  10.019 -0.0385  0.8685 -0.1126
  759MPD2    C311264   3.454   1.609   9.986  0.0099  0.1398  0.5256
  759MPD2    C411265   3.573   1.541   9.981 -0.4891  0.2148 -0.3040
  759MPD2    C511266   3.580   1.405  10.004  0.4821  0.5945  0.5680
  759MPD2     H11267   3.244   1.576  10.017  0.5013  2.1468 -1.5308
  759MPD2    H111268   3.665   1.592   9.958 -0.7354 -0.0734 -1.9642
  759MPD2    H211269   3.493   1.239  10.102 -0.5069 -1.6578 -3.0132
  759MPD2    H311270   3.680   1.363  10.006  0.4258  0.4763  0.9775
  759MPD2     N11271   3.434   1.742   9.943  0.3847  0.2240  0.6597
  759MPD2    H511272   3.337   1.761   9.921  1.3187  0.2014 -3.3225
  759MPD2    N111273   3.232   1.356  10.109  0.4452 -0.3243 -0.1593
  759MPD2    H711274   3.151   1.416  10.116  0.4638  0.0345 -2.7768
  760MPD2     C11275   3.240   3.335  12.601 -0.9472 -0.2847 -0.3857
  760MPD2    C111276   3.313   3.290  12.499 -0.3397  0.7783 -0.0259
  760MPD2    C211277   3.315   3.153  12.487  0.1325  0.6413  0.9121
  760MPD2    C311278   3.245   3.063  12.565  0.5278 -0.1052  0.2304
  760MPD2    C411279   3.169   3.122  12.663  0.0061  0.3713 -0.5759
  760MPD2    C511280   3.178   3.256  12.688  0.1269  0.4205  0.3628
  760MPD2     H11281   3.380   3.112  12.410 -0.4063  0.4330  0.5664
  760MPD2    H111282   3.106   3.061  12.726 -1.2394  3.2453  0.9419
  760MPD2    H211283   3.238   3.443  12.612  0.0864 -0.1124 -1.7369
  760MPD2    H311284   3.126   3.307  12.769 -2.4105 -1.8510  0.1496
  760MPD2     N11285   3.239   2.925  12.552 -0.1032  0.2601  0.7994
  760MPD2    H511286   3.174   2.877  12.613  0.7226  1.8805  2.9727
  760MPD2    N111287   3.382   3.368  12.410  0.4450  0.3913  0.2439
  760MPD2    H711288   3.454   3.317  12.361  2.6064  2.2231  1.5317
  761MPD2     C11289   0.094   2.553  11.333 -0.1041  0.1374 -0.7398
  761MPD2    C111290   0.037   2.571  11.207  0.4783 -0.6218 -0.2839
  761MPD2    C211291   0.068   2.688  11.141 -0.0378 -0.2415 -0.3946
  761MPD2    C311292   0.146   2.788  11.203  1.0246  0.4715  0.0048
  761MPD2    C411293   0.187   2.775  11.331  0.0889  0.4092  0.9116
  761MPD2    C511294   0.158   2.656  11.391 -0.6154  0.2701 -0.0253
  761MPD2     H11295   0.033   2.702  11.040 -1.6663  0.8383  0.3189
  761MPD2    H111296   0.250   2.847  11.381 -1.1553  2.7892 -0.9915
  761MPD2    H211297   0.074   2.466  11.394 -1.6139  0.5063 -0.6847
  761MPD2    H311298   0.172   2.647  11.499 -1.3938 -2.0905 -0.1244
  761MPD2     N11299   0.172   2.909  11.142 -0.2908 -0.4381 -0.0273
  761MPD2    H511300   0.241   2.959  11.196 -0.0083  0.4497 -1.2173
  761MPD2    N111301   4.686   2.474  11.159 -0.1294 -0.4175  0.0251
  761MPD2    H711302   4.660   2.398  11.221  0.2239 -0.6392 -0.1043
  762MPD2     C11303   4.699   1.804  10.700 -0.3621 -0.6425  0.7980
  762MPD2    C111304   0.025   1.926  10.737 -0.8574  0.6152 -0.3869
  762MPD2    C211305   0.162   1.936  10.720 -0.6317  0.3022  0.5823
  762MPD2    C311306   0.236   1.837  10.659 -0.4390 -0.8149 -0.2766
  762MPD2    C411307   0.170   1.724  10.612  0.8710  0.1077  0.2231
  762MPD2    C511308   0.034   1.713  10.630  0.8192 -0.1960 -0.2847
  762MPD2     H11309   0.204   2.026  10.765 -0.1153  1.4615 -2.2454
  762MPD2    H111310   0.224   1.642  10.566 -1.5901 -0.9609 -0.7332
  762MPD2    H211311   4.595   1.778  10.716  0.2315 -1.6367  2.9514
  762MPD2    H311312   4.718   1.623  10.601  2.0194 -1.4061  1.2631
  762MPD2     N11313   0.378   1.858  10.648  0.1835  0.0466  0.3328
  762MPD2    H511314   0.395   1.956  10.669  1.8140 -0.2997  0.6222
  762MPD2    N111315   4.692   2.030  10.807 -0.1191  0.2247  0.0808
  762MPD2    H711316   0.004   2.118  10.824  0.2502 -0.0735  0.5503
  763MPD2     C11317   1.456   2.778  16.351  1.1353 -0.5375  0.1589
  763MPD2    C111318   1.576   2.788  16.281  0.4665  0.0333 -0.0602
  763MPD2    C211319   1.664   2.890  16.318  0.2967  0.4663 -0.2714
  763MPD2    C311320   1.627   2.973  16.425 -0.2042 -0.2508 -0.0115
  763MPD2    C411321   1.516   2.952  16.496 -0.3026  0.0669  0.6605
  763MPD2    C511322   1.429   2.859  16.448 -0.3930 -0.4544  0.1801
  763MPD2     H11323   1.749   2.927  16.262  1.0162 -2.8679 -1.4288
  763MPD2    H111324   1.481   3.011  16.580 -2.4327  1.5951 -1.3359
  763MPD2    H211325   1.383   2.700  16.332  0.9259 -0.2997  0.0005
  763MPD2    H311326   1.333   2.855  16.499 -1.3510 -0.0108 -1.5949
  763MPD2     N11327   1.709   3.084  16.449  0.4773 -0.3817  0.5835
  763MPD2    H511328   1.796   3.078  16.398 -0.6118  1.7703 -1.5333
  763MPD2    N111329   1.595   2.712  16.158  0.3889 -0.0731  0.0885
  763MPD2    H711330   1.661   2.747  16.089 -0.9801  0.8520 -0.7565
  764MPD2     C11331   4.497   4.628   0.019 -0.4548 -0.1859  0.1243
  764MPD2    C111332   4.361   4.643   0.027  0.7898  0.4909 -0.2028
  764MPD2    C211333   4.309   4.673   0.146  0.0904  0.2193  0.3451
  764MPD2    C311334   4.389   4.684   0.261 -0.2765  0.5014  0.3371
  764MPD2    C411335   4.528   4.663   0.247 -0.4050 -0.6137 -0.0616
  764MPD2    C511336   4.585   4.637   0.120  0.1097  0.0138 -0.4601
  764MPD2     H11337   4.203   4.683   0.166 -0.1291 -1.6199  0.1302
  764MPD2    H111338   4.598   4.662   0.330  0.7979  2.1845 -1.0284
  764MPD2    H211339   4.532   4.601  17.666  1.4954  0.4407  0.6349
  764MPD2    H311340   4.690   4.615   0.105  0.3648 -0.1155  1.4920
  764MPD2     N11341   4.320   4.707   0.381 -0.5926  0.4057 -0.0717
  764MPD2    H511342   4.219   4.699   0.374 -0.5221 -0.0355 -0.6073
  764MPD2    N111343   4.269   4.630  17.671  0.3599 -0.2208 -0.2416
  764MPD2    H711344   4.170   4.639  17.693  0.1757  0.7682 -1.5346
  765MPD2     C11345   0.157   2.371  15.532 -0.7267 -0.1675  0.4852
  765MPD2    C111346   0.126   2.406  15.662 -0.6600  0.0316 -0.4710
  765MPD2    C211347   0.229   2.397  15.753  0.1173  0.6465  0.2609
  765MPD2    C311348   0.356   2.363  15.710  0.0371 -0.1318  0.2683
  765MPD2    C411349   0.382   2.329  15.584  0.0592  0.3918 -0.1176
  765MPD2    C511350   0.283   2.334  15.492  0.2062 -0.6538 -0.3296
  765MPD2     H11351   0.218   2.409  15.860  1.3581  0.2176  0.4443
  765MPD2    H111352   0.483   2.316  15.547 -0.4038  0.9906 -1.6294
  765MPD2    H211353   0.084   2.377  15.451  0.7507 -0.9309 -0.8988
  765MPD2    H311354   0.300   2.327  15.385  0.4580  0.0013 -0.3335
  765MPD2     N11355   0.460   2.355  15.813  0.1230 -0.5751 -0.1608
  765MPD2    H511356   0.420   2.347  15.906 -0.0211 -0.4249 -0.2093
  765MPD2    N111357   4.727   2.446  15.696  0.1295  0.8617  0.0078
  765MPD2    H711358   4.664   2.445  15.617  0.0372  2.7510  0.0670
  766MPD2     C11359   4.074   2.386  15.461  0.1502 -0.3495 -0.2991
  766MPD2    C111360   4.208   2.415  15.450  0.5806  0.2460  0.0638
  766MPD2    C211361   4.271   2.423  15.328  0.8634 -0.3093 -0.1072
  766MPD2    C311362   4.198   2.410  15.212 -0.9481  0.1115 -0.6436
  766MPD2    C411363   4.066   2.379  15.232 -0.1193  0.2739 -0.1694
  766MPD2    C511364   4.000   2.382  15.349  0.1713  0.1638 -0.0380
  766MPD2     H11365   4.373   2.460  15.329  1.2628 -1.4243 -0.7514
  766MPD2    H111366   3.999   2.366  15.148  0.9538 -2.6822 -0.5661
  766MPD2    H211367   4.009   2.393  15.548  0.6045 -0.6887  0.0656
  766MPD2    H311368   3.894   2.364  15.361  0.5034 -1.2273  0.8360
  766MPD2     N11369   4.248   2.424  15.086 -0.1814 -0.1262  0.3476
  766MPD2    H511370   4.183   2.421  15.009 -0.7830  1.0223  0.8177
  766MPD2    N111371   4.282   2.460  15.562  0.1342 -0.1521 -0.1313
  766MPD2    H711372   4.380   2.474  15.541 -0.1261  0.2392 -1.1166
  767MPD2     C11373   3.737   2.564  15.103  0.7617  0.8093 -0.1129
  767MPD2    C111374   3.848   2.632  15.058  0.1146 -0.3904 -0.0962
  767MPD2    C211375   3.885   2.618  14.927 -0.2539  0.4319  0.4862
  767MPD2    C311376   3.804   2.552  14.843  0.4115 -0.5195  0.3240
  767MPD2    C411377   3.686   2.495  14.886 -0.2422 -0.4113 -0.1630
  767MPD2    C511378   3.655   2.501  15.016  0.2834 -0.5674 -0.6980
  767MPD2     H11379   3.973   2.664  14.884 -1.5104  1.0163 -1.4520
  767MPD2    H111380   3.621   2.448  14.814 -0.7385 -2.0814  1.3578
  767MPD2    H211381   3.715   2.584  15.207  0.7282 -1.1385  0.2469
  767MPD2    H311382   3.566   2.447  15.047 -0.8997  0.2977 -2.6569
  767MPD2     N11383   3.848   2.553  14.708 -0.4391  0.2315 -0.1133
  767MPD2    H511384   3.944   2.584  14.694 -0.3078 -0.4013 -0.5867
  767MPD2    N111385   3.926   2.697  15.156  0.9078 -0.2354 -0.6096
  767MPD2    H711386   3.887   2.700  15.249  0.2666 -0.1975 -0.8827
  768MPD2     C11387   4.298   0.731  11.218 -0.0595 -0.6990  0.2612
  768MPD2    C111388   4.366   0.854  11.227 -0.0108  0.1714 -0.5290
  768MPD2    C211389   4.476   0.869  11.310  0.3180  0.0610 -0.0718
  768MPD2    C311390   4.519   0.759  11.382 -0.4147  0.4530  0.0807
  768MPD2    C411391   4.459   0.637  11.366 -0.0925 -0.2181  0.2160
  768MPD2    C511392   4.353   0.624  11.287 -0.0847  0.3276  0.6539
  768MPD2     H11393   4.511   0.971  11.323  1.7923 -0.5496  0.7828
  768MPD2    H111394   4.492   0.548  11.419  1.7087  0.3424  0.0512
  768MPD2    H211395   4.203   0.720  11.168 -0.2433 -1.0207  0.6816
  768MPD2    H311396   4.306   0.526  11.283 -0.4060  0.5039  0.0845
  768MPD2     N11397   4.625   0.786  11.477 -0.1744 -0.0076  0.1949
  768MPD2    H511398   4.655   0.883  11.480 -0.6550  0.1176  0.7293
  768MPD2    N111399   4.319   0.971  11.163 -0.1691 -0.2134 -0.1774
  768MPD2    H711400   4.370   1.055  11.188 -0.9321 -0.0313  0.7535
  769MPD2     C11401   0.979   3.836  15.230  0.0402  1.1578 -0.1785
  769MPD2    C111402   0.906   3.953  15.254  0.2057  0.4634 -0.8203
  769MPD2    C211403   0.904   4.016  15.374  0.0393 -0.0750 -0.1173
  769MPD2    C311404   0.996   3.975  15.467  0.1924  0.4003 -0.3546
  769MPD2    C411405   1.084   3.871  15.440  0.2238  0.2347  0.1594
  769MPD2    C511406   1.074   3.806  15.321  0.4130  0.2165 -0.1116
  769MPD2     H11407   0.845   4.105  15.397  3.4676  2.1488  0.1089
  769MPD2    H111408   1.152   3.842  15.519  0.6756  0.8598  0.0063
  769MPD2    H211409   0.966   3.785  15.136  2.9507 -2.8390  1.5994
  769MPD2    H311410   1.128   3.714  15.302 -0.7495 -0.3876 -0.4498
  769MPD2     N11411   1.012   4.050  15.581 -0.1008  0.1942  0.3279
  769MPD2    H511412   0.970   4.141  15.592  0.4792  0.5849 -0.6944
  769MPD2    N111413   0.818   3.988  15.152  0.2648 -0.8783 -0.1528
  769MPD2    H711414   0.807   3.930  15.069  0.4746 -0.3354 -0.5647
  770MPD2     C11415   0.714   3.246  15.011 -0.9009 -0.2364 -0.4293
  770MPD2    C111416   0.594   3.267  14.951  0.2769  0.0475 -1.0612
  770MPD2    C211417   0.536   3.395  14.943  0.2316 -0.2045  0.4524
  770MPD2    C311418   0.601   3.504  14.988  0.6902  0.1222  0.2065
  770MPD2    C411419   0.717   3.482  15.059 -0.3482  0.9497  0.3026
  770MPD2    C511420   0.775   3.361  15.071  0.6726 -0.0363  0.7496
  770MPD2     H11421   0.455   3.412  14.873  0.9327 -0.9477 -0.5400
  770MPD2    H111422   0.772   3.564  15.103 -1.1486  1.1839  0.8577
  770MPD2    H211423   0.762   3.149  15.007  0.2618  0.3442 -0.4151
  770MPD2    H311424   0.873   3.348  15.117  1.0369 -0.5418 -0.1739
  770MPD2     N11425   0.555   3.632  14.966  0.1802  0.2790 -0.1603
  770MPD2    H511426   0.466   3.650  14.921 -1.0723  1.0559  2.6001
  770MPD2    N111427   0.518   3.152  14.913  0.2292 -0.0142  0.5819
  770MPD2    H711428   0.551   3.058  14.929  0.8555 -0.0950 -1.1295
  771MPD2     C11429   1.931   1.842  13.818  0.4685  0.2824 -0.9632
  771MPD2    C111430   1.919   1.948  13.726  0.0114  0.4271  0.5119
  771MPD2    C211431   1.877   1.927  13.596  0.2548 -0.2092 -0.2320
  771MPD2    C311432   1.870   1.801  13.548 -0.4301 -0.3090  0.4401
  771MPD2    C411433   1.877   1.696  13.635  0.8856  0.1370  0.4079
  771MPD2    C511434   1.907   1.714  13.767 -0.6014 -0.2224  0.3359
  771MPD2     H11435   1.871   2.013  13.531  1.3111 -0.2867 -0.4360
  771MPD2    H111436   1.846   1.595  13.613  0.4346  0.2013  0.7475
  771MPD2    H211437   1.965   1.863  13.918 -1.0485  0.9843 -0.5919
  771MPD2    H311438   1.909   1.625  13.829 -0.5718  0.5173  1.3997
  771MPD2     N11439   1.827   1.783  13.418 -0.3470  0.0126  0.0155
  771MPD2    H511440   1.807   1.874  13.376 -2.4751  0.2651  1.5746
  771MPD2    N111441   1.944   2.087  13.759  0.2749 -0.6807  0.1903
  771MPD2    H711442   1.932   2.161  13.690  1.6812 -2.8116 -2.3262
  772MPD2     C11443   1.526   2.701  14.193  0.4586 -0.1227  0.8752
  772MPD2    C111444   1.528   2.573  14.145 -0.0300  0.4305  0.3607
  772MPD2    C211445   1.428   2.480  14.174  0.3265  1.1325  0.5643
  772MPD2    C311446   1.330   2.521  14.263  0.4004 -0.8841  0.3158
  772MPD2    C411447   1.321   2.655  14.309  0.3993  0.5486  0.2105
  772MPD2    C511448   1.422   2.744  14.272 -0.0620 -0.4311 -0.5320
  772MPD2     H11449   1.436   2.380  14.132 -0.0877 -0.1211  3.4813
  772MPD2    H111450   1.233   2.681  14.366  0.2263  0.8836 -0.2046
  772MPD2    H211451   1.598   2.768  14.147  0.7769 -0.8460  0.3101
  772MPD2    H311452   1.406   2.850  14.288  0.8967 -0.2556 -0.7393
  772MPD2     N11453   1.228   2.440  14.303  0.9632 -0.1402 -0.1035
  772MPD2    H511454   1.153   2.485  14.354  1.3029 -0.1243  0.3863
  772MPD2    N111455   1.633   2.519  14.068 -0.6600 -0.5607  0.0689
  772MPD2    H711456   1.613   2.427  14.029 -1.9297  0.3119 -1.3293
  773MPD2     C11457   0.654   3.281   0.158  0.4995  0.2344 -0.6484
  773MPD2    C111458   0.593   3.170   0.104 -0.0047 -0.8900 -0.2944
  773MPD2    C211459   0.624   3.043   0.148 -0.1217 -0.3994 -0.3257
  773MPD2    C311460   0.717   3.027   0.247  0.1642  0.3096  0.0857
  773MPD2    C411461   0.781   3.139   0.301  0.1905  0.2799 -1.3404
  773MPD2    C511462   0.753   3.263   0.253 -0.6762  0.4190  0.1207
  773MPD2     H11463   0.581   2.955   0.100 -2.5292 -0.2970  1.6701
  773MPD2    H111464   0.852   3.138   0.383 -1.0588  0.5223 -0.2628
  773MPD2    H211465   0.640   3.384   0.130 -0.0948  0.4057  0.2842
  773MPD2    H311466   0.800   3.351   0.295 -2.4894  0.4134  2.1334
  773MPD2     N11467   0.740   2.898   0.298 -0.1303 -0.5203  0.2210
  773MPD2    H511468   0.688   2.817   0.265 -0.2619 -1.2714  2.2488
  773MPD2    N111469   0.512   3.177  17.739 -0.2640  0.0169 -0.0174
  773MPD2    H711470   0.455   3.100  17.705 -0.4723  0.5381 -0.8750
  774MPD2     C11471   4.660   2.158  13.541  0.0430 -0.2073  0.2014
  774MPD2    C111472   0.005   2.180  13.648 -0.5266 -0.4443 -0.7064
  774MPD2    C211473   0.070   2.302  13.659  0.0211 -0.6370 -0.0679
  774MPD2    C311474   0.064   2.397  13.565  0.0128 -0.4273 -0.1952
  774MPD2    C411475   4.720   2.374  13.451  0.0152 -0.1573  0.2368
  774MPD2    C511476   4.648   2.258  13.441 -0.9737 -0.3108 -0.7887
  774MPD2     H11477   0.137   2.319  13.742  0.8293 -0.0472 -0.8426
  774MPD2    H111478   4.696   2.451  13.378 -1.7861 -0.7011  0.2619
  774MPD2    H211479   4.600   2.068  13.529  2.2249 -1.8789  1.9539
  774MPD2    H311480   4.592   2.256  13.349 -4.2727 -0.8523  1.2361
  774MPD2     N11481   0.139   2.518  13.591 -0.0433  0.2055  0.6059
  774MPD2    H511482   0.172   2.538  13.685 -0.4796  1.6102  0.4573
  774MPD2    N111483   0.021   2.092  13.757  0.5392  0.7353 -0.4705
  774MPD2    H711484   0.076   2.128  13.835  2.3522  0.8380 -1.7971
  775MPD2     C11485   1.334   3.995  15.964  0.3661  0.2547  0.2642
  775MPD2    C111486   1.389   4.034  16.083 -0.2446  0.0928  0.5374
  775MPD2    C211487   1.499   4.120  16.074  0.0794 -0.1580  0.4692
  775MPD2    C311488   1.550   4.160  15.958 -0.2523 -0.5666 -0.9236
  775MPD2    C411489   1.488   4.118  15.841  0.9284 -0.0008  0.4270
  775MPD2    C511490   1.384   4.033  15.843  0.3061 -0.0107  0.2100
  775MPD2     H11491   1.542   4.146  16.170  2.8203 -2.0221 -0.2523
  775MPD2    H111492   1.522   4.156  15.746 -0.2138  2.1026  0.8625
  775MPD2    H211493   1.251   3.926  15.963  0.9597 -0.4703  0.9124
  775MPD2    H311494   1.343   3.996  15.750 -1.8644 -0.5589  1.3842
  775MPD2     N11495   1.667   4.233  15.942  0.2866  0.2949 -0.6643
  775MPD2    H511496   1.696   4.252  15.847 -0.7202 -1.1001 -1.2541
  775MPD2    N111497   1.343   3.977  16.206  0.2681 -0.3165 -0.2778
  775MPD2    H711498   1.276   3.903  16.189  1.5068 -1.0611 -1.9020
  776MPD2     C11499   4.645   4.182  11.400  0.0629  0.7341  0.0800
  776MPD2    C111500   0.024   4.136  11.468  0.0719  0.2034 -1.0159
  776MPD2    C211501   0.144   4.202  11.440 -0.2653 -0.5545  1.0809
  776MPD2    C311502   0.151   4.315  11.358  0.0689  0.1060 -0.6362
  776MPD2    C411503   0.040   4.348  11.286  0.2781  0.4827 -0.3566
  776MPD2    C511504   4.654   4.286  11.313  0.7212 -0.4516 -0.6539
  776MPD2     H11505   0.238   4.164  11.478  0.7803 -0.0528 -1.0114
  776MPD2    H111506   0.031   4.428  11.213 -0.8505  0.3694 -0.3361
  776MPD2    H211507   4.548   4.141  11.427  0.2731 -1.6912 -2.8183
  776MPD2    H311508   4.569   4.312  11.252  1.7659  0.0010 -1.9227
  776MPD2     N11509   0.276   4.380  11.329  0.0729 -0.3335 -0.5626
  776MPD2    H511510   0.262   4.455  11.262 -1.1936  0.2110  0.3072
  776MPD2    N111511   0.027   4.032  11.564  0.4418 -0.2433 -0.7309
  776MPD2    H711512   0.119   4.011  11.601  0.6365  0.1344 -1.0046
  777MPD2     C11513   0.917   1.530   0.919  0.5785 -0.0290 -0.7851
  777MPD2    C111514   0.791   1.560   0.965  0.4237  0.1547  0.3405
  777MPD2    C211515   0.683   1.484   0.926 -0.4038 -0.0061 -0.2485
  777MPD2    C311516   0.703   1.377   0.845 -0.3290  0.6425  0.1367
  777MPD2    C411517   0.835   1.342   0.804 -0.2475  0.1168  0.0520
  777MPD2    C511518   0.938   1.422   0.840  0.0656 -0.0081 -0.8820
  777MPD2     H11519   0.581   1.506   0.957 -0.3185  0.4960 -0.3250
  777MPD2    H111520   0.858   1.259   0.738  3.5478 -0.7151  2.4039
  777MPD2    H211521   1.004   1.586   0.952 -0.8500  2.7516 -1.7867
  777MPD2    H311522   1.040   1.398   0.812  0.5315 -0.7898  1.5093
  777MPD2     N11523   0.585   1.307   0.799 -0.2199 -0.5287 -0.7803
  777MPD2    H511524   0.492   1.332   0.834 -0.1484 -2.8839  1.1025
  777MPD2    N111525   0.783   1.674   1.054 -0.2175  0.6360 -0.1600
  777MPD2    H711526   0.870   1.703   1.097  0.0887 -0.3504 -0.1103
  778MPD2     C11527   1.792   2.111  14.678 -0.5116  0.0324  0.0870
  778MPD2    C111528   1.860   1.989  14.661  0.6710 -0.2882  0.7498
  778MPD2    C211529   1.994   1.984  14.632 -0.5663 -0.6209 -0.1421
  778MPD2    C311530   2.071   2.108  14.622 -0.0960 -0.7231 -0.0522
  778MPD2    C411531   2.000   2.228  14.650  0.1372  0.2508 -0.4369
  778MPD2    C511532   1.864   2.224  14.678  0.8125 -0.0052  0.0357
  778MPD2     H11533   2.047   1.890  14.619  1.1665  0.2694  0.5055
  778MPD2    H111534   2.049   2.323  14.671 -0.5317  0.9144 -1.8751
  778MPD2    H211535   1.686   2.114  14.703 -0.6182 -1.6260 -0.1765
  778MPD2    H311536   1.817   2.313  14.717 -0.6251 -0.7725  0.0687
  778MPD2     N11537   2.206   2.103  14.585  1.0762 -0.0086 -0.2111
  778MPD2    H511538   2.234   2.009  14.557 -0.7856 -0.7556  0.4383
  778MPD2    N111539   1.788   1.868  14.692 -0.0336  0.7614  0.2310
  778MPD2    H711540   1.835   1.781  14.670  1.5358  1.6022  0.2779
  779MPD2     C11541   1.252   0.428  14.328 -0.4114  0.1331 -0.6056
  779MPD2    C111542   1.387   0.421  14.351  0.3741 -0.0296  0.3949
  779MPD2    C211543   1.463   0.541  14.355 -0.5122 -0.2181 -0.1162
  779MPD2    C311544   1.397   0.658  14.328  0.0135  0.5828 -0.0970
  779MPD2    C411545   1.264   0.659  14.308  0.4192  0.0193  0.1115
  779MPD2    C511546   1.190   0.546  14.310 -0.3620 -0.5224  0.2915
  779MPD2     H11547   1.571   0.533  14.367 -0.4819  0.2549 -0.0489
  779MPD2    H111548   1.208   0.750  14.290  0.7948  0.0167 -1.1151
  779MPD2    H211549   1.194   0.337  14.335  1.0452 -0.5844  2.3278
  779MPD2    H311550   1.082   0.550  14.298 -0.3129  0.0552  0.0440
  779MPD2     N11551   1.466   0.778  14.325  0.5009 -0.0474 -0.1712
  779MPD2    H511552   1.554   0.774  14.377  1.0603  2.1483 -0.9419
  779MPD2    N111553   1.449   0.297  14.380 -0.1718 -0.6959  0.1390
  779MPD2    H711554   1.548   0.312  14.398 -0.6699 -0.3120  2.5079
  780MPD2     C11555   0.382   0.310  17.245  0.2629 -0.4703  0.6731
  780MPD2    C111556   0.404   0.276  17.376 -0.0321 -0.1733 -0.3262
  780MPD2    C211557   0.514   0.335  17.446  0.6154  0.2176  0.0011
  780MPD2    C311558   0.598   0.428  17.379 -0.4231  0.7791  0.1723
  780MPD2    C411559   0.569   0.466  17.250  0.4917  0.3874 -0.2624
  780MPD2    C511560   0.457   0.409  17.188 -0.6370 -0.4116 -0.4055
  780MPD2     H11561   0.525   0.321  17.553 -2.3896  2.5302  0.6095
  780MPD2    H111562   0.630   0.529  17.187  0.9594 -0.2201 -0.4180
  780MPD2    H211563   0.295   0.265  17.198  1.3113 -2.9471  1.0603
  780MPD2    H311564   0.433   0.451  17.092 -1.9291 -0.8220 -0.2632
  780MPD2     N11565   0.712   0.480  17.447 -0.6388  0.4595 -0.5710
  780MPD2    H511566   0.745   0.426  17.527 -1.9675  1.9543  0.9806
  780MPD2    N111567   0.331   0.168  17.431 -0.0681  1.1411 -0.3511
  780MPD2    H711568   0.267   0.124  17.367  0.2021 -0.6919  0.6375
  781MPD2     C11569   2.876   2.966  12.537 -0.5293 -0.4804 -0.6026
  781MPD2    C111570   2.907   2.837  12.497 -0.4271 -0.1796  0.1474
  781MPD2    C211571   2.944   2.819  12.372  0.4945  0.4111  0.2105
  781MPD2    C311572   2.984   2.920  12.283  0.2508 -0.0121 -0.2417
  781MPD2    C411573   2.954   3.046  12.318 -0.0116  0.1020 -0.4283
  781MPD2    C511574   2.902   3.068  12.444  0.2168 -0.0731 -0.2078
  781MPD2     H11575   2.976   2.719  12.343  0.0873 -0.3111  2.2275
  781MPD2    H111576   2.976   3.136  12.261 -0.5802  1.4893  1.5373
  781MPD2    H211577   2.851   2.992  12.639 -1.7426  0.1181 -1.0562
  781MPD2    H311578   2.893   3.170  12.481 -0.7882  0.7469 -2.7633
  781MPD2     N11579   3.053   2.895  12.160  0.2352 -0.0717 -0.3256
  781MPD2    H511580   3.076   2.974  12.100 -2.0651  0.9235  0.1076
  781MPD2    N111581   2.921   2.729  12.582  0.1355 -0.1628 -0.2936
  781MPD2    H711582   2.940   2.638  12.542 -0.1435 -1.0834  1.6831
  782MPD2     C11583   0.990   3.785  10.369  0.8131 -0.3617 -0.3045
  782MPD2    C111584   1.087   3.692  10.355 -0.1949 -0.0363  0.0690
  782MPD2    C211585   1.182   3.684  10.458 -0.0056  0.5359 -0.6607
  782MPD2    C311586   1.161   3.757  10.577 -0.4165  0.2195  0.1816
  782MPD2    C411587   1.064   3.856  10.590  0.3076  0.0158  0.7989
  782MPD2    C511588   0.985   3.864  10.479  0.1582  0.0386  1.1455
  782MPD2     H11589   1.261   3.610  10.467  1.8572  2.7835  1.4078
  782MPD2    H111590   1.052   3.923  10.674  1.9271  1.7382 -0.3514
  782MPD2    H211591   0.913   3.796  10.294  0.2387  1.6265  0.5753
  782MPD2    H311592   0.910   3.941  10.493 -1.2378 -1.0360 -0.4448
  782MPD2     N11593   1.251   3.729  10.683 -0.0339 -0.0457  0.3421
  782MPD2    H511594   1.330   3.670  10.658 -0.5211  0.2400 -1.9288
  782MPD2    N111595   1.082   3.599  10.248  0.3883  0.0460  0.1105
  782MPD2    H711596   1.002   3.595  10.186  1.4412 -2.2520 -1.1021
  783MPD2     C11597   0.312   3.175  10.371  0.1200 -0.7263  0.4846
  783MPD2    C111598   0.388   3.194  10.481 -0.0981 -0.2671 -0.1113
  783MPD2    C211599   0.526   3.199  10.472 -0.4196  0.2405  0.3833
  783MPD2    C311600   0.580   3.204  10.341 -0.2980 -0.7485  0.1714
  783MPD2    C411601   0.493   3.192  10.230  0.2313 -0.3318 -0.0037
  783MPD2    C511602   0.358   3.170  10.241 -0.0837  0.0803 -0.7508
  783MPD2     H11603   0.597   3.200  10.554 -0.1920  1.4761  0.1840
  783MPD2    H111604   0.532   3.216  10.131  3.1308 -0.7410  1.0227
  783MPD2    H211605   0.205   3.174  10.386  0.2768 -2.4212  1.4763
  783MPD2    H311606   0.290   3.167  10.157 -2.5186  0.9884  1.1944
  783MPD2     N11607   0.718   3.213  10.327 -0.0171  0.4084  0.4271
  783MPD2    H511608   0.768   3.203  10.415 -0.6397 -0.7393  0.6469
  783MPD2    N111609   0.328   3.193  10.608  0.4764 -0.0797 -0.0105
  783MPD2    H711610   0.229   3.175  10.622  0.8154 -0.6341  1.6271
  784MPD2     C11611   3.258   3.280   0.826 -0.3230 -0.6565 -1.1790
  784MPD2    C111612   3.255   3.395   0.897 -0.2183  0.1518  0.3749
  784MPD2    C211613   3.145   3.460   0.924 -0.1317  0.3958  0.5686
  784MPD2    C311614   3.022   3.421   0.869 -0.4070 -0.3668 -0.5947
  784MPD2    C411615   3.020   3.300   0.799  0.3225 -1.0718  0.1413
  784MPD2    C511616   3.137   3.234   0.777 -0.2775  0.2656 -0.0943
  784MPD2     H11617   3.144   3.551   0.983  1.2718  1.1043 -0.5098
  784MPD2    H111618   2.930   3.258   0.755 -1.8703 -0.4280  4.0375
  784MPD2    H211619   3.342   3.218   0.798  0.1555 -0.2975 -0.5218
  784MPD2    H311620   3.130   3.141   0.722  1.9942  0.3117 -0.4502
  784MPD2     N11621   2.907   3.500   0.881 -0.4049  0.5346 -1.0876
  784MPD2    H511622   2.921   3.575   0.948  1.1029 -0.1333 -0.6587
  784MPD2    N111623   3.383   3.441   0.950  0.3234 -0.4634  0.7709
  784MPD2    H711624   3.391   3.533   0.991 -1.7701  0.7359 -1.5030
  785MPD2     C11625   3.609   1.602  10.389 -0.9852  0.5601 -0.4274
  785MPD2    C111626   3.586   1.694  10.497  0.7561  0.3225 -0.1162
  785MPD2    C211627   3.461   1.696  10.563 -0.3107  0.7785  0.3157
  785MPD2    C311628   3.360   1.611  10.513 -0.3373 -0.3166  0.2062
  785MPD2    C411629   3.386   1.516  10.419  0.2768  0.0715 -0.7596
  785MPD2    C511630   3.510   1.511  10.360  0.7636  0.4430  0.1416
  785MPD2     H11631   3.441   1.759  10.648  1.3634  1.4439  0.2204
  785MPD2    H111632   3.310   1.446  10.388  2.0879 -2.1676 -0.1650
  785MPD2    H211633   3.707   1.604  10.342 -0.9846  0.8826 -0.4134
  785MPD2    H311634   3.516   1.438  10.279  2.6072  0.7778 -0.0267
  785MPD2     N11635   3.234   1.638  10.570  0.1095 -0.0337 -0.3006
  785MPD2    H511636   3.224   1.717  10.634 -3.2030 -1.6184  1.1497
  785MPD2    N111637   3.694   1.780  10.536  0.4957  0.3207  0.7011
  785MPD2    H711638   3.770   1.794  10.469  0.0866 -1.4635 -0.1322
  786MPD2     C11639   1.962   4.708  15.212 -1.1101  0.7648  0.3628
  786MPD2    C111640   2.072   4.643  15.156 -0.2577  0.3237 -0.4045
  786MPD2    C211641   2.178   4.611  15.241  0.9348 -0.4258  0.0160
  786MPD2    C311642   2.181   4.645  15.375  0.0974 -0.5163 -0.3985
  786MPD2    C411643   2.073   4.713  15.431  0.5840  0.7459 -0.1273
  786MPD2    C511644   1.966   0.000  15.351  0.7983  0.0557 -0.3551
  786MPD2     H11645   2.253   4.545  15.199  0.7222 -0.6159 -0.0686
  786MPD2    H111646   2.073   0.004  15.536  0.6583  2.7745 -0.6692
  786MPD2    H211647   1.879   0.016  15.159 -1.3412  1.6355  1.4503
  786MPD2    H311648   1.876   0.050  15.386  0.5828  1.1395 -2.4242
  786MPD2     N11649   2.293   4.616  15.464  0.9886  0.1547 -0.0610
  786MPD2    H511650   2.285   4.653  15.558 -0.6742  1.8780 -0.8750
  786MPD2    N111651   2.092   4.612  15.017  0.7444  1.0868  0.9009
  786MPD2    H711652   2.187   4.595  14.985 -0.1444 -1.7607 -0.2855
  787MPD2     C11653   2.385   4.238  15.106  0.1811 -0.8403  0.3810
  787MPD2    C111654   2.360   4.195  14.981  0.0858 -1.1051  0.1902
  787MPD2    C211655   2.407   4.072  14.942 -0.6957 -0.3595  0.3941
  787MPD2    C311656   2.484   3.998  15.034  0.2546  0.5969 -0.7927
  787MPD2    C411657   2.515   4.041  15.159  0.4058 -0.5334 -0.2562
  787MPD2    C511658   2.466   4.167  15.193 -0.1940  0.7820 -0.1442
  787MPD2     H11659   2.397   4.038  14.840  0.1633 -0.2215  0.2640
  787MPD2    H111660   2.578   3.993  15.233  1.3441  2.0406  0.6104
  787MPD2    H211661   2.355   4.333  15.149  2.9926  0.8671 -1.4461
  787MPD2    H311662   2.477   4.203  15.295  1.6255 -0.8524  0.2416
  787MPD2     N11663   2.536   3.877  14.978 -0.8485 -0.0506 -1.1046
  787MPD2    H511664   2.536   3.869  14.876 -0.6110 -0.6025 -1.0638
  787MPD2    N111665   2.277   4.270  14.905  0.2911  0.1281 -0.3067
  787MPD2    H711666   2.244   4.358  14.944  1.4919  1.2741 -1.8519
  788MPD2     C11667   4.157   2.940   1.144  0.0842  0.4225 -0.3611
  788MPD2    C111668   4.100   2.881   1.034 -0.0617 -0.0740  0.0924
  788MPD2    C211669   4.053   2.972   0.940 -0.0671 -0.9742 -1.0942
  788MPD2    C311670   4.051   3.111   0.963 -0.4687  0.0930  0.3376
  788MPD2    C411671   4.118   3.162   1.069  0.5317  0.2203 -0.2931
  788MPD2    C511672   4.167   3.074   1.163 -0.2388  0.5209  0.3161
  788MPD2     H11673   4.008   2.926   0.853 -0.9161 -0.7078 -0.8016
  788MPD2    H111674   4.117   3.267   1.093 -1.3831  0.1439 -0.0308
  788MPD2    H211675   4.197   2.882   1.227 -0.2856 -0.6094 -0.8952
  788MPD2    H311676   4.225   3.119   1.243 -0.2383  0.6280  0.2562
  788MPD2     N11677   3.983   3.190   0.864 -0.3990 -0.3501  0.2129
  788MPD2    H511678   3.913   3.148   0.804  1.3555  0.0677 -2.1485
  788MPD2    N111679   4.085   2.741   1.023  0.4312 -0.0722  0.2376
  788MPD2    H711680   4.075   2.706   0.929 -0.0771 -1.1280  0.6851
  789MPD2     C11681   4.274   2.530  16.257  0.6548 -0.4002 -0.2660
  789MPD2    C111682   4.244   2.438  16.362  0.6425  0.8710  0.1112
  789MPD2    C211683   4.190   2.486  16.480 -0.4671 -0.2791 -0.5266
  789MPD2    C311684   4.166   2.625  16.496  0.9755  0.3338 -0.3184
  789MPD2    C411685   4.195   2.705  16.391  0.0961  0.0121  0.2485
  789MPD2    C511686   4.251   2.656  16.276  0.1820 -0.2225  0.1453
  789MPD2     H11687   4.173   2.414  16.560  0.3847 -1.4666 -1.4044
  789MPD2    H111688   4.166   2.809  16.395 -1.1615 -0.4783  3.5310
  789MPD2    H211689   4.330   2.500  16.169  1.0963 -0.4845  0.0438
  789MPD2    H311690   4.289   2.728  16.204 -0.7686 -1.7971 -1.9216
  789MPD2     N11691   4.118   2.689  16.611 -0.3505 -0.5040 -0.5598
  789MPD2    H511692   4.117   2.790  16.607  2.9217 -0.4280  0.9895
  789MPD2    N111693   4.247   2.296  16.346  0.1244 -0.6159 -0.0455
  789MPD2    H711694   4.228   2.235  16.425  1.1006 -0.0648  0.6082
  790MPD2     C11695   0.808   4.536  13.810 -0.9977  0.7100  0.3304
  790MPD2    C111696   0.727   4.428  13.820 -0.3822 -0.1423 -0.1012
  790MPD2    C211697   0.669   4.380  13.704  1.0250  0.2322  0.2406
  790MPD2    C311698   0.692   4.438  13.579  0.3863 -0.7308  0.2333
  790MPD2    C411699   0.766   4.554  13.567 -0.1869  0.0543  0.5149
  790MPD2    C511700   0.815   4.609  13.689 -0.0239 -1.3093 -0.4478
  790MPD2     H11701   0.594   4.301  13.706  1.2373  0.0323  0.4273
  790MPD2    H111702   0.788   4.600  13.472 -1.1042 -1.0097 -0.2182
  790MPD2    H211703   0.850   4.568  13.904 -1.2412 -0.0333  0.6922
  790MPD2    H311704   0.874   4.700  13.685 -3.2787  0.7654 -0.9881
  790MPD2     N11705   0.627   4.385  13.467 -0.8219  0.0504  0.7941
  790MPD2    H511706   0.548   4.326  13.487 -0.7867 -0.2557  0.0420
  790MPD2    N111707   0.711   4.366  13.951 -0.5817  0.0847  0.5288
  790MPD2    H711708   0.742   4.423  14.029  0.3011 -1.5385  1.3751
  791MPD2     C11709   4.736   4.308  13.367 -0.2243  0.2587 -0.0985
  791MPD2    C111710   0.051   4.248  13.254 -0.0923  0.2955  0.2716
  791MPD2    C211711   4.700   4.172  13.176  0.2515  0.0727  0.5049
  791MPD2    C311712   4.562   4.162  13.201 -0.3865 -0.4051 -0.3308
  791MPD2    C411713   4.513   4.233  13.307  0.5087  0.2963  0.0150
  791MPD2    C511714   4.602   4.306  13.395  0.1939  0.1593 -0.5380
  791MPD2     H11715   0.010   4.116  13.096 -0.2533  0.2952  0.0558
  791MPD2    H111716   4.408   4.222  13.334  0.6659 -0.9934  0.0870
  791MPD2    H211717   0.063   4.362  13.436  0.8134 -1.2684  0.1449
  791MPD2    H311718   4.574   4.359  13.485 -0.3217 -0.0804 -0.5556
  791MPD2     N11719   4.489   4.080  13.113  0.1002 -1.1122 -0.3811
  791MPD2    H511720   4.536   4.033  13.036  0.1219 -1.4737 -0.1426
  791MPD2    N111721   0.193   4.266  13.241  0.7673  0.4397  0.2627
  791MPD2    H711722   0.250   4.300  13.318  0.3232  0.6361  0.5067
  792MPD2     C11723   0.711   4.230  11.169 -0.1922  0.6330 -0.9137
  792MPD2    C111724   0.617   4.265  11.082 -0.3178  0.5664 -0.0847
  792MPD2    C211725   0.491   4.200  11.099 -0.1274 -0.0417  0.1108
  792MPD2    C311726   0.461   4.105  11.193 -0.8164  0.0079  0.1525
  792MPD2    C411727   0.555   4.086  11.287  0.3464  0.3586  1.1685
  792MPD2    C511728   0.679   4.147  11.275  0.0038  0.0660  0.3056
  792MPD2     H11729   0.415   4.231  11.028  1.1627  1.2881 -0.6925
  792MPD2    H111730   0.544   4.013  11.366 -1.2872 -1.2906 -0.5783
  792MPD2    H211731   0.810   4.273  11.169 -0.3761  1.0564 -0.8317
  792MPD2    H311732   0.761   4.119  11.340  0.4224  1.5627  0.4131
  792MPD2     N11733   0.333   4.038  11.205 -0.6148  0.1246 -0.0466
  792MPD2    H511734   0.324   3.969  11.279 -1.8139 -0.8900 -1.1203
  792MPD2    N111735   0.656   4.349  10.975 -0.3284  0.1470  0.1721
  792MPD2    H711736   0.754   4.377  10.976 -0.4978  0.6643  1.5199
  793MPD2     C11737   4.584   3.997  10.419  0.8751  0.5460 -0.3114
  793MPD2    C111738   4.720   4.001  10.460  0.6671 -0.8941 -0.2669
  793MPD2    C211739   0.007   3.982  10.595  0.4159 -0.7240 -0.4885
  793MPD2    C311740   4.635   3.960  10.681 -0.2367 -0.7340 -0.0044
  793MPD2    C411741   4.502   3.951  10.635 -0.7404 -0.5618  0.3128
  793MPD2    C511742   4.480   3.973  10.502  0.2018 -0.4321  0.3985
  793MPD2     H11743   0.107   4.002  10.632 -0.6037  0.9280  1.3641
  793MPD2    H111744   4.419   3.940  10.705  0.8361 -0.4032  2.2272
  793MPD2    H211745   4.553   4.009  10.316  1.8920  3.9785 -0.1860
  793MPD2    H311746   4.382   3.964  10.458  0.8970 -1.7032 -0.9072
  793MPD2     N11747   4.673   3.930  10.815 -0.1698 -0.1440  0.7375
  793MPD2    H511748   0.034   3.937  10.840  0.5762  0.0581 -2.2485
  793MPD2    N111749   0.092   4.029  10.375  0.6000 -0.4241 -0.0316
  793MPD2    H711750   0.178   4.035  10.428  0.9983 -0.1855 -0.7070
  794MPD2     C11751   4.543   3.605  17.429 -0.8376 -0.4771 -0.7898
  794MPD2    C111752   4.645   3.586  17.336  0.6089  0.5883  0.2708
  794MPD2    C211753   4.637   3.651  17.215 -0.7758  0.6082 -0.1913
  794MPD2    C311754   4.530   3.735  17.185 -0.5572 -0.0940 -0.1560
  794MPD2    C411755   4.426   3.756  17.279 -0.8189  0.6274  0.8562
  794MPD2    C511756   4.437   3.687  17.398 -0.8532  0.2635  0.4592
  794MPD2     H11757   4.715   3.640  17.140 -0.2197 -1.4192  0.6772
  794MPD2    H111758   4.340   3.820  17.263 -1.5008 -0.7132 -0.8532
  794MPD2    H211759   4.549   3.566  17.530 -0.1953 -0.5421 -0.8523
  794MPD2    H311760   4.360   3.703  17.472 -0.2732  0.0328  1.1107
  794MPD2     N11761   4.509   3.800  17.059 -0.7463 -0.3715  0.0505
  794MPD2    H511762   4.420   3.848  17.048  0.6565  1.8457 -1.6801
  794MPD2    N111763   0.020   3.504  17.360  0.1217 -0.3843 -0.5493
  794MPD2    H711764   0.087   3.485  17.286 -0.6684  3.2325 -2.2160
  795MPD2     C11765   2.818   1.130  13.932 -0.5208 -0.3316  0.2667
  795MPD2    C111766   2.753   1.027  13.873 -0.5233  0.0746  0.3369
  795MPD2    C211767   2.821   0.909  13.859 -0.5991  0.1116 -0.2264
  795MPD2    C311768   2.950   0.895  13.901  0.2097 -0.2856 -0.0650
  795MPD2    C411769   3.012   1.002  13.963  0.1254  0.2751 -0.4534
  795MPD2    C511770   2.945   1.113  13.980  0.6446 -0.0913 -0.1920
  795MPD2     H11771   2.762   0.826  13.822  1.6722 -0.7563 -1.9138
  795MPD2    H111772   3.113   0.990  14.001 -0.9577 -3.1012  1.3707
  795MPD2    H211773   2.779   1.224  13.970  0.6290 -0.9095  2.8790
  795MPD2    H311774   2.993   1.198  14.026  1.2282  0.1038 -1.1766
  795MPD2     N11775   3.002   0.768  13.870  0.0720  0.5274 -0.0449
  795MPD2    H511776   2.946   0.690  13.835  1.9400 -1.7996  2.1432
  795MPD2    N111777   2.621   1.037  13.826 -0.2075  0.1828  0.5591
  795MPD2    H711778   2.575   0.951  13.800  0.5024  0.0707 -0.3275
  796MPD2     C11779   1.892   1.944  16.500  0.0233  0.6463 -0.3257
  796MPD2    C111780   2.020   1.951  16.460 -0.7523  0.1567 -0.0922
  796MPD2    C211781   2.071   2.050  16.374  0.2746 -0.4093  0.9370
  796MPD2    C311782   1.980   2.148  16.337  0.2963 -0.7125  0.2545
  796MPD2    C411783   1.847   2.147  16.378  0.0295  0.4854 -0.2393
  796MPD2    C511784   1.803   2.044  16.458  0.0990  0.1978 -0.8505
  796MPD2     H11785   2.176   2.047  16.349  0.2491  1.5048  0.6403
  796MPD2    H111786   1.780   2.226  16.346  0.6882  0.8933 -0.6109
  796MPD2    H211787   1.865   1.860  16.562  0.2270  0.7813 -0.0533
  796MPD2    H311788   1.698   2.043  16.486  0.3718 -0.1738  0.1567
  796MPD2     N11789   2.030   2.248  16.251 -0.7736 -0.4200 -0.2733
  796MPD2    H511790   2.126   2.229  16.225 -0.9257 -0.3873 -0.8592
  796MPD2    N111791   2.099   1.839  16.508  0.0693  0.0688 -0.1443
  796MPD2    H711792   2.067   1.788  16.590 -0.2319 -0.9525 -0.9002
  797MPD2     C11793   3.236   1.538  17.525  0.2006  0.4941  0.8735
  797MPD2    C111794   3.278   1.677  17.513  0.3951 -0.3264 -0.0277
  797MPD2    C211795   3.245   1.752  17.411 -0.2464 -0.3278 -0.5684
  797MPD2    C311796   3.171   1.704  17.302  0.0662 -0.1482 -0.0116
  797MPD2    C411797   3.133   1.571  17.304  0.3769 -0.0106 -0.3130
  797MPD2    C511798   3.165   1.490  17.416  0.3545  0.3348 -0.1849
  797MPD2     H11799   3.280   1.855  17.413 -1.0118 -0.0398 -1.8881
  797MPD2    H111800   3.072   1.522  17.229 -0.1367  2.0944 -1.2929
  797MPD2    H211801   3.271   1.479  17.608  1.0328  0.1243  0.2686
  797MPD2    H311802   3.139   1.386  17.424  1.3936 -0.0793 -2.0876
  797MPD2     N11803   3.155   1.775  17.180 -0.2159  0.1050 -0.4322
  797MPD2    H511804   3.139   1.722  17.095 -0.4589 -0.4681 -0.0265
  797MPD2    N111805   3.363   1.736  17.606  0.3675  0.3540 -0.1872
  797MPD2    H711806   3.401   1.829  17.588 -0.1829  0.6518  0.2020
  798MPD2     C11807   3.711   2.217  17.152  0.5238  0.7146  0.1119
  798MPD2    C111808   3.588   2.163  17.190  0.3106 -0.3813  0.1589
  798MPD2    C211809   3.571   2.130  17.316 -0.0037 -0.4893 -0.0333
  798MPD2    C311810   3.670   2.128  17.410 -0.4852  0.5647  0.6226
  798MPD2    C411811   3.797   2.169  17.375  0.1791  0.2543 -0.2016
  798MPD2    C511812   3.811   2.219  17.249 -0.1324 -0.0376 -1.3092
  798MPD2     H11813   3.481   2.080  17.350 -0.7118  1.3759  0.8308
  798MPD2    H111814   3.880   2.173  17.445  0.5475 -1.7761 -0.5235
  798MPD2    H211815   3.737   2.240  17.049 -3.1272  0.4475 -0.8678
  798MPD2    H311816   3.909   2.258  17.224  1.0628 -1.7655  0.7720
  798MPD2     N11817   3.640   2.061  17.531 -0.0808 -0.4461  0.1140
  798MPD2    H511818   3.545   2.029  17.546 -0.1221  0.8179  2.4900
  798MPD2    N111819   3.479   2.139  17.103  0.1616  0.2039  0.1102
  798MPD2    H711820   3.396   2.093  17.139  2.1977 -1.0626  3.1584
  799MPD2     C11821   2.274   3.571  14.994  0.3972  0.6680 -0.4393
  799MPD2    C111822   2.245   3.509  14.880  0.3556 -0.1457 -0.0311
  799MPD2    C211823   2.194   3.585  14.777 -0.2845  0.6058  0.3380
  799MPD2    C311824   2.174   3.716  14.799 -0.6497 -0.1340 -0.2482
  799MPD2    C411825   2.202   3.781  14.912  0.0297  0.6832 -0.1779
  799MPD2    C511826   2.254   3.710  15.012 -0.1061 -0.1292  0.2852
  799MPD2     H11827   2.155   3.531  14.691  0.1372  0.9917 -0.0925
  799MPD2    H111828   2.193   3.888  14.929 -1.1006  0.4559  0.6909
  799MPD2    H211829   2.300   3.514  15.083 -3.6749  1.2285  1.1201
  799MPD2    H311830   2.268   3.763  15.105 -1.1164  3.0507 -1.3519
  799MPD2     N11831   2.120   3.799  14.690  0.5555  0.6371 -0.3987
  799MPD2    H511832   2.105   3.897  14.714 -1.8516  0.0650  0.3712
  799MPD2    N111833   2.253   3.369  14.865 -0.0405 -0.8773 -0.2348
  799MPD2    H711834   2.222   3.321  14.781  0.5310  4.0650 -3.2174
  800MPD2     C11835   2.631   4.669  14.570 -0.6399 -0.1498 -0.3016
  800MPD2    C111836   2.702   0.014  14.483 -0.2834  0.6717  0.3229
  800MPD2    C211837   2.624   0.099  14.397 -0.1784 -0.3552 -0.2234
  800MPD2    C311838   2.487   0.081  14.391 -0.7818 -0.1613 -0.1096
  800MPD2    C411839   2.423   0.003  14.480 -0.3967  0.3984  0.0488
  800MPD2    C511840   2.494   4.669  14.573  0.4736  0.7183 -0.1169
  800MPD2     H11841   2.671   0.167  14.327  0.2153 -1.9568 -1.4870
  800MPD2    H111842   2.315   4.732  14.489 -0.2871 -2.2566 -0.9560
  800MPD2    H211843   2.676   4.607  14.647  1.4612  0.9078 -0.6879
  800MPD2    H311844   2.450   4.587  14.629  1.7926 -0.6932 -1.1740
  800MPD2     N11845   2.411   0.143  14.290  0.0657 -0.2361  0.2219
  800MPD2    H511846   2.318   0.105  14.276 -0.6431  1.9102 -0.9474
  800MPD2    N111847   2.842   0.005  14.475  0.0214 -0.4721  0.3664
  800MPD2    H711848   2.884   4.659  14.515  0.7083 -1.0855 -1.6358
  801MPD2     C11849   3.287   0.491  14.177  0.6876  0.0025  0.0309
  801MPD2    C111850   3.171   0.426  14.213  0.2235 -0.3951  0.2805
  801MPD2    C211851   3.065   0.499  14.267  0.1951 -0.3708 -0.2169
  801MPD2    C311852   3.083   0.634  14.295 -0.9340  0.5481  0.3980
  801MPD2    C411853   3.198   0.702  14.250  0.2507 -0.1567 -0.3598
  801MPD2    C511854   3.302   0.631  14.190 -0.5061  0.0844  0.7413
  801MPD2     H11855   2.973   0.451  14.296 -0.0161  0.2659  0.1600
  801MPD2    H111856   3.212   0.808  14.268 -1.1428  0.0197 -0.2733
  801MPD2    H211857   3.376   0.442  14.140  0.5943  0.8213 -1.2912
  801MPD2    H311858   3.396   0.669  14.151 -0.7252  1.2579  1.3701
  801MPD2     N11859   3.002   0.704  14.386 -0.2324  0.1936  0.4092
  801MPD2    H511860   3.035   0.788  14.433  0.2532  0.0183  0.3798
  801MPD2    N111861   3.153   0.287  14.208 -0.1495  0.9145 -0.1689
  801MPD2    H711862   3.071   0.251  14.256  0.1358 -0.2211 -0.5154
  802MPD2     C11863   2.097   0.818   0.554  0.5529  0.4256  0.1754
  802MPD2    C111864   1.997   0.755   0.489 -0.7349 -0.1395 -0.2122
  802MPD2    C211865   2.013   0.735   0.352 -0.1075 -0.7459  0.2104
  802MPD2    C311866   2.129   0.773   0.280  0.1586  0.5039 -0.4215
  802MPD2    C411867   2.240   0.827   0.351  0.7398  0.4144 -0.5339
  802MPD2    C511868   2.218   0.838   0.490  0.6072  0.2261  0.3234
  802MPD2     H11869   1.926   0.704   0.295 -0.8469  0.1967  0.8243
  802MPD2    H111870   2.332   0.856   0.303  0.6357  0.0020 -0.9871
  802MPD2    H211871   2.106   0.815   0.662  0.4433 -0.0896  0.1668
  802MPD2    H311872   2.298   0.876   0.552  0.8769  0.5190 -0.2060
  802MPD2     N11873   2.129   0.757   0.136 -0.1536 -0.3209 -0.0039
  802MPD2    H511874   2.044   0.724   0.092 -0.6896  3.2774 -1.6965
  802MPD2    N111875   1.871   0.726   0.544 -0.2065  0.1167  1.3410
  802MPD2    H711876   1.807   0.663   0.498  1.6353  0.3109 -1.5138
  803MPD2     C11877   3.685   4.033  11.872  0.6844 -0.3820 -0.0980
  803MPD2    C111878   3.544   4.055  11.882 -0.1979  0.2926  0.2441
  803MPD2    C211879   3.472   4.038  11.999 -0.1549 -0.2644 -0.5901
  803MPD2    C311880   3.532   3.992  12.112 -0.7887  0.3524  0.1278
  803MPD2    C411881   3.666   3.969  12.109 -0.1768 -0.4368 -0.5736
  803MPD2    C511882   3.742   3.986  11.989 -0.2932 -0.5263  0.3424
  803MPD2     H11883   3.368   4.065  12.014  0.7113  2.9692 -0.2530
  803MPD2    H111884   3.712   3.926  12.197 -0.8429 -1.0236 -0.5090
  803MPD2    H211885   3.739   4.048  11.780  0.3790 -1.0527 -0.3839
  803MPD2    H311886   3.845   3.952  11.993 -0.0365  0.3422  1.1096
  803MPD2     N11887   3.458   3.966  12.231  0.1912 -0.4337 -0.0187
  803MPD2    H511888   3.518   3.978  12.312 -1.3376 -0.7975  1.1765
  803MPD2    N111889   3.467   4.098  11.767 -0.3402  0.4965 -0.5426
  803MPD2    H711890   3.374   4.133  11.789 -0.3606  0.5584 -0.7312
  804MPD2     C11891   2.455   0.592  17.188  0.4455  0.0898  0.3941
  804MPD2    C111892   2.475   0.547  17.318 -0.1155  0.4741  0.0185
  804MPD2    C211893   2.566   0.614  17.400 -0.0968  0.0671 -1.0335
  804MPD2    C311894   2.636   0.725  17.357 -0.1523 -0.0984 -0.5125
  804MPD2    C411895   2.598   0.775  17.235  0.4650  0.1739  0.0476
  804MPD2    C511896   2.519   0.707  17.149  0.4836  0.2065 -0.5441
  804MPD2     H11897   2.593   0.574  17.497  0.1652  0.4660 -0.9404
  804MPD2    H111898   2.637   0.869  17.195  2.6204 -0.2540  1.1346
  804MPD2    H211899   2.393   0.549  17.111  1.2364  0.7312 -0.5994
  804MPD2    H311900   2.497   0.750  17.052  0.0655 -0.1700 -0.6166
  804MPD2     N11901   2.740   0.776  17.434 -0.4124  0.4927  0.9676
  804MPD2    H511902   2.741   0.743  17.530 -0.1238 -1.1160  0.4087
  804MPD2    N111903   2.428   0.426  17.360 -0.2301  0.0935  0.7569
  804MPD2    H711904   2.414   0.419  17.461  1.0141 -2.5313  0.7306
  805MPD2     C11905   1.782   3.936  15.882 -0.4472  0.1991  0.4359
  805MPD2    C111906   1.904   3.948  15.822  0.0348 -0.7741  0.0479
  805MPD2    C211907   2.019   3.929  15.895  0.2310  0.2468  0.0162
  805MPD2    C311908   2.017   3.900  16.032  0.0372 -0.6899 -0.0598
  805MPD2    C411909   1.893   3.902  16.092  1.0076 -0.0416  0.2269
  805MPD2    C511910   1.779   3.917  16.015  0.3013 -0.1903  0.5725
  805MPD2     H11911   2.115   3.928  15.845 -0.5542 -1.4335 -1.4568
  805MPD2    H111912   1.880   3.891  16.199 -0.0308 -0.6304  0.0443
  805MPD2    H211913   1.689   3.947  15.826 -0.4953  1.8639  0.8699
  805MPD2    H311914   1.685   3.903  16.067 -0.0479  0.8151  0.2070
  805MPD2     N11915   2.135   3.855  16.099  0.1354  0.3827 -0.2728
  805MPD2    H511916   2.219   3.850  16.041  0.0279  1.1355 -0.4984
  805MPD2    N111917   1.920   3.970  15.684  0.3570 -0.0834  0.0801
  805MPD2    H711918   2.012   3.976  15.643  0.5707 -3.9363  0.0574
  806MPD2     C11919   2.327   3.201   1.115  0.3016  0.0004  0.6311
  806MPD2    C111920   2.458   3.250   1.100 -0.2389  0.3046 -0.2939
  806MPD2    C211921   2.532   3.215   0.984  0.2830  0.3605  0.4267
  806MPD2    C311922   2.472   3.133   0.890 -0.1513  0.8261 -0.1134
  806MPD2    C411923   2.344   3.078   0.907 -0.6213 -0.0356 -0.6642
  806MPD2    C511924   2.269   3.124   1.011 -0.3713  0.2207  0.3326
  806MPD2     H11925   2.628   3.265   0.976  0.1523  0.3068 -1.4688
  806MPD2    H111926   2.294   3.012   0.838  0.8489 -0.6823 -1.1071
  806MPD2    H211927   2.263   3.219   1.200 -1.3649  0.5676 -0.7438
  806MPD2    H311928   2.165   3.093   1.018 -0.7774  1.2357 -1.3196
  806MPD2     N11929   2.539   3.107   0.770  0.8932  0.1076  0.3770
  806MPD2    H511930   2.622   3.164   0.756  1.4340 -0.5626  0.8288
  806MPD2    N111931   2.506   3.321   1.208  0.1574  0.3685  0.0665
  806MPD2    H711932   2.436   3.350   1.276 -2.6483 -3.0342 -1.3477
  807MPD2     C11933   2.685   3.043   1.857 -0.8574  0.4649 -0.2276
  807MPD2    C111934   2.681   3.045   1.718 -0.0862  0.4580  0.3592
  807MPD2    C211935   2.687   2.926   1.653 -0.3983 -0.3439 -0.3566
  807MPD2    C311936   2.707   2.807   1.722 -0.4923 -0.4056 -0.1549
  807MPD2    C411937   2.720   2.802   1.861  0.0576 -0.2606 -0.0081
  807MPD2    C511938   2.709   2.922   1.928 -0.0647  0.3896  0.2193
  807MPD2     H11939   2.680   2.927   1.545  0.4132  1.2027 -0.3882
  807MPD2    H111940   2.758   2.713   1.910  1.1358 -0.9388 -2.0503
  807MPD2    H211941   2.686   3.131   1.921  0.8489 -0.0790  0.4900
  807MPD2    H311942   2.733   2.922   2.033 -2.6691  1.8820  0.8266
  807MPD2     N11943   2.719   2.687   1.647  0.7055  0.2587  0.1455
  807MPD2    H511944   2.723   2.699   1.547 -1.1393 -1.8439 -0.1801
  807MPD2    N111945   2.674   3.166   1.640 -0.2765  0.0378 -0.3850
  807MPD2    H711946   2.665   3.145   1.541  2.1394 -0.1822 -0.5666
  808MPD2     C11947   2.765   0.025   9.727 -0.6038  0.0470  0.0083
  808MPD2    C111948   2.891   0.062   9.779 -0.0418 -0.1534 -0.7445
  808MPD2    C211949   2.954   0.188   9.744 -0.6375  0.4218 -0.5871
  808MPD2    C311950   2.886   0.263   9.647 -0.4843  0.3241 -0.5024
  808MPD2    C411951   2.768   0.220   9.589 -0.4799 -0.6797 -0.2767
  808MPD2    C511952   2.707   0.103   9.628  0.3679  0.1200 -0.1106
  808MPD2     H11953   3.045   0.233   9.781 -0.6792  0.2046 -0.2262
  808MPD2    H111954   2.723   0.276   9.509 -0.8271 -1.6575 -0.7698
  808MPD2    H211955   2.710   4.671   9.745 -1.3487  0.4224 -0.3639
  808MPD2    H311956   2.614   0.061   9.593 -0.4237  2.3929 -0.7362
  808MPD2     N11957   2.934   0.388   9.588 -0.1384 -0.0897  0.0407
  808MPD2    H511958   2.882   0.428   9.511  0.2012  0.0703 -0.1048
  808MPD2    N111959   2.947   4.715   9.880 -0.2167 -0.4743 -0.0338
  808MPD2    H711960   3.021   0.023   9.934  1.2808 -1.9004 -0.9001
  809MPD2     C11961   3.685   1.168   9.582 -0.2484 -0.0498  0.4946
  809MPD2    C111962   3.657   1.061   9.666 -0.5759  0.5391  0.1920
  809MPD2    C211963   3.561   0.976   9.625  0.2271 -0.2145  0.0907
  809MPD2    C311964   3.482   1.006   9.508  0.2260 -0.7729 -0.6710
  809MPD2    C411965   3.510   1.115   9.441  0.4991 -0.5344  0.7017
  809MPD2    C511966   3.612   1.192   9.469 -0.1673  0.3555  0.2575
  809MPD2     H11967   3.532   0.908   9.704 -3.6834 -1.4140 -2.3319
  809MPD2    H111968   3.456   1.142   9.351 -0.4026 -0.8544  1.1478
  809MPD2    H211969   3.770   1.234   9.595 -1.4672  0.9046  3.4002
  809MPD2    H311970   3.640   1.266   9.395  1.6193 -0.0292  0.5487
  809MPD2     N11971   3.383   0.919   9.464 -0.0934 -0.3074  0.1609
  809MPD2    H511972   3.316   0.957   9.398  0.4206  0.0053 -0.1799
  809MPD2    N111973   3.728   1.036   9.783  0.0974 -0.5737 -0.1191
  809MPD2    H711974   3.712   0.949   9.833  0.5188 -0.4758  0.1840
  810MPD2     C11975   2.229   3.982  10.996 -0.2244 -0.5148  0.4223
  810MPD2    C111976   2.273   4.037  10.878  0.2712 -0.0597 -0.0005
  810MPD2    C211977   2.268   4.172  10.855 -0.0556  0.1956  0.0607
  810MPD2    C311978   2.214   4.262  10.950  0.0958 -0.2170  0.4476
  810MPD2    C411979   2.165   4.205  11.067  0.7981  0.3019  0.0156
  810MPD2    C511980   2.179   4.070  11.085  0.0514 -0.4321  0.0640
  810MPD2     H11981   2.313   4.207  10.763  0.3463 -0.0141  0.1762
  810MPD2    H111982   2.106   4.258  11.141  1.3536  2.0311 -0.7686
  810MPD2    H211983   2.241   3.875  11.013 -3.2055 -0.1512  4.8707
  810MPD2    H311984   2.135   4.030  11.175 -1.8480  0.3026 -0.5458
  810MPD2     N11985   2.212   4.404  10.934  0.0562 -0.2887  0.3786
  810MPD2    H511986   2.170   4.460  11.007 -1.6997 -2.7558  1.2665
  810MPD2    N111987   2.317   3.942  10.781  0.4044 -0.1721  0.0452
  810MPD2    H711988   2.298   3.846  10.807 -1.7203  0.0047 -0.8568
  811MPD2     C11989   2.093   3.865   9.964  0.6815 -0.6254 -0.7156
  811MPD2    C111990   2.148   3.927  10.070 -0.5006 -0.8104 -0.0379
  811MPD2    C211991   2.129   4.065  10.080  0.1163 -0.4226  0.3137
  811MPD2    C311992   2.093   4.139   9.972  0.5067  0.3822  0.1572
  811MPD2    C411993   2.048   4.074   9.855 -0.0125  0.3520  0.4883
  811MPD2    C511994   2.046   3.936   9.861 -0.1705  0.1584  0.4149
  811MPD2     H11995   2.150   4.114  10.175 -0.2578  0.5052 -0.0872
  811MPD2    H111996   2.034   4.118   9.757  1.1924 -1.3473 -0.4561
  811MPD2    H211997   2.109   3.758   9.957 -3.8697 -1.3514 -0.0691
  811MPD2    H311998   2.027   3.883   9.768 -1.6093  0.7065  0.4069
  811MPD2     N11999   2.099   4.275   9.990  0.2021  0.2028  0.4229
  811MPD2    H512000   2.132   4.309  10.080 -0.3408  0.5681  0.4861
  811MPD2    N112001   2.205   3.847  10.168  0.4199  0.3255 -0.1325
  811MPD2    H712002   2.199   3.747  10.148 -0.5052  0.8097 -2.3236
  812MPD2     C12003   1.384   3.815  12.148 -0.2031 -0.0600 -0.1948
  812MPD2    C112004   1.407   3.928  12.225 -0.0772 -0.6075 -0.5842
  812MPD2    C212005   1.438   3.919  12.364  0.2371 -0.0186  0.1564
  812MPD2    C312006   1.471   3.791  12.412  0.2419 -0.3070  0.0936
  812MPD2    C412007   1.455   3.680  12.331 -0.1884 -0.2416  1.1288
  812MPD2    C512008   1.411   3.692  12.198 -0.2560  0.5446  0.4998
  812MPD2     H12009   1.457   4.007  12.425 -0.7286  0.3827 -0.1236
  812MPD2    H112010   1.477   3.578  12.360 -2.9063 -1.3469 -0.6840
  812MPD2    H212011   1.339   3.829  12.050 -1.6195 -0.8019  0.3583
  812MPD2    H312012   1.381   3.606  12.140  0.7156 -1.4906  3.0287
  812MPD2     N12013   1.502   3.779  12.550  0.2189  0.2467  0.1201
  812MPD2    H512014   1.486   3.863  12.604  1.2570  0.2014  0.4923
  812MPD2    N112015   1.384   4.049  12.163  0.0367 -0.0268 -1.0378
  812MPD2    H712016   1.371   4.052  12.063 -1.1887 -1.5997 -0.9137
  813MPD2     C12017   0.194   1.245  12.921 -0.0644  0.7362 -0.1510
  813MPD2    C112018   0.284   1.324  12.999 -0.1085 -0.4662 -0.1399
  813MPD2    C212019   0.284   1.315  13.135 -0.5701 -0.1868  0.6685
  813MPD2    C312020   0.191   1.230  13.201 -0.1789 -0.2070 -0.2013
  813MPD2    C412021   0.087   1.178  13.130 -0.3253 -0.1314 -0.1667
  813MPD2    C512022   0.103   1.169  12.987  0.0605 -0.1534  0.4394
  813MPD2     H12023   0.351   1.367  13.203 -0.0881 -2.3246  1.8249
  813MPD2    H112024   0.008   1.122  13.179  0.4500 -1.6344 -0.6277
  813MPD2    H212025   0.191   1.257  12.813  0.6783  0.9784 -0.1414
  813MPD2    H312026   0.034   1.102  12.937  0.1283 -0.6904  1.0586
  813MPD2     N12027   0.190   1.238  13.339  0.2057  0.3238  0.6383
  813MPD2    H512028   0.265   1.286  13.388 -0.0278  2.9534 -1.6117
  813MPD2    N112029   0.394   1.400  12.949  0.4188  0.1135 -0.4606
  813MPD2    H712030   0.456   1.447  13.014 -1.0223  1.1387  0.1877
  814MPD2     C12031   0.641   2.783  12.526  0.5972  0.2188 -0.5364
  814MPD2    C112032   0.744   2.771  12.433 -0.2312  0.6110  0.2142
  814MPD2    C212033   0.840   2.866  12.423 -0.0810  0.9206 -0.0721
  814MPD2    C312034   0.859   2.955  12.524  0.0102 -0.5722 -0.1911
  814MPD2    C412035   0.772   2.956  12.633 -0.7665  0.1495 -0.4860
  814MPD2    C512036   0.663   2.871  12.626  1.6030  0.2650 -0.3310
  814MPD2     H12037   0.906   2.850  12.338  0.9019 -0.5403  0.9733
  814MPD2    H112038   0.776   3.023  12.717 -1.3046  0.4513 -0.7004
  814MPD2    H212039   0.559   2.713  12.537  0.2472  0.6696 -0.2659
  814MPD2    H312040   0.591   2.859  12.707  1.6054  1.2718 -0.1871
  814MPD2     N12041   0.972   3.039  12.534 -0.6088  0.5037  0.0363
  814MPD2    H512042   0.994   3.076  12.626 -1.6523 -0.4444  0.6735
  814MPD2    N112043   0.750   2.666  12.334 -0.1418 -0.4956  0.0406
  814MPD2    H712044   0.834   2.671  12.278 -0.5772  1.1611 -0.4777
  815MPD2     C12045   1.540   0.796  11.994 -0.1094 -0.5531 -0.0567
  815MPD2    C112046   1.424   0.758  11.931 -0.1044  0.9235 -0.6447
  815MPD2    C212047   1.302   0.747  12.001  0.7252  0.2612  0.3108
  815MPD2    C312048   1.293   0.772  12.133 -0.6794  0.5299 -0.0532
  815MPD2    C412049   1.409   0.812  12.203  0.1461 -0.1780 -0.2730
  815MPD2    C512050   1.530   0.814  12.130  0.1048  0.5037 -0.2395
  815MPD2     H12051   1.215   0.700  11.955  0.4317 -0.6879  1.8423
  815MPD2    H112052   1.419   0.825  12.310  2.3030 -1.1122 -0.3650
  815MPD2    H212053   1.636   0.796  11.942  0.2294  0.7324  0.5631
  815MPD2    H312054   1.623   0.822  12.185  0.4669 -1.1260 -0.6120
  815MPD2     N12055   1.172   0.740  12.202 -0.1723  0.6044  0.8041
  815MPD2    H512056   1.091   0.710  12.148  0.5040  0.1976  0.0215
  815MPD2    N112057   1.428   0.726  11.792  0.0323 -0.2019  1.0595
  815MPD2    H712058   1.517   0.728  11.743 -1.3921 -1.5995 -1.5813
  816MPD2     C12059   1.867   0.116  17.550 -0.4132  0.2250 -0.2885
  816MPD2    C112060   1.791   0.186  17.459 -0.2120 -0.5435 -0.2847
  816MPD2    C212061   1.764   0.126  17.335 -0.4180  0.1790  0.1310
  816MPD2    C312062   1.803   4.734  17.309  0.5118  0.5109 -0.3589
  816MPD2    C412063   1.869   4.663  17.411 -0.1892 -0.0671  0.1661
  816MPD2    C512064   1.907   4.723  17.531 -0.4402  0.2779 -0.4412
  816MPD2     H12065   1.698   0.174  17.264 -0.7586 -0.4732  0.0024
  816MPD2    H112066   1.890   4.558  17.398  0.2787 -0.2974  2.8192
  816MPD2    H212067   1.899   0.154  17.646 -3.1616 -1.0152  1.1230
  816MPD2    H312068   1.964   4.667  17.604 -1.6872  1.9800  1.8187
  816MPD2     N12069   1.761   4.680  17.183  0.5571  0.0178 -0.3470
  816MPD2    H512070   1.723   0.015  17.123 -1.1222 -0.5046  0.0892
  816MPD2    N112071   1.750   0.318  17.493  0.6389 -0.0000  0.4690
  816MPD2    H712072   1.756   0.350  17.589 -0.4555 -1.1879  0.9382
  817MPD2     C12073   0.540   1.297   9.850 -0.2884  0.2563 -0.1998
  817MPD2    C112074   0.673   1.259   9.879  0.5817  0.0752 -0.8239
  817MPD2    C212075   0.769   1.356   9.889  0.3000  0.2435  0.0333
  817MPD2    C312076   0.747   1.495   9.861 -0.2718  0.4187 -0.6071
  817MPD2    C412077   0.617   1.530   9.825 -0.1774 -0.1871  0.0211
  817MPD2    C512078   0.516   1.434   9.818  0.5352  0.8010 -0.5830
  817MPD2     H12079   0.872   1.322   9.894  0.5703  0.7697 -1.8938
  817MPD2    H112080   0.594   1.633   9.801 -1.6687 -0.7832 -1.0986
  817MPD2    H212081   0.451   1.235   9.846 -0.4376  0.4872 -0.4551
  817MPD2    H312082   0.413   1.464   9.801 -0.0054 -0.2789  0.6777
  817MPD2     N12083   0.855   1.580   9.885  0.5466 -0.3789 -0.2306
  817MPD2    H512084   0.945   1.545   9.916 -0.0150 -3.6136 -2.2634
  817MPD2    N112085   0.704   1.123   9.910 -0.9640 -0.3904  0.2179
  817MPD2    H712086   0.801   1.108   9.935 -1.0700 -0.1114  0.8202
  818MPD2     C12087   4.652   1.447  10.406  0.7117 -0.2702 -0.4003
  818MPD2    C112088   4.518   1.438  10.400  0.1433 -0.7651  0.2630
  818MPD2    C212089   4.457   1.325  10.452 -0.4822  0.2688  0.0550
  818MPD2    C312090   4.525   1.232  10.532 -0.1492 -0.2929  0.4946
  818MPD2    C412091   4.659   1.244  10.531 -0.0027  0.3052  0.6524
  818MPD2    C512092   4.727   1.348  10.464  0.0498  0.1139 -0.1281
  818MPD2     H12093   4.348   1.328  10.449 -0.4879 -0.1870 -0.2093
  818MPD2    H112094   4.725   1.177  10.585  0.6555  0.0969 -0.4067
  818MPD2    H212095   4.707   1.534  10.371 -1.9472  1.5516  0.0387
  818MPD2    H312096   0.099   1.349  10.461  0.0722  3.3940  1.9767
  818MPD2     N12097   4.461   1.120  10.592 -0.0064 -0.0883 -0.3016
  818MPD2    H512098   4.517   1.054  10.644  1.6997  3.0677  1.8725
  818MPD2    N112099   4.429   1.531  10.340 -0.4387 -0.5101 -0.9316
  818MPD2    H712100   4.330   1.510  10.334 -0.6797  0.6651 -1.2059
  819MPD2     C12101   2.537   3.466  15.993 -0.4869 -0.4729 -0.0594
  819MPD2    C112102   2.535   3.332  15.963 -0.7036  0.2538  0.1849
  819MPD2    C212103   2.643   3.253  16.007  0.5287 -0.0225  0.4413
  819MPD2    C312104   2.749   3.302  16.081 -0.2399  0.4187 -0.2645
  819MPD2    C412105   2.752   3.438  16.097  0.1453  0.2020  0.0298
  819MPD2    C512106   2.644   3.516  16.060  0.4247  0.3751 -0.5082
  819MPD2     H12107   2.654   3.151  15.972 -2.3303 -0.5016  0.9810
  819MPD2    H112108   2.834   3.492  16.143 -0.6606  0.1438  1.5278
  819MPD2    H212109   2.446   3.522  15.979 -0.1909 -0.0272 -0.2040
  819MPD2    H312110   2.655   3.623  16.067  2.6005  0.2183 -1.4470
  819MPD2     N12111   2.856   3.216  16.126 -0.3031 -0.0527 -0.1811
  819MPD2    H512112   2.853   3.118  16.100 -0.4932  0.3242 -1.5568
  819MPD2    N112113   2.440   3.291  15.868 -0.1441 -0.2022 -0.1923
  819MPD2    H712114   2.388   3.360  15.814  2.9487  2.6424  0.4709
  820MPD2     C12115   1.900   3.462  15.072 -0.6966 -0.4394  0.3192
  820MPD2    C112116   1.973   3.533  15.167  0.2420  0.4286  0.4120
  820MPD2    C212117   2.069   3.470  15.243  0.0092  0.1366 -0.8328
  820MPD2    C312118   2.081   3.332  15.232 -0.3547  1.1267 -0.4245
  820MPD2    C412119   1.995   3.264  15.136 -0.3406 -0.3022  0.0765
  820MPD2    C512120   1.907   3.324  15.054 -0.1028 -0.0079 -0.3382
  820MPD2     H12121   2.142   3.521  15.305  1.2490 -1.2887 -1.1129
  820MPD2    H112122   1.997   3.156  15.137 -2.9297 -0.3424  0.5441
  820MPD2    H212123   1.830   3.518  15.012  1.8567  1.5172 -0.8378
  820MPD2    H312124   1.843   3.271  14.984  0.4507 -2.3098  0.8758
  820MPD2     N12125   2.163   3.257  15.318  0.2199 -0.0051  0.0155
  820MPD2    H512126   2.175   3.158  15.295  0.1973 -0.1400  0.5883
  820MPD2    N112127   1.937   3.673  15.190  0.1796  0.1556  0.3175
  820MPD2    H712128   1.855   3.709  15.143  0.3536  0.5877  0.3459
  821MPD2     C12129   2.375   0.634  13.562  0.1441  0.1480 -0.0405
  821MPD2    C112130   2.472   0.531  13.577 -0.3799  0.1970 -0.1040
  821MPD2    C212131   2.570   0.511  13.479 -0.1168 -0.2868 -0.2496
  821MPD2    C312132   2.583   0.602  13.376 -0.3916 -0.1702 -0.4333
  821MPD2    C412133   2.496   0.707  13.369  0.0581 -0.6771  0.3477
  821MPD2    C512134   2.389   0.722  13.457  0.3946 -0.0346  0.2077
  821MPD2     H12135   2.629   0.421  13.493 -0.9890 -0.8251 -0.0383
  821MPD2    H112136   2.513   0.790  13.301 -2.1413  0.6464  1.4085
  821MPD2    H212137   2.290   0.643  13.628 -1.0230  3.1584 -1.9444
  821MPD2    H312138   2.324   0.809  13.448  1.2778  0.4728 -1.3011
  821MPD2     N12139   2.680   0.591  13.274 -0.0908 -0.2740 -0.3459
  821MPD2    H512140   2.685   0.664  13.204  2.9977 -0.2271 -0.0897
  821MPD2    N112141   2.445   0.427  13.672 -0.3696  0.5877 -0.3698
  821MPD2    H712142   2.505   0.345  13.661 -1.6735 -0.0160 -2.8957
  822MPD2     C12143   3.672   4.503  16.114 -0.5660 -0.2933  0.0124
  822MPD2    C112144   3.607   4.468  16.233 -0.0024  0.0007  0.2984
  822MPD2    C212145   3.491   4.532  16.264  0.9212  0.2397 -0.2302
  822MPD2    C312146   3.441   4.630  16.181 -0.3745 -0.7872  0.0624
  822MPD2    C412147   3.495   4.659  16.055  0.2997 -0.2027  0.6168
  822MPD2    C512148   3.610   4.589  16.024  0.2312  0.9074  0.0207
  822MPD2     H12149   3.436   4.510  16.355  0.8457  0.1039 -0.3095
  822MPD2    H112150   3.447   4.730  15.989 -2.4293 -1.7809  0.9006
  822MPD2    H212151   3.774   4.470  16.095 -0.0089  0.9784  0.7401
  822MPD2    H312152   3.653   4.611  15.927 -0.0671  0.6707 -0.1649
  822MPD2     N12153   3.335   4.702  16.230 -0.2538 -0.2123 -0.0807
  822MPD2    H512154   3.307   4.668  16.321 -1.2998  0.7355 -0.0360
  822MPD2    N112155   3.667   4.379  16.327 -0.2047 -0.4328  0.3319
  822MPD2    H712156   3.620   4.374  16.417  0.4917  1.6893  0.8239
  823MPD2     C12157   2.761   0.172  16.856 -0.1002 -0.2925  0.5177
  823MPD2    C112158   2.885   0.122  16.815  0.1511  0.0347 -0.1918
  823MPD2    C212159   2.975   0.079  16.909 -0.3290  0.5494 -0.0323
  823MPD2    C312160   2.946   0.082  17.048  0.2449  0.5354  0.2317
  823MPD2    C412161   2.824   0.135  17.083 -0.0330 -0.0086 -0.0859
  823MPD2    C512162   2.730   0.182  16.989  0.2000  0.0674  0.3061
  823MPD2     H12163   3.063   0.035  16.863 -0.6494  0.7825 -0.8652
  823MPD2    H112164   2.796   0.134  17.188 -2.8203  1.5659 -0.8126
  823MPD2    H212165   2.687   0.202  16.783 -0.9845 -3.1821  0.2112
  823MPD2    H312166   2.631   0.211  17.022  0.7210  1.5275  0.5601
  823MPD2     N12167   3.023   0.017  17.138 -0.1785  0.6751 -0.3123
  823MPD2    H512168   2.983   0.025  17.231  1.0494 -0.1016  0.2853
  823MPD2    N112169   2.916   0.133  16.669 -0.6366  0.1128  0.2077
  823MPD2    H712170   2.864   0.202  16.615  0.9370 -0.9258 -2.6249
  824MPD2     C12171   4.121   3.710  16.512  0.1045  0.2272  0.0246
  824MPD2    C112172   4.144   3.821  16.435  0.3065  0.5673 -0.4919
  824MPD2    C212173   4.231   3.813  16.329 -0.5370  0.1083 -0.0603
  824MPD2    C312174   4.311   3.702  16.313  0.8174 -0.0901 -0.0136
  824MPD2    C412175   4.285   3.591  16.392 -0.2458  0.5213  0.1791
  824MPD2    C512176   4.195   3.592  16.495  0.2928 -0.2904 -0.1085
  824MPD2     H12177   4.242   3.906  16.273  0.9393 -1.0543 -1.7001
  824MPD2    H112178   4.344   3.499  16.388 -1.7271 -0.3884 -0.7000
  824MPD2    H212179   4.056   3.716  16.598  0.4524  0.9866  0.2320
  824MPD2    H312180   4.180   3.511  16.565  1.0962 -0.3969 -0.0576
  824MPD2     N12181   4.416   3.707  16.219 -0.0920 -0.8707  0.0046
  824MPD2    H512182   4.418   3.796  16.169  1.2581 -1.1312 -0.4085
  824MPD2    N112183   4.072   3.943  16.460  0.1419  0.0880  0.5337
  824MPD2    H712184   4.076   4.016  16.390 -2.4242  0.1610  0.4858
  825MPD2     C12185   0.138   4.086  15.592  0.2568  0.2196  0.0505
  825MPD2    C112186   0.048   4.091  15.696 -0.8870  0.2797  0.4223
  825MPD2    C212187   0.010   4.218  15.743 -0.2128  0.2135 -0.2906
  825MPD2    C312188   0.063   4.336  15.694  0.3910  0.2045  0.9992
  825MPD2    C412189   0.136   4.321  15.574  0.4870 -0.0696 -0.6216
  825MPD2    C512190   0.171   4.199  15.527 -0.2323  0.3730  0.0673
  825MPD2     H12191   4.684   4.230  15.830  3.0674 -1.2119  2.2823
  825MPD2    H112192   0.176   4.403  15.514  3.1371 -0.4619  0.6226
  825MPD2    H212193   0.171   3.988  15.559  2.5550  0.6100  1.1966
  825MPD2    H312194   0.226   4.185  15.435 -0.4338 -2.0037  0.3079
  825MPD2     N12195   0.020   4.467  15.731  0.3660  0.2313 -0.3214
  825MPD2    H512196   0.023   4.539  15.659  1.4588 -0.4947 -0.9910
  825MPD2    N112197   0.020   3.967  15.759  0.2212 -0.4543  1.2455
  825MPD2    H712198   0.062   3.884  15.719 -1.0924 -0.1616 -0.7498
  826MPD2     C12199   4.224   3.909  14.121  0.6459  0.1865  0.3720
  826MPD2    C112200   4.231   3.974  13.997  0.4475 -0.2490 -0.6372
  826MPD2    C212201   4.149   4.076  13.969 -0.3592  0.9189  0.3988
  826MPD2    C312202   4.057   4.127  14.061  0.1682 -0.0836  0.2359
  826MPD2    C412203   4.053   4.062  14.180  0.2918 -0.6596  0.0950
  826MPD2    C512204   4.137   3.958  14.213 -0.1251 -1.0407 -0.0401
  826MPD2     H12205   4.154   4.121  13.870  1.9523 -1.6584 -0.6402
  826MPD2    H112206   3.987   4.098  14.258  1.2238  1.0961  0.0737
  826MPD2    H212207   4.282   3.821  14.146 -1.9488 -2.1954 -1.9781
  826MPD2    H312208   4.135   3.909  14.310 -2.2480  0.0871  0.4785
  826MPD2     N12209   3.954   4.219  14.022  0.3506  0.1355  0.3168
  826MPD2    H512210   3.869   4.232  14.075 -0.9503  0.8142 -1.9220
  826MPD2    N112211   4.322   3.925  13.896 -0.3631 -0.2338  0.3985
  826MPD2    H712212   4.393   3.861  13.930  1.5570  1.6772 -0.0207
  827MPD2     C12213   4.567   0.701  10.546  0.6670  0.1619 -0.5280
  827MPD2    C112214   4.561   0.562  10.542 -0.7681 -0.5091 -0.6815
  827MPD2    C212215   4.463   0.501  10.464 -0.1416  0.1433 -0.3669
  827MPD2    C312216   4.387   0.576  10.374 -0.5724 -0.6233  0.0255
  827MPD2    C412217   4.407   0.711  10.366  0.1020  0.4116  0.5467
  827MPD2    C512218   4.489   0.772  10.457 -0.8153  0.1042 -0.4487
  827MPD2     H12219   4.447   0.394  10.463 -0.5414  0.2026  0.2708
  827MPD2    H112220   4.343   0.773  10.304  0.9090 -1.1354 -1.8515
  827MPD2    H212221   4.634   0.751  10.615 -0.4714 -0.9269  1.3572
  827MPD2    H312222   4.503   0.880  10.466 -2.9041  0.1499  2.1790
  827MPD2     N12223   4.313   0.505  10.275  0.0394 -0.4978  0.5459
  827MPD2    H512224   4.306   0.405  10.290  3.2481 -0.9060 -0.6419
  827MPD2    N112225   4.654   0.496  10.620  1.0619 -0.7293  0.4441
  827MPD2    H712226   4.729   0.556  10.652  0.3151  1.2530 -1.5772
  828MPD2     C12227   3.659   0.513  12.073 -1.2357  0.0634 -0.2053
  828MPD2    C112228   3.558   0.556  11.987  0.2481 -0.3630 -0.0265
  828MPD2    C212229   3.569   0.544  11.851 -0.3416 -0.0338 -0.0534
  828MPD2    C312230   3.681   0.484  11.795 -0.0988  0.0905  0.5409
  828MPD2    C412231   3.782   0.447  11.879 -0.1966  0.4347 -0.6416
  828MPD2    C512232   3.771   0.459  12.018 -0.4213  0.1569  0.1763
  828MPD2     H12233   3.486   0.575  11.790 -0.0933  2.7190  1.0101
  828MPD2    H112234   3.868   0.393  11.840  0.8141 -0.5456  2.9386
  828MPD2    H212235   3.660   0.524  12.181  2.3243 -1.5620 -0.1010
  828MPD2    H312236   3.855   0.435  12.082 -1.5382  0.6354  1.8462
  828MPD2     N12237   3.703   0.470  11.658  0.1405 -0.1794  0.3170
  828MPD2    H512238   3.794   0.438  11.624 -0.0535  1.4621 -1.8014
  828MPD2    N112239   3.435   0.603  12.034 -0.4043 -0.3606 -0.4728
  828MPD2    H712240   3.360   0.618  11.967 -0.6160  1.7914  0.2655
  829MPD2     C12241   2.972   1.107  11.629  0.5006 -0.4131  0.3125
  829MPD2    C112242   2.892   1.104  11.745  0.3255  0.2985 -0.6922
  829MPD2    C212243   2.917   1.031  11.855 -0.2616 -0.2483  0.0547
  829MPD2    C312244   3.017   0.933  11.847 -0.3761  0.0974  0.9314
  829MPD2    C412245   3.096   0.928  11.736 -0.2550 -0.3863 -0.1583
  829MPD2    C512246   3.081   1.024  11.635  0.5688  0.2622  0.1500
  829MPD2     H12247   2.855   1.034  11.944  0.8971  2.1565  0.7668
  829MPD2    H112248   3.179   0.859  11.721  0.5973  0.6252 -0.1023
  829MPD2    H212249   2.967   1.181  11.551  0.4512 -0.6363  0.1042
  829MPD2    H312250   3.151   1.029  11.552  1.4734  0.5007  0.9220
  829MPD2     N12251   3.041   0.826  11.936  0.7268 -0.3216  0.4998
  829MPD2    H512252   3.120   0.766  11.915  0.8412  0.3347 -0.9598
  829MPD2    N112253   2.789   1.199  11.745 -0.2216 -0.0220 -0.1174
  829MPD2    H712254   2.777   1.233  11.650  0.2190 -2.0872 -0.9121
  830MPD2     C12255   3.511   2.659  16.075 -0.1377 -0.0391 -0.2548
  830MPD2    C112256   3.451   2.769  16.016 -0.7351 -0.5564 -0.2598
  830MPD2    C212257   3.513   2.831  15.908 -0.1816  0.2179 -0.1128
  830MPD2    C312258   3.624   2.773  15.847  0.2371  1.1086  0.1124
  830MPD2    C412259   3.681   2.664  15.900  0.1284 -0.4290 -0.0541
  830MPD2    C512260   3.630   2.615  16.016 -0.3724 -0.0491 -0.1926
  830MPD2     H12261   3.482   2.928  15.871  2.0755  1.1302  0.3893
  830MPD2    H112262   3.767   2.616  15.855  0.1266  1.1840 -1.7966
  830MPD2    H212263   3.484   2.623  16.174 -1.2456 -0.5021 -0.7417
  830MPD2    H312264   3.691   2.546  16.072  0.5221  1.8994  1.2351
  830MPD2     N12265   3.681   2.826  15.727  0.2075 -0.2092 -0.1126
  830MPD2    H512266   3.778   2.803  15.706  0.3040  0.6571 -0.5763
  830MPD2    N112267   3.333   2.805  16.081 -0.1917 -0.1738 -0.0245
  830MPD2    H712268   3.311   2.753  16.166  0.0167  2.5486  1.6863
  831MPD2     C12269   3.544   0.247  16.525 -0.2466 -0.5410 -0.1610
  831MPD2    C112270   3.599   0.124  16.485  0.0350 -0.7389  0.7139
  831MPD2    C212271   3.549   0.003  16.533  0.3884 -0.2614  0.7722
  831MPD2    C312272   3.436   0.011  16.615  0.2044 -0.3748 -0.1622
  831MPD2    C412273   3.385   0.132  16.658 -0.4249 -0.9442  0.7160
  831MPD2    C512274   3.441   0.249  16.617  0.0046 -0.2065  0.6971
  831MPD2     H12275   3.571   4.641  16.494 -1.1300  0.4433 -1.8923
  831MPD2    H112276   3.291   0.151  16.709 -0.0686 -1.2642  1.4944
  831MPD2    H212277   3.581   0.343  16.489 -1.6680  0.7192  1.7611
  831MPD2    H312278   3.401   0.345  16.646  1.6016  0.5788  0.2846
  831MPD2     N12279   3.353   4.637  16.654  0.6701 -0.0626  0.5760
  831MPD2    H512280   3.261   4.669  16.685  0.2851  1.3249 -1.9840
  831MPD2    N112281   3.703   0.129  16.395 -0.2283 -0.0212 -0.1099
  831MPD2    H712282   3.716   0.214  16.342 -1.9894  0.1265 -0.2982
  832MPD2     C12283   2.273   1.297  17.562  0.0376  0.6108  1.2550
  832MPD2    C112284   2.279   1.431  17.509 -0.3452  0.2151  0.4728
  832MPD2    C212285   2.164   1.497  17.474 -0.3223  0.4040 -0.6999
  832MPD2    C312286   2.047   1.421  17.471  0.1792  0.4842 -0.1542
  832MPD2    C412287   2.039   1.300  17.536 -0.1144 -0.6025  0.4512
  832MPD2    C512288   2.156   1.240  17.579 -0.5227 -0.1138  0.4412
  832MPD2     H12289   2.165   1.593  17.423 -0.4213 -0.7148 -2.8000
  832MPD2    H112290   1.948   1.243  17.548 -0.7251  0.1932 -0.4154
  832MPD2    H212291   2.356   1.237  17.598  2.5078  2.2456 -1.6741
  832MPD2    H312292   2.164   1.142  17.624  2.0288 -0.3307 -0.4960
  832MPD2     N12293   1.928   1.468  17.403  0.1426 -0.5818 -1.0289
  832MPD2    H512294   1.856   1.402  17.378  1.6602 -1.7838 -2.2543
  832MPD2    N112295   2.415   1.481  17.506 -0.7451 -0.0466 -0.2463
  832MPD2    H712296   2.492   1.424  17.539  1.0558  1.4214 -1.9265
  833MPD2     C12297   4.167   2.855  12.796  0.0979 -0.1745 -0.6915
  833MPD2    C112298   4.072   2.851  12.696  0.0429 -0.1709 -0.5382
  833MPD2    C212299   4.088   2.768  12.586  0.6174  0.6975 -0.7346
  833MPD2    C312300   4.175   2.667  12.588  0.6096  0.3029  0.2303
  833MPD2    C412301   4.258   2.657  12.694 -0.1800 -0.3506 -0.1132
  833MPD2    C512302   4.256   2.752  12.793  0.1668  0.4346  0.5718
  833MPD2     H12303   4.016   2.780  12.506  1.0303  1.0665 -1.0536
  833MPD2    H112304   4.341   2.587  12.692  0.5690  0.5538 -0.3124
  833MPD2    H212305   4.174   2.928  12.875 -0.4794 -1.2668  0.3641
  833MPD2    H312306   4.337   2.758  12.864 -0.3096 -0.8580  1.2304
  833MPD2     N12307   4.184   2.568  12.487  0.1326  0.2657  0.4282
  833MPD2    H512308   4.236   2.481  12.496 -0.4255 -0.1944 -0.7452
  833MPD2    N112309   3.961   2.938  12.698  0.0353  0.0139 -0.2287
  833MPD2    H712310   3.897   2.923  12.620  1.4279 -1.7744 -1.0315
  834MPD2     C12311   4.015   2.375  11.427 -0.3064 -0.0532  0.0997
  834MPD2    C112312   3.983   2.262  11.495  0.1120 -0.6144  0.1406
  834MPD2    C212313   3.961   2.270  11.630  0.0342  0.0785 -0.4185
  834MPD2    C312314   3.991   2.392  11.691 -0.1110  0.0132  0.1664
  834MPD2    C412315   4.021   2.507  11.619  0.3797  0.5479 -0.7769
  834MPD2    C512316   4.038   2.490  11.488 -0.4715  0.0398 -0.4212
  834MPD2     H12317   3.939   2.181  11.687  0.7326 -1.1534 -2.0439
  834MPD2    H112318   4.030   2.610  11.652 -0.4555  0.6054 -0.7363
  834MPD2    H212319   4.034   2.372  11.320 -1.3687 -2.1902 -0.0314
  834MPD2    H312320   4.057   2.577  11.426 -0.5159 -0.8149 -1.6240
  834MPD2     N12321   3.985   2.397  11.831  0.1908 -0.2375  0.0239
  834MPD2    H512322   3.959   2.307  11.871  2.0182 -0.5529  0.5210
  834MPD2    N112323   3.964   2.147  11.413  0.3125  0.5361  0.4202
  834MPD2    H712324   3.981   2.164  11.314 -1.0590  0.6428  0.1965
  835MPD2     C12325   3.987   0.549  11.280  0.3041  0.0378  0.0194
  835MPD2    C112326   3.908   0.653  11.270  0.0195  0.6202  0.3837
  835MPD2    C212327   3.860   0.721  11.377 -0.0191  0.5001  0.4091
  835MPD2    C312328   3.918   0.700  11.503  0.5093  1.0132  0.1411
  835MPD2    C412329   4.014   0.605  11.513 -0.7603  0.6433  0.1477
  835MPD2    C512330   4.046   0.531  11.403  0.3046 -0.1892  0.8517
  835MPD2     H12331   3.785   0.798  11.362  0.6337  0.6938 -1.8329
  835MPD2    H112332   4.065   0.586  11.606 -1.2095 -0.0774  0.2423
  835MPD2    H212333   4.020   0.487  11.197 -0.5752 -0.4844  0.0622
  835MPD2    H312334   4.121   0.454  11.417  0.8262 -0.0772 -1.3119
  835MPD2     N12335   3.877   0.767  11.620  0.0568 -0.1483  0.4295
  835MPD2    H512336   3.922   0.750  11.709  2.4847 -0.9945 -0.9448
  835MPD2    N112337   3.855   0.687  11.137 -0.0777  0.8855  0.2120
  835MPD2    H712338   3.798   0.770  11.122  0.9984  1.8775  1.6616
  836MPD2     C12339   3.327   1.268  11.731 -0.6460 -0.2776 -1.0940
  836MPD2    C112340   3.316   1.174  11.831 -0.2671 -0.3379  0.0300
  836MPD2    C212341   3.227   1.196  11.936 -1.2608  0.5546  0.4032
  836MPD2    C312342   3.136   1.302  11.939  0.0714 -0.2661  0.0074
  836MPD2    C412343   3.147   1.394  11.828  0.2289  0.3136  0.0811
  836MPD2    C512344   3.234   1.370  11.733 -0.0991  0.9131 -0.2923
  836MPD2     H12345   3.223   1.130  12.021 -0.8762 -1.1917 -0.9229
  836MPD2    H112346   3.068   1.467  11.820 -0.6310 -0.6484 -0.2156
  836MPD2    H212347   3.397   1.268  11.649 -0.3879  0.5797 -0.8707
  836MPD2    H312348   3.222   1.436  11.648 -0.5130  2.5902  1.0441
  836MPD2     N12349   3.039   1.324  12.034 -0.2069  1.0746  0.5488
  836MPD2    H512350   2.985   1.408  12.015  1.4769  1.9126 -0.5399
  836MPD2    N112351   3.405   1.068  11.819 -0.2239 -0.5005  0.1994
  836MPD2    H712352   3.473   1.073  11.744 -0.0554 -0.7843  0.3352
  837MPD2     C12353   2.411   0.051  10.479  0.3640 -0.3285 -0.3969
  837MPD2    C112354   2.305   0.103  10.417  0.1363  0.4121 -0.2901
  837MPD2    C212355   2.266   0.238  10.449  0.2531  0.0431 -0.2884
  837MPD2    C312356   2.334   0.305  10.549 -0.5663 -0.0365 -0.5604
  837MPD2    C412357   2.425   0.242  10.622 -0.0353  0.0777  0.0448
  837MPD2    C512358   2.474   0.123  10.583 -0.6470  1.0998  0.2660
  837MPD2     H12359   2.194   0.293  10.390 -0.1199  0.9827  1.0533
  837MPD2    H112360   2.475   0.296  10.702 -0.0555 -3.5550  2.4787
  837MPD2    H212361   2.451   4.693  10.446 -0.4599 -0.4253 -1.0926
  837MPD2    H312362   2.566   0.083  10.625 -1.4253  0.9828  1.8638
  837MPD2     N12363   2.296   0.434  10.581  0.3892  0.5742  0.1990
  837MPD2    H512364   2.204   0.452  10.543  1.0641 -1.9992 -2.7209
  837MPD2    N112365   2.243   0.048  10.305 -0.7104  0.2320  0.0838
  837MPD2    H712366   2.183   0.107  10.248  0.5946  0.6706 -0.8466
  838MPD2     C12367   1.114   3.506  12.407 -0.2339  0.3539 -0.5757
  838MPD2    C112368   1.022   3.425  12.355 -0.2251  0.1081  0.2422
  838MPD2    C212369   0.901   3.406  12.418 -0.5543 -0.3236 -0.1011
  838MPD2    C312370   0.858   3.498  12.517 -0.4727  0.3121  0.5127
  838MPD2    C412371   0.951   3.597  12.557  0.0380 -0.2520  0.5655
  838MPD2    C512372   1.075   3.596  12.502 -0.7318 -0.1311 -0.1885
  838MPD2     H12373   0.827   3.335  12.383 -1.2334  0.8820 -1.1070
  838MPD2    H112374   0.919   3.675  12.626  0.0480 -0.2525  0.5708
  838MPD2    H212375   1.213   3.513  12.364  0.8866  0.4509  2.0081
  838MPD2    H312376   1.145   3.675  12.523 -0.9430 -0.4753  1.9116
  838MPD2     N12377   0.734   3.481  12.569  0.0364  0.8152 -0.2907
  838MPD2    H512378   0.682   3.401  12.534  2.7072 -0.5863 -1.0708
  838MPD2    N112379   1.043   3.350  12.231  0.1119 -0.1988 -0.4643
  838MPD2    H712380   0.956   3.317  12.189  0.8232  2.2146 -3.7476
  839MPD2     C12381   0.519   2.784  12.048 -0.5498  0.8052 -0.1665
  839MPD2    C112382   0.568   2.787  11.919  0.6448  0.1789 -0.0628
  839MPD2    C212383   0.674   2.874  11.890 -0.4227  0.6570 -0.4745
  839MPD2    C312384   0.719   2.960  11.989  0.3215 -0.8552 -0.6985
  839MPD2    C412385   0.663   2.960  12.117 -0.4364 -0.8355 -0.2805
  839MPD2    C512386   0.559   2.882  12.139 -0.1138  0.1663 -0.2889
  839MPD2     H12387   0.725   2.871  11.794  0.3206 -1.0216 -0.0148
  839MPD2    H112388   0.682   3.033  12.194  1.4155  1.2327 -2.7302
  839MPD2    H212389   0.442   2.715  12.081 -0.2035  1.0750  1.2081
  839MPD2    H312390   0.507   2.885  12.234 -0.6530 -1.4605 -0.5369
  839MPD2     N12391   0.822   3.051  11.967 -0.0741  0.2342 -0.2245
  839MPD2    H512392   0.858   3.091  12.052  0.5139 -0.1393 -0.3014
  839MPD2    N112393   0.524   2.700  11.813  0.2480  0.4859 -0.0174
  839MPD2    H712394   0.563   2.722  11.722 -1.8328  0.7134 -0.8581
  840MPD2     C12395   0.433   0.712  10.546 -0.2991  0.0164  0.7471
  840MPD2    C112396   0.459   0.649  10.663  0.1229  0.0693  0.5475
  840MPD2    C212397   0.580   0.662  10.728  0.7625  0.9043 -0.8293
  840MPD2    C312398   0.667   0.766  10.688 -0.1657 -0.3298 -0.8693
  840MPD2    C412399   0.639   0.840  10.574 -0.0095 -0.3854  0.8002
  840MPD2    C512400   0.518   0.809  10.508  0.7920 -0.2312  0.0320
  840MPD2     H12401   0.608   0.586  10.801 -0.9766  1.8614  0.8221
  840MPD2    H112402   0.682   0.932  10.537  1.6426 -2.2875 -1.9891
  840MPD2    H212403   0.346   0.693  10.485 -0.5053 -1.9986  1.6667
  840MPD2    H312404   0.489   0.863  10.418 -0.4803  1.0401  1.2076
  840MPD2     N12405   0.781   0.802  10.764  0.0765 -0.2835  0.5958
  840MPD2    H512406   0.845   0.867  10.719  0.6650  1.3333  3.7225
  840MPD2    N112407   0.356   0.563  10.707  0.1279 -0.3602 -0.3098
  840MPD2    H712408   0.270   0.577  10.654  0.0506  2.7185  0.6462
  841MPD2     C12409   0.268   0.665  14.738  0.1864 -0.8892 -0.2375
  841MPD2    C112410   0.336   0.546  14.735  0.4503  0.4628  0.1889
  841MPD2    C212411   0.472   0.555  14.731  0.2312  0.0272 -0.1762
  841MPD2    C312412   0.535   0.682  14.733 -0.3063 -0.1541 -0.2820
  841MPD2    C412413   0.466   0.797  14.737 -0.3247  0.0535 -0.2830
  841MPD2    C512414   0.335   0.789  14.739 -0.2962 -0.0594  0.2001
  841MPD2     H12415   0.533   0.466  14.719 -0.0994 -0.6049  2.8654
  841MPD2    H112416   0.514   0.894  14.747 -0.1258 -0.2867  2.0411
  841MPD2    H212417   0.162   0.678  14.718  0.4932  2.0113  0.0304
  841MPD2    H312418   0.277   0.879  14.755 -1.5809 -0.8087 -0.1992
  841MPD2     N12419   0.672   0.682  14.736  0.0237  0.1756  0.5321
  841MPD2    H512420   0.714   0.595  14.766  0.3031  0.2223  0.2726
  841MPD2    N112421   0.273   0.419  14.722  0.1551 -0.0718 -0.0666
  841MPD2    H712422   0.342   0.347  14.705  0.0372  0.1837 -1.6589
  842MPD2     C12423   0.798   1.205  16.879 -0.2149 -0.3400 -0.3843
  842MPD2    C112424   0.840   1.336  16.868  0.0853  0.0493  0.4055
  842MPD2    C212425   0.861   1.400  16.994  0.5265  0.1567 -0.6173
  842MPD2    C312426   0.860   1.338  17.114  0.0035  0.3108  0.1488
  842MPD2    C412427   0.827   1.204  17.117 -0.3955  0.2962 -0.3133
  842MPD2    C512428   0.793   1.138  17.000 -0.4864 -0.1452  0.5643
  842MPD2     H12429   0.867   1.508  16.992  2.3078  0.0843  0.5291
  842MPD2    H112430   0.827   1.160  17.216  1.9644  2.4162  0.6279
  842MPD2    H212431   0.765   1.154  16.789 -1.0715 -0.4725  0.0095
  842MPD2    H312432   0.774   1.032  16.997 -0.5135 -0.1305  0.2062
  842MPD2     N12433   0.886   1.407  17.231  0.1209  0.4955  0.0622
  842MPD2    H512434   0.874   1.358  17.319  4.2596 -1.4812 -0.4910
  842MPD2    N112435   0.833   1.401  16.743 -0.1071 -0.5118 -0.3336
  842MPD2    H712436   0.785   1.360  16.664 -0.3448  0.7859 -0.8662
  843MPD2     C12437   3.093   1.965   0.127  0.3156 -0.0915  0.1400
  843MPD2    C112438   3.185   1.901   0.214 -0.2657 -0.1499 -0.0776
  843MPD2    C212439   3.251   1.974   0.305 -0.7547  0.6988  0.0591
  843MPD2    C312440   3.245   2.111   0.301 -0.9718  0.4561  0.3536
  843MPD2    C412441   3.156   2.178   0.224 -0.2942  0.1539  0.0308
  843MPD2    C512442   3.081   2.104   0.132 -0.3690 -0.1816  0.3551
  843MPD2     H12443   3.320   1.925   0.373 -1.6993  0.9197  1.1570
  843MPD2    H112444   3.147   2.286   0.227 -2.8074 -0.0255 -1.1612
  843MPD2    H212445   3.039   1.909   0.052 -0.2830  0.0603  0.4479
  843MPD2    H312446   3.014   2.163   0.069 -0.2434 -1.9850 -1.4631
  843MPD2     N12447   3.311   2.202   0.390  0.3626 -0.2963  0.4919
  843MPD2    H512448   3.295   2.301   0.376 -1.1479 -0.5585  0.2870
  843MPD2    N112449   3.178   1.766   0.213  0.0315  0.5002 -0.0919
  843MPD2    H712450   3.132   1.719   0.136  0.8182  1.5159 -1.1770
  844MPD2     C12451   1.366   1.066  16.817 -0.5334  0.1251  0.0256
  844MPD2    C112452   1.479   1.029  16.744  0.7723 -0.0863  0.5744
  844MPD2    C212453   1.591   1.120  16.745 -0.2731  0.3090 -0.6886
  844MPD2    C312454   1.583   1.243  16.810 -1.0308  0.4933  0.7474
  844MPD2    C412455   1.468   1.281  16.878  0.2886 -0.3005 -0.5371
  844MPD2    C512456   1.365   1.191  16.868  0.1821 -0.7724  0.3337
  844MPD2     H12457   1.682   1.101  16.689 -0.6249  1.4989 -1.6891
  844MPD2    H112458   1.467   1.372  16.936  0.1895 -1.2687  0.9911
  844MPD2    H212459   1.270   1.018  16.806 -0.5680 -0.2370  1.9622
  844MPD2    H312460   1.270   1.221  16.912  0.0415  0.5375 -0.8907
  844MPD2     N12461   1.705   1.319  16.813 -0.0299 -0.4445  0.8476
  844MPD2    H512462   1.788   1.280  16.769 -0.5933 -0.8423  0.1436
  844MPD2    N112463   1.483   0.911  16.664 -0.3057  0.0427  0.0731
  844MPD2    H712464   1.565   0.895  16.607 -0.2689 -2.0600  0.7166
  845MPD2     C12465   2.167   2.266  17.028  0.0832  0.4989  0.1098
  845MPD2    C112466   2.171   2.183  17.139 -0.1258  0.9563 -0.1325
  845MPD2    C212467   2.150   2.044  17.123  0.1145 -0.3510 -0.1446
  845MPD2    C312468   2.126   1.997  16.997 -0.7740 -0.0454  0.9475
  845MPD2    C412469   2.131   2.082  16.888 -0.6233  0.0021  0.6523
  845MPD2    C512470   2.145   2.214  16.905  0.2498  0.0577  0.2389
  845MPD2     H12471   2.145   1.971  17.204 -0.9638 -1.0917 -0.8795
  845MPD2    H112472   2.098   2.053  16.789 -0.4136  1.3982  0.1831
  845MPD2    H212473   2.165   2.373  17.040  0.1574  0.7905 -2.5184
  845MPD2    H312474   2.126   2.271  16.815 -2.0216 -2.7491 -1.0467
  845MPD2     N12475   2.098   1.855  16.989  0.4282 -0.5831 -0.1079
  845MPD2    H512476   2.117   1.791  17.066 -2.6933 -1.7767 -0.3208
  845MPD2    N112477   2.179   2.254  17.263  0.7280 -0.0216 -0.2119
  845MPD2    H712478   2.200   2.354  17.266  0.4652 -0.0046  1.1235
  846MPD2     C12479   3.415   1.903  14.153  0.5763  1.0969 -0.0276
  846MPD2    C112480   3.433   2.035  14.190 -0.3069 -0.6946 -0.4559
  846MPD2    C212481   3.410   2.065  14.323 -0.3247 -0.0878 -0.1198
  846MPD2    C312482   3.386   1.969  14.416 -0.0802  0.2409 -0.8725
  846MPD2    C412483   3.383   1.840  14.381  0.0367 -0.9923 -0.8638
  846MPD2    C512484   3.392   1.812  14.253  0.9549  0.0154 -0.0292
  846MPD2     H12485   3.408   2.168  14.357 -1.3512 -0.2662  0.3325
  846MPD2    H112486   3.356   1.754  14.441 -2.3333  0.3891  0.0228
  846MPD2    H212487   3.429   1.875  14.050  0.2908 -1.6336  0.6955
  846MPD2    H312488   3.384   1.709  14.221 -1.2325 -0.4215  1.8958
  846MPD2     N12489   3.338   1.995  14.550 -0.0667  0.0136  0.4647
  846MPD2    H512490   3.322   2.092  14.577 -0.2421 -0.1964  1.1117
  846MPD2    N112491   3.449   2.145  14.096 -0.2842  0.3058  0.1257
  846MPD2    H712492   3.451   2.240  14.134  0.3677  1.1854 -2.0743
  847MPD2     C12493   3.261   3.049  14.223 -0.0623  0.1463 -1.0599
  847MPD2    C112494   3.364   3.119  14.284 -0.2339 -0.1378 -0.5103
  847MPD2    C212495   3.434   3.054  14.382 -0.1625  0.1260 -0.1034
  847MPD2    C312496   3.404   2.928  14.423 -0.0829 -0.5561  0.2558
  847MPD2    C412497   3.300   2.856  14.368 -0.0849  0.2570 -0.0032
  847MPD2    C512498   3.228   2.918  14.269 -0.0418 -0.1769  0.3071
  847MPD2     H12499   3.510   3.106  14.440  0.8653  0.1542 -1.4646
  847MPD2    H112500   3.259   2.758  14.389  0.7719  0.1927  1.3498
  847MPD2    H212501   3.212   3.091  14.137 -1.0659  0.3591 -0.3751
  847MPD2    H312502   3.144   2.873  14.217  0.5872 -0.6642 -0.2926
  847MPD2     N12503   3.479   2.875  14.527  0.7125 -0.1744 -0.0247
  847MPD2    H512504   3.550   2.938  14.564  1.3609 -0.2484 -1.1278
  847MPD2    N112505   3.395   3.250  14.254  0.1111  0.1787 -0.6275
  847MPD2    H712506   3.466   3.294  14.312  0.5813 -1.0320 -0.2842
  848MPD2     C12507   1.208   1.904  17.479 -0.2154 -0.2837 -0.1327
  848MPD2    C112508   1.264   1.895  17.355 -0.2068 -0.3106 -0.4523
  848MPD2    C212509   1.246   1.999  17.264  0.3326 -0.3058  0.0772
  848MPD2    C312510   1.186   2.121  17.301 -0.0943  0.7177 -0.0400
  848MPD2    C412511   1.125   2.123  17.425  0.4615  0.4485  0.9739
  848MPD2    C512512   1.144   2.018  17.509  0.4147  0.0276  0.2473
  848MPD2     H12513   1.300   1.983  17.172 -0.7903  1.2972 -0.8459
  848MPD2    H112514   1.062   2.205  17.457  0.5157  0.1768  1.7675
  848MPD2    H212515   1.223   1.827  17.553 -1.1976 -0.1843  0.1779
  848MPD2    H312516   1.094   2.029  17.605  0.4803  1.6705  0.1001
  848MPD2     N12517   1.195   2.231  17.216 -0.9046  0.2409  0.0979
  848MPD2    H512518   1.224   2.203  17.123 -1.7543  0.4751 -0.2405
  848MPD2    N112519   1.358   1.795  17.324  0.1443 -0.0486 -0.6220
  848MPD2    H712520   1.378   1.769  17.228 -1.9094  2.1882 -1.6729
  849MPD2     C12521   0.932   1.293  14.460 -0.4852  0.3595 -0.0192
  849MPD2    C112522   0.955   1.373  14.355  0.4205  0.0614  0.3420
  849MPD2    C212523   1.037   1.481  14.369 -0.9377 -0.5021  0.6046
  849MPD2    C312524   1.107   1.504  14.486 -0.5612 -0.5926  0.6358
  849MPD2    C412525   1.093   1.416  14.594  0.0681  0.3190  0.0250
  849MPD2    C512526   0.994   1.317  14.584 -0.2699  0.2661  0.0546
  849MPD2     H12527   1.048   1.556  14.291 -1.4113 -0.6161  0.4308
  849MPD2    H112528   1.151   1.428  14.684 -2.3269 -0.9029  1.7316
  849MPD2    H212529   0.850   1.222  14.460 -0.8350  0.7762  2.4662
  849MPD2    H312530   0.978   1.255  14.672  0.1835 -2.8990 -2.1000
  849MPD2     N12531   1.197   1.617  14.486  0.3732  0.1043 -0.5665
  849MPD2    H512532   1.202   1.660  14.394 -1.0428  0.9922 -0.2282
  849MPD2    N112533   0.882   1.361  14.239  0.3964 -0.6993  1.4610
  849MPD2    H712534   0.803   1.297  14.243 -0.2461 -0.0127 -0.2935
  850MPD2     C12535   3.791   4.137  14.883 -0.0632 -0.3584 -0.7234
  850MPD2    C112536   3.789   4.172  15.012 -0.5014 -0.0595  0.4146
  850MPD2    C212537   3.906   4.233  15.057 -0.4947  0.3538 -0.2434
  850MPD2    C312538   4.024   4.251  14.982 -0.2700 -0.0260 -0.4896
  850MPD2    C412539   4.020   4.211  14.856 -0.4092 -0.1772  0.1573
  850MPD2    C512540   3.907   4.158  14.810  0.5679  0.6960 -0.2329
  850MPD2     H12541   3.907   4.267  15.160  2.1631 -0.4047 -0.0168
  850MPD2    H112542   4.101   4.231  14.787  1.7533 -1.1316  2.4440
  850MPD2    H212543   3.697   4.105  14.840 -0.0841  0.4402 -1.2625
  850MPD2    H312544   3.915   4.120  14.708  1.6159 -0.2261  0.1887
  850MPD2     N12545   4.144   4.314  15.029  0.0315 -0.0478  0.2418
  850MPD2    H512546   4.223   4.326  14.966  0.0177 -0.3133  0.1734
  850MPD2    N112547   3.670   4.151  15.095 -0.0842  0.2650  0.3084
  850MPD2    H712548   3.601   4.085  15.060  0.3255 -0.7405  1.3833
  851MPD2     C12549   3.839   3.780  15.736 -0.5486 -0.7842 -0.0017
  851MPD2    C112550   3.757   3.745  15.627 -1.1480 -0.5414  0.0766
  851MPD2    C212551   3.745   3.610  15.580  0.7971 -0.3558 -0.4516
  851MPD2    C312552   3.808   3.515  15.648 -0.4193 -0.2984 -1.0115
  851MPD2    C412553   3.880   3.548  15.758 -1.0916 -0.2072  0.4894
  851MPD2    C512554   3.903   3.680  15.798 -0.1722  0.3908  0.0614
  851MPD2     H12555   3.684   3.586  15.495  0.5777 -2.3877  0.2744
  851MPD2    H112556   3.929   3.475  15.822 -1.2157 -2.0021 -1.4818
  851MPD2    H212557   3.860   3.876  15.783  2.4028 -1.1642 -0.4987
  851MPD2    H312558   3.973   3.704  15.877 -1.4690 -0.1210  1.3537
  851MPD2     N12559   3.798   3.386  15.594  0.1298 -0.2337 -0.6084
  851MPD2    H512560   3.750   3.374  15.505 -0.7034 -0.3358 -0.1444
  851MPD2    N112561   3.696   3.859  15.575  0.0932 -0.0217  0.6260
  851MPD2    H712562   3.726   3.948  15.614 -0.6546  0.8664 -0.8046
  852MPD2     C12563   2.765   2.155  10.280  0.4516  0.0005 -0.1359
  852MPD2    C112564   2.892   2.142  10.329 -0.9604  0.1402  1.0426
  852MPD2    C212565   2.993   2.213  10.274  0.0118 -0.0100  0.3891
  852MPD2    C312566   2.971   2.313  10.181 -0.2334  0.4007 -0.3606
  852MPD2    C412567   2.841   2.330  10.129 -0.2267  0.1313  0.1684
  852MPD2    C512568   2.741   2.260  10.186  0.7554 -0.4997  0.0485
  852MPD2     H12569   3.095   2.200  10.307  0.8102  1.6678 -1.4000
  852MPD2    H112570   2.818   2.405  10.054  0.7506 -1.7199 -1.9437
  852MPD2    H212571   2.682   2.097  10.318 -0.7372  0.9986 -1.1853
  852MPD2    H312572   2.637   2.267  10.155  0.8920 -0.9594 -0.5192
  852MPD2     N12573   3.085   2.393  10.146 -0.4430  0.1484  0.4124
  852MPD2    H512574   3.172   2.389  10.197 -1.1455  0.5608  1.6575
  852MPD2    N112575   2.915   2.050  10.436 -0.4799  0.2952 -0.6889
  852MPD2    H712576   3.009   2.050  10.475 -1.0838 -1.4174  0.7500
  853MPD2     C12577   0.193   1.626  12.644  0.1083 -0.8998 -0.1387
  853MPD2    C112578   0.162   1.760  12.619  0.8078  0.2322 -0.4158
  853MPD2    C212579   0.137   1.794  12.485  0.0803  0.6451 -0.6528
  853MPD2    C312580   0.134   1.689  12.389  0.1580 -0.5867  0.4767
  853MPD2    C412581   0.152   1.555  12.421  0.2325 -0.7272 -0.0028
  853MPD2    C512582   0.182   1.526  12.552 -0.0313 -0.3633  0.0047
  853MPD2     H12583   0.125   1.899  12.458 -1.4453 -0.2302 -3.3324
  853MPD2    H112584   0.152   1.470  12.353 -2.0772 -1.7925  1.3099
  853MPD2    H212585   0.222   1.603  12.746 -0.1381  0.2505  0.1854
  853MPD2    H312586   0.204   1.422  12.572  1.5999 -0.0991 -0.3834
  853MPD2     N12587   0.120   1.713  12.245 -0.1506  0.2108 -0.3303
  853MPD2    H512588   0.126   1.626  12.194 -1.0044  0.4635 -0.8448
  853MPD2    N112589   0.159   1.849  12.731  0.1641 -0.2775  0.0389
  853MPD2    H712590   0.171   1.806  12.822 -0.3457  0.4893  0.4633
  854MPD2     C12591   2.569   2.393  13.052 -0.3756 -0.1567  0.3084
  854MPD2    C112592   2.460   2.321  13.011  0.5312 -0.2666 -0.1332
  854MPD2    C212593   2.451   2.176  13.030  0.3145 -0.4454 -0.1491
  854MPD2    C312594   2.555   2.109  13.097 -0.4893  0.4451  0.0021
  854MPD2    C412595   2.665   2.184  13.127  0.4489 -0.1327 -0.1949
  854MPD2    C512596   2.668   2.323  13.118 -0.1848 -0.0306 -0.2518
  854MPD2     H12597   2.363   2.123  12.997  1.7925 -1.6872 -2.1228
  854MPD2    H112598   2.750   2.146  13.182  0.0490 -2.3508 -1.1321
  854MPD2    H212599   2.575   2.501  13.047  0.1036 -0.0440  3.0798
  854MPD2    H312600   2.748   2.380  13.164  0.4519 -2.2431  1.4103
  854MPD2     N12601   2.551   1.970  13.129 -0.4674 -0.1534  0.0513
  854MPD2    H512602   2.633   1.935  13.177 -0.2259 -0.6790 -0.7326
  854MPD2    N112603   2.365   2.402  12.949  0.0775 -0.1336  0.6069
  854MPD2    H712604   2.386   2.501  12.937  0.5952 -0.2794  0.3490
  855MPD2     C12605   2.732   1.742  13.941  1.0687 -0.1316 -0.0050
  855MPD2    C112606   2.716   1.611  13.893 -0.3389  0.3613  0.0163
  855MPD2    C212607   2.656   1.599  13.766  0.6516 -0.0988 -0.0384
  855MPD2    C312608   2.622   1.709  13.686  0.8361 -0.0581 -0.2541
  855MPD2    C412609   2.651   1.836  13.740  0.5047  0.3543  0.0691
  855MPD2    C512610   2.703   1.851  13.865  0.5485  0.3956  0.2495
  855MPD2     H12611   2.633   1.496  13.740 -1.4180  0.0603  1.1965
  855MPD2    H112612   2.636   1.922  13.677 -0.2516  0.9274  1.0367
  855MPD2    H212613   2.766   1.766  14.041 -1.1565 -0.0629  0.7423
  855MPD2    H312614   2.720   1.949  13.906  0.4815  1.2623 -1.8272
  855MPD2     N12615   2.583   1.709  13.547  0.6528  0.1986  0.0771
  855MPD2    H512616   2.545   1.796  13.511 -0.6887 -0.5439 -0.3043
  855MPD2    N112617   2.736   1.491  13.965  0.2391  0.7107  0.9902
  855MPD2    H712618   2.693   1.406  13.929  0.4397  0.7712  0.6122
  856MPD2     C12619   4.695   2.454  14.135 -0.3340  0.5863 -0.5032
  856MPD2    C112620   4.722   2.556  14.224 -0.6250 -0.8829  0.3213
  856MPD2    C212621   4.639   2.668  14.232  1.0934 -0.2786  0.3346
  856MPD2    C312622   4.534   2.684  14.141 -0.5196 -0.3517  0.2660
  856MPD2    C412623   4.506   2.580  14.046 -0.3412  0.2392 -0.0325
  856MPD2    C512624   4.591   2.470  14.051 -0.3960 -0.0527 -0.0552
  856MPD2     H12625   4.671   2.747  14.298  0.8362  0.9343 -0.9947
  856MPD2    H112626   4.419   2.584  13.981 -2.7823 -0.7790  3.1412
  856MPD2    H212627   0.013   2.360  14.140  0.9829  1.3529 -0.5415
  856MPD2    H312628   4.574   2.391  13.978  0.2228  0.1862 -0.4582
  856MPD2     N12629   4.448   2.793  14.148 -0.5857 -0.0155  1.0662
  856MPD2    H512630   4.370   2.787  14.083 -1.0372  0.7143  1.5411
  856MPD2    N112631   0.104   2.570  14.301 -0.1216 -0.2068  0.1314
  856MPD2    H712632   0.106   2.653  14.360  1.1678  0.3548 -0.7157
  857MPD2     C12633   1.394   0.029  12.569 -0.2915 -0.1853  0.8384
  857MPD2    C112634   1.482   0.011  12.675  0.2318 -0.1514  0.3155
  857MPD2    C212635   1.552   0.120  12.722  0.8976  0.5962  0.2147
  857MPD2    C312636   1.536   0.245  12.668 -0.5045 -0.8045  0.7349
  857MPD2    C412637   1.445   0.263  12.567 -0.4239  0.2457  0.7242
  857MPD2    C512638   1.369   0.158  12.519 -0.5804  0.0874  0.3886
  857MPD2     H12639   1.624   0.108  12.802 -0.3547  1.5831  1.4921
  857MPD2    H112640   1.430   0.364  12.529 -0.3179  0.1407  0.4029
  857MPD2    H212641   1.343   4.678  12.532  1.6004 -0.5283 -0.9309
  857MPD2    H312642   1.297   0.177  12.440  0.1538  0.0965 -0.2871
  857MPD2     N12643   1.609   0.349  12.729  0.2676  0.1282 -0.0420
  857MPD2    H512644   1.660   0.327  12.814 -1.4411  0.9476  1.1876
  857MPD2    N112645   1.496   4.619  12.727  0.1429  0.0198 -0.1188
  857MPD2    H712646   1.435   4.546  12.692 -0.6190 -0.5021  2.3389
  858MPD2     C12647   1.849   3.750  16.844 -0.2094  0.2726 -0.1290
  858MPD2    C112648   1.922   3.640  16.880 -0.2453 -0.0870  0.7069
  858MPD2    C212649   2.011   3.652  16.994 -0.4342  0.6275  0.1879
  858MPD2    C312650   2.016   3.776  17.066  0.1090  0.3394 -0.2905
  858MPD2    C412651   1.947   3.893  17.017 -0.2210 -0.2633  0.0575
  858MPD2    C512652   1.862   3.872  16.914  0.7491 -0.2911 -0.5339
  858MPD2     H12653   2.066   3.569  17.036  0.7399  1.0717 -0.4712
  858MPD2    H112654   1.963   3.991  17.061  0.6844 -2.0641  3.7505
  858MPD2    H212655   1.773   3.744  16.767 -1.5455  1.0473  1.1209
  858MPD2    H312656   1.811   3.959  16.875 -0.3924 -1.1808 -1.0250
  858MPD2     N12657   2.096   3.793  17.182 -0.0909  0.0641  0.5013
  858MPD2    H512658   2.082   3.884  17.224 -4.9357 -0.3806 -0.1801
  858MPD2    N112659   1.908   3.524  16.802 -0.8316  0.2656  0.4713
  858MPD2    H712660   1.842   3.529  16.725  0.3135 -2.0678 -0.6634
  859MPD2     C12661   0.445   1.290  15.568  0.1899  0.5885 -0.2198
  859MPD2    C112662   0.584   1.272  15.555 -0.0638  0.4148 -0.5431
  859MPD2    C212663   0.635   1.152  15.586 -0.6246 -0.0622  0.3770
  859MPD2    C312664   0.555   1.044  15.629 -0.1045 -0.4179 -0.1424
  859MPD2    C412665   0.421   1.069  15.655  0.2855  0.2344 -0.7548
  859MPD2    C512666   0.367   1.190  15.614  0.8621  0.7791 -0.4467
  859MPD2     H12667   0.740   1.132  15.572 -1.3636 -1.4869 -3.3023
  859MPD2    H112668   0.359   0.984  15.682 -0.0954  0.3770 -1.1888
  859MPD2    H212669   0.398   1.383  15.538 -1.2426  0.1173  0.5319
  859MPD2    H312670   0.261   1.214  15.622  0.4201 -1.1124 -0.6837
  859MPD2     N12671   0.605   0.916  15.656  0.7234 -0.5916  0.0744
  859MPD2    H512672   0.559   0.847  15.715  0.4466 -0.7769 -0.3574
  859MPD2    N112673   0.658   1.366  15.472 -0.2270  1.0837 -0.7144
  859MPD2    H712674   0.604   1.447  15.441 -2.0788 -0.0299 -0.3968
  860MPD2     C12675   3.244   1.786  11.748 -0.2053 -0.5220 -0.1803
  860MPD2    C112676   3.256   1.831  11.877  0.0907  0.1638  0.1223
  860MPD2    C212677   3.144   1.811  11.951  0.1740 -0.2158  0.2959
  860MPD2    C312678   3.024   1.756  11.908 -0.2834 -0.0057  0.2576
  860MPD2    C412679   3.021   1.713  11.774  0.1106  0.3207  0.1959
  860MPD2    C512680   3.132   1.734  11.696 -0.3466 -0.0210  0.4470
  860MPD2     H12681   3.156   1.840  12.055  0.4337 -0.1017  0.2339
  860MPD2    H112682   2.934   1.666  11.731  0.9717 -0.7682 -0.3770
  860MPD2    H212683   3.330   1.783  11.682 -0.5085 -2.2098 -0.4881
  860MPD2    H312684   3.142   1.689  11.598  0.4217  0.6237  0.2305
  860MPD2     N12685   2.919   1.737  12.005 -0.0357  0.0942  0.6132
  860MPD2    H512686   2.923   1.789  12.092 -1.7207 -0.4483  1.0024
  860MPD2    N112687   3.372   1.885  11.943  0.0847  0.2935  0.0156
  860MPD2    H712688   3.353   1.924  12.035  0.2703  0.1346  0.1193
  861MPD2     C12689   1.848   4.225  11.054 -0.4193 -0.0690  0.7986
  861MPD2    C112690   1.847   4.352  11.104 -0.7963  0.4542  0.4530
  861MPD2    C212691   1.817   4.460  11.017 -0.2906 -0.2714 -0.1093
  861MPD2    C312692   1.795   4.422  10.881  0.0816 -0.1090 -0.3965
  861MPD2    C412693   1.798   4.295  10.832 -0.0839 -0.7435  1.0446
  861MPD2    C512694   1.811   4.194  10.921  0.3969 -0.1233  0.1765
  861MPD2     H12695   1.800   4.558  11.060 -4.5402 -0.7902 -0.5658
  861MPD2    H112696   1.781   4.264  10.730 -0.4046 -0.0674  0.8929
  861MPD2    H212697   1.870   4.139  11.116 -0.4605  0.4919  1.5860
  861MPD2    H312698   1.831   4.096  10.880 -0.9092 -0.1410 -0.4280
  861MPD2     N12699   1.774   4.526  10.782  0.0161  0.2014 -0.2231
  861MPD2    H512700   1.764   4.489  10.688 -1.8814  1.3636 -0.4706
  861MPD2    N112701   1.874   4.375  11.242  0.1840  0.1846 -0.3475
  861MPD2    H712702   1.879   4.473  11.270 -0.9998  0.0534  0.3388
  862MPD2     C12703   1.433   4.485  10.168 -0.9294  0.4879  0.2189
  862MPD2    C112704   1.485   4.440  10.288  0.3956  0.5384  0.8002
  862MPD2    C212705   1.484   4.301  10.314 -0.5465 -0.1302  0.0034
  862MPD2    C312706   1.429   4.216  10.220  0.0131 -0.7051  0.2094
  862MPD2    C412707   1.384   4.264  10.097 -0.7615  0.0955  0.0369
  862MPD2    C512708   1.398   4.399  10.071  0.1104  0.5104 -0.2182
  862MPD2     H12709   1.542   4.275  10.402  0.2720  2.3978  0.2108
  862MPD2    H112710   1.346   4.198  10.021  0.3715  1.2556 -1.5424
  862MPD2    H212711   1.430   4.592  10.147 -1.7665  0.4746  0.2399
  862MPD2    H312712   1.366   4.446   9.979  1.1502  1.8083  0.0780
  862MPD2     N12713   1.422   4.075  10.235 -0.3591 -0.4099 -0.0304
  862MPD2    H512714   1.405   4.016  10.154  2.7499 -1.1070 -0.1520
  862MPD2    N112715   1.530   4.521  10.391 -0.1617  0.3964 -0.0016
  862MPD2    H712716   1.595   4.479  10.456  1.5088  1.8018 -0.7526
  863MPD2     C12717   0.056   2.642  16.658 -0.4273 -0.3929 -0.2716
  863MPD2    C112718   0.088   2.762  16.716  0.6839  0.2920  0.0159
  863MPD2    C212719   0.166   2.756  16.828 -0.1604 -0.2093  0.2584
  863MPD2    C312720   0.200   2.636  16.892  0.0564 -0.5715 -1.0225
  863MPD2    C412721   0.154   2.516  16.831  0.4432 -0.5478 -0.4222
  863MPD2    C512722   0.084   2.524  16.718 -0.4464 -0.6604  0.3283
  863MPD2     H12723   0.197   2.853  16.866 -0.6078 -0.5817  1.5910
  863MPD2    H112724   0.175   2.419  16.875  2.2777 -0.2721 -0.6972
  863MPD2    H212725   0.007   2.633  16.562  0.0321  0.7402 -0.6075
  863MPD2    H312726   0.049   2.435  16.666  1.3222 -1.4759  0.5491
  863MPD2     N12727   0.274   2.629  17.010  0.3960 -0.5404 -0.5839
  863MPD2    H512728   0.257   2.543  17.061  0.7510 -0.6254 -0.6119
  863MPD2    N112729   0.034   2.879  16.646 -0.5021 -0.2384 -0.1814
  863MPD2    H712730   4.725   2.858  16.558  0.5159  1.5138 -1.1318
  864MPD2     C12731   0.782   3.835  17.370  0.7228  0.5717  0.6430
  864MPD2    C112732   0.839   3.740  17.289  0.1918 -0.1468  0.0635
  864MPD2    C212733   0.970   3.749  17.252 -0.2527 -0.2786  0.2554
  864MPD2    C312734   1.038   3.873  17.278  0.3670  0.2524 -0.2905
  864MPD2    C412735   0.978   3.968  17.356  0.4186  0.4194  0.0364
  864MPD2    C512736   0.851   3.943  17.403 -0.0962  0.1004 -0.2648
  864MPD2     H12737   1.021   3.678  17.188 -0.6194  0.3125 -0.6965
  864MPD2    H112738   1.020   4.065  17.379  2.3743 -0.6897  1.1768
  864MPD2    H212739   0.676   3.824  17.392  0.4291  1.5266 -0.3025
  864MPD2    H312740   0.795   4.017  17.459 -1.4219 -1.3700  0.3601
  864MPD2     N12741   1.161   3.904  17.217  0.2284  0.0025  0.0716
  864MPD2    H512742   1.201   3.991  17.249 -1.5803  0.5389  0.9289
  864MPD2    N112743   0.767   3.622  17.289  0.3155  0.4028  0.1663
  864MPD2    H712744   0.678   3.620  17.337 -0.1575 -0.0593 -0.7248
  865MPD2     C12745   1.210   4.454  16.808  1.4032 -0.2973  0.0749
  865MPD2    C112746   1.197   4.325  16.850 -0.4343  0.2392  0.3018
  865MPD2    C212747   1.252   4.294  16.970  0.2554 -0.2593  0.0772
  865MPD2    C312748   1.328   4.385  17.047 -0.1117  0.0404  0.3854
  865MPD2    C412749   1.321   4.519  17.015 -0.6492 -0.2647 -0.6850
  865MPD2    C512750   1.272   4.548  16.889  0.1169 -0.2931 -0.6222
  865MPD2     H12751   1.253   4.190  17.000  1.0122 -0.5631 -0.9835
  865MPD2    H112752   1.365   4.595  17.078  2.0258 -2.1457 -0.2767
  865MPD2    H212753   1.195   4.479  16.704  1.4147 -0.0025  0.1430
  865MPD2    H312754   1.260   4.652  16.861 -1.1834 -0.7854 -1.9186
  865MPD2     N12755   1.399   4.360  17.167 -0.0065 -0.8103 -0.2350
  865MPD2    H512756   1.421   4.444  17.220 -0.5488 -0.9322  0.1845
  865MPD2    N112757   1.165   4.223  16.748 -0.0865 -0.3765 -0.0395
  865MPD2    H712758   1.155   4.268  16.658 -0.5349  0.5076  0.4466
  866MPD2     C12759   2.342   0.014  11.542  0.1013  0.6184 -0.6279
  866MPD2    C112760   2.286   4.654  11.468  0.0818  0.5583 -0.2406
  866MPD2    C212761   2.159   4.674  11.417  0.0326 -0.1843 -0.0174
  866MPD2    C312762   2.092   0.055  11.440  0.4379  0.3551  0.0921
  866MPD2    C412763   2.154   0.152  11.515 -0.5493 -0.3358  1.1158
  866MPD2    C512764   2.277   0.127  11.561 -0.0476 -0.5515 -0.2187
  866MPD2     H12765   2.113   4.602  11.350 -1.1422  0.6631 -0.1205
  866MPD2    H112766   2.109   0.248  11.538  2.5349  1.3561  0.1663
  866MPD2    H212767   2.446   0.013  11.573  0.7645  0.9205 -2.8441
  866MPD2    H312768   2.321   0.202  11.626  0.2055 -1.6734  0.9115
  866MPD2     N12769   1.957   0.090  11.405 -0.6967 -0.3931 -0.9499
  866MPD2    H512770   1.928   0.176  11.452 -2.7629 -1.5845 -0.0458
  866MPD2    N112771   2.360   4.531  11.448 -0.9746 -0.0976  0.2519
  866MPD2    H712772   2.443   4.511  11.504  0.4609  0.0708 -1.8130
  867MPD2     C12773   4.176   4.418  16.622  0.3163 -0.7853 -0.6511
  867MPD2    C112774   4.208   4.329  16.717 -0.5239  0.0229 -0.4607
  867MPD2    C212775   4.183   4.359  16.851  0.5469 -0.5022 -0.2214
  867MPD2    C312776   4.128   4.482  16.882  0.1912  1.4872  0.8867
  867MPD2    C412777   4.108   4.573  16.779 -1.0201  0.0014 -0.0205
  867MPD2    C512778   4.117   4.539  16.654  0.3913 -0.7364  0.6095
  867MPD2     H12779   4.206   4.293  16.934 -0.1713 -0.7644 -0.2250
  867MPD2    H112780   4.071   4.674  16.797 -1.7421 -0.3548  0.4860
  867MPD2    H212781   4.196   4.401  16.516 -0.8358 -1.9861 -0.6811
  867MPD2    H312782   4.112   4.610  16.572 -0.4133 -0.3564  0.9895
  867MPD2     N12783   4.113   4.529  17.015  0.3166 -0.1595 -0.1364
  867MPD2    H512784   4.075   4.623  17.025  1.4439  0.6443 -3.2220
  867MPD2    N112785   4.274   4.204  16.679 -0.1869 -0.1148 -0.0056
  867MPD2    H712786   4.301   4.188  16.582 -0.4765 -0.5728 -0.0124
  868MPD2     C12787   1.497   3.464  13.199  0.1383  0.8957 -0.1360
  868MPD2    C112788   1.551   3.519  13.314  0.7927  0.0266 -0.4011
  868MPD2    C212789   1.463   3.560  13.414 -0.2270 -0.3458  0.6108
  868MPD2    C312790   1.328   3.555  13.390  0.1983  0.2242  0.0145
  868MPD2    C412791   1.279   3.494  13.272 -0.2078  0.3425 -0.1427
  868MPD2    C512792   1.364   3.450  13.173  0.8071  0.2584  0.6081
  868MPD2     H12793   1.504   3.584  13.512  1.7226  2.3536 -0.8829
  868MPD2    H112794   1.172   3.492  13.256 -0.2988  3.8892 -0.0826
  868MPD2    H212795   1.562   3.438  13.115  0.7943  0.3026  0.5555
  868MPD2    H312796   1.328   3.395  13.088 -0.8579  2.1439  0.1131
  868MPD2     N12797   1.242   3.610  13.496 -0.6853  0.0489  0.1163
  868MPD2    H512798   1.285   3.656  13.576 -1.6307 -0.6483  1.0237
  868MPD2    N112799   1.692   3.506  13.333  0.1514 -0.6427  0.3174
  868MPD2    H712800   1.735   3.449  13.260  1.4078 -0.6796  1.0882
  869MPD2     C12801   2.272   0.441   0.572  0.4839  0.0003  1.2614
  869MPD2    C112802   2.185   0.487   0.670  0.5790 -0.8758 -0.1742
  869MPD2    C212803   2.225   0.598   0.738 -0.4594  0.4076  0.7242
  869MPD2    C312804   2.345   0.654   0.725 -0.5921 -0.4598  0.3174
  869MPD2    C412805   2.433   0.608   0.634 -0.0948 -0.2265 -0.4096
  869MPD2    C512806   2.393   0.507   0.545  0.1727 -0.4642  0.5281
  869MPD2     H12807   2.167   0.639   0.821 -0.2225 -0.3070  1.2408
  869MPD2    H112808   2.538   0.633   0.635 -0.4218  1.1739 -0.7087
  869MPD2    H212809   2.244   0.346   0.526 -1.4422  1.7903 -1.2843
  869MPD2    H312810   2.471   0.461   0.485 -0.3305 -1.4507  0.6289
  869MPD2     N12811   2.389   0.760   0.811 -0.4341  0.4615 -0.3396
  869MPD2    H512812   2.484   0.794   0.801 -0.0092 -0.2368  1.2282
  869MPD2    N112813   2.063   0.415   0.686  0.3763 -0.5627  0.7372
  869MPD2    H712814   2.042   0.339   0.622 -1.3018 -0.1082  0.7383
  870MPD2     C12815   2.186   4.339   1.622  0.0230  0.2430 -0.4715
  870MPD2    C112816   2.102   4.253   1.553  0.3710  0.2054  0.6024
  870MPD2    C212817   1.964   4.283   1.544  0.2673  0.4568 -0.0761
  870MPD2    C312818   1.916   4.402   1.583 -0.1840 -0.4357 -0.2973
  870MPD2    C412819   2.004   4.489   1.644  0.2175 -0.1954  0.6162
  870MPD2    C512820   2.134   4.457   1.664 -0.5953 -0.3380  0.4526
  870MPD2     H12821   1.896   4.211   1.499 -0.1003  1.2688 -0.8279
  870MPD2    H112822   1.964   4.579   1.689 -0.3693 -0.0913 -0.1190
  870MPD2    H212823   2.290   4.318   1.646 -0.8012 -2.0021  1.2352
  870MPD2    H312824   2.197   4.529   1.714  0.2902 -2.0572  1.8386
  870MPD2     N12825   1.781   4.430   1.553 -0.1764  0.0393 -0.4953
  870MPD2    H512826   1.722   4.362   1.505  1.6505  0.0384 -2.7392
  870MPD2    N112827   2.161   4.137   1.500 -0.1532  0.3735  0.0192
  870MPD2    H712828   2.261   4.132   1.516 -0.1080  0.5514 -0.1979
  871MPD2     C12829   3.518   4.223  16.921 -0.6474 -0.9190 -0.9953
  871MPD2    C112830   3.495   4.195  17.054 -0.0651  0.3481  0.0090
  871MPD2    C212831   3.527   4.068  17.102 -0.0952 -0.0445  0.3601
  871MPD2    C312832   3.589   3.975  17.021  0.0404  0.4476  0.0994
  871MPD2    C412833   3.614   4.011  16.887 -0.1899 -1.6849 -0.2072
  871MPD2    C512834   3.574   4.130  16.835 -0.0120  0.1580 -0.4413
  871MPD2     H12835   3.514   4.041  17.206  0.5574  0.5147  0.5860
  871MPD2    H112836   3.656   3.952  16.806  2.1017 -2.3585  1.4618
  871MPD2    H212837   3.479   4.319  16.889  0.2325 -1.1472 -2.7421
  871MPD2    H312838   3.577   4.147  16.728  0.7480  2.7487 -0.0225
  871MPD2     N12839   3.606   3.843  17.070  0.0071  0.8882 -0.0023
  871MPD2    H512840   3.568   3.826  17.162 -0.4315 -0.2999 -0.4050
  871MPD2    N112841   3.431   4.302  17.121  0.0211  0.1680  0.1377
  871MPD2    H712842   3.416   4.385  17.064 -0.8848 -0.8442 -1.0719
  872MPD2     C12843   4.462   1.329  14.057 -0.4846  0.1014 -0.7497
  872MPD2    C112844   4.430   1.462  14.024  0.4653  0.1054 -0.4168
  872MPD2    C212845   4.302   1.505  14.041  0.4143 -0.2891  0.0324
  872MPD2    C312846   4.204   1.424  14.077 -0.4032  0.0542 -0.5376
  872MPD2    C412847   4.230   1.292  14.099  0.4167 -0.7763 -0.5046
  872MPD2    C512848   4.355   1.247  14.096  0.2476  0.3425 -0.0048
  872MPD2     H12849   4.283   1.611  14.026  1.7902 -0.2031 -1.1091
  872MPD2    H112850   4.144   1.232  14.125  2.1242 -1.9670  2.4444
  872MPD2    H212851   4.561   1.287  14.053 -0.8594 -0.8773  0.2244
  872MPD2    H312852   4.370   1.147  14.136 -0.4984 -0.3260 -1.3821
  872MPD2     N12853   4.074   1.472  14.103 -0.1909 -0.5669  0.2800
  872MPD2    H512854   4.005   1.402  14.128 -0.1301 -1.6167 -2.5018
  872MPD2    N112855   4.522   1.559  13.993  0.2638  0.4782  0.2924
  872MPD2    H712856   4.491   1.653  13.970  1.4690  1.5192  2.8995
  873MPD2     C12857   1.488   1.707   1.023  0.4818  0.0242 -0.7873
  873MPD2    C112858   1.354   1.708   1.056  0.6001  0.2051 -1.2683
  873MPD2    C212859   1.286   1.586   1.049 -0.9797  0.7977  0.4634
  873MPD2    C312860   1.349   1.473   1.008 -0.6315  0.1793  0.3837
  873MPD2    C412861   1.483   1.480   0.962 -0.9369  0.0443  0.4419
  873MPD2    C512862   1.551   1.597   0.974 -0.4791 -0.4072 -0.6340
  873MPD2     H12863   1.185   1.577   1.088 -1.0348 -0.4294  0.0337
  873MPD2    H112864   1.543   1.392   0.937 -0.8256  0.5990 -1.2768
  873MPD2    H212865   1.544   1.800   1.027  3.4304 -1.8024  0.9343
  873MPD2    H312866   1.658   1.602   0.953 -0.7178  0.4531 -1.6727
  873MPD2     N12867   1.282   1.361   1.009 -0.0784 -0.0428 -0.1800
  873MPD2    H512868   1.184   1.364   1.034  0.3047  1.7266  1.1243
  873MPD2    N112869   1.292   1.828   1.104 -0.6320  0.0123 -0.0464
  873MPD2    H712870   1.358   1.905   1.114 -0.1745 -0.7206  2.4193
  874MPD2     C12871   0.927   2.285  16.409 -0.7855 -0.6852 -0.0500
  874MPD2    C112872   0.928   2.198  16.518 -0.2565  0.5075  0.2515
  874MPD2    C212873   0.998   2.237  16.631  0.0442 -0.1103 -0.3823
  874MPD2    C312874   1.060   2.360  16.634  0.0034  0.1691  0.2944
  874MPD2    C412875   1.062   2.441  16.525 -0.1766 -0.9064  0.5912
  874MPD2    C512876   0.999   2.403  16.406  0.0511  0.7526  0.1934
  874MPD2     H12877   0.998   2.185  16.726  0.1986 -2.3638 -1.6241
  874MPD2    H112878   1.111   2.538  16.526 -4.6481  1.3667  0.4779
  874MPD2    H212879   0.868   2.265  16.320 -2.3352  1.2292  0.5496
  874MPD2    H312880   1.003   2.465  16.317 -0.6860 -2.2903 -1.9749
  874MPD2     N12881   1.115   2.401  16.756  0.4467 -0.1509 -0.1915
  874MPD2    H512882   1.131   2.329  16.825 -2.8861  1.4459  2.2863
  874MPD2    N112883   0.867   2.071  16.509 -0.1221  0.2159 -0.3112
  874MPD2    H712884   0.798   2.056  16.437 -1.1863 -0.7537  0.9073
  875MPD2     C12885   2.057   0.112  14.613 -0.0952  0.2477  0.0957
  875MPD2    C112886   1.928   0.117  14.660 -0.9107 -0.3694  0.2853
  875MPD2    C212887   1.899   0.180  14.782 -0.1759  0.3180 -1.1829
  875MPD2    C312888   2.001   0.241  14.856 -0.8087 -0.4975  0.3824
  875MPD2    C412889   2.124   0.255  14.793  0.5013  0.4956 -0.2159
  875MPD2    C512890   2.157   0.172  14.686  0.1781 -0.7193  0.0815
  875MPD2     H12891   1.794   0.170  14.804  0.0933  0.5826  0.2024
  875MPD2    H112892   2.200   0.318  14.837  0.1694  0.0211  1.0262
  875MPD2    H212893   2.084   0.068  14.518 -0.2074  1.4047 -0.4764
  875MPD2    H312894   2.258   0.183  14.648  0.9035 -1.5350  1.7670
  875MPD2     N12895   1.971   0.318  14.972  0.1772 -0.3788  0.3219
  875MPD2    H512896   2.046   0.379  15.004  1.9347 -3.2162  1.5637
  875MPD2    N112897   1.827   0.050  14.589 -0.1102 -0.3539  0.8197
  875MPD2    H712898   1.734   0.048  14.630 -1.2734 -1.6228 -1.9246
  876MPD2     C12899   1.367   1.850  16.409  0.0060  0.3794 -0.2737
  876MPD2    C112900   1.371   1.779  16.283 -0.5520  0.3390 -0.0939
  876MPD2    C212901   1.326   1.649  16.270 -0.6237 -0.3798 -0.2570
  876MPD2    C312902   1.269   1.581  16.373  0.2136 -0.2895 -0.9738
  876MPD2    C412903   1.276   1.652  16.496  0.0168  0.0355 -0.2298
  876MPD2    C512904   1.318   1.785  16.510 -0.1681  0.3651 -0.1784
  876MPD2     H12905   1.322   1.608  16.170 -3.0397 -1.7806  0.4257
  876MPD2    H112906   1.246   1.606  16.589  4.1254 -0.8651  0.6394
  876MPD2    H212907   1.402   1.952  16.420  1.4516 -0.1548  0.0006
  876MPD2    H312908   1.308   1.828  16.610  0.8432 -0.9461  0.4861
  876MPD2     N12909   1.226   1.447  16.360 -0.7472 -0.3089 -0.2646
  876MPD2    H512910   1.224   1.404  16.269 -0.3241 -2.2431  0.6422
  876MPD2    N112911   1.411   1.859  16.173  0.3082  0.9343 -0.1442
  876MPD2    H712912   1.429   1.956  16.197  0.0204  0.1798  3.0717
  877MPD2     C12913   0.990   2.181  15.709  0.5002  0.6095  0.1365
  877MPD2    C112914   1.095   2.256  15.668  0.3609 -0.2131 -0.9929
  877MPD2    C212915   1.097   2.351  15.568 -0.2303  0.5216  0.2854
  877MPD2    C312916   0.977   2.369  15.494  0.3791  0.5318  0.0660
  877MPD2    C412917   0.871   2.292  15.528 -0.2779  0.2214  0.0015
  877MPD2    C512918   0.878   2.204  15.636 -0.1978  0.7254  0.6766
  877MPD2     H12919   1.187   2.411  15.558  0.8813 -1.2814 -0.7040
  877MPD2    H112920   0.773   2.297  15.483 -0.3067 -1.8531 -0.1513
  877MPD2    H212921   0.987   2.107  15.787 -1.4197  2.3621  1.7383
  877MPD2    H312922   0.788   2.150  15.663 -0.8933  1.7136  0.3415
  877MPD2     N12923   0.959   2.452  15.381 -0.3078  0.1866  0.4737
  877MPD2    H512924   0.864   2.465  15.348 -0.0046 -0.7095 -0.7616
  877MPD2    N112925   1.224   2.237  15.724  0.0803  0.0814 -0.2021
  877MPD2    H712926   1.305   2.279  15.679  0.7549 -0.0033  0.9184
  878MPD2     C12927   0.908   1.118  13.223  0.1090 -0.0625 -0.5000
  878MPD2    C112928   0.890   1.257  13.217  0.1881 -0.3881 -0.1681
  878MPD2    C212929   0.881   1.329  13.338  0.0029  0.0508 -0.8010
  878MPD2    C312930   0.886   1.258  13.458  0.5462  0.2535  0.0364
  878MPD2    C412931   0.905   1.119  13.457  0.6461 -0.2632 -0.1370
  878MPD2    C512932   0.920   1.051  13.340 -0.1361  0.4606  0.0510
  878MPD2     H12933   0.864   1.435  13.351 -2.1657 -0.6420  1.8383
  878MPD2    H112934   0.890   1.053  13.542  0.1589 -1.3976 -1.0908
  878MPD2    H212935   0.910   1.061  13.131 -1.0918  0.2717 -0.7306
  878MPD2    H312936   0.920   0.942  13.345  0.1651  0.4532 -0.0786
  878MPD2     N12937   0.859   1.332  13.577  0.6585  0.4637  0.2241
  878MPD2    H512938   0.843   1.430  13.562 -0.3188  0.4204  0.9813
  878MPD2    N112939   0.853   1.310  13.091  0.8985 -0.9421 -1.3203
  878MPD2    H712940   0.830   1.247  13.015 -2.2287  2.2811 -3.0465
  879MPD2     C12941   0.785   2.976  17.101  0.4939 -0.0443  0.1132
  879MPD2    C112942   0.841   2.850  17.122 -0.3248  0.3643 -0.8842
  879MPD2    C212943   0.803   2.736  17.048 -0.5375  0.2356  0.4722
  879MPD2    C312944   0.713   2.748  16.946  0.1143  0.1553  0.5021
  879MPD2    C412945   0.669   2.876  16.921  0.3191 -0.1082  0.2133
  879MPD2    C512946   0.702   2.990  16.990 -0.1634  0.6471 -0.2239
  879MPD2     H12947   0.843   2.639  17.072 -0.2681  0.4559  0.9114
  879MPD2    H112948   0.594   2.897  16.845 -0.0279 -2.1079 -0.0108
  879MPD2    H212949   0.811   3.058  17.167  0.9559  0.4819 -0.7188
  879MPD2    H312950   0.664   3.084  16.954 -0.4440 -0.3649 -2.5872
  879MPD2     N12951   0.683   2.648  16.850 -0.5907 -0.4545  0.0535
  879MPD2    H512952   0.633   2.667  16.764  0.0684 -1.0931 -0.4733
  879MPD2    N112953   0.943   2.845  17.217  1.0449  0.3029  0.4388
  879MPD2    H712954   0.985   2.932  17.247 -2.7252  2.4635 -0.5597
  880MPD2     C12955   1.909   3.864   0.698 -0.5859 -0.1340  0.2135
  880MPD2    C112956   2.008   3.962   0.699  0.1292 -0.3158  0.1294
  880MPD2    C212957   2.136   3.924   0.749  0.6738  0.1396 -0.0444
  880MPD2    C312958   2.167   3.790   0.786 -0.2567 -0.8388  0.2354
  880MPD2    C412959   2.055   3.704   0.788  0.9724 -0.0743 -0.6887
  880MPD2    C512960   1.928   3.738   0.738 -0.4486  0.0149  0.0679
  880MPD2     H12961   2.217   3.996   0.751  1.0582 -0.2531 -1.1797
  880MPD2    H112962   2.068   3.601   0.819 -0.4516  0.0452  0.3057
  880MPD2    H212963   1.816   3.896   0.652 -1.4400 -0.5577  1.6525
  880MPD2    H312964   1.848   3.667   0.723  0.5033 -0.7701 -1.2363
  880MPD2     N12965   2.298   3.752   0.837  0.1580  0.4528 -0.3355
  880MPD2    H512966   2.369   3.822   0.860 -0.1142  0.8650 -0.7633
  880MPD2    N112967   1.976   4.083   0.629 -0.4411 -0.1960 -0.1668
  880MPD2    H712968   1.887   4.095   0.583  0.1606  0.4814 -1.1669
  881MPD2     C12969   2.099   0.346   0.153 -0.2837 -0.2896 -0.4872
  881MPD2    C112970   2.118   0.215   0.109 -0.3022 -0.1457 -0.7085
  881MPD2    C212971   2.092   0.112   0.202 -0.3956 -0.5027  0.1278
  881MPD2    C312972   2.038   0.137   0.327  0.3683  0.2497  0.0810
  881MPD2    C412973   1.998   0.264   0.358 -0.1620  0.1645  0.2795
  881MPD2    C512974   2.035   0.360   0.273 -0.1052  0.2868  0.4996
  881MPD2     H12975   2.117   0.009   0.179 -0.2196 -0.9698  2.4333
  881MPD2    H112976   1.936   0.282   0.445  0.3019  0.9240  0.4476
  881MPD2    H212977   2.108   0.433   0.089  1.1466  0.5560  0.8644
  881MPD2    H312978   2.031   0.463   0.309 -0.0317 -0.2896  2.1819
  881MPD2     N12979   2.011   0.022   0.409 -0.4382 -0.1465  0.0635
  881MPD2    H512980   1.937   0.040   0.476 -1.1318 -1.9728 -0.1843
  881MPD2    N112981   2.193   0.196  17.731  0.1188  0.7851 -0.5702
  881MPD2    H712982   2.214   0.279  17.676 -2.0605  1.6935 -0.0561
  882MPD2     C12983   1.080   2.074  14.847 -0.0706  0.1983 -0.2123
  882MPD2    C112984   0.960   2.143  14.847  0.7104  0.4968 -0.1008
  882MPD2    C212985   0.847   2.073  14.801 -0.3214  0.1059 -0.3614
  882MPD2    C312986   0.861   1.940  14.758 -0.1215  0.0743  0.5055
  882MPD2    C412987   0.984   1.875  14.762  0.5821 -0.5507  0.3526
  882MPD2    C512988   1.086   1.942  14.813  0.5446  0.5694 -0.1027
  882MPD2     H12989   0.750   2.120  14.815 -0.0466  0.4080  0.5382
  882MPD2    H112990   1.001   1.770  14.742 -2.1016 -0.5897 -1.7028
  882MPD2    H212991   1.163   2.141  14.866 -0.3157  0.1752  0.9114
  882MPD2    H312992   1.186   1.904  14.794  0.6371 -0.2679  2.0684
  882MPD2     N12993   0.755   1.866  14.705  0.6698  0.2070  0.3974
  882MPD2    H512994   0.768   1.766  14.706  0.6855  0.2079  0.3095
  882MPD2    N112995   0.956   2.276  14.902 -0.2241 -0.2181  0.1043
  882MPD2    H712996   1.038   2.311  14.949 -0.7022  0.7142  0.2510
  883MPD2     C12997   2.530   1.411  16.124  0.6604  0.1191  0.0962
  883MPD2    C112998   2.635   1.463  16.052 -0.1469 -0.1117 -0.5205
  883MPD2    C212999   2.763   1.477  16.106 -0.3431  0.2098  0.3042
  883MPD2    C313000   2.787   1.430  16.233  0.1670 -0.3740 -0.1204
  883MPD2    C413001   2.679   1.387  16.307  0.0830 -0.2389 -0.3384
  883MPD2    C513002   2.560   1.373  16.247  0.0069  0.5919 -0.3875
  883MPD2     H13003   2.834   1.528  16.042 -0.2697  0.7489  0.8165
  883MPD2    H113004   2.682   1.349  16.409 -1.0725 -0.4440 -0.3830
  883MPD2    H213005   2.427   1.407  16.092  0.2485  2.6525  1.1132
  883MPD2    H313006   2.480   1.326  16.303  1.2968 -0.7709  0.3239
  883MPD2     N13007   2.920   1.452  16.280  0.2214 -0.1098  0.7177
  883MPD2    H513008   2.986   1.494  16.215  1.2819 -2.3928  0.3378
  883MPD2    N113009   2.615   1.523  15.923  0.3746 -0.3325  0.2048
  883MPD2    H713010   2.700   1.563  15.885  0.0951 -0.1339 -0.2041
  884MPD2     C13011   0.165   2.690  15.238 -0.6676  0.6429  0.1619
  884MPD2    C113012   0.090   2.747  15.139 -0.8015  0.4532  0.3806
  884MPD2    C213013   4.694   2.762  15.167  0.9116 -0.1622  0.3424
  884MPD2    C313014   4.642   2.736  15.287  0.2761 -0.3510 -0.8443
  884MPD2    C413015   4.715   2.675  15.389 -0.2768  0.8031 -0.7398
  884MPD2    C513016   0.111   2.660  15.361 -0.5257 -0.6939 -0.2023
  884MPD2     H13017   4.628   2.791  15.087  1.1097  2.9792  1.3134
  884MPD2    H113018   4.676   2.641  15.484 -0.6919 -0.0942 -1.2310
  884MPD2    H213019   0.268   2.663  15.223 -0.0689  4.8381 -3.2488
  884MPD2    H313020   0.178   2.608  15.428  1.0209 -0.7802 -1.8121
  884MPD2     N13021   4.500   2.752  15.304  0.0167  0.5869  0.8443
  884MPD2    H513022   4.442   2.794  15.231 -2.3297 -2.2464  1.0919
  884MPD2    N113023   0.136   2.787  15.009  0.0615 -0.8787 -0.2104
  884MPD2    H713024   0.088   2.866  14.967 -2.4251 -1.5889  1.2844
  885MPD2     C13025   2.906   2.548   0.328 -0.4763  0.6585  0.2843
  885MPD2    C113026   2.951   2.663   0.379  0.0580  0.7306  0.8757
  885MPD2    C213027   2.995   2.763   0.293  0.5640  0.3893  0.0371
  885MPD2    C313028   2.985   2.744   0.156 -0.2873 -0.3655  0.3135
  885MPD2    C413029   2.940   2.626   0.110  0.6856 -0.6660  0.0159
  885MPD2    C513030   2.892   2.530   0.191  0.0033 -0.2822  0.1051
  885MPD2     H13031   3.030   2.858   0.334  1.0633 -0.1620  0.8854
  885MPD2    H113032   2.933   2.605   0.004 -0.8474 -1.1850  0.2120
  885MPD2    H213033   2.872   2.464   0.386 -0.9368  0.8618  0.3092
  885MPD2    H313034   2.849   2.434   0.165 -0.0116 -0.0004 -0.9181
  885MPD2     N13035   3.040   2.842   0.075 -0.6249  0.7680  0.5802
  885MPD2    H513036   3.095   2.911   0.125 -0.6534 -0.2781  2.0492
  885MPD2    N113037   2.961   2.671   0.522 -0.1901  0.6246 -0.1525
  885MPD2    H713038   2.937   2.589   0.578 -0.6484  1.7407  1.2934
  886MPD2     C13039   4.550   2.012  15.867  0.0205  0.0133  0.1728
  886MPD2    C113040   4.589   1.888  15.811 -0.6815 -0.7536 -0.0418
  886MPD2    C213041   4.608   1.876  15.676 -0.1691 -0.3250  0.3562
  886MPD2    C313042   4.566   1.978  15.595  0.2580 -0.6297 -0.4749
  886MPD2    C413043   4.519   2.100  15.651  0.1041  0.3110  0.5974
  886MPD2    C513044   4.519   2.115  15.784 -0.4700 -0.8023  0.4203
  886MPD2     H13045   4.623   1.778  15.632  0.1526 -1.4525  3.0063
  886MPD2    H113046   4.473   2.173  15.586 -2.1861 -0.7411  1.0172
  886MPD2    H213047   4.517   2.022  15.970 -2.7027 -0.1194 -0.6804
  886MPD2    H313048   4.476   2.206  15.824 -1.5673 -0.8861 -0.5413
  886MPD2     N13049   4.573   1.952  15.454  0.2945 -0.4646 -0.3921
  886MPD2    H513050   4.592   1.858  15.419  0.9077 -1.3539  2.3972
  886MPD2    N113051   4.597   1.768  15.888  0.2487 -0.3224  0.7736
  886MPD2    H713052   4.603   1.680  15.839 -0.9360  1.0469 -1.8529
  887MPD2     C13053   0.510   1.588  16.199 -0.0789 -0.7270 -0.4381
  887MPD2    C113054   0.416   1.663  16.137  0.5903  0.0263  0.5607
  887MPD2    C213055   0.452   1.791  16.095  0.1130  0.5511  0.0713
  887MPD2    C313056   0.571   1.845  16.128  0.4584 -0.4162  0.6542
  887MPD2    C413057   0.670   1.770  16.192 -0.3616  0.0165 -0.2192
  887MPD2    C513058   0.642   1.634  16.222  0.1921 -0.3797  0.2413
  887MPD2     H13059   0.378   1.848  16.040 -0.3034 -0.8921 -0.8706
  887MPD2    H113060   0.772   1.800  16.212 -0.0359 -3.1685  2.8556
  887MPD2    H213061   0.495   1.486  16.231  1.0869 -1.1780 -1.3128
  887MPD2    H313062   0.710   1.574  16.281 -0.4184 -0.9221  0.3909
  887MPD2     N13063   0.596   1.975  16.080 -0.4148  0.2166  0.7053
  887MPD2    H513064   0.543   2.009  16.001 -2.4517 -2.3814  0.9503
  887MPD2    N113065   0.282   1.627  16.113  0.0142  0.8384  0.0047
  887MPD2    H713066   0.229   1.695  16.059 -0.9538  1.3935  1.6788
  888MPD2     C13067   1.829   1.274  14.835  0.4814 -0.9236  0.4649
  888MPD2    C113068   1.814   1.290  14.971  0.2392  0.2558 -0.0686
  888MPD2    C213069   1.863   1.400  15.033  0.6855 -0.1007 -0.2944
  888MPD2    C313070   1.926   1.501  14.958 -0.3982 -0.3213 -0.3302
  888MPD2    C413071   1.930   1.496  14.819 -0.1625  0.3162  0.5828
  888MPD2    C513072   1.884   1.379  14.767  0.8744 -0.6480 -0.0116
  888MPD2     H13073   1.840   1.427  15.135 -2.2775 -3.9613  0.0462
  888MPD2    H113074   1.974   1.573  14.757 -0.0298 -0.3057 -0.0936
  888MPD2    H213075   1.784   1.192  14.779  1.4013 -1.0506 -0.0958
  888MPD2    H313076   1.894   1.374  14.659  0.0064 -3.3945  0.0320
  888MPD2     N13077   1.982   1.609  15.036  0.6705  0.3367  0.1252
  888MPD2    H513078   1.974   1.593  15.136  0.7033 -0.8280 -0.0592
  888MPD2    N113079   1.733   1.204  15.052  0.1108 -1.0204 -0.7467
  888MPD2    H713080   1.741   1.226  15.151 -4.3124  0.6302 -0.7613
  889MPD2     C13081   1.812   1.172  12.584 -0.1107 -0.2135  0.2846
  889MPD2    C113082   1.828   1.135  12.717 -0.0849 -0.3693 -0.5226
  889MPD2    C213083   1.772   1.225  12.807 -0.0648  0.3078  0.5849
  889MPD2    C313084   1.759   1.358  12.785  0.0975  0.9607  0.0743
  889MPD2    C413085   1.766   1.400  12.659 -0.0296 -0.6798  0.0793
  889MPD2    C513086   1.783   1.307  12.559 -0.1373  0.3064  0.7836
  889MPD2     H13087   1.767   1.196  12.911 -0.1659  0.0819  0.5173
  889MPD2    H113088   1.749   1.499  12.619 -2.2460 -0.1351  2.3764
  889MPD2    H213089   1.815   1.098  12.505  1.0030 -0.6152  0.7072
  889MPD2    H313090   1.762   1.337  12.457  0.4696 -1.6375  0.0836
  889MPD2     N13091   1.739   1.446  12.901  0.4683 -0.6561 -0.3124
  889MPD2    H513092   1.715   1.397  12.986  0.0064 -2.4139 -1.4609
  889MPD2    N113093   1.832   1.005  12.767  0.2526 -0.3682  0.8534
  889MPD2    H713094   1.787   0.988  12.856 -1.8991  1.3742  0.0723
  890MPD2     C13095   1.039   3.182  14.834  0.1374 -0.3668 -0.2328
  890MPD2    C113096   1.063   3.296  14.908  0.3055  0.6478  0.2358
  890MPD2    C213097   1.110   3.278  15.041  0.0867 -0.0292  0.3511
  890MPD2    C313098   1.132   3.151  15.092 -0.7719  0.2500  0.2148
  890MPD2    C413099   1.102   3.037  15.023  0.1779  0.5055 -0.0965
  890MPD2    C513100   1.059   3.058  14.890 -0.1260  0.2247 -0.0489
  890MPD2     H13101   1.138   3.364  15.100 -2.0139  0.1142  1.1409
  890MPD2    H113102   1.128   2.939  15.063 -0.6268  1.0333  1.7162
  890MPD2    H213103   1.001   3.182  14.732 -2.8862  1.1598  0.8984
  890MPD2    H313104   1.035   2.972  14.829 -0.0010  1.2724 -1.5785
  890MPD2     N13105   1.189   3.150  15.220 -0.1479 -0.2643  0.0539
  890MPD2    H513106   1.193   3.246  15.252 -1.8618  0.1051 -0.8075
  890MPD2    N113107   1.038   3.419  14.848 -0.2489  0.3683 -0.6911
  890MPD2    H713108   1.012   3.421  14.749  0.6800  2.8014 -0.8878
  891MPD2     C13109   3.313   0.749  16.834  0.1591 -0.5951 -0.4952
  891MPD2    C113110   3.334   0.877  16.796 -0.7541 -0.1887  0.4678
  891MPD2    C213111   3.461   0.928  16.815 -0.8526  0.1123 -0.5132
  891MPD2    C313112   3.561   0.857  16.881 -0.7718  0.1970 -0.2871
  891MPD2    C413113   3.536   0.721  16.912  0.5026  0.4642  0.0296
  891MPD2    C513114   3.413   0.664  16.879  0.4532 -0.2878  0.2640
  891MPD2     H13115   3.475   1.033  16.790  2.1983 -0.6757 -2.0494
  891MPD2    H113116   3.605   0.644  16.945 -1.3794 -1.4881 -0.5794
  891MPD2    H213117   3.219   0.697  16.822 -2.1119  3.2349  0.7719
  891MPD2    H313118   3.391   0.558  16.888  1.3089 -0.4854  0.0231
  891MPD2     N13119   3.674   0.929  16.920 -0.4429 -0.3167  0.4040
  891MPD2    H513120   3.672   1.028  16.895  1.6285  0.5820  3.7974
  891MPD2    N113121   3.223   0.938  16.738 -0.0624  0.3370  0.4709
  891MPD2    H713122   3.136   0.887  16.747  0.7208 -0.7787  1.6672
  892MPD2     C13123   0.253   2.481  14.697 -0.3858  0.7000 -0.0316
  892MPD2    C113124   0.149   2.390  14.717 -0.0223  0.4678  0.1347
  892MPD2    C213125   0.176   2.256  14.709  0.1548  0.3409  0.4876
  892MPD2    C313126   0.303   2.212  14.681 -0.5001  0.6153  0.3663
  892MPD2    C413127   0.409   2.306  14.662 -0.0474  0.9551 -1.0574
  892MPD2    C513128   0.380   2.439  14.671  0.7445 -0.4362  0.6153
  892MPD2     H13129   0.095   2.185  14.720 -0.1528  0.8423  1.5223
  892MPD2    H113130   0.510   2.276  14.638 -0.9019 -1.4953 -1.5079
  892MPD2    H213131   0.251   2.589  14.685 -2.5332  0.7223  0.5919
  892MPD2    H313132   0.461   2.511  14.673 -0.8489  1.3751  0.2344
  892MPD2     N13133   0.328   2.081  14.656  0.1833  0.6971  0.1483
  892MPD2    H513134   0.427   2.063  14.644 -0.2705 -1.6998 -0.0563
  892MPD2    N113135   0.022   2.435  14.737  0.2217 -0.1178  0.2559
  892MPD2    H713136   4.693   2.363  14.766  2.4424 -2.5835 -0.7553
  893MPD2     C13137   1.752   1.530   1.869  0.5268  0.4122  0.0930
  893MPD2    C113138   1.682   1.416   1.850 -0.6768 -0.1366  0.3248
  893MPD2    C213139   1.548   1.417   1.889 -0.0613 -0.0476 -0.2216
  893MPD2    C313140   1.492   1.528   1.950 -0.5547 -0.3986 -0.2766
  893MPD2    C413141   1.572   1.638   1.972  0.4689 -0.0283  0.1712
  893MPD2    C513142   1.699   1.643   1.918  0.4942  0.2102 -0.0607
  893MPD2     H13143   1.490   1.331   1.859  0.0285 -0.7053  1.4883
  893MPD2    H113144   1.531   1.723   2.026 -0.1349  0.8183 -1.6042
  893MPD2    H213145   1.852   1.544   1.831  0.3606  0.4132 -0.3456
  893MPD2    H313146   1.759   1.733   1.921 -2.1507  1.9153  1.8472
  893MPD2     N13147   1.359   1.530   2.004  0.2368  0.2096 -0.3687
  893MPD2    H513148   1.340   1.621   2.045 -1.5494  0.0919 -0.9436
  893MPD2    N113149   1.748   1.317   1.775  0.6562 -0.2416 -0.3232
  893MPD2    H713150   1.840   1.343   1.742  0.4552 -1.2041 -1.6448
  894MPD2     C13151   4.633   2.950   1.167  0.3421 -0.4148 -0.3682
  894MPD2    C113152   4.555   3.046   1.229  0.3477 -0.0323 -0.5063
  894MPD2    C213153   4.521   3.169   1.161  0.4088 -0.3187 -0.5520
  894MPD2    C313154   4.582   3.196   1.044  0.2308 -0.0002  0.1497
  894MPD2    C413155   4.669   3.107   0.986 -0.2124 -0.1952  0.0197
  894MPD2    C513156   4.684   2.979   1.037  0.1515 -0.1598 -0.2353
  894MPD2     H13157   4.454   3.240   1.207  0.2862  0.0793 -1.3475
  894MPD2    H113158   4.733   3.125   0.900 -0.7789  1.2638 -0.1049
  894MPD2    H213159   4.658   2.856   1.214 -0.4863 -0.5052 -0.0974
  894MPD2    H313160   0.010   2.907   0.986 -0.4883 -0.6475 -0.3327
  894MPD2     N13161   4.582   3.332   1.016  0.5827  0.0290 -0.2085
  894MPD2    H513162   4.519   3.396   1.063  0.1452  0.1315 -0.9380
  894MPD2    N113163   4.504   3.025   1.363 -0.0837  0.6421  0.3995
  894MPD2    H713164   4.435   3.091   1.399 -0.6024 -0.1386  0.8470
  895MPD2     C13165   4.332   1.157  13.762  0.3351  0.7806 -0.7788
  895MPD2    C113166   4.230   1.061  13.767 -0.4474  0.2531 -0.1317
  895MPD2    C213167   4.257   0.927  13.761  0.2546  0.1080 -0.4722
  895MPD2    C313168   4.385   0.892  13.723 -0.0866  0.0148 -0.4084
  895MPD2    C413169   4.482   0.981  13.731 -0.5843  0.1802 -0.8885
  895MPD2    C513170   4.461   1.112  13.745  0.4401  0.7619  0.4069
  895MPD2     H13171   4.169   0.865  13.756 -1.3096  2.2511  0.3877
  895MPD2    H113172   4.586   0.954  13.719  0.1644  1.6292  2.5312
  895MPD2    H213173   4.321   1.263  13.781 -1.3098  0.0531  2.4570
  895MPD2    H313174   4.543   1.183  13.737  2.5158 -1.7768 -0.6809
  895MPD2     N13175   4.423   0.757  13.713  0.3227 -0.3665 -0.2335
  895MPD2    H513176   4.506   0.727  13.663  0.4278  0.2840 -0.4502
  895MPD2    N113177   4.095   1.099  13.777  0.3211 -0.5269  0.5739
  895MPD2    H713178   4.036   1.017  13.769  0.6621 -0.5784 -1.4933
  896MPD2     C13179   1.282   4.306   0.610  0.6862 -1.0368  0.9825
  896MPD2    C113180   1.248   4.173   0.642 -0.2013 -0.0578  0.1263
  896MPD2    C213181   1.111   4.149   0.645 -0.3557 -0.4204  0.1538
  896MPD2    C313182   1.018   4.236   0.605  0.1646  0.1165  0.1457
  896MPD2    C413183   1.059   4.366   0.581  0.3120  0.0816  0.3935
  896MPD2    C513184   1.190   4.400   0.577 -0.0545  0.5697  0.5641
  896MPD2     H13185   1.080   4.049   0.674  1.0951 -0.3095  2.0672
  896MPD2    H113186   0.989   4.444   0.551  0.9119  1.0364  1.4954
  896MPD2    H213187   1.387   4.333   0.618  0.5748  0.0304 -0.9694
  896MPD2    H313188   1.223   4.502   0.563  2.7983 -0.2785  0.9084
  896MPD2     N13189   0.886   4.192   0.606  0.4008  0.3823 -0.1311
  896MPD2    H513190   0.876   4.105   0.657 -0.0394  0.6005  0.1566
  896MPD2    N113191   1.345   4.074   0.688  0.1548  0.5854 -0.6260
  896MPD2    H713192   1.444   4.097   0.693 -0.3770  2.8539 -0.5198
  897MPD2     C13193   2.544   0.571  11.004  0.3978  0.7505 -0.1128
  897MPD2    C113194   2.484   0.698  11.004  0.2164 -0.1548 -0.0920
  897MPD2    C213195   2.376   0.725  11.073 -0.4938  0.1751 -0.1710
  897MPD2    C313196   2.316   0.620  11.140 -0.1596  0.0797  0.9346
  897MPD2    C413197   2.374   0.502  11.148  0.0513  0.1700 -0.3273
  897MPD2    C513198   2.481   0.475  11.079 -0.2568  0.1278  0.3605
  897MPD2     H13199   2.327   0.821  11.062 -1.1621 -0.2110 -0.5155
  897MPD2    H113200   2.332   0.420  11.205  0.5253  0.4699  0.4545
  897MPD2    H213201   2.632   0.542  10.946 -0.4739  0.1932 -1.1630
  897MPD2    H313202   2.515   0.373  11.075 -1.7358 -0.2238 -2.8550
  897MPD2     N13203   2.202   0.656  11.208 -0.4824  0.4029  0.0330
  897MPD2    H513204   2.162   0.749  11.198  0.0646  0.1504 -4.8222
  897MPD2    N113205   2.561   0.804  10.947 -0.2280 -0.4812 -0.3126
  897MPD2    H713206   2.633   0.771  10.883  0.7303  0.9499  0.0313
  898MPD2     C13207   4.241   1.763   0.361 -0.2209 -0.8010  0.2173
  898MPD2    C113208   4.376   1.774   0.352 -0.8210  0.4241  1.1870
  898MPD2    C213209   4.433   1.877   0.269  0.6072  0.0357 -0.2959
  898MPD2    C313210   4.351   1.977   0.214  0.8238  0.1621 -0.0749
  898MPD2    C413211   4.213   1.965   0.230 -0.6591  0.9234  0.2697
  898MPD2    C513212   4.158   1.857   0.302 -0.5095  0.1286 -1.2131
  898MPD2     H13213   4.542   1.884   0.269  0.6313 -0.2724  0.4256
  898MPD2    H113214   4.155   2.046   0.188 -1.4103  0.0861 -0.3141
  898MPD2    H213215   4.193   1.692   0.427 -0.0536 -1.7711 -0.6929
  898MPD2    H313216   4.051   1.840   0.311 -0.1570 -0.0020  2.6002
  898MPD2     N13217   4.408   2.082   0.143 -0.0970  0.0020  0.0494
  898MPD2    H513218   4.507   2.069   0.121  0.0449  0.1023  0.6215
  898MPD2    N113219   4.467   1.702   0.433 -0.8773 -0.5077 -0.4531
  898MPD2    H713220   4.567   1.718   0.420 -0.9030 -0.0697 -0.0993
  899MPD2     C13221   0.357   2.097  17.365 -0.0281  0.3143 -0.3191
  899MPD2    C113222   0.381   2.200  17.452 -0.0302  0.1863 -1.0220
  899MPD2    C213223   0.402   2.169  17.584  0.6805 -0.5599  0.0865
  899MPD2    C313224   0.393   2.038  17.636  0.7062  0.2630  0.1719
  899MPD2    C413225   0.394   1.933  17.542 -0.3669 -0.6291 -0.4362
  899MPD2    C513226   0.358   1.967  17.409 -0.0545  0.4672 -0.1738
  899MPD2     H13227   0.412   2.258  17.645 -3.1920 -1.1953  1.6289
  899MPD2    H113228   0.399   1.826  17.560  2.2587 -0.5401 -0.5813
  899MPD2    H213229   0.326   2.130  17.267  0.3097 -0.5643 -0.7236
  899MPD2    H313230   0.332   1.885  17.343 -2.0495  0.1851  0.9560
  899MPD2     N13231   0.403   2.004   0.029 -0.4587  0.0226  0.3852
  899MPD2    H513232   0.428   1.906   0.035  3.7364  0.8552 -3.3993
  899MPD2    N113233   0.389   2.332  17.388 -0.3523 -0.1568  0.1597
  899MPD2    H713234   0.399   2.336  17.287 -2.5379 -2.5398 -0.1554
  900MPD2     C13235   0.472   4.010  12.653 -0.0959 -0.0394 -0.9181
  900MPD2    C113236   0.371   3.945  12.717 -0.1198 -0.0744 -0.5869
  900MPD2    C213237   0.249   3.938  12.656 -0.2660 -0.7449  0.8032
  900MPD2    C313238   0.228   4.005  12.538 -0.4164 -0.1757 -0.5210
  900MPD2    C413239   0.330   4.079  12.479 -1.2302 -0.9024  0.2366
  900MPD2    C513240   0.450   4.075  12.537  0.4451 -0.2732  0.0487
  900MPD2     H13241   0.169   3.887  12.710 -0.0059 -0.8762  1.0638
  900MPD2    H113242   0.316   4.128  12.383  1.3029 -0.7817 -0.0723
  900MPD2    H213243   0.572   4.028  12.691 -0.6371  1.9565 -0.4681
  900MPD2    H313244   0.536   4.119  12.487 -0.0409 -0.2333 -0.7539
  900MPD2     N13245   0.093   3.999  12.494 -0.4260  0.7060  0.6642
  900MPD2    H513246   0.034   3.937  12.548 -0.3806  1.5224  1.6413
  900MPD2    N113247   0.403   3.870  12.830  0.2164 -0.1632 -0.4598
  900MPD2    H713248   0.502   3.866  12.853  0.8165  0.4442 -2.9193
  901MPD2     C13249   4.634   2.968  13.095 -0.2229  0.1973 -0.4922
  901MPD2    C113250   0.031   2.928  13.076  0.0323  0.3773 -0.6652
  901MPD2    C213251   0.128   3.026  13.060  0.3364 -0.1639  0.8827
  901MPD2    C313252   0.096   3.160  13.069 -0.1436 -0.5683 -1.0395
  901MPD2    C413253   4.706   3.193  13.099 -0.5838  0.3657  0.1506
  901MPD2    C513254   4.607   3.103  13.123  0.3877 -0.3895  0.6270
  901MPD2     H13255   0.230   2.996  13.040  0.2499 -0.9994  1.6652
  901MPD2    H113256   4.681   3.297  13.111 -1.1628  0.0787  1.4513
  901MPD2    H213257   4.556   2.897  13.118  0.2500 -0.0063  0.4727
  901MPD2    H313258   4.511   3.145  13.149 -0.0192 -1.1162  0.3234
  901MPD2     N13259   0.198   3.258  13.045 -0.3737  0.3091 -0.1648
  901MPD2    H513260   0.292   3.220  13.030 -0.7920 -0.6251 -0.4454
  901MPD2    N113261   0.049   2.791  13.056 -0.3502  0.0849  0.0333
  901MPD2    H713262   4.701   2.736  13.045 -0.5634  0.0367  1.8178
  902MPD2     C13263   4.427   1.944  13.306  0.0446 -0.7075  0.5094
  902MPD2    C113264   4.346   1.968  13.192 -1.1101 -0.2884  0.5254
  902MPD2    C213265   4.391   1.944  13.062  0.2752  0.2166 -0.6490
  902MPD2    C313266   4.512   1.875  13.053  0.4023  0.1365  0.1258
  902MPD2    C413267   4.595   1.850  13.159 -0.6517 -0.7340 -0.0889
  902MPD2    C513268   4.554   1.893  13.289 -0.3961 -0.8112 -0.5994
  902MPD2     H13269   4.330   1.973  12.977  0.6189  0.1841 -0.9073
  902MPD2    H113270   4.687   1.798  13.138 -1.5500 -3.1907  2.0397
  902MPD2    H213271   4.383   1.935  13.405 -1.1946  1.0136  0.1170
  902MPD2    H313272   4.608   1.856  13.376 -0.6389 -0.4660 -0.3019
  902MPD2     N13273   4.553   1.818  12.931 -0.5232 -0.7434 -0.4730
  902MPD2    H513274   4.617   1.739  12.930 -0.3337 -0.5934  1.2356
  902MPD2    N113275   4.225   2.032  13.220 -0.1488 -0.8581 -0.2246
  902MPD2    H713276   4.193   2.059  13.312  2.1269  2.0622 -0.2742
  903MPD2     C13277   4.422   2.135  12.160 -0.3449 -0.2891  0.0087
  903MPD2    C113278   4.380   2.014  12.206 -0.3383 -0.7229  0.0114
  903MPD2    C213279   4.255   1.962  12.172  0.3652  0.6785  0.2859
  903MPD2    C313280   4.175   2.030  12.084  0.7381 -0.3154  0.3168
  903MPD2    C413281   4.217   2.145  12.035 -0.4366 -0.2048 -0.2503
  903MPD2    C513282   4.336   2.199  12.069 -0.1440 -0.7612 -0.2947
  903MPD2     H13283   4.222   1.868  12.213  1.2640  0.9109  1.5681
  903MPD2    H113284   4.157   2.211  11.973  0.6017  0.6458 -0.3449
  903MPD2    H213285   4.518   2.178  12.185 -0.9007  0.7861  0.3027
  903MPD2    H313286   4.353   2.303  12.041 -1.5671 -0.2959  0.5608
  903MPD2     N13287   4.052   1.975  12.056 -0.2698 -0.6051 -0.2288
  903MPD2    H513288   4.031   1.881  12.087  0.2816 -0.3277  0.9497
  903MPD2    N113289   4.454   1.941  12.301 -0.1702 -0.0168 -0.2824
  903MPD2    H713290   4.526   1.995  12.347 -0.0099  0.3239 -0.9319
  904MPD2     C13291   3.861   0.397  14.278 -0.1158 -0.1655 -0.0659
  904MPD2    C113292   3.909   0.522  14.311 -0.5825  0.4463 -0.1232
  904MPD2    C213293   4.044   0.547  14.334 -0.7219 -0.8778  0.1990
  904MPD2    C313294   4.140   0.449  14.310  0.0241  0.4047  0.0112
  904MPD2    C413295   4.085   0.323  14.265 -0.6529  0.2893  0.0454
  904MPD2    C513296   3.952   0.298  14.253 -0.7579  0.0330 -0.1127
  904MPD2     H13297   4.084   0.644  14.359 -1.3619 -0.9049  1.3091
  904MPD2    H113298   4.145   0.244  14.220 -0.6766  0.2014  0.1703
  904MPD2    H213299   3.753   0.383  14.273  0.0342 -0.9268 -1.0334
  904MPD2    H313300   3.915   0.204  14.213 -2.1805  0.1515  0.9183
  904MPD2     N13301   4.278   0.459  14.320  0.2046  0.1045  0.3335
  904MPD2    H513302   4.327   0.373  14.300  0.7735  0.3671  0.6120
  904MPD2    N113303   3.826   0.638  14.315  0.5570 -0.7542  0.0655
  904MPD2    H713304   3.874   0.720  14.350  0.5738 -1.9289  2.7779
  905MPD2     C13305   3.712   0.778  13.541  0.0256 -0.7691  0.2519
  905MPD2    C113306   3.784   0.769  13.656  0.2588  0.8082  0.2560
  905MPD2    C213307   3.902   0.701  13.645  0.0422 -0.3949  0.1206
  905MPD2    C313308   3.953   0.661  13.522 -0.3604  0.5686  0.2735
  905MPD2    C413309   3.875   0.667  13.411 -0.5559  1.0998 -0.0935
  905MPD2    C513310   3.756   0.731  13.424  0.0583  0.1558  0.3411
  905MPD2     H13311   3.951   0.672  13.738  1.3185  2.0434  0.2106
  905MPD2    H113312   3.906   0.639  13.310  1.9642 -1.5952  1.4392
  905MPD2    H213313   3.605   0.800  13.544 -0.3857 -2.8201  0.6775
  905MPD2    H313314   3.693   0.735  13.336 -1.0452  0.7588  1.1556
  905MPD2     N13315   4.080   0.598  13.530 -0.0910 -0.1013 -0.2768
  905MPD2    H513316   4.127   0.610  13.619 -0.3905 -1.3410  0.0470
  905MPD2    N113317   3.742   0.806  13.784 -0.0770 -0.3398  0.3106
  905MPD2    H713318   3.642   0.820  13.788 -0.2046 -0.6479 -1.7823
  906MPD2     C13319   0.814   0.970  11.500 -0.5204  0.2080  0.3442
  906MPD2    C113320   0.904   0.871  11.466 -0.2458 -0.3346 -0.5137
  906MPD2    C213321   0.903   0.747  11.546  0.4554 -0.5207  0.5839
  906MPD2    C313322   0.817   0.745  11.657 -0.1661  0.0630  0.8213
  906MPD2    C413323   0.736   0.845  11.691 -0.6322 -0.2723  0.4384
  906MPD2    C513324   0.735   0.961  11.616  0.4209 -0.0219  0.1219
  906MPD2     H13325   0.963   0.659  11.525  0.5761 -0.2778 -0.0695
  906MPD2    H113326   0.669   0.842  11.776 -1.3236 -1.6149 -0.1504
  906MPD2    H213327   0.798   1.051  11.430 -0.6138  1.6475  2.0396
  906MPD2    H313328   0.669   1.046  11.631 -2.1107 -1.4743 -2.9168
  906MPD2     N13329   0.793   0.625  11.729  0.3091  0.9169 -0.8669
  906MPD2    H513330   0.710   0.631  11.787  1.2416  0.2049  0.5531
  906MPD2    N113331   0.970   0.872  11.343  0.1256 -0.2038  0.3265
  906MPD2    H713332   1.009   0.782  11.318 -0.0370  0.5592 -2.5940
  907MPD2     C13333   4.622   0.240  16.440  0.3354 -0.1342 -0.4458
  907MPD2    C113334   4.672   0.120  16.392 -0.3169  0.2929 -0.0782
  907MPD2    C213335   0.029   0.058  16.471  0.1198 -0.2307  0.5437
  907MPD2    C313336   0.076   0.118  16.593 -0.3480  0.1828  0.1664
  907MPD2    C413337   0.031   0.243  16.628  0.4360 -0.1014  0.4909
  907MPD2    C513338   4.664   0.302  16.554  0.7802  0.3891 -0.3408
  907MPD2     H13339   0.080   4.708  16.433  1.0318  0.1442  0.9194
  907MPD2    H113340   0.058   0.303  16.714 -2.7126  3.0563 -0.6821
  907MPD2    H213341   4.567   0.311  16.381  0.3264  0.5777  0.4066
  907MPD2    H313342   4.631   0.402  16.576  0.9592  0.6975 -1.4834
  907MPD2     N13343   0.187   0.060  16.663  0.2038  0.0253 -0.1053
  907MPD2    H513344   0.208   4.706  16.624 -1.0269 -0.4897  0.4231
  907MPD2    N113345   4.648   0.060  16.264 -0.0275  0.4076 -0.2543
  907MPD2    H713346   4.706   4.718  16.240  2.0501  2.0834 -0.7875
  908MPD2     C13347   2.578   0.674  10.139 -0.3098  0.3317 -0.4608
  908MPD2    C113348   2.644   0.618  10.244 -0.5860  0.2631 -0.2190
  908MPD2    C213349   2.662   0.695  10.360  0.1687  0.0701  1.0587
  908MPD2    C313350   2.617   0.825  10.362 -0.0059  0.0643 -1.1334
  908MPD2    C413351   2.552   0.874  10.252  0.1773  0.2500 -0.1452
  908MPD2    C513352   2.536   0.803  10.136 -0.4751 -0.1399  0.2377
  908MPD2     H13353   2.709   0.657  10.451  1.6302 -0.9765 -0.1326
  908MPD2    H113354   2.528   0.979  10.261  1.7857  0.6990 -1.1629
  908MPD2    H213355   2.565   0.614  10.049  1.4080 -0.9192  0.1284
  908MPD2    H313356   2.493   0.836  10.042 -1.3060 -0.7699  0.3935
  908MPD2     N13357   2.637   0.906  10.481 -0.2605 -0.4619 -0.3665
  908MPD2    H513358   2.688   0.860  10.555  3.2639  0.6560 -2.0631
  908MPD2    N113359   2.672   0.481  10.238  0.1792  0.7295  0.0623
  908MPD2    H713360   2.662   0.443  10.144 -1.9083  1.2575  0.0649
  909MPD2     C13361   2.848   3.757  12.041 -0.0648 -0.3783  0.3501
  909MPD2    C113362   2.742   3.826  11.984 -0.6762 -0.8111 -0.3072
  909MPD2    C213363   2.656   3.906  12.069  0.2602 -0.1503 -0.3454
  909MPD2    C313364   2.679   3.917  12.201  0.1575 -0.3086 -0.9087
  909MPD2    C413365   2.786   3.852  12.250 -0.2672 -0.3121  0.7057
  909MPD2    C513366   2.874   3.773  12.173 -0.7140 -0.4939  0.1528
  909MPD2     H13367   2.563   3.953  12.040 -0.2063 -1.2475 -0.6271
  909MPD2    H113368   2.820   3.867  12.352 -0.8381  0.6587  0.7577
  909MPD2    H213369   2.929   3.711  11.985  0.3782  2.4545 -1.3359
  909MPD2    H313370   2.954   3.718  12.222  0.2227  2.2793  1.7032
  909MPD2     N13371   2.596   4.000  12.275  0.7504 -0.2385 -0.1345
  909MPD2    H513372   2.534   4.064  12.225  0.7361 -0.3021 -0.1978
  909MPD2    N113373   2.720   3.839  11.844  0.1959 -0.0392  0.1751
  909MPD2    H713374   2.642   3.896  11.811  0.3689  0.5883  0.8561
  910MPD2     C13375   4.013   0.742  16.695  0.1173 -0.1588  0.2366
  910MPD2    C113376   4.110   0.677  16.625  0.0154 -0.0702  0.6436
  910MPD2    C213377   4.109   0.679  16.493 -0.4922 -0.0841  0.2893
  910MPD2    C313378   4.001   0.738  16.427  0.0241  1.2683 -0.3899
  910MPD2    C413379   3.905   0.803  16.500 -1.1197 -0.1887 -0.1043
  910MPD2    C513380   3.906   0.803  16.635  0.1008 -0.4721 -0.2816
  910MPD2     H13381   4.196   0.643  16.439 -1.3184 -1.5466 -0.0576
  910MPD2    H113382   3.813   0.844  16.460 -1.4701 -1.3145 -0.4621
  910MPD2    H213383   3.997   0.741  16.802 -2.3379 -0.1411 -0.1273
  910MPD2    H313384   3.831   0.854  16.694  0.0563  0.3464 -1.0525
  910MPD2     N13385   3.984   0.735  16.284 -0.0504  0.4269 -0.4221
  910MPD2    H513386   3.891   0.761  16.253 -0.5223 -1.7092 -0.7908
  910MPD2    N113387   4.224   0.615  16.688 -0.0618  0.1518  0.1085
  910MPD2    H713388   4.297   0.576  16.629 -0.0156 -0.0831  0.3187
  911MPD2     C13389   1.930   0.983  16.145 -0.3489  0.2656 -0.2652
  911MPD2    C113390   1.955   1.001  16.279  0.1981  1.1463  0.6337
  911MPD2    C213391   1.935   1.131  16.328 -0.3010  0.3144 -0.2160
  911MPD2    C313392   1.905   1.241  16.246  0.4085  0.2110 -0.8225
  911MPD2    C413393   1.879   1.214  16.112  0.4292 -0.1323  0.3050
  911MPD2    C513394   1.889   1.087  16.065 -0.9651 -0.0201  0.4829
  911MPD2     H13395   1.962   1.153  16.430  0.7051  0.2188 -0.4700
  911MPD2    H113396   1.846   1.296  16.050 -1.2625  0.0198  1.4219
  911MPD2    H213397   1.924   0.879  16.114  0.9560  0.3588 -0.8421
  911MPD2    H313398   1.855   1.073  15.964 -0.5418 -0.2967  0.3803
  911MPD2     N13399   1.877   1.377  16.296 -0.7737  0.5411 -0.7075
  911MPD2    H513400   1.859   1.452  16.230 -0.2087  2.9269  1.8064
  911MPD2    N113401   2.013   0.884  16.345 -0.2037 -0.2054 -0.1108
  911MPD2    H713402   2.018   0.799  16.290 -0.1860  1.9580 -3.4238
  912MPD2     C13403   1.512   1.163  15.976 -0.3672 -0.9631  0.3610
  912MPD2    C113404   1.505   1.179  16.110 -0.3803 -0.0679  1.3495
  912MPD2    C213405   1.489   1.069  16.190 -0.0204 -0.2277 -0.5760
  912MPD2    C313406   1.480   0.940  16.140  0.7501 -0.6160 -0.6428
  912MPD2    C413407   1.492   0.918  16.006  1.1141  0.3397  0.4637
  912MPD2    C513408   1.501   1.033  15.928 -0.7841  0.3852  0.3268
  912MPD2     H13409   1.490   1.075  16.299  1.3361 -0.7118 -0.5589
  912MPD2    H113410   1.494   0.819  15.960 -1.0910  0.7014 -0.4007
  912MPD2    H213411   1.529   1.245  15.907 -0.7080  0.5877  2.1443
  912MPD2    H313412   1.511   1.023  15.821 -0.4622 -2.1103  0.5728
  912MPD2     N13413   1.465   0.840  16.238  0.2175 -0.2032 -0.4127
  912MPD2    H513414   1.448   0.877  16.331 -0.1101 -2.5047  0.4479
  912MPD2    N113415   1.522   1.308  16.166 -0.0323 -0.3028 -0.0294
  912MPD2    H713416   1.556   1.370  16.094  2.5785 -1.9904 -0.2555
  913MPD2     C13417   2.145   2.345  10.688  0.2743  0.2240  0.3961
  913MPD2    C113418   2.250   2.443  10.689 -0.4294  0.1880  1.1855
  913MPD2    C213419   2.277   2.521  10.578 -0.0781 -0.6130 -0.1551
  913MPD2    C313420   2.197   2.511  10.466 -0.2259 -0.4650  0.4447
  913MPD2    C413421   2.095   2.417  10.466  0.2165 -0.2412  0.4027
  913MPD2    C513422   2.075   2.333  10.567 -0.0915 -0.5226 -0.0102
  913MPD2     H13423   2.356   2.595  10.580 -1.6679  1.0869 -1.4251
  913MPD2    H113424   2.039   2.396  10.376 -2.8915  1.0601  2.0373
  913MPD2    H213425   2.125   2.274  10.767  1.4114 -2.4898 -1.7492
  913MPD2    H313426   1.986   2.270  10.562 -0.7567  0.4586 -0.4080
  913MPD2     N13427   2.212   2.594  10.353  0.3116 -0.5215  0.2451
  913MPD2    H513428   2.145   2.573  10.280 -1.5037 -0.5171  1.9370
  913MPD2    N113429   2.316   2.458  10.819 -0.0541  0.2634 -0.4021
  913MPD2    H713430   2.268   2.420  10.900 -1.5780 -0.0632 -1.4600
  914MPD2     C13431   0.292   2.936  12.369 -0.2218 -0.2010  0.1351
  914MPD2    C113432   0.303   2.984  12.501  0.5746 -0.3275  1.2087
  914MPD2    C213433   0.318   2.898  12.608 -0.7002  0.5076 -0.1752
  914MPD2    C313434   0.297   2.763  12.572  0.0942 -0.0878 -0.3515
  914MPD2    C413435   0.287   2.719  12.440 -0.4054  0.1395  0.1277
  914MPD2    C513436   0.285   2.808  12.337 -0.1809  0.3237 -0.6591
  914MPD2     H13437   0.330   2.931  12.711 -0.2633 -0.9876  0.2654
  914MPD2    H113438   0.287   2.613  12.416  0.8346 -0.0477  0.9570
  914MPD2    H213439   0.289   3.004  12.284 -0.4079  0.3603  0.5875
  914MPD2    H313440   0.278   2.779  12.233  1.9086  0.3249 -0.8059
  914MPD2     N13441   0.290   2.678  12.682 -0.5319  0.2988 -0.3303
  914MPD2    H513442   0.309   2.717  12.774 -0.1472  2.1754 -1.2132
  914MPD2    N113443   0.323   3.121  12.524 -0.0014  0.2143  0.1776
  914MPD2    H713444   0.306   3.177  12.441 -2.7225 -1.6315 -0.5149
  915MPD2     C13445   3.157   2.387  15.799 -0.4857 -0.5176  0.2282
  915MPD2    C113446   3.020   2.387  15.808 -0.1769 -0.2333 -0.2497
  915MPD2    C213447   2.963   2.435  15.924  0.2813 -1.4047  0.0772
  915MPD2    C313448   3.038   2.481  16.032 -0.1781  0.0462  0.2182
  915MPD2    C413449   3.176   2.473  16.025 -0.4262  0.2002  0.2638
  915MPD2    C513450   3.237   2.428  15.908 -0.3505 -0.8268  0.4690
  915MPD2     H13451   2.855   2.432  15.937  0.1130  0.9473 -0.7083
  915MPD2    H113452   3.242   2.505  16.105  1.4312 -4.0201  0.4344
  915MPD2    H213453   3.204   2.353  15.708 -1.7656 -0.2372 -0.5343
  915MPD2    H313454   3.345   2.415  15.907 -0.1805  0.4474  2.0540
  915MPD2     N13455   2.977   2.546  16.141 -0.5708  0.2546  0.0755
  915MPD2    H513456   2.876   2.548  16.131 -0.6537 -0.5335  0.8056
  915MPD2    N113457   2.942   2.324  15.709 -1.4710  0.5265 -0.6163
  915MPD2    H713458   2.997   2.279  15.636  1.2720  1.5159  0.8410
  916MPD2     C13459   1.035   1.075  15.859 -0.1993  0.1303 -0.5588
  916MPD2    C113460   1.096   1.000  15.949 -0.1708  0.2083 -0.2724
  916MPD2    C213461   1.160   0.880  15.910  0.6889  0.1351  0.6556
  916MPD2    C313462   1.141   0.832  15.780 -0.3210  0.5538 -0.3765
  916MPD2    C413463   1.069   0.906  15.696  0.2833  0.5342  0.3424
  916MPD2    C513464   1.023   1.032  15.735  0.2683  0.0808  0.0778
  916MPD2     H13465   1.213   0.824  15.986  0.9078  0.8011  0.9966
  916MPD2    H113466   1.042   0.875  15.595 -1.4415 -1.5785  1.4450
  916MPD2    H213467   0.996   1.173  15.885 -2.1766 -0.5874 -0.8229
  916MPD2    H313468   0.978   1.096  15.659 -2.4084 -2.4446 -0.4302
  916MPD2     N13469   1.204   0.707  15.750  0.2315  0.5000 -0.2453
  916MPD2    H513470   1.245   0.665  15.833 -0.4647 -0.9175 -0.6367
  916MPD2    N113471   1.118   1.054  16.078 -0.2719  0.0819  0.3274
  916MPD2    H713472   1.102   1.152  16.097  2.0201  0.5414 -0.1089
  917MPD2     C13473   1.607   3.157  11.250  0.3406  0.2779 -0.7278
  917MPD2    C113474   1.698   3.169  11.355  0.6568 -0.0324  1.1061
  917MPD2    C213475   1.811   3.247  11.340 -0.3934 -0.0249 -0.0118
  917MPD2    C313476   1.835   3.313  11.226  0.1460  0.0762 -0.6375
  917MPD2    C413477   1.749   3.301  11.121 -0.7096 -0.5976 -0.2370
  917MPD2    C513478   1.643   3.212  11.127 -0.2889  0.2624 -0.2485
  917MPD2     H13479   1.877   3.261  11.424 -0.6219  0.0727  0.1528
  917MPD2    H113480   1.772   3.347  11.025 -0.0211  1.1399  0.7465
  917MPD2    H213481   1.523   3.089  11.262  0.7156 -0.4389 -2.2475
  917MPD2    H313482   1.579   3.193  11.042 -0.7066  0.5519  0.0045
  917MPD2     N13483   1.940   3.409  11.209  0.2895  0.0207  0.0431
  917MPD2    H513484   1.947   3.452  11.117  1.6997  0.2871  0.2754
  917MPD2    N113485   1.670   3.099  11.480  0.2036  0.4385 -0.3519
  917MPD2    H713486   1.579   3.055  11.489  1.2119 -1.4451  0.5862
  918MPD2     C13487   1.839   3.701  12.171 -0.5603  0.5553 -0.6393
  918MPD2    C113488   1.935   3.605  12.183  0.6124 -0.1435  0.7607
  918MPD2    C213489   1.902   3.482  12.137 -0.1954 -0.1014 -0.6162
  918MPD2    C313490   1.777   3.453  12.088 -0.2594 -0.4369  0.2428
  918MPD2    C413491   1.674   3.550  12.092 -0.3088  0.1235 -0.2171
  918MPD2    C513492   1.712   3.677  12.131 -0.9462  0.0661  0.1457
  918MPD2     H13493   1.971   3.400  12.151  1.5267  1.1508 -1.8961
  918MPD2    H113494   1.568   3.542  12.072 -0.3826 -1.7311  0.9530
  918MPD2    H213495   1.854   3.806  12.194  2.0819  0.1856 -0.6566
  918MPD2    H313496   1.643   3.760  12.132  1.6762  2.2180  2.0897
  918MPD2     N13497   1.753   3.327  12.043 -0.2623 -0.3656 -0.4382
  918MPD2    H513498   1.830   3.262  12.029  0.2484 -0.4360  2.5988
  918MPD2    N113499   2.064   3.628  12.238 -0.5295 -0.0800 -0.3188
  918MPD2    H713500   2.131   3.553  12.237 -1.7897 -1.1858 -1.1386
  919MPD2     C13501   2.201   2.615  11.949 -0.1122 -0.3039  0.7336
  919MPD2    C113502   2.091   2.532  11.952 -0.1897  0.3920 -0.2094
  919MPD2    C213503   2.049   2.475  11.832 -0.0020 -0.3425 -0.6329
  919MPD2    C313504   2.113   2.509  11.713  0.2030 -0.0981  0.0693
  919MPD2    C413505   2.221   2.595  11.713  0.2226  0.0868  0.6160
  919MPD2    C513506   2.266   2.644  11.829  0.0819 -0.4566 -0.1338
  919MPD2     H13507   1.961   2.412  11.836  0.1351 -0.4075  1.2268
  919MPD2    H113508   2.274   2.613  11.620 -2.6477  0.4252 -0.9641
  919MPD2    H213509   2.234   2.664  12.039  3.4661 -0.2984 -0.5954
  919MPD2    H313510   2.346   2.716  11.817 -0.6098  0.3757  0.3135
  919MPD2     N13511   2.062   2.466  11.591  0.0535  0.4783 -0.0689
  919MPD2    H513512   2.115   2.500  11.511  0.0444  1.1023  0.1870
  919MPD2    N113513   2.029   2.496  12.076 -0.2210 -1.0152 -0.6277
  919MPD2    H713514   1.964   2.418  12.075 -0.1182 -1.1064 -0.1795
  920MPD2     C13515   1.830   2.687  10.645 -0.2471  0.4518  0.4870
  920MPD2    C113516   1.719   2.621  10.691 -0.1696  0.1210  0.1223
  920MPD2    C213517   1.733   2.551  10.813  0.1817 -0.4784  0.1329
  920MPD2    C313518   1.854   2.553  10.878 -0.0990  0.4465  0.5438
  920MPD2    C413519   1.964   2.611  10.824  0.2149  0.1700 -0.1377
  920MPD2    C513520   1.955   2.667  10.701 -0.6536  0.1123 -0.2303
  920MPD2     H13521   1.649   2.510  10.868  1.8574 -2.8568  0.9238
  920MPD2    H113522   2.062   2.602  10.870 -0.3329  1.4610  1.2738
  920MPD2    H213523   1.820   2.747  10.555  0.1942 -0.3582 -0.1071
  920MPD2    H313524   2.043   2.709  10.653  0.2350 -1.5821 -0.0803
  920MPD2     N13525   1.866   2.488  11.004 -0.6408  0.3306  0.2934
  920MPD2    H513526   1.794   2.425  11.039  1.3973 -1.6968  0.8989
  920MPD2    N113527   1.585   2.631  10.635 -0.0924 -0.0752 -0.2225
  920MPD2    H713528   1.516   2.569  10.675 -1.4543  1.5337 -0.1058
  921MPD2     C13529   2.629   1.072  16.899  0.3678 -0.4751 -0.1333
  921MPD2    C113530   2.633   0.992  16.782 -1.1380 -0.5592 -0.5974
  921MPD2    C213531   2.536   0.899  16.759  0.1067  0.1673  0.0949
  921MPD2    C313532   2.426   0.891  16.839  0.2140  0.5629  0.2963
  921MPD2    C413533   2.417   0.968  16.950 -0.2115 -0.4885 -0.7875
  921MPD2    C513534   2.519   1.057  16.981  0.4444 -0.2453  0.1117
  921MPD2     H13535   2.538   0.841  16.667 -0.6358  0.7522 -0.2843
  921MPD2    H113536   2.332   0.960  17.017  0.8243  1.0637  0.6837
  921MPD2    H213537   2.703   1.147  16.929 -3.7603  3.8172 -0.6575
  921MPD2    H313538   2.510   1.130  17.062  0.7446  0.1004 -0.1661
  921MPD2     N13539   2.319   0.809  16.817 -0.2326  0.2060 -0.3528
  921MPD2    H513540   2.231   0.830  16.863 -0.8308  1.2305 -1.9535
  921MPD2    N113541   2.742   1.017  16.701 -0.2050 -0.0925  0.1109
  921MPD2    H713542   2.811   1.082  16.738 -0.1479 -2.5756  4.2942
  922MPD2     C13543   3.445   4.424  17.731 -0.1659 -0.1933 -0.5620
  922MPD2    C113544   3.355   4.422   0.086 -0.2033  0.1263  0.1704
  922MPD2    C213545   3.319   4.291   0.138 -0.5189 -1.1506 -0.1661
  922MPD2    C313546   3.383   4.173   0.092  0.2937  0.3695 -0.6053
  922MPD2    C413547   3.479   4.190  17.739 -1.1137  0.5747 -0.5306
  922MPD2    C513548   3.514   4.317  17.690  0.1619 -0.2750  0.0986
  922MPD2     H13549   3.241   4.287   0.213 -0.6591 -1.1398 -0.3103
  922MPD2    H113550   3.531   4.104  17.698 -0.1210  1.5391 -1.3126
  922MPD2    H213551   3.487   4.513  17.685  0.8290 -0.3822 -0.0202
  922MPD2    H313552   3.588   4.321  17.610  0.4664 -0.3622  0.3758
  922MPD2     N13553   3.341   4.048   0.147 -0.1449 -0.0577  0.1799
  922MPD2    H513554   3.246   4.054   0.181 -0.2074 -2.1071  0.3298
  922MPD2    N113555   3.292   4.541   0.139  0.3682 -0.4033  0.7107
  922MPD2    H713556   3.210   4.537   0.198  0.0099 -1.4026  0.1289
  923MPD2     C13557   4.408   1.330   9.341  0.4167 -0.2352 -1.2767
  923MPD2    C113558   4.501   1.373   9.440 -0.3719 -0.5944  0.4864
  923MPD2    C213559   4.571   1.284   9.516 -0.0823  0.0596  0.0522
  923MPD2    C313560   4.542   1.143   9.509 -0.5691  0.0263 -0.9584
  923MPD2    C413561   4.443   1.108   9.421 -0.1155 -0.0975  0.3192
  923MPD2    C513562   4.384   1.202   9.339 -0.0061 -1.2274  0.0284
  923MPD2     H13563   4.643   1.322   9.587 -0.6509 -0.3118  0.8161
  923MPD2    H113564   4.414   1.004   9.409  0.4122 -0.1807 -0.2448
  923MPD2    H213565   4.350   1.403   9.286  1.0169  1.0932 -0.1517
  923MPD2    H313566   4.304   1.166   9.275 -0.7496  1.0344 -0.2934
  923MPD2     N13567   4.607   1.043   9.575  0.0571 -0.4957  0.1153
  923MPD2    H513568   4.577   0.951   9.542 -1.8981 -0.1814  1.0087
  923MPD2    N113569   4.524   1.515   9.440 -0.0336  0.6975 -0.0816
  923MPD2    H713570   4.447   1.568   9.400 -0.1652  1.4033  1.0941
  924MPD2     C13571   0.408   4.005  16.517  0.2601 -0.3693 -0.4943
  924MPD2    C113572   0.385   4.028  16.649  0.2946 -0.1488 -0.5872
  924MPD2    C213573   0.391   4.157  16.701  0.0349 -0.2387 -0.6466
  924MPD2    C313574   0.426   4.260  16.626  0.7380 -0.0869 -0.8211
  924MPD2    C413575   0.445   4.240  16.493  0.2657  0.4361  0.4073
  924MPD2    C513576   0.420   4.118  16.438 -0.1034 -0.1853 -0.3183
  924MPD2     H13577   0.361   4.180  16.803  1.2970 -0.1997 -0.2860
  924MPD2    H113578   0.482   4.315  16.424  0.0493 -0.4542 -0.6789
  924MPD2    H213579   0.391   3.913  16.464 -0.4398  0.2775 -1.3997
  924MPD2    H313580   0.427   4.109  16.330 -0.7178 -4.7223  0.0180
  924MPD2     N13581   0.448   4.389  16.684 -0.2752  0.1110  0.0221
  924MPD2    H513582   0.454   4.465  16.618 -1.0023  1.2704  1.2941
  924MPD2    N113583   0.367   3.915  16.736 -0.0456 -0.7128  0.3598
  924MPD2    H713584   0.397   3.824  16.704 -1.8690 -0.9945 -0.5741
  925MPD2     C13585   3.638   2.104  14.561  0.4424  0.3816  0.0987
  925MPD2    C113586   3.679   1.985  14.620 -0.0213  0.3283 -0.6234
  925MPD2    C213587   3.658   1.968  14.755  0.5454 -0.4754  0.0462
  925MPD2    C313588   3.609   2.061  14.842  0.1738 -0.4445  0.0143
  925MPD2    C413589   3.571   2.185  14.785 -0.0856 -0.2423 -0.1839
  925MPD2    C513590   3.575   2.194  14.643  0.0581 -0.0142  0.1153
  925MPD2     H13591   3.682   1.873  14.802  0.5627 -0.3446  0.3028
  925MPD2    H113592   3.524   2.268  14.837  1.2919  0.0800  0.5334
  925MPD2    H213593   3.631   2.120  14.454 -0.7860  2.4335  0.4962
  925MPD2    H313594   3.531   2.278  14.591  0.4969  1.1499  1.6226
  925MPD2     N13595   3.590   2.013  14.977 -0.0632  0.1755  0.4902
  925MPD2    H513596   3.604   1.916  15.005  0.8398  0.5344  1.3163
  925MPD2    N113597   3.733   1.880  14.541  0.9890 -0.0469  0.6043
  925MPD2    H713598   3.732   1.791  14.590  1.9131  1.1177  2.7435
  926MPD2     C13599   1.924   0.258  13.886  0.1095  0.5328 -0.3451
  926MPD2    C113600   1.902   0.375  13.825 -0.1665 -0.3090  0.1744
  926MPD2    C213601   1.965   0.389  13.701  0.5121  0.1636 -0.4479
  926MPD2    C313602   2.035   0.286  13.640  0.5560  0.2768  0.2456
  926MPD2    C413603   2.051   0.172  13.713 -0.0405 -0.0402 -1.0649
  926MPD2    C513604   1.999   0.155  13.839 -0.3748 -0.5894 -0.0249
  926MPD2     H13605   1.961   0.483  13.647  1.0178  0.2875 -0.2633
  926MPD2    H113606   2.110   0.091  13.670  1.2982  0.4107 -0.0706
  926MPD2    H213607   1.898   0.238  13.990  1.4345 -2.3109 -0.5518
  926MPD2    H313608   2.014   0.070  13.904  0.3444  0.1067  0.7234
  926MPD2     N13609   2.105   0.299  13.517 -0.4146  0.6025 -0.0691
  926MPD2    H513610   2.178   0.231  13.500 -0.8827 -0.3257  1.6156
  926MPD2    N113611   1.835   0.488  13.883 -0.1202 -0.3840 -0.0477
  926MPD2    H713612   1.865   0.581  13.858 -1.0683  0.2617  1.2187
  927MPD2     C13613   2.701   2.108   0.039 -0.8367 -0.3047  0.0033
  927MPD2    C113614   2.653   2.238   0.036  0.3982  0.1358 -0.4877
  927MPD2    C213615   2.705   2.321  17.684  1.2304 -0.2626 -0.0334
  927MPD2    C313616   2.788   2.277  17.589  0.0860  0.0701 -0.0514
  927MPD2    C413617   2.825   2.147  17.590  0.1721 -0.1141 -1.1082
  927MPD2    C513618   2.781   2.062  17.690 -0.3267  0.3676  0.0610
  927MPD2     H13619   2.665   2.422  17.675  2.2478  0.1197 -0.3107
  927MPD2    H113620   2.899   2.112  17.519 -1.5662 -1.1849 -2.3996
  927MPD2    H213621   2.671   2.041   0.119 -0.4921 -1.4893 -0.8573
  927MPD2    H313622   2.820   1.961  17.698 -0.0662  0.3379 -1.8006
  927MPD2     N13623   2.833   2.374  17.503 -0.2897  0.1959 -0.6714
  927MPD2    H513624   2.808   2.470  17.524 -0.6208  0.2149 -1.1555
  927MPD2    N113625   2.561   2.276   0.132  0.1530  0.2576  0.0735
  927MPD2    H713626   2.542   2.208   0.206  0.2869  0.7557  0.5629
  928MPD2     C13627   4.398   1.349   0.977 -0.1519 -0.3065 -0.6294
  928MPD2    C113628   4.519   1.383   1.028 -0.1687  0.5147  0.3288
  928MPD2    C213629   4.631   1.360   0.952  0.6156 -0.4237  0.2480
  928MPD2    C313630   4.619   1.288   0.829 -0.4661  0.0156 -0.5222
  928MPD2    C413631   4.498   1.261   0.771  0.4164  0.4583  0.7379
  928MPD2    C513632   4.394   1.288   0.852  0.0349 -0.2424  0.2129
  928MPD2     H13633   4.731   1.376   0.990  1.3626 -0.2828 -1.7575
  928MPD2    H113634   4.473   1.216   0.675  0.1998  0.7082  0.6778
  928MPD2    H213635   4.309   1.369   1.034  0.2772  1.4542 -0.5532
  928MPD2    H313636   4.294   1.268   0.814  0.8235 -1.0185 -1.4609
  928MPD2     N13637   4.733   1.246   0.751 -0.0250  0.1950 -0.0895
  928MPD2    H513638   4.715   1.179   0.677  1.6816  0.1449 -0.4770
  928MPD2    N113639   4.522   1.444   1.162  0.0440 -0.4433  0.2254
  928MPD2    H713640   4.429   1.463   1.200  0.5210  1.1982  0.5846
  929MPD2     C13641   0.117   0.589  11.158 -0.4602 -0.3687 -0.1261
  929MPD2    C113642   4.726   0.534  11.156 -0.7087  0.2687 -0.3643
  929MPD2    C213643   4.631   0.569  11.067  0.2450  0.1000  0.2661
  929MPD2    C313644   4.662   0.673  10.979 -0.0757 -0.3999  0.0200
  929MPD2    C413645   0.047   0.714  10.976 -0.0122 -0.0411  0.2338
  929MPD2    C513646   0.150   0.678  11.060 -0.0178  0.3896 -0.1965
  929MPD2     H13647   4.532   0.527  11.083 -0.6954  2.2639  0.1558
  929MPD2    H113648   0.062   0.789  10.899 -0.8853  1.3779  1.4476
  929MPD2    H213649   0.194   0.562  11.230  0.1319  0.6626 -0.3718
  929MPD2    H313650   0.250   0.720  11.054  0.0966  0.0764 -0.4706
  929MPD2     N13651   4.567   0.733  10.890 -0.5545 -0.0934 -0.6998
  929MPD2    H513652   4.597   0.822  10.851  0.1205  0.9469  2.2097
  929MPD2    N113653   4.709   0.441  11.263  0.1802 -0.1175 -0.0256
  929MPD2    H713654   0.045   0.440  11.333  0.7390  2.2273 -0.5794
  930MPD2     C13655   2.631   3.194  14.637 -0.5658  0.3150  0.3486
  930MPD2    C113656   2.524   3.250  14.575 -0.1014  0.3231  0.2510
  930MPD2    C213657   2.423   3.176  14.517  0.1727  0.5051  0.3407
  930MPD2    C313658   2.440   3.040  14.511  0.1819  0.6168  0.3247
  930MPD2    C413659   2.544   2.983  14.577 -0.3271 -0.0243  0.2440
  930MPD2    C513660   2.639   3.056  14.641 -0.1298 -0.0442  0.3947
  930MPD2     H13661   2.346   3.220  14.455  1.0973  1.6144 -0.0199
  930MPD2    H113662   2.564   2.877  14.564 -2.2298 -0.4136  0.4528
  930MPD2    H213663   2.720   3.249  14.667 -1.0899  0.6998  1.1863
  930MPD2    H313664   2.722   3.004  14.688  0.3884 -0.6774 -1.2318
  930MPD2     N13665   2.353   2.957  14.435 -0.5974 -0.4099 -0.5588
  930MPD2    H513666   2.369   2.857  14.429  0.0385 -0.3548  0.2749
  930MPD2    N113667   2.531   3.388  14.535 -0.2387  0.0098  0.0776
  930MPD2    H713668   2.626   3.423  14.546  0.4166 -1.2064 -1.6302
  931MPD2     C13669   2.660   1.992   0.683 -0.1235  0.4426 -0.2407
  931MPD2    C113670   2.556   2.087   0.703 -0.5749 -0.0721 -0.5691
  931MPD2    C213671   2.505   2.096   0.831 -0.5354  0.2007 -0.0267
  931MPD2    C313672   2.540   2.007   0.929 -0.1615  0.2201  0.4691
  931MPD2    C413673   2.638   1.912   0.901  0.0119  0.1615 -0.3985
  931MPD2    C513674   2.704   1.912   0.781 -0.2077  0.5766  0.9359
  931MPD2     H13675   2.421   2.163   0.846 -0.2066  0.5458  0.2858
  931MPD2    H113676   2.670   1.835   0.970 -0.0942  0.0773 -0.4424
  931MPD2    H213677   2.706   1.988   0.585  0.9013  2.6318  0.1660
  931MPD2    H313678   2.787   1.847   0.754 -0.5384  1.1580 -1.4905
  931MPD2     N13679   2.484   2.007   1.060  0.4504 -0.1256 -0.1944
  931MPD2    H513680   2.526   1.940   1.123  1.0056  0.4928  0.0867
  931MPD2    N113681   2.500   2.161   0.596  0.7143  0.0005  0.0720
  931MPD2    H713682   2.534   2.146   0.502 -0.4185 -2.0159 -0.0033
  932MPD2     C13683   3.930   1.239  11.191 -0.2930  0.1880 -0.8410
  932MPD2    C113684   3.972   1.328  11.284  0.6557 -0.4220 -0.0603
  932MPD2    C213685   4.039   1.281  11.399 -0.1994 -0.2510  0.4798
  932MPD2    C313686   4.048   1.146  11.424 -0.2881 -0.2740 -0.3486
  932MPD2    C413687   3.999   1.061  11.325  0.5241  0.2901  0.1131
  932MPD2    C513688   3.933   1.108  11.217 -0.5014  0.1207  0.2014
  932MPD2     H13689   4.084   1.355  11.464 -0.3220  0.1057  0.1554
  932MPD2    H113690   4.014   0.954  11.329 -0.6354  0.1135 -0.4138
  932MPD2    H213691   3.884   1.271  11.098  0.8765 -1.2537 -1.9290
  932MPD2    H313692   3.900   1.040  11.139 -0.9398  0.5621 -0.0031
  932MPD2     N13693   4.111   1.091  11.535 -0.2106 -0.0700  0.2411
  932MPD2    H513694   4.133   0.992  11.531  1.8672  0.3815  0.2501
  932MPD2    N113695   3.969   1.468  11.259  0.2515 -0.0012  0.0520
  932MPD2    H713696   3.926   1.504  11.174  0.0132 -1.3900 -0.4245
  933MPD2     C13697   3.993   1.717   1.437 -0.0858  0.8603 -0.3602
  933MPD2    C113698   4.107   1.755   1.511  0.1550 -0.2311 -0.6721
  933MPD2    C213699   4.098   1.862   1.596  0.6948  0.0586  0.2370
  933MPD2    C313700   3.982   1.936   1.597 -0.1575  0.4833 -0.6109
  933MPD2    C413701   3.870   1.906   1.526 -0.6304 -0.0943 -0.6428
  933MPD2    C513702   3.876   1.794   1.447  0.7499  0.5937 -0.2812
  933MPD2     H13703   4.179   1.910   1.649 -0.5545  2.0429  0.3582
  933MPD2    H113704   3.772   1.949   1.544 -0.1132  0.8437 -0.1337
  933MPD2    H213705   4.000   1.637   1.364  0.2253  0.3624  0.2177
  933MPD2    H313706   3.788   1.767   1.390  0.9554 -0.4133 -0.1330
  933MPD2     N13707   3.975   2.049   1.683 -0.0786 -0.1449 -0.2645
  933MPD2    H513708   4.061   2.075   1.730  1.1080 -0.0951 -2.4626
  933MPD2    N113709   4.225   1.675   1.494 -0.0926 -0.5803 -0.1514
  933MPD2    H713710   4.236   1.621   1.409  0.3377  0.5109 -0.7849
  934MPD2     C13711   1.412   4.118   1.286  0.8525  0.4032  0.0444
  934MPD2    C113712   1.441   4.000   1.357 -0.0914 -0.9174  0.2668
  934MPD2    C213713   1.367   3.895   1.328 -0.8330  0.0523  0.3396
  934MPD2    C313714   1.269   3.902   1.225 -1.3698 -0.4904 -0.5157
  934MPD2    C413715   1.251   4.017   1.148  0.6339  0.4937  0.3595
  934MPD2    C513716   1.330   4.123   1.177 -0.6204  0.0761 -0.2580
  934MPD2     H13717   1.377   3.803   1.384 -0.1443 -0.6741 -0.9665
  934MPD2    H113718   1.179   4.024   1.068  0.0069  3.0052  1.1549
  934MPD2    H213719   1.467   4.210   1.300  0.3791  0.6036  0.5534
  934MPD2    H313720   1.309   4.215   1.123  0.1777  0.2965 -0.1938
  934MPD2     N13721   1.180   3.794   1.200  0.3348  0.6843  0.4950
  934MPD2    H513722   1.104   3.811   1.134  1.6113  1.0330 -0.8724
  934MPD2    N113723   1.541   3.993   1.457  0.3783 -0.0611 -0.6897
  934MPD2    H713724   1.554   3.904   1.505 -0.1666 -0.0006 -0.4363
  935MPD2     C13725   1.124   2.779   1.395  0.2208 -0.6083 -0.1654
  935MPD2    C113726   1.075   2.806   1.266 -0.9465 -0.5588  0.1024
  935MPD2    C213727   1.047   2.942   1.236  0.2595  0.0967  0.1791
  935MPD2    C313728   1.063   3.043   1.335 -0.1080 -0.4621  0.8710
  935MPD2    C413729   1.123   3.012   1.456  0.2532 -0.0028  1.0657
  935MPD2    C513730   1.150   2.880   1.490 -0.1355  1.3072  0.5561
  935MPD2     H13731   1.012   2.979   1.140  0.8310  1.0361  0.3277
  935MPD2    H113732   1.124   3.090   1.531  0.8095  0.4610  0.5688
  935MPD2    H213733   1.133   2.675   1.427  1.9043 -0.1341  0.9242
  935MPD2    H313734   1.182   2.855   1.591 -0.6977  1.3146  0.7374
  935MPD2     N13735   1.047   3.181   1.312  0.3468  0.3247  0.2297
  935MPD2    H513736   1.062   3.250   1.385  1.9173  0.4852 -0.2441
  935MPD2    N113737   1.047   2.702   1.165  0.3611  0.0394 -0.0197
  935MPD2    H713738   0.998   2.722   1.078 -0.3068  0.2727  0.4180
  936MPD2     C13739   4.102   0.351  12.586 -0.5954 -0.1056 -0.5171
  936MPD2    C113740   4.146   0.223  12.608  0.2118 -0.1442 -0.5667
  936MPD2    C213741   4.268   0.177  12.558 -0.6392 -0.3631  0.0659
  936MPD2    C313742   4.362   0.262  12.505 -0.8702 -0.1377  0.1097
  936MPD2    C413743   4.318   0.391  12.483  1.0633  0.4796 -0.3059
  936MPD2    C513744   4.190   0.428  12.517  0.0752 -0.3206  0.9912
  936MPD2     H13745   4.305   0.076  12.572  0.7530 -0.3189 -3.2307
  936MPD2    H113746   4.373   0.463  12.422 -0.8393  2.6414  0.5000
  936MPD2    H213747   4.007   0.394  12.617  0.2722  1.7579 -0.4943
  936MPD2    H313748   4.152   0.524  12.484 -0.8750 -1.6973 -1.8641
  936MPD2     N13749   4.486   0.196  12.477  0.0227  0.2042  0.7613
  936MPD2    H513750   4.501   0.098  12.497  0.3710  0.1475  0.2139
  936MPD2    N113751   4.078   0.121  12.678 -0.3437  0.3253  0.5077
  936MPD2    H713752   4.119   0.029  12.691 -0.0511  0.4421  0.4079
  937MPD2     C13753   2.162   1.815  12.152 -0.0037  0.3048 -0.3301
  937MPD2    C113754   2.216   1.938  12.152 -0.0794 -0.0203 -0.4222
  937MPD2    C213755   2.323   1.958  12.058 -0.5265  0.4775  0.4370
  937MPD2    C313756   2.376   1.850  11.984 -0.2216 -0.4640 -0.7645
  937MPD2    C413757   2.320   1.725  11.989  0.2919 -0.5615 -0.0626
  937MPD2    C513758   2.219   1.715  12.079 -0.2806  0.3412  0.1978
  937MPD2     H13759   2.353   2.062  12.053 -1.4630  0.7351  0.0989
  937MPD2    H113760   2.348   1.635  11.936  1.9768 -0.4682  0.6645
  937MPD2    H213761   2.079   1.787  12.215 -1.1038 -0.3725 -2.0592
  937MPD2    H313762   2.173   1.619  12.098  1.4420 -0.0332  2.4871
  937MPD2     N13763   2.478   1.879  11.894 -0.5969 -0.6058  0.2144
  937MPD2    H513764   2.527   1.964  11.919 -0.5340 -0.4771 -0.3322
  937MPD2    N113765   2.155   2.051  12.207  0.4788  0.2387  0.5619
  937MPD2    H713766   2.188   2.144  12.184 -1.2711  0.6484 -0.3584
  938MPD2     C13767   4.715   2.656   0.698  0.1904  0.3021  0.2712
  938MPD2    C113768   4.628   2.746   0.763 -0.6644  0.8315  0.1775
  938MPD2    C213769   4.566   2.704   0.882 -0.4317  0.4455  0.5565
  938MPD2    C313770   4.607   2.589   0.944 -0.2254 -0.1914 -0.3183
  938MPD2    C413771   4.688   2.499   0.880 -0.7406  0.8476  0.3607
  938MPD2    C513772   4.735   2.532   0.753 -0.0379 -0.1688  0.1321
  938MPD2     H13773   4.488   2.768   0.923 -0.9775  0.5394 -0.6428
  938MPD2    H113774   4.718   2.403   0.921 -1.7384  0.5614  0.4178
  938MPD2    H213775   0.017   2.669   0.598 -0.7041 -2.8300 -0.4852
  938MPD2    H313776   0.064   2.461   0.703  2.0326  0.0683  2.5158
  938MPD2     N13777   4.586   2.552   1.083  0.1056  0.0258  0.0250
  938MPD2    H513778   4.621   2.464   1.119 -1.0724 -0.3233  0.2972
  938MPD2    N113779   4.593   2.876   0.710  0.3714 -0.5236  0.4388
  938MPD2    H713780   4.513   2.926   0.747  1.7604  2.3075 -0.3635
  939MPD2     C13781   1.137   3.690   0.556  0.5897  0.1831 -0.4452
  939MPD2    C113782   1.200   3.713   0.437 -0.3117 -0.2605  0.2172
  939MPD2    C213783   1.268   3.617   0.374 -0.1494  0.0579  0.1145
  939MPD2    C313784   1.280   3.495   0.435  0.8514 -0.0706  0.6803
  939MPD2    C413785   1.243   3.474   0.567 -0.3987  0.3956  0.0807
  939MPD2    C513786   1.172   3.577   0.622  0.3576 -0.6198 -0.0882
  939MPD2     H13787   1.307   3.639   0.275  0.2685 -1.2289 -0.0104
  939MPD2    H113788   1.247   3.378   0.617  0.3291  0.3037 -0.1551
  939MPD2    H213789   1.083   3.767   0.609  2.4624  0.8103  0.5456
  939MPD2    H313790   1.139   3.558   0.723 -2.3571  0.4296 -0.7959
  939MPD2     N13791   1.340   3.396   0.361  0.4212 -0.2080 -0.2722
  939MPD2    H513792   1.351   3.419   0.263 -4.2261  0.6685 -0.6264
  939MPD2    N113793   1.169   3.835   0.375  0.3633 -0.0919 -0.8072
  939MPD2    H713794   1.101   3.895   0.420  2.4679  2.1710 -0.6107
  940MPD2     C13795   0.735   0.007  13.151 -0.4268  0.2380 -0.8207
  940MPD2    C113796   0.595   0.020  13.172 -0.8885 -1.1866 -0.1834
  940MPD2    C213797   0.512   4.684  13.087  0.3922  0.1712 -0.2329
  940MPD2    C313798   0.557   4.594  12.986 -0.9181 -0.0382 -0.2747
  940MPD2    C413799   0.696   4.579  12.977 -0.2595 -0.0679 -0.3294
  940MPD2    C513800   0.780   4.644  13.063 -0.1830  0.4270 -0.1686
  940MPD2     H13801   0.407   4.693  13.114  0.3675  0.4481 -0.4240
  940MPD2    H113802   0.736   4.510  12.904  1.0926  1.9584 -1.5374
  940MPD2    H213803   0.812   0.049  13.213 -2.9452  1.8925  1.1827
  940MPD2    H313804   0.886   4.642  13.046 -0.3313 -1.2815 -0.8127
  940MPD2     N13805   0.473   4.532  12.891 -0.4277 -0.1937 -0.4761
  940MPD2    H513806   0.515   4.467  12.825 -0.0035  0.1916 -0.5868
  940MPD2    N113807   0.544   0.101  13.281  0.4555 -0.1453 -0.2890
  940MPD2    H713808   0.442   0.100  13.284  0.4827 -1.8488  0.0421
  941MPD2     C13809   3.930   4.018   9.543 -0.1519  0.1513 -0.6051
  941MPD2    C113810   4.003   3.931   9.624  0.1998 -0.4552 -0.2529
  941MPD2    C213811   3.951   3.809   9.666 -0.7583 -0.1156  0.1827
  941MPD2    C313812   3.827   3.771   9.608 -0.0456 -0.3196 -0.3683
  941MPD2    C413813   3.766   3.847   9.513 -0.4275  0.2032 -0.7259
  941MPD2    C513814   3.816   3.970   9.472 -0.6332 -0.9271 -0.0140
  941MPD2     H13815   4.004   3.744   9.734 -0.1031  0.3915  0.1634
  941MPD2    H113816   3.667   3.819   9.479 -1.9485  1.1641  2.8701
  941MPD2    H213817   3.962   4.117   9.510 -1.5185  1.0530  0.7589
  941MPD2    H313818   3.765   4.038   9.405  1.7191  0.3940 -0.4895
  941MPD2     N13819   3.766   3.649   9.647 -0.6117  1.2796  0.1901
  941MPD2    H513820   3.680   3.627   9.597 -0.0318 -1.1264  0.2340
  941MPD2    N113821   4.125   3.970   9.677  0.3628 -0.1432 -0.1682
  941MPD2    H713822   4.176   3.889   9.711 -1.9008 -1.8504 -0.8751
  942MPD2     C13823   3.723   0.587   9.266 -0.3954 -0.3291  0.0283
  942MPD2    C113824   3.729   0.603   9.404 -1.1056  0.2068  0.2906
  942MPD2    C213825   3.806   0.712   9.454 -0.3544  0.3324  0.3730
  942MPD2    C313826   3.871   0.804   9.370  0.2244 -0.7563  0.3115
  942MPD2    C413827   3.855   0.788   9.236 -0.8366 -0.5379  0.2111
  942MPD2    C513828   3.787   0.674   9.187 -0.0743  0.7145 -0.0429
  942MPD2     H13829   3.818   0.711   9.562  0.5061 -1.8424  0.2541
  942MPD2    H113830   3.890   0.852   9.156 -1.8207  0.3841  0.5055
  942MPD2    H213831   3.662   0.511   9.219 -2.2120  1.8648 -1.1613
  942MPD2    H313832   3.792   0.653   9.081 -0.4475  0.8583 -0.0878
  942MPD2     N13833   3.946   0.913   9.427 -0.3434 -0.3313  0.1638
  942MPD2    H513834   3.975   0.987   9.363 -0.1787  2.0387  2.9785
  942MPD2    N113835   3.661   0.519   9.496  0.6828  0.2752 -0.0212
  942MPD2    H713836   3.666   0.551   9.592 -0.2322 -0.3844  0.2509
  943MPD2     C13837   3.044   4.168   9.559 -0.0781 -0.8402 -0.5599
  943MPD2    C113838   3.065   4.079   9.659 -0.4510  0.9221  0.0926
  943MPD2    C213839   3.194   4.041   9.700  0.1173 -0.4710 -0.1531
  943MPD2    C313840   3.307   4.097   9.642 -0.2602  0.2757 -1.2347
  943MPD2    C413841   3.276   4.191   9.545  0.7884 -0.4871 -0.4370
  943MPD2    C513842   3.151   4.229   9.504  0.1039 -0.3990  0.7626
  943MPD2     H13843   3.202   3.980   9.789  0.5263 -0.6400 -0.3054
  943MPD2    H113844   3.357   4.244   9.496  0.7210  0.5312  0.5518
  943MPD2    H213845   2.955   4.220   9.523 -0.5165 -2.1981 -1.4163
  943MPD2    H313846   3.127   4.305   9.431 -1.6674 -1.5594  0.1264
  943MPD2     N13847   3.445   4.073   9.689 -0.0368  0.3990 -0.0066
  943MPD2    H513848   3.516   4.138   9.657 -0.1484  0.6780  0.2990
  943MPD2    N113849   2.943   4.015   9.707  0.8693 -0.2027 -0.3510
  943MPD2    H713850   2.855   4.059   9.680  1.7988  1.2804 -0.9903
  944MPD2     C13851   2.760   2.404  11.578  0.1103 -0.1448  0.1743
  944MPD2    C113852   2.815   2.530  11.607  0.4104 -0.4307  0.3356
  944MPD2    C213853   2.760   2.590  11.717 -0.3605  0.4186 -0.3159
  944MPD2    C313854   2.658   2.538  11.796  0.5321 -0.8028 -0.0617
  944MPD2    C413855   2.597   2.423  11.752 -0.9149 -0.1822 -0.7230
  944MPD2    C513856   2.657   2.350  11.650  0.4856  0.3543 -0.2730
  944MPD2     H13857   2.805   2.681  11.754 -1.5965  0.4762  1.0495
  944MPD2    H113858   2.513   2.387  11.809 -0.9374 -0.2407 -0.7940
  944MPD2    H213859   2.803   2.340  11.503 -0.7949  0.0526 -0.5093
  944MPD2    H313860   2.619   2.253  11.620  0.5473 -0.5331  2.4328
  944MPD2     N13861   2.614   2.617  11.904 -0.0762  0.6711 -0.0470
  944MPD2    H513862   2.650   2.710  11.925  0.3248  0.3404  0.7273
  944MPD2    N113863   2.930   2.567  11.534 -0.1178 -0.3840 -0.1609
  944MPD2    H713864   2.957   2.504  11.460 -0.9061 -0.0354 -0.7499
    1TMC1    C113865   0.281   4.043  13.582 -0.2283 -0.0209  0.3997
    1TMC1    C213866   0.217   3.962  13.675  0.3526  0.5690 -0.0664
    1TMC1    C313867   0.179   3.842  13.629 -0.0332 -0.0098  0.0207
    1TMC1    C413868   0.321   3.992  13.460 -0.8928 -0.0976 -0.4537
    1TMC1    C513869   0.291   3.864  13.433 -0.0715  0.4360  0.0769
    1TMC1    C613870   0.212   3.789  13.512  0.9394 -0.1611  0.2727
    1TMC1     C13871   0.306   4.185  13.606  0.5291 -0.1721 -0.5613
    1TMC1     O13872   0.337   4.247  13.506  0.2885  0.1601 -0.4820
    1TMC1     H13873   0.196   3.997  13.776  1.6060 -0.2910  0.4926
    1TMC1    H113874   0.384   4.056  13.400  2.3983 -2.6207  0.3361
    1TMC1    H213875   0.184   3.694  13.468  0.9305 -0.7820  1.6225
    1TMC1    C713876   0.311   3.816  13.303  0.4432 -0.3195  0.2937
    1TMC1    C813877   0.132   3.742  13.720  0.4616  0.9781  0.1138
    1TMC1    O113878   0.408   3.854  13.241  0.1358 -0.6363  0.2948
    1TMC1    O213879   0.156   3.621  13.698 -0.4938 -0.0986  0.1279
    1TMC1    O313880   0.182   3.816  13.258 -0.5306 -0.6042 -0.2353
    1TMC1    H313881   0.120   3.845  13.328 -0.6376  0.3049 -0.6984
    1TMC1    O513882   0.040   3.796  13.802  0.1253  0.6497 -0.2478
    1TMC1    H513883   0.012   3.888  13.778 -0.9021 -0.1676 -2.2315
    2MPD2     C13884   0.431   4.612  13.833  0.5480  0.2936  0.1001
    2MPD2    C113885   0.387   4.529  13.938 -0.4231 -0.5467  0.7435
    2MPD2    C213886   0.336   4.407  13.906 -0.2756 -0.0989  0.5228
    2MPD2    C313887   0.317   4.365  13.771  0.7440  0.3152  0.4103
    2MPD2    C413888   0.343   4.463  13.679  1.0901 -0.0065 -0.6222
    2MPD2    C513889   0.400   4.577  13.706  0.4009  0.4668  0.0911
    2MPD2     H13890   0.321   4.336  13.986 -1.7946  0.9096  1.1388
    2MPD2    H113891   0.330   4.458  13.571  0.9580 -1.2449 -0.5469
    2MPD2    H213892   0.482   4.707  13.849  0.4825  0.0435  1.8502
    2MPD2    H313893   0.423   4.648  13.628  0.1728  1.0885  0.5871
    2MPD2     N13894   0.288   4.234  13.734  0.1945 -0.4511 -0.3088
    2MPD2    H513895   0.267   4.173  13.813 -0.7077 -0.2358 -0.3859
    2MPD2    N113896   0.389   4.587  14.069 -0.4087  0.0893 -0.1763
    2MPD2    H713897   0.446   4.670  14.075 -1.3091  0.8199 -1.7343
    3TMC2    C113898   0.396   4.619  14.297 -0.1767 -0.0200  0.3649
    3TMC2    C213899   0.467   4.553  14.392  0.2795  1.0239  1.1822
    3TMC2    C313900   0.538   4.630  14.485 -0.3950  0.4309 -0.4913
    3TMC2    C413901   0.398   0.022  14.288  1.1350  0.7232 -0.6693
    3TMC2    C513902   0.468   0.096  14.380 -0.0945  0.3067 -0.0081
    3TMC2    C613903   0.535   0.032  14.486  1.1748 -0.1921 -0.0073
    3TMC2     C13904   0.347   4.536  14.182 -0.6016  0.2069 -0.4680
    3TMC2     O13905   0.303   4.425  14.209  0.0577  0.2903 -0.3244
    3TMC2     H13906   0.461   4.445  14.406 -1.6624  1.0520  0.6178
    3TMC2    H113907   0.344   0.064  14.204  1.5397  1.3866 -0.5982
    3TMC2    H213908   0.577   0.089  14.568 -0.9206 -1.1319  1.7302
    3TMC2    C713909   0.463   0.243  14.388  0.4115 -0.4013 -0.8179
    3TMC2    C813910   0.597   4.549  14.587 -0.3250 -0.0188  0.2991
    3TMC2    O113911   0.515   0.290  14.488  0.8568  0.6419 -0.4224
    3TMC2    O213912   0.567   4.429  14.598  0.1121  0.1836  0.1623
    3TMC2    O513913   0.688   4.621  14.663  0.2945  0.3944  0.4940
    3TMC2    H513914   0.731   4.700  14.622 -0.9591  0.9228  0.2078
    4TMC2    C113915   0.072   0.771  13.592  0.4753 -0.9652 -0.5822
    4TMC2    C213916   0.157   0.861  13.541  0.1772 -0.1536 -0.2410
    4TMC2    C313917   0.276   0.868  13.616 -0.2199 -0.3010  0.8722
    4TMC2    C413918   0.090   0.710  13.713 -0.5692  0.3243 -0.2604
    4TMC2    C513919   0.198   0.731  13.792 -0.4347  0.2609  0.8923
    4TMC2    C613920   0.299   0.815  13.744  0.2096 -0.2091 -0.4235
    4TMC2     C13921   4.693   0.733  13.510 -0.8211  0.2327 -0.0118
    4TMC2     O13922   4.633   0.637  13.546 -0.2264 -0.5287 -0.8701
    4TMC2     H13923   0.151   0.900  13.441  0.0365 -0.1726 -0.2404
    4TMC2    H113924   0.013   0.643  13.751  1.9721 -1.8176  1.0921
    4TMC2    H213925   0.382   0.854  13.802  1.2128 -0.3863 -1.7330
    4TMC2    C713926   0.222   0.637  13.898  0.2281 -0.0444 -0.0217
    4TMC2    C813927   0.397   0.921  13.549 -0.1659  0.5204  0.1761
    4TMC2    O113928   0.181   0.523  13.884 -0.9715 -0.0229  0.4653
    4TMC2    O213929   0.506   0.923  13.611 -0.4266 -0.0282  0.5729
    4TMC2    O513930   0.356   1.005  13.455 -0.3091  0.0250 -0.1987
    4TMC2    H513931   0.297   0.961  13.391 -0.8068 -1.0091  0.9777
    5MPD2     C13932   4.418   0.678  13.090  0.0779  0.2591 -0.2648
    5MPD2    C113933   4.468   0.806  13.085  0.5664 -0.2403 -0.2895
    5MPD2    C213934   4.564   0.838  13.181 -0.0631 -0.0373  0.5611
    5MPD2    C313935   4.592   0.755  13.286  0.1920  0.2406  1.0540
    5MPD2    C413936   4.560   0.625  13.273 -0.0872  0.9972  0.3674
    5MPD2    C513937   4.474   0.588  13.175 -0.0467 -0.1885  1.2580
    5MPD2     H13938   4.612   0.935  13.186  2.5059 -1.3440  0.9992
    5MPD2    H113939   4.598   0.547  13.338 -1.6383 -1.5820 -1.8119
    5MPD2    H213940   4.332   0.654  13.029 -0.8817  0.1585  1.1318
    5MPD2    H313941   4.444   0.484  13.172 -0.9608  0.1746 -1.4097
    5MPD2     N13942   4.665   0.805  13.400 -0.0260  0.6551  0.2872
    5MPD2    H513943   4.714   0.894  13.391  0.8005  0.1567 -0.0953
    5MPD2    N113944   4.412   0.904  12.999  0.1166  0.2159 -0.9500
    5MPD2    H713945   4.351   0.871  12.925 -3.3453  0.1571  1.8928
    6MPD1     C13946   3.936   2.279  14.029  0.1805 -0.2597 -0.6698
    6MPD1    C113947   4.048   2.290  13.948 -0.8101  0.0603 -1.4469
    6MPD1    C213948   4.109   2.174  13.907  0.4157 -0.0109 -0.1783
    6MPD1    C313949   4.053   2.050  13.937  0.6535  0.3188 -0.3176
    6MPD1    C413950   3.946   2.046  14.025  0.4632 -0.2020  0.3984
    6MPD1    C513951   3.881   2.158  14.063 -0.1573 -0.2429 -0.3080
    6MPD1     H13952   4.208   2.178  13.864  0.8451 -0.6148  0.7531
    6MPD1    H113953   3.897   1.953  14.049  1.5014 -1.1474 -1.1147
    6MPD1    H213954   3.882   2.365  14.067 -0.0258 -0.3076 -0.8560
    6MPD1    H313955   3.791   2.162  14.122 -0.7883 -1.1687 -1.2085
    6MPD1     N13956   4.107   1.931  13.895 -0.4705  0.0472 -0.4202
    6MPD1    H513957   4.091   1.847  13.949  1.9158 -0.2569 -0.2147
    6MPD1    N113958   4.120   2.409  13.939 -0.2560 -0.7141  0.7202
    6MPD1    H613959   4.155   2.427  13.845 -0.9370  0.6299  0.7241
    6MPD1    H713960   4.070   2.491  13.972  0.0164  0.4249 -1.6928
    7MPD2     C13961   3.793   1.479  13.397 -0.1068 -0.4776  0.3525
    7MPD2    C113962   3.921   1.424  13.405  0.5813  0.6842 -1.0133
    7MPD2    C213963   3.965   1.355  13.294 -1.1202 -0.2751 -0.4834
    7MPD2    C313964   3.901   1.345  13.174  0.0632  0.4185  0.4249
    7MPD2    C413965   3.769   1.403  13.168 -0.2932  0.2113  0.1070
    7MPD2    C513966   3.720   1.467  13.281  0.1050 -0.4808 -0.4052
    7MPD2     H13967   4.062   1.306  13.298 -1.0635 -0.1265  0.0346
    7MPD2    H113968   3.700   1.390  13.086  0.3236  1.4599 -0.6122
    7MPD2    H213969   3.742   1.528  13.479 -0.0925 -0.3810  0.3034
    7MPD2    H313970   3.619   1.505  13.278  0.0487 -0.4961  1.1545
    7MPD2     N13971   3.963   1.290  13.062 -0.1531  0.1194 -0.3016
    7MPD2    H513972   3.924   1.312  12.971  0.4172 -1.2197 -0.8822
    7MPD2    N113973   4.015   1.449  13.509 -0.1978 -0.2579  0.0940
    7MPD2    H713974   4.100   1.397  13.490 -0.5665 -1.1383  0.8503
    8TMC3    C113975   4.141   1.196  12.942 -0.1015 -1.1357  0.2833
    8TMC3    C213976   4.224   1.087  12.944  0.3150  0.4288  0.1314
    8TMC3    C313977   4.357   1.109  12.912  0.1896 -0.0196  0.2790
    8TMC3    C413978   4.201   1.319  12.909  0.3802 -0.3918 -0.1555
    8TMC3    C513979   4.328   1.335  12.867 -0.4786  0.1130  0.3576
    8TMC3    C613980   4.410   1.221  12.856  0.1466 -0.1287  0.5356
    8TMC3     C13981   4.067   1.201  13.066  0.1059  0.2387  0.4417
    8TMC3     O13982   4.094   1.121  13.153  0.0299  0.4896  0.3141
    8TMC3     H13983   4.189   0.991  12.981  1.4142 -0.0873 -0.1579
    8TMC3    H113984   4.138   1.407  12.920 -0.2597 -0.6059 -2.0202
    8TMC3    H213985   4.516   1.227  12.833 -0.0793 -1.3289 -0.8194
    8TMC3    C713986   4.389   1.453  12.920  0.0227  0.7985 -0.8131
    8TMC3    C813987   4.447   1.036  12.994  0.1490  0.2931 -0.1356
    8TMC3    O113988   4.321   1.549  12.944 -0.0837  0.2418  0.1740
    8TMC3    O213989   4.515   1.103  13.072  0.2024  0.5498  0.2531
    9TMC3    C113990   4.226   1.774  13.773 -0.1039 -0.1835  0.3490
    9TMC3    C213991   4.343   1.746  13.709 -0.1828  0.3298  0.6128
    9TMC3    C313992   4.353   1.637  13.630 -0.3341 -0.3804  0.1712
    9TMC3    C413993   4.116   1.697  13.747  0.0393 -0.1901 -0.5453
    9TMC3    C513994   4.127   1.593  13.662  0.1953 -0.4741  0.3486
    9TMC3    C613995   4.246   1.553  13.609  0.2506 -0.4211  0.3626
    9TMC3     C13996   4.195   1.914  13.789 -0.3496  0.4657 -1.0824
    9TMC3     O13997   4.226   1.995  13.700  0.4925  0.2303  0.1609
    9TMC3     H13998   4.422   1.820  13.716 -1.4121  1.6118  1.1051
    9TMC3    H113999   4.022   1.735  13.786  0.0440 -0.9563  0.1899
    9TMC3    H214000   4.263   1.474  13.538  0.0734 -0.0162 -0.1284
    9TMC3    C714001   4.004   1.550  13.605 -0.0830  0.9532 -0.4048
    9TMC3    C814002   4.474   1.601  13.548 -0.3947  0.4590 -0.3884
    9TMC3    O114003   3.913   1.635  13.622 -0.9233 -0.4370  0.0288
    9TMC3    O214004   4.582   1.600  13.604  0.9925  0.4695  0.3213
   10MPD2     C14005   4.703   1.494  13.093  0.2807  0.1364 -0.0613
   10MPD2    C114006   4.566   1.482  13.076 -0.3950  0.4755  0.1421
   10MPD2    C214007   4.485   1.513  13.186 -0.1984 -0.2051 -0.3413
   10MPD2    C314008   4.536   1.549  13.308  0.6260 -0.7468 -0.2595
   10MPD2    C414009   4.669   1.559  13.320  0.5560 -0.1913 -0.8642
   10MPD2    C514010   0.016   1.535  13.214  0.2442 -0.3470 -0.0357
   10MPD2     H14011   4.378   1.503  13.168 -0.1789 -1.8194  0.4304
   10MPD2    H114012   4.713   1.583  13.416  0.5688 -1.9696 -0.4288
   10MPD2    H214013   0.041   1.463  13.021  0.5996  3.1806 -1.0176
   10MPD2    H314014   0.123   1.532  13.227  0.2080 -0.5870  0.2344
   10MPD2     N14015   4.447   1.575  13.415  0.4429  0.3175  0.1341
   10MPD2    H514016   4.351   1.578  13.382  1.5582  1.8447 -3.0621
   10MPD2    N114017   4.521   1.433  12.959  0.0244  0.0925  0.0886
   10MPD2    H714018   4.574   1.359  12.915  3.3533  1.6071  1.5073
   11MPD2     C14019   0.412   0.542  14.370 -0.2756 -0.0799 -0.0474
   11MPD2    C114020   0.387   0.455  14.272  0.3251 -0.1870  0.3062
   11MPD2    C214021   0.352   0.505  14.149 -0.4377 -0.7457  0.1970
   11MPD2    C314022   0.340   0.639  14.120  0.1797  0.1201 -0.0345
   11MPD2    C414023   0.361   0.725  14.221  0.1388  0.2244  0.4367
   11MPD2    C514024   0.398   0.672  14.348  0.3294  0.1514  0.7968
   11MPD2     H14025   0.351   0.435  14.066  1.2087 -1.8488  1.1189
   11MPD2    H114026   0.346   0.832  14.207 -1.7150 -0.0116  0.6585
   11MPD2    H214027   0.464   0.523  14.463  1.0227  1.3315 -0.4884
   11MPD2    H314028   0.435   0.728  14.433  0.2705  1.1799  0.1376
   11MPD2     N14029   0.292   0.691  14.001 -0.0088  0.1759 -0.0622
   11MPD2    H514030   0.317   0.789  13.987 -0.5370  0.2117 -0.7443
   11MPD2    N114031   0.404   0.313  14.282  0.0717  0.8520 -0.4548
   11MPD2    H714032   0.377   0.264  14.197 -0.7245 -0.0956  0.3456
    1MPD1     C14033   4.263   0.983  16.517 -1.3485 -0.1704  0.5834
    1MPD1    C114034   4.354   0.964  16.419  0.1851  0.2283  0.3805
    1MPD1    C214035   4.489   0.968  16.457  0.0815  0.3315 -0.3857
    1MPD1    C314036   4.537   0.998  16.587 -0.3303 -0.2323  0.5602
    1MPD1    C414037   4.438   1.009  16.677 -0.5179  0.9436  0.6179
    1MPD1    C514038   4.303   1.012  16.642  0.1218  0.6172  0.2008
    1MPD1     H14039   4.548   0.941  16.370  2.8931  2.6393  0.8000
    1MPD1    H114040   4.473   1.014  16.779  2.8897 -0.9800 -0.4610
    1MPD1    H214041   4.155   0.981  16.506 -1.3729  1.5187  0.4526
    1MPD1    H314042   4.223   1.007  16.715  1.6724  1.4458  1.9517
    1MPD1     N14043   4.677   1.000  16.629 -0.2781  0.0110  0.2435
    1MPD1    H514044   4.702   1.006  16.727 -0.8607  3.0218  0.1879
    1MPD1    N114045   4.318   0.955  16.282 -0.3285 -0.9095  0.4097
    1MPD1    H614046   4.389   0.902  16.231 -0.6922 -0.3740 -0.6549
    1MPD1    H714047   4.226   0.913  16.268 -0.1015 -1.2890  0.0619
    2MPD1     C14048   0.526   0.890  17.384 -0.3336  0.6550 -0.5893
    2MPD1    C114049   0.537   1.022  17.350  0.4347 -0.1191 -0.5403
    2MPD1    C214050   0.513   1.058  17.216  0.0083  1.0779 -0.3226
    2MPD1    C314051   0.461   0.971  17.124  0.2719  0.0024 -0.1626
    2MPD1    C414052   0.440   0.841  17.160  0.2599 -0.1183  0.4294
    2MPD1    C514053   0.471   0.807  17.289 -0.2436 -0.4335 -0.2625
    2MPD1     H14054   0.529   1.161  17.186 -1.2750  1.5303  0.5377
    2MPD1    H114055   0.399   0.761  17.099  0.3471  1.5145 -1.7634
    2MPD1    H214056   0.558   0.852  17.480 -0.9399  1.7706  0.0527
    2MPD1    H314057   0.449   0.704  17.315  0.1650 -0.2955  0.6070
    2MPD1     N14058   0.430   1.008  16.993 -0.9870 -0.2868  0.2597
    2MPD1    H514059   0.444   1.104  16.961  0.7531 -1.0462 -1.2054
    2MPD1    N114060   0.598   1.111  17.440 -0.0331 -0.1015 -0.0684
    2MPD1    H614061   0.562   1.206  17.426  0.6585  0.0779 -0.6120
    2MPD1    H714062   0.584   1.087  17.538  0.3464  2.9486  0.7445
    3TMC3    C114063   0.315   1.013  16.795  0.6759 -0.1657  0.2282
    3TMC3    C214064   0.423   1.076  16.735 -0.2914  0.3393 -0.4206
    3TMC3    C314065   0.401   1.110  16.607  1.3188 -0.4961 -0.3427
    3TMC3    C414066   0.195   0.987  16.738  0.2477  0.8564 -0.6617
    3TMC3    C514067   0.178   1.017  16.604  0.3147  0.0072  0.3207
    3TMC3    C614068   0.285   1.079  16.536  0.2106  0.5032 -0.7919
    3TMC3     C14069   0.349   0.936  16.909 -0.2702 -0.4751  0.5399
    3TMC3     O14070   0.281   0.836  16.922 -0.2364  0.5823  0.1986
    3TMC3     H14071   0.522   1.067  16.776 -0.8944  0.4791  1.0621
    3TMC3    H114072   0.115   0.964  16.808  0.7649  1.0201 -0.0146
    3TMC3    H214073   0.265   1.108  16.434  4.3017 -1.3566 -2.1660
    3TMC3    C714074   0.050   1.005  16.542 -0.0797 -0.1002  0.0292
    3TMC3    C814075   0.509   1.178  16.544  0.1930  0.6278  0.1948
    3TMC3    O114076   0.044   1.006  16.418 -0.1667 -0.5152  0.6099
    3TMC3    O214077   0.593   1.213  16.625 -0.2431 -0.0939  0.0154
    4MPD1     C14078   0.798   1.285  16.132 -0.2611 -0.1240  0.1263
    4MPD1    C114079   0.685   1.232  16.086 -0.0032  0.3188 -0.9580
    4MPD1    C214080   0.594   1.187  16.179 -0.2696 -0.1617 -0.0420
    4MPD1    C314081   0.613   1.201  16.316 -0.3496 -0.4543 -0.1197
    4MPD1    C414082   0.726   1.261  16.363 -0.5539 -0.2738  0.1455
    4MPD1    C514083   0.818   1.295  16.271  0.6794  0.3807  0.0900
    4MPD1     H14084   0.502   1.145  16.139 -0.4635  0.4908 -0.2836
    4MPD1    H114085   0.736   1.282  16.469 -0.5232  0.1981  0.0483
    4MPD1    H214086   0.877   1.315  16.064 -2.0879  1.9292 -1.0624
    4MPD1    H314087   0.904   1.351  16.307 -0.4894  0.9094  2.0636
    4MPD1     N14088   0.510   1.163  16.405  0.4520  0.0281  0.2102
    4MPD1    H514089   0.433   1.118  16.357  2.0123 -0.1535 -2.1548
    4MPD1    N114090   0.673   1.206  15.950  0.3893  0.4005  0.3554
    4MPD1    H614091   0.725   1.264  15.884 -0.3977 -0.0268 -0.6376
    4MPD1    H714092   0.577   1.224  15.920  0.1893  1.4360  1.6301
    1TCq1    O114093   0.355   1.018  12.247  0.0392 -0.0770 -0.0763
    1TCq1    C114094   0.279   1.121  12.265 -0.0315  0.0724 -0.7251
    1TCq1    O214095   0.301   1.214  12.345 -0.0844 -0.4676  0.0802
    1TCq1    C214096   0.194   1.138  12.148 -0.0274 -0.1801  0.1349
    1TCq1    C314097   0.152   1.024  12.082 -1.2260 -0.1639  0.5536
    1TCq1    C414098   0.065   1.038  11.972 -0.1032  0.8131  0.1194
    1TCq1    C514099   0.005   1.157  11.963 -0.0914  0.2052  0.0798
    1TCq1    C614100   0.035   1.263  12.042 -0.0936  0.0700  0.0831
    1TCq1    C714101   0.135   1.259  12.133  0.3331  0.1417 -0.1592
    1TCq1    C814102   4.702   1.393  12.035  0.7349  0.1254 -0.2894
    1TCq1    O414103   4.720   1.475  12.124 -0.1552  0.1146  0.5538
    1TCq1    C914104   0.006   0.915  11.925 -0.4115  0.2542  0.2368
    1TCq1    O514105   0.008   0.815  12.002 -0.3420  0.4404  0.5354
    1TCq1    O614106   4.654   0.936  11.838  0.5901 -0.3525  0.5308
    1TCq1    H114107   0.329   0.954  12.177 -1.7158 -0.4632  0.9055
    1TCq1    H214108   0.195   0.925  12.095  2.5424  1.7236  2.6046
    1TCq1    H314109   4.663   1.157  11.888  0.1234  0.8081 -0.1437
    1TCq1    H414110   0.176   1.354  12.166  0.3841 -0.1203  0.5332
    2MPD1     C14111   4.347   1.716  11.867  0.0161  0.2902 -0.2046
    2MPD1    C114112   4.337   1.599  11.800 -0.1836 -0.9601  0.2811
    2MPD1    C214113   4.435   1.502  11.809 -0.7503  0.1627 -0.0238
    2MPD1    C314114   4.538   1.519  11.901  0.5005 -1.0355  0.1861
    2MPD1    C414115   4.536   1.630  11.981 -0.3555  0.1360  0.1918
    2MPD1    C514116   4.445   1.731  11.962  0.0961 -0.2990 -0.1054
    2MPD1     H14117   4.430   1.413  11.748  0.2429  0.0058  0.1165
    2MPD1    H114118   4.611   1.651  12.057  0.0820 -0.6885 -0.0154
    2MPD1    H214119   4.288   1.805  11.846  0.3472  0.4998 -0.2501
    2MPD1    H314120   4.444   1.815  12.030  0.4541  1.3928 -2.1799
    2MPD1     N14121   4.623   1.405  11.920  0.2446  0.3800  0.4722
    2MPD1    H514122   4.633   1.338  11.844  0.2712  0.7578  0.1423
    2MPD1    N114123   4.239   1.590  11.699  0.5163 -0.5377 -0.5113
    2MPD1    H614124   4.154   1.646  11.707  1.0418  0.2198 -0.2594
    2MPD1    H714125   4.212   1.495  11.675 -0.4166  0.1049 -1.9818
    1TMC1    C114126   3.178   2.306   2.085  0.2373  0.8563 -0.2233
    1TMC1    C214127   3.259   2.258   1.991  0.2842  0.1253  0.2844
    1TMC1    C314128   3.365   2.335   1.941 -0.1328 -0.0886 -0.0789
    1TMC1    C414129   3.189   2.441   2.114 -0.5726 -0.5687 -0.6134
    1TMC1    C514130   3.279   2.516   2.052  0.6262 -0.0403  0.1897
    1TMC1    C614131   3.370   2.471   1.967  0.1689 -0.7250  0.4315
    1TMC1     C14132   3.065   2.225   2.135  0.0278 -0.0402  0.3678
    1TMC1     O14133   2.995   2.278   2.222  0.1260  0.1573 -0.0438
    1TMC1     H14134   3.243   2.165   1.938  0.1140 -0.3634  1.2122
    1TMC1    H114135   3.110   2.489   2.170 -2.1444  0.3848 -3.6580
    1TMC1    H214136   3.449   2.533   1.927 -1.9244  0.1197 -2.3884
    1TMC1    C714137   3.264   2.660   2.082 -0.3880 -0.2060  0.2770
    1TMC1    C814138   3.448   2.275   1.838 -0.1052  0.9142  0.2519
    1TMC1    O114139   3.192   2.701   2.168 -0.2973  0.2139  0.8057
    1TMC1    O214140   3.516   2.354   1.769 -0.2410  0.1954 -0.3990
    1TMC1    O314141   3.294   2.719   1.957 -0.1798 -0.0354  0.3607
    1TMC1    H314142   3.360   2.673   1.901 -0.5434 -1.5832  1.2067
    1TMC1    O514143   3.484   2.158   1.891  0.3392 -0.1793 -0.1293
    1TMC1    H514144   3.425   2.119   1.959 -1.1979 -0.0920 -1.4105
    2MPD1     C14145   2.835   1.782   2.204  0.4574  0.1261 -0.0085
    2MPD1    C114146   2.943   1.759   2.126  0.5000  0.1923 -0.1880
    2MPD1    C214147   3.020   1.869   2.087  0.5737  0.4392  0.3518
    2MPD1    C314148   2.985   1.990   2.135  0.5131 -0.2002 -0.0316
    2MPD1    C414149   2.868   2.019   2.212  0.1511  0.8299  0.0864
    2MPD1    C514150   2.801   1.909   2.251  0.5632  0.2066 -0.7929
    2MPD1     H14151   3.110   1.845   2.030  0.3435  1.7379 -0.5528
    2MPD1    H114152   2.825   2.117   2.233  0.2792  0.9295 -0.1158
    2MPD1    H214153   2.771   1.701   2.236 -0.8897  1.4187  0.6199
    2MPD1    H314154   2.718   1.929   2.318  1.5791  2.4000 -0.1850
    2MPD1     N14155   3.072   2.093   2.089  0.0619  0.0375  0.0755
    2MPD1    H514156   3.147   2.068   2.026  1.1255  2.4372  0.3698
    2MPD1    N114157   2.976   1.622   2.097 -0.0717  0.4077 -0.4936
    2MPD1    H614158   2.899   1.556   2.094 -0.2455  0.6234 -0.8580
    2MPD1    H714159   3.042   1.604   2.022  0.5810 -0.3072  0.2570
    1MPD1     C14160   0.807   2.051  11.970  0.0543  0.0408  0.3979
    1MPD1    C114161   0.824   2.028  12.107  0.0112  0.5411  0.3700
    1MPD1    C214162   0.951   2.037  12.157  0.0178 -1.1190  0.5713
    1MPD1    C314163   1.049   2.095  12.075 -0.2536  0.3847 -0.0820
    1MPD1    C414164   1.023   2.132  11.948  0.4945 -0.2389  0.1301
    1MPD1    C514165   0.902   2.097  11.892 -0.6117  0.1472 -0.1395
    1MPD1     H14166   0.975   2.024  12.262 -0.9281 -1.4586  0.7475
    1MPD1    H114167   1.097   2.172  11.880 -1.8225  0.7700 -1.8136
    1MPD1    H214168   0.720   2.028  11.911  0.5459  0.6512 -0.5575
    1MPD1    H314169   0.905   2.124  11.787 -0.8849 -1.1480 -0.4809
    1MPD1     N14170   1.174   2.098  12.136  0.4071  0.2048 -0.0903
    1MPD1    H514171   1.183   2.089  12.236 -1.6519  0.1095  0.0843
    1MPD1    N114172   0.724   1.961  12.186 -0.2939  0.0076 -0.3589
    1MPD1    H614173   0.633   1.992  12.153 -0.0947  1.1348  0.1310
    1MPD1    H714174   0.735   1.980  12.286  0.3543 -2.5447  0.0457
    2MPD1     C14175   1.244   1.841  10.584  0.0143  0.0944  0.0980
    2MPD1    C114176   1.281   1.710  10.554  0.6340  0.5839 -0.2955
    2MPD1    C214177   1.262   1.620  10.659  0.2790  0.1837 -0.9403
    2MPD1    C314178   1.223   1.663  10.787 -0.2071  0.3851  0.4563
    2MPD1    C414179   1.194   1.796  10.808  0.0215  0.1372 -0.2569
    2MPD1    C514180   1.215   1.888  10.708 -0.1686 -0.7221 -0.0262
    2MPD1     H14181   1.275   1.519  10.622 -0.0041  0.8172 -2.7900
    2MPD1    H114182   1.174   1.840  10.905 -0.8479 -0.2165 -0.2755
    2MPD1    H214183   1.247   1.914  10.504 -3.0034  0.1661  0.0315
    2MPD1    H314184   1.195   1.991  10.734 -1.9881 -1.0953  0.0335
    2MPD1     N14185   1.213   1.572  10.903 -0.0953 -0.8784 -0.3707
    2MPD1    H514186   1.180   1.610  10.992  2.1702 -0.0317  0.1050
    2MPD1    N114187   1.297   1.661  10.423  0.1851 -0.1624 -0.0728
    2MPD1    H614188   1.342   1.721  10.354  1.1441  1.9467  2.3774
    2MPD1    H714189   1.345   1.571  10.420  1.5857  0.5778 -0.0458
    3MPD1     C14190   0.822   1.451  11.798 -0.0469 -0.3436 -0.0518
    3MPD1    C114191   0.829   1.318  11.769 -0.7749  0.9295 -0.0973
    3MPD1    C214192   0.900   1.282  11.652  0.2241 -0.0630 -0.5667
    3MPD1    C314193   0.943   1.382  11.566  0.1660  0.3619  1.1061
    3MPD1    C414194   0.926   1.514  11.590 -0.0504  0.2264  0.3240
    3MPD1    C514195   0.863   1.544  11.709  0.3331 -0.5524 -0.4680
    3MPD1     H14196   0.933   1.179  11.640 -1.9226 -0.6795 -1.2008
    3MPD1    H114197   0.965   1.591  11.525  1.0614 -1.0220 -0.5036
    3MPD1    H214198   0.779   1.484  11.892 -1.3948  0.3186 -0.8936
    3MPD1    H314199   0.827   1.645  11.724 -1.4560 -0.9944 -1.7928
    3MPD1     N14200   1.000   1.344  11.441 -0.5969  1.1561  0.2708
    3MPD1    H514201   1.019   1.249  11.411 -0.5694  1.1462  0.3191
    3MPD1    N114202   0.813   1.224  11.868 -0.0426 -0.5917 -0.1100
    3MPD1    H614203   0.802   1.128  11.835  0.3171 -1.1008  1.2340
    3MPD1    H714204   0.733   1.247  11.926  0.4369 -1.2968  0.8376
    4MPD2     C14205   1.928   2.056  11.852 -0.8560 -0.9381 -0.0883
    4MPD2    C114206   1.858   1.981  11.945  0.0883  0.0376  0.6538
    4MPD2    C214207   1.874   1.844  11.949 -0.5923 -0.5029  0.0198
    4MPD2    C314208   1.970   1.777  11.874  0.3075  0.4976 -0.5182
    4MPD2    C414209   2.054   1.858  11.793  0.7847  0.4255  0.2998
    4MPD2    C514210   2.029   1.992  11.782 -0.3346 -0.1625 -0.4568
    4MPD2     H14211   1.811   1.785  12.015 -1.4103  0.0643 -0.2569
    4MPD2    H114212   2.128   1.811  11.729  1.4578  4.1556 -1.6475
    4MPD2    H214213   1.913   2.161  11.831 -1.2541 -0.8223  0.7842
    4MPD2    H314214   2.094   2.039  11.709 -1.2132 -0.3304 -1.3411
    4MPD2     N14215   1.981   1.635  11.872  0.0741  0.1893 -0.2340
    4MPD2    H514216   2.060   1.605  11.816 -0.2895 -1.7944  0.3186
    4MPD2    N114217   1.772   2.035  12.042 -0.6514 -0.1974  0.3929
    4MPD2    H714218   1.715   1.968  12.092 -0.8654 -0.1072  0.2726
    5TMC3    C114219   1.642   2.182  12.161 -0.0485  0.1272  0.1626
    5TMC3    C214220   1.516   2.192  12.100  0.2831 -0.1216 -0.1739
    5TMC3    C314221   1.407   2.132  12.155 -0.6720  0.9790 -0.1830
    5TMC3    C414222   1.650   2.089  12.255 -1.0903 -0.3933 -1.0496
    5TMC3    C514223   1.540   2.012  12.299  0.3577  0.1812  0.6629
    5TMC3    C614224   1.418   2.051  12.259  0.8447  0.1644 -0.2096
    5TMC3     C14225   1.748   2.168  12.069  0.2331 -0.3009 -0.0014
    5TMC3     O14226   1.818   2.265  12.041 -0.1346  0.4667  0.1954
    5TMC3     H14227   1.516   2.227  11.998  1.3084 -0.0699 -0.1544
    5TMC3    H114228   1.750   2.069  12.291 -1.2376 -1.3835 -1.1963
    5TMC3    H214229   1.339   1.995  12.308  1.0052  1.0499  1.0726
    5TMC3    C714230   1.567   1.872  12.285 -0.6017 -0.1651  1.1077
    5TMC3    C814231   1.292   2.127  12.071  0.0156 -0.5500 -0.9554
    5TMC3    O114232   1.681   1.847  12.248 -0.1309  0.4689 -0.5262
    5TMC3    O214233   1.313   2.130  11.949  0.1754 -0.0954 -0.4739
    6TMC3    C114234   1.226   1.383  11.041  0.1972 -0.1908  0.0308
    6TMC3    C214235   1.117   1.419  11.109  0.5355 -1.2229 -0.6835
    6TMC3    C314236   1.110   1.371  11.236  0.1844  0.4899  1.1411
    6TMC3    C414237   1.331   1.316  11.088  0.5363 -0.2020 -0.5255
    6TMC3    C514238   1.336   1.292  11.226 -0.0600  0.0386  0.2034
    6TMC3    C614239   1.225   1.323  11.301 -0.0085  0.0072  0.2349
    6TMC3     C14240   1.240   1.438  10.908  0.0037 -0.1910  0.1564
    6TMC3     O14241   1.301   1.374  10.824 -0.5670  0.1513  0.0373
    6TMC3     H14242   1.038   1.473  11.057 -0.0171  0.3591  1.7424
    6TMC3    H114243   1.416   1.305  11.022  0.3704  0.9180 -0.9271
    6TMC3    H214244   1.228   1.297  11.406 -0.3885  0.0826  0.2645
    6TMC3    C714245   1.453   1.245  11.301  0.1645  0.0272  0.9993
    6TMC3    C814246   1.014   1.424  11.332  0.7339 -0.1573 -0.5441
    6TMC3    O114247   1.431   1.235  11.421 -0.0555 -0.1319  0.0823
    6TMC3    O214248   0.962   1.531  11.300  0.0799 -0.0597 -0.4004
    7MPD2     C14249   1.474   1.367  12.307  0.1849 -0.5848  0.2267
    7MPD2    C114250   1.572   1.442  12.237 -0.5106  0.7888 -0.3001
    7MPD2    C214251   1.570   1.577  12.244  0.6262  0.2314  0.1543
    7MPD2    C314252   1.472   1.649  12.312  0.5161  0.5222 -0.4909
    7MPD2    C414253   1.369   1.579  12.369  0.2835 -0.2989 -1.0933
    7MPD2    C514254   1.377   1.438  12.379 -0.1831 -0.5198 -0.2414
    7MPD2     H14255   1.638   1.640  12.188  0.3990 -1.1169 -1.6378
    7MPD2    H114256   1.286   1.632  12.413  2.3986  2.4340 -0.3910
    7MPD2    H214257   1.479   1.259  12.311 -0.5128 -0.5226  2.6465
    7MPD2    H314258   1.300   1.384  12.432 -1.0982  0.5165 -0.5070
    7MPD2     N14259   1.466   1.786  12.318  0.9750 -0.1726  0.0347
    7MPD2    H514260   1.398   1.824  12.383  1.0772  0.3845 -0.1858
    7MPD2    N114261   1.680   1.384  12.174 -0.6208  0.4352  1.2969
    7MPD2    H714262   1.741   1.449  12.126  0.2626 -1.3841 -0.0540
    8TMC3    C114263   1.803   1.233  12.049  0.5398  1.1647  0.1672
    8TMC3    C214264   1.779   1.173  11.931 -0.2607 -0.7545 -0.3016
    8TMC3    C314265   1.832   1.229  11.817  0.2504 -0.2018 -0.3395
    8TMC3    C414266   1.892   1.336  12.056 -0.1390 -0.1238 -0.2449
    8TMC3    C514267   1.945   1.397  11.942 -0.1046 -0.4642 -0.6252
    8TMC3    C614268   1.920   1.340  11.819  0.5494  0.2999 -0.2999
    8TMC3     C14269   1.687   1.254  12.129  0.0034 -0.2342  0.2285
    8TMC3     O14270   1.614   1.160  12.155 -0.0188 -0.4146 -0.2952
    8TMC3     H14271   1.690   1.111  11.920 -1.8084  1.6919 -1.6334
    8TMC3    H114272   1.922   1.381  12.150 -1.0659  0.6379 -0.3138
    8TMC3    H214273   1.946   1.381  11.721 -0.8511  1.3718 -0.2280
    8TMC3    C714274   1.921   1.541  11.950  0.1640 -0.2070 -0.2702
    8TMC3    C814275   1.785   1.176  11.689  0.3120 -0.5552 -0.7019
    8TMC3    O114276   1.841   1.565  12.037  0.3078  0.5353 -0.0136
    8TMC3    O214277   1.661   1.159  11.688 -0.4181 -0.4257  0.0992
    9MPD2     C14278   1.959   1.228  11.365  0.0790  0.6073  0.0199
    9MPD2    C114279   1.854   1.199  11.451  0.3720 -0.7457 -0.2914
    9MPD2    C214280   1.727   1.204  11.408  0.4690 -0.2007  0.3830
    9MPD2    C314281   1.699   1.226  11.276 -0.1523 -0.9613  0.1754
    9MPD2    C414282   1.804   1.238  11.187 -0.4545  0.1682  0.0140
    9MPD2    C514283   1.934   1.225  11.226 -0.1423 -0.3382 -0.2978
    9MPD2     H14284   1.644   1.191  11.477  0.4381  1.5408  0.6721
    9MPD2    H114285   1.786   1.251  11.081 -0.1434 -2.4931 -0.3685
    9MPD2    H214286   2.062   1.237  11.400 -0.5732 -0.3838  2.1673
    9MPD2    H314287   2.016   1.247  11.159  0.4954 -0.8282  0.3229
    9MPD2     N14288   1.570   1.250  11.227 -0.1744  0.2299  0.1386
    9MPD2    H514289   1.564   1.265  11.127 -0.8904  0.0314  0.1510
    9MPD2    N114290   1.885   1.189  11.591  0.3823  0.2659 -0.1192
    9MPD2    H714291   1.981   1.205  11.620  0.4314 -0.4749  0.1107
    1MPD1     C14292   0.936   0.112  17.623 -0.7543  0.4007 -0.8345
    1MPD1    C114293   0.803   0.108  17.579 -0.0195  0.1341  0.3197
    1MPD1    C214294   0.784   0.123  17.440  0.0732 -0.2366  0.6297
    1MPD1    C314295   0.885   0.180  17.355  0.0062  0.6926 -0.6979
    1MPD1    C414296   1.010   0.191  17.414  0.0973 -0.4904  0.0517
    1MPD1    C514297   1.032   0.152  17.543  0.5429  0.8293 -0.4002
    1MPD1     H14298   0.687   0.115  17.392 -0.1668 -1.3788  1.2900
    1MPD1    H114299   1.096   0.215  17.352 -1.1667 -3.0219 -2.7155
    1MPD1    H214300   0.967   0.073  17.719 -1.0537 -0.2510 -1.0043
    1MPD1    H314301   1.132   0.147  17.585  0.2482  2.2305  0.4560
    1MPD1     N14302   0.862   0.238  17.226  0.2573 -0.0369  0.2235
    1MPD1    H514303   0.929   0.306  17.192  1.1787 -0.5467  1.0132
    1MPD1    N114304   0.698   0.053  17.659 -0.1937 -0.0196  0.7560
    1MPD1    H614305   0.703   0.052   0.015 -1.0279  0.9481  0.8116
    1MPD1    H714306   0.607   0.089  17.632 -0.4063  0.4653  2.0980
    2TMC2    C114307   0.666   0.336  16.821 -0.4188  0.0091 -0.2173
    2TMC2    C214308   0.766   0.425  16.788 -0.1414  0.2145 -0.6771
    2TMC2    C314309   0.867   0.438  16.879  0.5645  0.0207  0.0832
    2TMC2    C414310   0.656   0.272  16.945 -0.3816  0.0249 -0.0691
    2TMC2    C514311   0.755   0.297  17.035 -0.5724 -0.4260 -0.2947
    2TMC2    C614312   0.861   0.376  17.006  0.1492  0.2473 -0.0715
    2TMC2     C14313   0.552   0.330  16.735  0.1300 -0.9669 -0.3963
    2TMC2     O14314   0.445   0.285  16.777  0.4452 -0.3512 -0.1486
    2TMC2     H14315   0.766   0.489  16.701  1.2187  2.3306  0.9009
    2TMC2    H114316   0.569   0.215  16.976  0.9695 -2.0690 -0.1090
    2TMC2    H214317   0.936   0.411  17.077  1.8749 -0.1495 -1.7003
    2TMC2    C714318   0.752   0.215  17.150  0.2314  0.1537  0.0620
    2TMC2    C814319   0.986   0.512  16.851 -0.3799 -0.6253 -0.3576
    2TMC2    O114320   0.665   0.130  17.174 -0.1132  0.4211 -0.1737
    2TMC2    O214321   1.065   0.518  16.941 -0.4347  0.1663 -0.1704
    2TMC2    O514322   1.013   0.531  16.721  0.3403 -0.2612 -0.6304
    2TMC2    H514323   0.953   0.497  16.651 -0.7374  0.0117  0.1708
    3MPD1     C14324   0.340   0.381  16.279  0.2192 -0.2442  0.0117
    3MPD1    C114325   0.473   0.421  16.272 -0.0495 -0.0243 -0.3926
    3MPD1    C214326   0.545   0.427  16.388  0.2056 -0.2513  0.4568
    3MPD1    C314327   0.491   0.388  16.506  0.3299  0.2094  0.1270
    3MPD1    C414328   0.360   0.343  16.513  0.2160  0.5081  0.3340
    3MPD1    C514329   0.286   0.337  16.397 -0.5366  0.1378 -0.2579
    3MPD1     H14330   0.651   0.445  16.376  0.3420 -2.2205 -1.4529
    3MPD1    H114331   0.308   0.311  16.602  0.7919  2.3689  1.3531
    3MPD1    H214332   0.285   0.350  16.191  0.9616 -0.9651 -0.2020
    3MPD1    H314333   0.182   0.310  16.387 -0.3884 -0.4719 -0.1413
    3MPD1     N14334   0.585   0.384  16.612 -0.0141  0.3708 -0.5292
    3MPD1    H514335   0.682   0.409  16.597  0.3037 -0.1189  0.6785
    3MPD1    N114336   0.534   0.426  16.146 -0.2949  0.4852  0.3169
    3MPD1    H614337   0.477   0.468  16.074  0.6878  0.6783 -0.3557
    3MPD1    H714338   0.633   0.448  16.137  0.4237 -2.0956  1.8068
    1TMC1    C114339   3.572   4.130  13.687 -0.6557  0.7775 -0.0032
    1TMC1    C214340   3.585   3.997  13.685 -0.2849  0.4056  0.0092
    1TMC1    C314341   3.489   3.924  13.749 -1.2275  0.2769  0.3530
    1TMC1    C414342   3.474   4.191  13.760  0.4520  0.3340 -0.4978
    1TMC1    C514343   3.398   4.119  13.845  0.0439  0.3734  0.0149
    1TMC1    C614344   3.393   3.983  13.826  0.3996  0.3483  0.1550
    1TMC1     C14345   3.642   4.218  13.593 -0.8098 -0.0329  0.5696
    1TMC1     O14346   3.584   4.311  13.546  0.1654 -0.0372  0.7725
    1TMC1     H14347   3.653   3.955  13.612  0.8313  1.3246  0.5139
    1TMC1    H114348   3.477   4.299  13.775 -0.6191  0.3646 -0.5190
    1TMC1    H214349   3.336   3.907  13.877 -0.5830 -0.3197 -1.9334
    1TMC1    C714350   3.283   4.184  13.890 -0.1527 -0.1644  0.7884
    1TMC1    C814351   3.520   3.783  13.776  0.7950  0.8102  0.2580
    1TMC1    O114352   3.270   4.238  13.999  0.5809  1.1270 -0.5098
    1TMC1    O214353   3.523   3.740  13.892 -0.1618 -0.2630  0.2056
    1TMC1    O314354   3.190   4.101  13.845 -0.0617  0.2250 -0.0721
    1TMC1    H314355   3.206   4.067  13.754  3.4008  0.3092  0.5096
    1TMC1    O514356   3.616   3.741  13.687 -0.5772  0.7698 -0.1530
    1TMC1    H514357   3.599   3.778  13.598 -0.2910 -1.3160 -1.0762
    2MPD2     C14358   3.864   4.373  13.459 -0.2942 -0.1245  0.0374
    2MPD2    C114359   3.880   4.263  13.544  0.5858  0.7538 -0.5486
    2MPD2    C214360   4.013   4.236  13.581 -0.5350 -0.1856  0.6679
    2MPD2    C314361   4.118   4.313  13.538 -0.1583 -0.4286 -0.0101
    2MPD2    C414362   4.101   4.402  13.441  0.9710 -0.0928 -0.2558
    2MPD2    C514363   3.978   4.436  13.410  0.3721 -0.6655 -0.3740
    2MPD2     H14364   4.037   4.162  13.656 -1.0100  0.1728  1.1713
    2MPD2    H114365   4.182   4.467  13.410  0.8527  0.9848  1.6970
    2MPD2    H214366   3.768   4.420  13.445 -0.7906 -1.0701  0.2279
    2MPD2    H314367   3.967   4.522  13.346  0.5093 -0.1416  0.3005
    2MPD2     N14368   4.242   4.282  13.599  0.2507 -0.0985 -0.7013
    2MPD2    H514369   4.248   4.209  13.669 -1.9952  0.9473  0.5624
    2MPD2    N114370   3.775   4.192  13.602 -0.7523 -0.2103  0.0736
    2MPD2    H714371   3.807   4.109  13.652 -3.4252 -0.5645  1.1571
    3TCq1    O114372   4.249   4.383  14.075 -0.2667 -0.3982 -0.2019
    3TCq1    C114373   4.380   4.396  14.070 -0.0650 -0.2889  0.1640
    3TCq1    O214374   4.448   4.413  14.173  0.6378 -0.6704  0.0151
    3TCq1    C214375   4.436   4.355  13.944  0.6730 -0.3865 -0.0871
    3TCq1    C314376   4.528   4.258  13.944 -0.5616 -0.2156  0.6348
    3TCq1    C414377   4.570   4.210  13.827 -0.4788 -0.2313  0.4227
    3TCq1    C514378   4.512   4.253  13.709 -0.0192  0.2604  0.6039
    3TCq1    C614379   4.416   4.347  13.715  0.3924  0.2800  0.5934
    3TCq1    C714380   4.373   4.404  13.835 -0.2332 -0.1453  0.2288
    3TCq1    C814381   4.345   4.371  13.595  0.1270 -0.6203  0.6317
    3TCq1    O414382   4.348   4.489  13.559  0.1831  0.1308  0.1398
    3TCq1    C914383   4.655   4.090  13.826 -0.3138 -0.2413 -0.1184
    3TCq1    O514384   4.675   4.030  13.720  0.3603  0.0063 -0.0876
    3TCq1    O614385   4.703   4.047  13.935 -1.1964 -0.3851  0.7768
    3TCq1    H114386   4.199   4.358  13.994  1.5128  1.3314 -1.8277
    3TCq1    H214387   4.573   4.208  14.029 -0.1888 -0.9798 -0.0168
    3TCq1    H314388   4.541   4.199  13.619  0.2820 -0.6061  1.2155
    3TCq1    H414389   4.310   4.492  13.843  0.3649  0.4310 -1.3770
    1MPD2     C14390   3.882   0.403  15.010 -0.1044 -0.5693 -0.0907
    1MPD2    C114391   3.767   0.342  14.962  0.2554 -0.5759 -0.3191
    1MPD2    C214392   3.693   0.256  15.039  0.5861  0.3186 -0.7256
    1MPD2    C314393   3.737   0.221  15.166  0.4081 -0.7238  0.9231
    1MPD2    C414394   3.852   0.284  15.217 -0.6593  0.0894  0.2011
    1MPD2    C514395   3.922   0.374  15.141  1.3820  0.3308  0.3487
    1MPD2     H14396   3.598   0.219  15.004  0.4749  0.3963 -0.5096
    1MPD2    H114397   3.888   0.261  15.316  2.1989  0.7048 -0.7159
    1MPD2    H214398   3.944   0.471  14.953 -2.6583  0.9666 -1.0583
    1MPD2    H314399   4.008   0.425  15.181  0.5077  0.4104  2.1057
    1MPD2     N14400   3.671   0.120  15.237 -0.3576 -0.0025 -0.2389
    1MPD2    H514401   3.713   0.081  15.320 -0.4380  0.4017 -0.0100
    1MPD2    N114402   3.726   0.371  14.830 -0.2032  0.1758 -0.2102
    1MPD2    H714403   3.776   0.435  14.770  2.8313 -0.4377  1.6617
    2TMC3    C114404   3.607   0.362  14.623  0.1185 -0.1766  0.6223
    2TMC3    C214405   3.496   0.280  14.573  1.2025 -0.4140  0.2702
    2TMC3    C314406   3.379   0.345  14.543  0.1353  0.5732  0.4170
    2TMC3    C414407   3.587   0.493  14.635 -0.2848 -0.1896  0.0854
    2TMC3    C514408   3.470   0.552  14.597  0.1660 -0.0965  0.4365
    2TMC3    C614409   3.371   0.481  14.538 -0.4785  0.1992 -0.0950
    2TMC3     C14410   3.633   0.304  14.757 -0.3932 -0.0620 -0.4285
    2TMC3     O14411   3.580   0.199  14.781  0.6810  0.3385  0.1649
    2TMC3     H14412   3.513   0.173  14.575  0.4939 -0.4923  2.2432
    2TMC3    H114413   3.649   0.556  14.699 -0.5243 -1.4998  1.6007
    2TMC3    H214414   3.274   0.516  14.503  0.2299  1.2412 -1.0073
    2TMC3    C714415   3.471   0.695  14.564 -0.0403  0.4423 -0.2414
    2TMC3    C814416   3.257   0.283  14.592  0.2855 -0.2377  0.4295
    2TMC3    O114417   3.401   0.734  14.470  0.3334  0.1852 -0.4123
    2TMC3    O214418   3.143   0.312  14.560  0.0718 -0.4643  0.0566
    3TCq1    O114419   4.142   1.213  15.274  0.1104 -0.3776  0.1062
    3TCq1    C114420   4.023   1.166  15.230  0.4584  0.1002 -0.4219
    3TCq1    O214421   3.981   1.050  15.237  0.0397  0.1453  0.1879
    3TCq1    C214422   3.962   1.272  15.150  0.6708 -0.5662 -0.4082
    3TCq1    C314423   3.987   1.396  15.191 -0.5050 -0.6005 -0.2197
    3TCq1    C414424   3.957   1.496  15.100 -0.1191 -0.3818 -0.1886
    3TCq1    C514425   3.923   1.464  14.973 -0.1406 -0.2009 -0.0483
    3TCq1    C614426   3.893   1.331  14.937  0.3970  0.7365 -0.1078
    3TCq1    C714427   3.920   1.229  15.032 -0.0024 -0.1262 -0.1520
    3TCq1    C814428   3.804   1.301  14.827  0.1064  0.4607  0.0152
    3TCq1    O414429   3.747   1.396  14.772  0.8914 -0.2904 -0.1633
    3TCq1    C914430   3.959   1.639  15.134  0.0300 -0.2674 -0.1644
    3TCq1    O514431   4.018   1.678  15.242 -0.3544 -0.1740  0.3801
    3TCq1    O614432   3.900   1.716  15.045 -0.2826  0.3156 -0.1958
    3TCq1    H114433   4.164   1.306  15.253 -0.8842 -0.1804 -0.0310
    3TCq1    H214434   4.005   1.423  15.295 -0.3596 -2.6380  0.2935
    3TCq1    H314435   3.893   1.548  14.911 -0.3038  1.0401  1.7115
    3TCq1    H414436   3.918   1.124  15.005 -0.1828  0.2184 -1.4473
    4MPD2     C14437   3.635   1.178  14.618  0.3712  0.0133 -0.0348
    4MPD2    C114438   3.685   1.110  14.725 -0.0241 -0.2233  0.3804
    4MPD2    C214439   3.656   0.975  14.741 -0.1716  0.0660  0.0843
    4MPD2    C314440   3.582   0.907  14.645  1.3237 -0.6074 -0.1119
    4MPD2    C414441   3.527   0.983  14.550  0.0562  0.0083 -0.1077
    4MPD2    C514442   3.551   1.118  14.533 -0.1248 -0.0021 -0.0750
    4MPD2     H14443   3.687   0.919  14.828  1.3758  1.3109  0.3380
    4MPD2    H114444   3.482   0.930  14.467 -0.3569 -0.2274  0.2637
    4MPD2    H214445   3.655   1.283  14.599 -2.9435  0.1792 -2.5608
    4MPD2    H314446   3.518   1.179  14.449  0.9044 -0.3422 -0.7283
    4MPD2     N14447   3.551   0.772  14.656  0.0995  0.3093  0.3269
    4MPD2    H514448   3.604   0.728  14.731 -1.2717  0.2241  1.2524
    4MPD2    N114449   3.771   1.171  14.820  0.1428 -0.5566 -0.4550
    4MPD2    H714450   3.800   1.111  14.897 -0.0968  0.0029  0.0736
    5TMC2    C114451   3.312   4.583  15.281  0.0824 -0.7249 -0.0294
    5TMC2    C214452   3.274   4.637  15.403  0.3208  0.1975 -0.4411
    5TMC2    C314453   3.365   4.716  15.463 -1.0581  0.5474 -0.5372
    5TMC2    C414454   3.436   4.591  15.235  1.0386  0.2628 -0.1138
    5TMC2    C514455   3.522   4.681  15.290  0.0762  0.3641  0.4967
    5TMC2    C614456   3.488   0.001  15.408 -0.6027  0.0262  0.3930
    5TMC2     C14457   3.201   4.611  15.190 -0.3399 -0.7049  0.3004
    5TMC2     O14458   3.083   4.604  15.228  0.1383  0.1215 -0.1399
    5TMC2     H14459   3.171   4.634  15.437  0.0638  2.0934 -1.0235
    5TMC2    H114460   3.465   4.545  15.142  0.1931 -1.4150  0.4496
    5TMC2    H214461   3.527   0.096  15.441 -1.9634  0.5788  0.4306
    5TMC2    C714462   3.565   0.044  15.192  0.3570 -0.0979 -0.3523
    5TMC2    C814463   3.331   0.046  15.584  0.0534 -0.6935 -0.3709
    5TMC2    O114464   3.500   0.044  15.091 -0.6902  0.2951  0.5872
    5TMC2    O214465   3.217   0.075  15.606  0.2519 -0.4749  0.0476
    5TMC2    O514466   3.424   0.019  15.682 -0.6692  0.4143 -0.0408
    5TMC2    H514467   3.502   4.702  15.658 -1.6612 -0.0507 -2.1771
    6MPD2     C14468   3.059   0.127  14.760 -0.1903 -1.0250  0.2649
    6MPD2    C114469   3.197   0.134  14.777  0.9331 -0.6038  0.7358
    6MPD2    C214470   3.253   0.068  14.885 -0.3289 -0.7308  0.3659
    6MPD2    C314471   3.181   4.728  14.969  0.0140 -0.6110 -0.2568
    6MPD2    C414472   3.049   4.720  14.952 -0.8855  0.1234  0.0179
    6MPD2    C514473   2.991   0.051  14.851  0.1317 -0.4258  0.2791
    6MPD2     H14474   3.357   0.079  14.915 -0.6065 -0.4261  1.1999
    6MPD2    H114475   2.990   4.656  15.019 -1.6352  0.7575 -0.0375
    6MPD2    H214476   3.004   0.179  14.682 -0.8483 -1.3257  0.5338
    6MPD2    H314477   2.883   0.048  14.839  0.3380  0.1681 -1.6668
    6MPD2     N14478   3.252   4.671  15.080 -0.3846  0.1624 -0.3503
    6MPD2    H514479   3.351   4.693  15.089 -0.5391  0.7118 -0.0335
    6MPD2    N114480   3.282   0.206  14.700 -1.1078 -0.7084 -0.8307
    6MPD2    H714481   3.382   0.200  14.719 -1.5903 -0.3676  1.8021
  945NH3     N114482   2.495   4.682  17.034  0.6148  0.5410  0.0217
  945NH3     H214483   2.427   0.020  17.046 -0.8764 -0.8861  0.4259
  945NH3     H314484   2.447   4.609  16.984  0.9007  1.2424 -1.2754
  945NH3     H414485   2.559   4.724  16.968 -0.8354 -0.3249 -1.9247
  946SOD     NA14486   0.259   3.171  16.835 -0.8193 -0.1729  0.2378
  947SOD     NA14487   1.134   0.806  13.611 -0.3471  0.2031 -0.0029
  948SOD     NA14488   0.988   0.471   3.270 -0.1061 -0.4316 -0.4037
  949SOD     NA14489   2.883   3.694   7.852 -0.1208 -0.6236 -0.1953
  950SOD     NA14490   2.347   3.081   8.936  0.3864  0.2084 -0.1901
  951SOD     NA14491   1.316   1.304  11.902 -0.0733 -0.1494 -0.0268
  952SOD     NA14492   3.740   3.490  16.560 -0.1343 -0.0240 -0.3860
  953SOD     NA14493   2.831   0.433  15.068 -0.2136 -0.3975 -0.2206
  954SOL     OW14494   3.902   3.166  15.026  0.0494  0.4658 -0.3938
  954SOL    HW114495   3.933   3.257  15.017 -1.9237  1.4354  2.6151
  954SOL    HW214496   3.945   3.142  15.108  2.5776  2.8684 -1.0081
  955SOL     OW14497   4.391   2.796   5.561 -0.0141 -0.0455 -0.1573
  955SOL    HW114498   4.305   2.826   5.533 -0.6165  1.1068  2.9924
  955SOL    HW214499   4.395   2.846   5.642  1.0447  1.3526 -1.0721
  956SOL     OW14500   3.926   3.555   1.539  0.2359  0.4618 -0.2175
  956SOL    HW114501   3.963   3.467   1.555 -0.9117  0.1699  0.8197
  956SOL    HW214502   3.884   3.567   1.624  0.1160 -4.3510  0.4037
  957SOL     OW14503   3.846   3.071   0.619  0.0313 -0.6024 -0.1309
  957SOL    HW114504   3.932   3.053   0.583  0.8351  0.4132  1.2663
  957SOL    HW214505   3.799   3.082   0.536 -1.4231 -1.0688  0.6268
  958SOL     OW14506   0.459   0.591   6.065  0.2158  0.2789 -0.2799
  958SOL    HW114507   0.403   0.575   5.990 -0.9029  0.9476  0.4159
  958SOL    HW214508   0.534   0.640   6.032  1.5046 -0.0350  2.1712
  959SOL     OW14509   3.686   2.479  15.589 -0.2057  0.5630  0.3782
  959SOL    HW114510   3.756   2.443  15.644 -0.1341  1.5157  0.9188
  959SOL    HW214511   3.648   2.401  15.549 -1.1570  1.6035 -0.7686
  960SOL     OW14512   4.405   3.998   2.813  0.1062  0.5197 -0.4721
  960SOL    HW114513   4.316   3.977   2.787 -0.1469 -0.6480  1.4113
  960SOL    HW214514   4.386   4.082   2.855 -0.1362  1.3496 -2.2125
  961SOL     OW14515   0.138   3.089   9.557 -0.1329 -0.0699  0.3445
  961SOL    HW114516   0.219   3.101   9.608  0.1879 -0.1785 -0.1373
  961SOL    HW214517   0.102   3.176   9.539 -0.1186 -0.2144 -0.3909
  962SOL     OW14518   0.094   1.806   0.079 -0.0627  0.0926  0.2234
  962SOL    HW114519   0.176   1.769   0.047 -1.2638 -3.2893  1.0058
  962SOL    HW214520   0.088   1.757   0.161 -2.6857  1.2397  0.7226
  963SOL     OW14521   3.969   4.287  15.546 -0.2845  0.4416  0.2724
  963SOL    HW114522   3.972   4.380  15.522 -3.0506  0.5896  0.4971
  963SOL    HW214523   4.006   4.251  15.465  1.6371  3.3303 -0.1114
  964SOL     OW14524   3.276   4.345   6.110  0.3342  0.0109 -0.3383
  964SOL    HW114525   3.292   4.254   6.084  0.7028  0.1194 -0.4802
  964SOL    HW214526   3.198   4.332   6.164 -0.3801 -0.2322 -1.4212
  965SOL     OW14527   4.476   1.879   3.872  0.3941 -0.0429 -0.6482
  965SOL    HW114528   4.472   1.800   3.926 -3.1308  0.5737  0.0052
  965SOL    HW214529   4.396   1.872   3.819 -0.3153  0.2585  0.3872
  966SOL     OW14530   4.378   1.259   1.473 -0.0802 -0.2142 -0.3036
  966SOL    HW114531   4.420   1.273   1.558 -3.1144  1.3164  0.9676
  966SOL    HW214532   4.291   1.290   1.500  0.4428  0.7555  0.2811
  967SOL     OW14533   3.133   4.614   4.059 -0.0917 -0.3388  0.4418
  967SOL    HW114534   3.124   4.698   4.014 -1.6214 -0.2149  0.9675
  967SOL    HW214535   3.134   4.546   3.992 -3.4317  0.2564 -0.2221
  968SOL     OW14536   1.687   1.502  10.281 -0.3250  0.5337 -0.0936
  968SOL    HW114537   1.688   1.575  10.220  1.2576 -1.3952 -2.3691
  968SOL    HW214538   1.774   1.465  10.271 -0.5984  0.2864 -1.5269
  969SOL     OW14539   3.367   2.044  17.638  0.1068 -0.0820  0.8018
  969SOL    HW114540   3.358   2.098  17.716  1.5059 -0.2595  1.0911
  969SOL    HW214541   3.291   2.069  17.586  0.1933  0.0589  0.7410
  970SOL     OW14542   1.758   4.260   4.901  0.0264  0.5785 -0.0909
  970SOL    HW114543   1.736   4.344   4.942  0.6519  0.7525 -0.1192
  970SOL    HW214544   1.849   4.254   4.930 -0.3539  2.4130  1.5189
  971SOL     OW14545   2.455   3.977   2.447  0.1499 -0.0723 -0.3778
  971SOL    HW114546   2.484   4.028   2.523  0.6550 -0.9221  0.0043
  971SOL    HW214547   2.505   4.021   2.379  0.8770 -0.9793 -0.4370
  972SOL     OW14548   2.938   3.657  15.933 -0.4838  0.2638 -0.5311
  972SOL    HW114549   2.942   3.753  15.934 -0.6612  0.2723 -0.7047
  972SOL    HW214550   2.877   3.641  15.861 -0.8552 -0.4973 -0.0543
  973SOL     OW14551   1.591   4.456   8.785 -0.4895  0.6907  0.4892
  973SOL    HW114552   1.566   4.540   8.747 -3.4099 -1.4134 -2.2150
  973SOL    HW214553   1.640   4.419   8.711 -0.4745 -0.8034  1.2478
  974SOL     OW14554   4.213   1.036  12.631 -0.4319  0.0180 -0.1540
  974SOL    HW114555   4.118   1.025  12.634 -0.4333 -0.6975 -2.7691
  974SOL    HW214556   4.213   1.122  12.590  1.0536  0.7346  1.3433
  975SOL     OW14557   4.459   1.271   2.646  0.8184  0.2204 -0.4046
  975SOL    HW114558   4.460   1.354   2.693 -0.7965 -0.0820  0.1713
  975SOL    HW214559   4.550   1.247   2.626  0.1047 -0.6034 -2.7111
  976SOL     OW14560   0.234   2.639   7.712  0.5156  0.8915 -0.0285
  976SOL    HW114561   0.168   2.608   7.650  0.5563 -0.8779  0.8001
  976SOL    HW214562   0.220   2.733   7.706  0.0189  0.8245  0.0872
  977SOL     OW14563   1.844   4.343   1.136 -0.0978 -0.1236  0.7722
  977SOL    HW114564   1.751   4.366   1.136  0.5446  2.3701  3.4654
  977SOL    HW214565   1.847   4.253   1.166 -2.9197  0.3435  2.4292
  978SOL     OW14566   1.549   1.037   4.681  0.0460  0.0590  0.0792
  978SOL    HW114567   1.547   1.023   4.586 -0.3835 -0.0268  0.1055
  978SOL    HW214568   1.627   1.092   4.684  0.4111 -0.4755  0.4202
  979SOL     OW14569   2.763   1.182   5.059 -0.2540 -0.6211  0.2415
  979SOL    HW114570   2.854   1.151   5.068  0.2570  0.4196 -1.4346
  979SOL    HW214571   2.780   1.273   5.034  0.8487  0.1185  3.6541
  980SOL     OW14572   1.891   0.510   8.828  0.0470  0.2809 -0.0394
  980SOL    HW114573   1.916   0.522   8.737 -0.1013 -0.8912 -0.2314
  980SOL    HW214574   1.817   0.450   8.831 -0.5651  1.0920  1.2438
  981SOL     OW14575   4.267   2.438   3.560 -0.1174 -0.2934  0.1097
  981SOL    HW114576   4.294   2.346   3.565 -1.2869 -0.5040  2.4317
  981SOL    HW214577   4.196   2.434   3.496 -1.1850  0.3404  1.2754
  982SOL     OW14578   1.786   2.160  17.064  0.4438  0.2672  0.1178
  982SOL    HW114579   1.814   2.247  17.035 -1.2872  0.9382  0.4807
  982SOL    HW214580   1.797   2.107  16.985  0.6867  0.4813  0.0084
  983SOL     OW14581   0.922   4.584   4.252 -0.2365  0.2726 -0.1264
  983SOL    HW114582   0.851   4.569   4.314 -3.6771  1.3976 -3.7563
  983SOL    HW214583   0.889   4.526   4.183  1.3057 -0.8133  0.0544
  984SOL     OW14584   1.547   2.945   8.184 -0.3202 -0.2548 -0.1217
  984SOL    HW114585   1.581   2.995   8.110  0.3217 -0.7569 -0.1684
  984SOL    HW214586   1.530   3.010   8.252  2.2454 -0.0005  0.2746
  985SOL     OW14587   3.570   0.638  15.404  0.0231 -0.3664 -0.0684
  985SOL    HW114588   3.650   0.678  15.438 -0.3622 -0.5470  1.0536
  985SOL    HW214589   3.495   0.695  15.424  0.6268  0.8018 -1.1013
  986SOL     OW14590   3.725   4.172   7.304 -0.8073  0.4443  0.2535
  986SOL    HW114591   3.791   4.160   7.372  1.4293  0.0593 -2.0200
  986SOL    HW214592   3.707   4.266   7.304  0.3711  0.6666  0.5893
  987SOL     OW14593   2.891   1.951   3.750  0.3038  0.0887  0.3145
  987SOL    HW114594   2.962   2.001   3.712 -0.5674 -0.6545 -2.2562
  987SOL    HW214595   2.823   1.943   3.684 -0.0925  1.7504  0.5175
  988SOL     OW14596   1.320   4.620   9.189  0.1685  0.1993  0.0286
  988SOL    HW114597   1.246   4.674   9.159 -0.1943 -0.1657  0.2846
  988SOL    HW214598   1.350   4.581   9.107 -0.5685 -0.3332  0.0134
  989SOL     OW14599   4.583   4.052   2.626  0.0511  0.4059 -0.2564
  989SOL    HW114600   4.608   4.138   2.660  2.2494 -0.0721 -0.6371
  989SOL    HW214601   4.513   4.029   2.687  0.0033 -0.8504 -0.7953
  990SOL     OW14602   4.204   0.877   0.552 -0.1394 -0.4662 -0.5785
  990SOL    HW114603   4.158   0.797   0.575 -2.2119  0.8481 -0.1566
  990SOL    HW214604   4.162   0.941   0.610  1.8696  0.1555  0.2210
  991SOL     OW14605   2.991   0.211   2.606  0.0645 -0.0516  0.2579
  991SOL    HW114606   3.079   0.244   2.588 -0.0889  0.1401 -0.1333
  991SOL    HW214607   2.977   0.169   2.521 -1.2609  1.2488 -0.1612
  992SOL     OW14608   4.588   1.630  14.342  0.2745 -0.3129 -0.6012
  992SOL    HW114609   4.546   1.691  14.281  0.2436  0.3510  0.0922
  992SOL    HW214610   4.514   1.575  14.367  1.4664 -1.5483  0.1915
  993SOL     OW14611   2.343   1.046   8.220  0.5419 -0.5973 -0.3201
  993SOL    HW114612   2.281   1.062   8.149 -0.5305 -0.9370  0.5364
  993SOL    HW214613   2.419   1.012   8.173  0.2041  1.1113 -2.1101
  994SOL     OW14614   2.548   0.739   7.069  0.2518 -0.2548 -0.2408
  994SOL    HW114615   2.521   0.693   7.149  0.6834 -2.7799 -1.5377
  994SOL    HW214616   2.498   0.683   7.009 -1.0615 -0.2269  0.8093
  995SOL     OW14617   3.598   3.667   8.968 -0.6622 -0.0416 -0.0188
  995SOL    HW114618   3.604   3.707   8.882  1.6525 -1.3125 -0.4281
  995SOL    HW214619   3.576   3.740   9.026 -1.8547  1.3219 -2.1836
  996SOL     OW14620   2.960   4.084   8.175  0.1709 -0.2311  0.6170
  996SOL    HW114621   2.911   4.017   8.129 -0.1226  2.2700 -2.7217
  996SOL    HW214622   2.911   4.166   8.174 -0.8761 -0.9050 -2.2003
  997SOL     OW14623   1.428   2.351   6.468 -0.3463  0.2127  0.3707
  997SOL    HW114624   1.406   2.288   6.537  1.8105 -4.3764 -3.1775
  997SOL    HW214625   1.469   2.414   6.527  0.8669 -0.5841  0.3911
  998SOL     OW14626   0.084   3.135   8.202  0.2301  0.0762 -0.1327
  998SOL    HW114627   0.110   3.227   8.205 -1.9217  0.6404  1.5391
  998SOL    HW214628   0.141   3.105   8.131 -0.2906 -0.2602 -0.4078
  999SOL     OW14629   1.814   2.723   4.482  0.9560  0.5561 -0.1870
  999SOL    HW114630   1.866   2.802   4.466  0.4983  1.2769  1.8962
  999SOL    HW214631   1.881   2.656   4.470 -1.7567 -2.1545 -0.1645
 1000SOL     OW14632   2.462   4.596   8.012 -1.3156  0.2394  0.0879
 1000SOL    HW114633   2.389   4.656   8.002 -0.6169  1.1386  0.4444
 1000SOL    HW214634   2.481   4.575   8.103 -0.4633  0.1928 -0.0931
 1001SOL     OW14635   4.453   0.390   2.982  0.3785  0.0401  0.3385
 1001SOL    HW114636   4.415   0.321   3.036 -2.0263  2.3257  1.6007
 1001SOL    HW214637   4.545   0.366   2.984  0.0454 -1.1847  0.5164
 1002SOL     OW14638   3.672   4.643   2.714  0.1926 -0.3149  1.0863
 1002SOL    HW114639   3.758   4.653   2.754 -0.6714 -2.9641  3.5589
 1002SOL    HW214640   3.700   4.617   2.626  1.1171  1.5946  0.8177
 1003SOL     OW14641   0.028   3.762   0.463 -0.8531  0.1113 -0.6258
 1003SOL    HW114642   0.025   3.670   0.492  1.0727  0.8375  1.8729
 1003SOL    HW214643   4.672   3.787   0.469 -0.4055  1.7316 -0.5181
 1004SOL     OW14644   0.484   2.115   8.147  0.0441 -0.1223 -0.1898
 1004SOL    HW114645   0.399   2.112   8.191 -0.0604  1.0877 -0.2990
 1004SOL    HW214646   0.457   2.154   8.064 -2.5916 -0.5378  0.4855
 1005SOL     OW14647   4.248   3.494  15.943 -0.1929 -0.1358 -0.0577
 1005SOL    HW114648   4.297   3.567  15.906  0.2431 -0.5666 -0.3384
 1005SOL    HW214649   4.215   3.539  16.021  1.2544  0.3708  0.2626
 1006SOL     OW14650   2.851   3.938   6.034 -0.2673  0.5170  0.4559
 1006SOL    HW114651   2.826   3.845   6.041  0.1252  0.4855  1.4326
 1006SOL    HW214652   2.813   3.949   5.947 -2.0265  1.3761  1.3235
 1007SOL     OW14653   1.579   1.972   5.270  0.1648 -0.8774  0.0650
 1007SOL    HW114654   1.661   1.956   5.225  0.9093  0.2457  1.0323
 1007SOL    HW214655   1.532   1.890   5.250  3.3524 -2.4842 -0.7823
 1008SOL     OW14656   1.531   2.492   6.115 -0.3293 -0.2214  0.0990
 1008SOL    HW114657   1.521   2.535   6.199 -2.4101 -0.1551 -0.1618
 1008SOL    HW214658   1.588   2.556   6.073 -1.2841  0.7160  0.2149
 1009SOL     OW14659   1.288   2.690   5.791 -0.5345 -0.4198 -0.0554
 1009SOL    HW114660   1.274   2.711   5.699  1.1348  2.2053  0.2726
 1009SOL    HW214661   1.375   2.729   5.798  0.6820 -3.1559  0.2008
 1010SOL     OW14662   4.343   0.115   8.674  0.0610  0.1383  0.1436
 1010SOL    HW114663   4.412   0.064   8.631 -1.6881  0.0924 -2.5894
 1010SOL    HW214664   4.293   0.150   8.601  1.2370  0.9966 -0.2392
 1011SOL     OW14665   2.884   3.470   5.052  0.0782  0.5336 -0.0439
 1011SOL    HW114666   2.974   3.460   5.021 -0.2667  0.5510 -1.0543
 1011SOL    HW214667   2.834   3.494   4.974 -0.4235  0.2998  0.2068
 1012SOL     OW14668   2.937   0.686   6.002  0.2001  0.1898 -0.5290
 1012SOL    HW114669   2.846   0.697   5.977  1.1191  1.6523 -3.2301
 1012SOL    HW214670   2.950   0.772   6.042 -0.7451 -0.8882  2.0972
 1013SOL     OW14671   2.882   2.118   2.709  0.5288 -0.2856  0.3548
 1013SOL    HW114672   2.940   2.175   2.657  0.4827  0.1579  0.7870
 1013SOL    HW214673   2.893   2.035   2.663  0.9252  0.1324 -0.3048
 1014SOL     OW14674   1.260   3.561   9.576  0.5543  0.4794  0.3448
 1014SOL    HW114675   1.206   3.577   9.498 -1.4496 -2.5052  1.1230
 1014SOL    HW214676   1.340   3.594   9.536  0.5776  1.0595  0.8866
 1015SOL     OW14677   3.047   4.674   6.804  0.4064 -0.6326  0.0022
 1015SOL    HW114678   2.993   4.603   6.840  0.1642  0.2518  1.3972
 1015SOL    HW214679   3.080   4.636   6.723 -2.6418 -0.7268 -1.1614
 1016SOL     OW14680   2.936   3.602  13.577  0.7411  0.0930 -0.2612
 1016SOL    HW114681   3.001   3.532  13.577 -0.8982 -1.4697 -3.1102
 1016SOL    HW214682   2.922   3.607  13.671  0.3211  0.3603 -0.3368
 1017SOL     OW14683   2.776   0.880  13.188 -0.3858 -0.1106  0.4681
 1017SOL    HW114684   2.835   0.898  13.114  2.3328 -2.9882  1.9901
 1017SOL    HW214685   2.838   0.885  13.260  0.9062 -1.4636 -0.5517
 1018SOL     OW14686   1.582   3.079   5.822  0.6092 -0.4384 -0.2944
 1018SOL    HW114687   1.493   3.076   5.787  0.1996  2.1781  0.5710
 1018SOL    HW214688   1.615   3.143   5.759  1.1514 -1.1298 -0.7200
 1019SOL     OW14689   4.669   3.915   8.889 -0.2463 -0.1710  0.7994
 1019SOL    HW114690   4.736   3.957   8.944 -0.1753  1.7418 -0.7331
 1019SOL    HW214691   4.704   3.955   8.809 -0.9254  2.1222  1.6500
 1020SOL     OW14692   0.376   1.074   8.187 -0.5596  0.6425  0.1912
 1020SOL    HW114693   0.346   1.017   8.116 -1.1879 -0.5124  1.3642
 1020SOL    HW214694   0.468   1.086   8.167 -0.4947  0.3210  0.2915
 1021SOL     OW14695   1.625   1.765   1.300  0.5158  0.1313 -0.4071
 1021SOL    HW114696   1.533   1.761   1.272  0.0312  0.3667  1.1594
 1021SOL    HW214697   1.632   1.724   1.386 -0.3855 -0.5486 -0.6614
 1022SOL     OW14698   3.533   0.937   0.237 -0.2769  0.4005 -0.2616
 1022SOL    HW114699   3.458   0.879   0.251  0.5846 -0.2751  1.5004
 1022SOL    HW214700   3.581   0.880   0.177  1.5887  0.1348  1.4849
 1023SOL     OW14701   0.238   4.140   8.369 -0.4971  0.7334 -0.0207
 1023SOL    HW114702   0.305   4.104   8.311 -2.8248 -0.7633 -1.8130
 1023SOL    HW214703   0.287   4.138   8.451  0.6224 -1.1086 -0.7438
 1024SOL     OW14704   4.111   0.066   5.700 -0.2280 -0.1948 -0.5729
 1024SOL    HW114705   4.034   0.092   5.750  0.0174  1.2706 -0.9671
 1024SOL    HW214706   4.066   0.018   5.629  1.9691 -0.5691 -1.7094
 1025SOL     OW14707   2.643   0.806   3.470 -0.0530  0.2774 -0.0132
 1025SOL    HW114708   2.583   0.787   3.543  1.2896 -0.7854  0.8053
 1025SOL    HW214709   2.581   0.853   3.415 -0.9242  0.2319  0.9206
 1026SOL     OW14710   3.673   0.305   9.040  0.8109 -0.1310 -0.2106
 1026SOL    HW114711   3.686   0.248   9.116  1.5376 -0.7322 -0.7761
 1026SOL    HW214712   3.707   0.241   8.977 -2.3176 -0.6181 -1.4240
 1027SOL     OW14713   2.009   2.042   9.304 -0.1864 -0.0828  0.1761
 1027SOL    HW114714   1.930   2.034   9.251 -0.6639 -0.9529  1.0297
 1027SOL    HW214715   2.023   1.954   9.339 -2.5477 -0.8639 -0.8455
 1028SOL     OW14716   1.965   0.768   8.698 -0.2573 -0.3722 -0.3163
 1028SOL    HW114717   1.887   0.717   8.715  0.5851 -1.8828 -1.0014
 1028SOL    HW214718   1.941   0.856   8.729 -1.0645 -0.5978 -0.3058
 1029SOL     OW14719   0.292   3.495   6.494  0.4546 -0.3603  0.2368
 1029SOL    HW114720   0.371   3.475   6.544  1.8364  3.3956 -0.4352
 1029SOL    HW214721   0.221   3.458   6.546  0.6709  0.1487  0.8890
 1030SOL     OW14722   1.799   0.416   5.316 -0.4448 -0.3322  0.6419
 1030SOL    HW114723   1.888   0.385   5.297 -0.8848 -0.2956 -1.4192
 1030SOL    HW214724   1.763   0.341   5.364 -0.7136 -0.3490  0.4157
 1031SOL     OW14725   0.885   0.296  11.381 -0.1931 -0.7895  0.0500
 1031SOL    HW114726   0.821   0.367  11.386 -0.6043 -1.1331 -0.2381
 1031SOL    HW214727   0.830   0.220  11.401  0.0796 -0.8561  0.5491
 1032SOL     OW14728   0.070   3.737  17.706 -0.0043  0.4932 -0.4628
 1032SOL    HW114729   0.039   3.654  17.669 -1.1357  0.1022  1.3680
 1032SOL    HW214730   0.118   3.759  17.626  2.6800  0.6989  1.2170
 1033SOL     OW14731   0.620   0.139  15.676  0.3157  0.1395  0.0971
 1033SOL    HW114732   0.556   0.210  15.673  1.6217  1.3705  1.7050
 1033SOL    HW214733   0.644   0.141  15.769  1.8881  0.5078 -0.3172
 1034SOL     OW14734   3.260   0.371  12.572  0.2274 -0.5239 -0.0497
 1034SOL    HW114735   3.340   0.364  12.625 -0.4404 -0.1989  1.0072
 1034SOL    HW214736   3.200   0.387  12.645 -0.8659 -0.9358 -0.8628
 1035SOL     OW14737   4.446   0.292   1.064 -0.1948 -0.1897 -0.0764
 1035SOL    HW114738   4.386   0.344   1.117  0.0310 -0.3800  0.3595
 1035SOL    HW214739   4.525   0.345   1.075  0.2581 -0.6089 -1.2553
 1036SOL     OW14740   2.774   3.220   9.269  0.7481 -0.4111  0.0459
 1036SOL    HW114741   2.712   3.158   9.309  0.4806 -1.6381 -2.2497
 1036SOL    HW214742   2.849   3.221   9.328  2.5227  1.1884 -2.2579
 1037SOL     OW14743   4.619   3.091  17.246 -0.7475 -0.3820  0.1717
 1037SOL    HW114744   4.709   3.057  17.254 -0.9719 -0.9512  0.3203
 1037SOL    HW214745   4.564   3.013  17.240 -1.9675  0.4608  0.3812
 1038SOL     OW14746   1.362   4.072   2.326 -0.1847  0.1070 -0.0180
 1038SOL    HW114747   1.360   4.048   2.233  1.7598  1.5665 -0.4248
 1038SOL    HW214748   1.292   4.021   2.367 -0.9214  1.8960  0.9360
 1039SOL     OW14749   0.696   2.671   1.866 -0.4528  0.1248 -0.7959
 1039SOL    HW114750   0.765   2.734   1.883  0.5793 -1.2427  0.1169
 1039SOL    HW214751   0.747   2.602   1.823  1.3232  0.7829  0.2916
 1040SOL     OW14752   1.841   4.600   8.967  0.6926 -0.3694 -0.4469
 1040SOL    HW114753   1.836   4.650   9.049 -0.3065 -0.4477 -0.4602
 1040SOL    HW214754   1.819   4.670   8.905  3.1151  0.7039 -0.1031
 1041SOL     OW14755   3.842   4.422   0.059 -0.1740 -0.1486 -0.1225
 1041SOL    HW114756   3.897   4.441  17.729  1.7375  0.1566  1.3508
 1041SOL    HW214757   3.812   4.337   0.026 -0.0588 -0.0058 -0.5927
 1042SOL     OW14758   1.404   0.882   9.020  0.1921  0.1938 -0.0409
 1042SOL    HW114759   1.334   0.883   9.085  0.9531 -2.9565  0.8355
 1042SOL    HW214760   1.369   0.810   8.967 -1.8970 -0.6688  2.5281
 1043SOL     OW14761   3.464   0.481   6.346 -0.0636 -0.2596 -0.1359
 1043SOL    HW114762   3.418   0.447   6.424  1.6313  2.1099  1.9010
 1043SOL    HW214763   3.525   0.412   6.324  0.1839 -0.1412  0.1783
 1044SOL     OW14764   0.878   2.102  16.932  0.4619  0.5518 -0.1902
 1044SOL    HW114765   0.882   2.136  17.022  0.1603 -2.2700  0.8840
 1044SOL    HW214766   0.939   2.029  16.920  0.6426  1.0178 -2.0472
 1045SOL     OW14767   1.098   1.458   7.578 -0.0544 -0.7576  0.3411
 1045SOL    HW114768   1.078   1.507   7.657 -0.1880 -1.1335  0.5421
 1045SOL    HW214769   1.193   1.447   7.582 -0.1285 -0.5181  2.5977
 1046SOL     OW14770   0.757   3.620   9.637 -0.6185 -0.0624  0.3546
 1046SOL    HW114771   0.715   3.669   9.566  0.2334 -1.1796 -0.9168
 1046SOL    HW214772   0.847   3.649   9.621 -0.5396 -1.3106 -1.4873
 1047SOL     OW14773   4.035   3.337  10.931 -0.6811 -0.4163  0.1319
 1047SOL    HW114774   3.985   3.332  10.849 -0.6095 -0.0894  0.0665
 1047SOL    HW214775   4.111   3.386  10.900 -1.1491 -0.3279 -0.8878
 1048SOL     OW14776   2.081   2.650   7.669 -0.6392 -0.1720  0.2487
 1048SOL    HW114777   2.135   2.660   7.591  0.0092  1.2272  0.8737
 1048SOL    HW214778   2.000   2.617   7.630 -0.3440  0.1687 -0.6457
 1049SOL     OW14779   4.298   2.430   6.994 -0.6390  0.0280 -0.4332
 1049SOL    HW114780   4.353   2.362   6.955 -1.4409 -1.5530  1.1632
 1049SOL    HW214781   4.353   2.462   7.066 -0.8394 -2.0687  0.6339
 1050SOL     OW14782   0.392   3.115   3.297  0.0199 -0.6115 -0.1848
 1050SOL    HW114783   0.359   3.026   3.310 -0.6075 -0.0760  2.0413
 1050SOL    HW214784   0.352   3.150   3.377 -2.8453 -1.9374 -1.0497
 1051SOL     OW14785   2.227   2.934   8.431  0.5565 -0.0641 -0.4256
 1051SOL    HW114786   2.133   2.917   8.424  0.3547 -0.0023  2.2114
 1051SOL    HW214787   2.253   2.866   8.368 -4.0890 -0.9799 -1.3219
 1052SOL     OW14788   2.290   1.049   4.965  0.0070  0.3201  0.0802
 1052SOL    HW114789   2.303   1.017   4.876  2.8366  1.0158  0.2427
 1052SOL    HW214790   2.375   1.025   5.003 -0.2275  2.3048  1.8213
 1053SOL     OW14791   1.821   4.217   6.779 -0.0229 -0.6241 -0.5367
 1053SOL    HW114792   1.908   4.232   6.742  0.5729  2.3861  2.0570
 1053SOL    HW214793   1.793   4.304   6.807 -1.7185 -0.9734 -1.1626
 1054SOL     OW14794   1.331   3.595   8.665 -0.5444 -0.2891  0.2020
 1054SOL    HW114795   1.362   3.672   8.711 -0.4543 -0.1387 -0.1099
 1054SOL    HW214796   1.349   3.528   8.731 -1.1214 -0.8912 -0.2453
 1055SOL     OW14797   4.276   4.481   3.360  0.0052  0.0762  0.1853
 1055SOL    HW114798   4.270   4.576   3.366  2.8893  0.2558  0.3808
 1055SOL    HW214799   4.348   4.459   3.419 -0.2188 -0.8628  0.1062
 1056SOL     OW14800   2.149   0.835   5.115  0.6905 -0.0060  0.0827
 1056SOL    HW114801   2.126   0.906   5.176 -1.8602 -1.0198  0.3131
 1056SOL    HW214802   2.154   0.886   5.034  0.2613  1.8738  1.2198
 1057SOL     OW14803   2.675   4.306   9.805 -0.1121 -0.0486  0.0065
 1057SOL    HW114804   2.716   4.393   9.800  0.4534 -0.3752 -1.2402
 1057SOL    HW214805   2.592   4.316   9.852  0.1561 -2.1804  0.9234
 1058SOL     OW14806   0.076   0.411  12.850  0.2931  0.2030  0.0854
 1058SOL    HW114807   4.733   0.368  12.820 -0.1708 -0.3986  2.1854
 1058SOL    HW214808   0.061   0.498  12.812  1.0187 -0.6737 -2.2123
 1059SOL     OW14809   4.725   1.413   9.149  0.1414  0.6688 -1.1057
 1059SOL    HW114810   4.667   1.484   9.121 -1.2408 -0.2525 -0.5832
 1059SOL    HW214811   4.672   1.333   9.150  1.0563  0.0627 -1.1796
 1060SOL     OW14812   0.778   2.778   9.200 -0.0877 -0.5243  0.6435
 1060SOL    HW114813   0.692   2.739   9.189 -0.0822  0.1686 -1.8685
 1060SOL    HW214814   0.832   2.700   9.210  1.2747  0.1253 -1.4559
 1061SOL     OW14815   1.282   1.829   0.771 -0.6294  0.2367  0.0397
 1061SOL    HW114816   1.351   1.829   0.839  1.4168 -5.9831 -2.0323
 1061SOL    HW214817   1.279   1.923   0.754 -0.0581  0.5616  1.7064
 1062SOL     OW14818   1.267   4.158   3.402  0.2777 -0.0898 -0.2574
 1062SOL    HW114819   1.346   4.131   3.448 -1.1193 -1.2253  1.4561
 1062SOL    HW214820   1.301   4.194   3.320  0.8684  2.2686  1.0112
 1063SOL     OW14821   1.095   2.985  13.055  0.8957 -0.2898 -0.1759
 1063SOL    HW114822   1.107   2.920  13.124  2.7389  1.0123  0.7308
 1063SOL    HW214823   1.074   3.065  13.105  0.8223  0.2357 -1.0488
 1064SOL     OW14824   2.397   0.885   6.457 -0.0226 -0.3211  0.2405
 1064SOL    HW114825   2.482   0.918   6.430 -0.3890 -1.0651 -1.8568
 1064SOL    HW214826   2.426   0.831   6.530 -1.7506 -2.3393 -0.5741
 1065SOL     OW14827   0.594   2.801   2.676 -0.4663  0.5357 -0.1204
 1065SOL    HW114828   0.688   2.785   2.675 -0.4774  0.4741 -0.1607
 1065SOL    HW214829   0.570   2.708   2.686 -1.0466  0.6727 -0.2327
 1066SOL     OW14830   1.255   3.975   6.806 -0.2256  0.0454  0.0228
 1066SOL    HW114831   1.349   3.959   6.815 -0.1904  0.7824  0.9621
 1066SOL    HW214832   1.244   4.027   6.885  0.1225  1.4731 -0.8642
 1067SOL     OW14833   0.980   3.341  11.466 -0.6282 -0.1231  0.3149
 1067SOL    HW114834   1.062   3.356  11.512 -0.2082 -0.7257 -0.2370
 1067SOL    HW214835   0.997   3.354  11.372 -3.4464 -1.6718 -0.4251
 1068SOL     OW14836   0.552   1.194  13.703  0.3378  0.1771  0.1883
 1068SOL    HW114837   0.545   1.110  13.659 -0.4959 -0.0308  0.7098
 1068SOL    HW214838   0.513   1.254  13.639 -2.5621  0.0454  1.8534
 1069SOL     OW14839   2.828   3.440   4.776  0.1150  0.1669 -0.6381
 1069SOL    HW114840   2.749   3.388   4.757  0.9142 -1.0061 -0.7465
 1069SOL    HW214841   2.894   3.385   4.734  0.6889 -1.1624  1.9936
 1070SOL     OW14842   1.961   0.146   2.528 -0.5816  0.5359  0.0331
 1070SOL    HW114843   1.967   0.084   2.602 -1.0863  2.8345  1.9950
 1070SOL    HW214844   2.025   0.216   2.541  0.3015 -0.0168 -1.3995
 1071SOL     OW14845   1.214   0.540   7.744 -0.1630  0.3966  0.5312
 1071SOL    HW114846   1.234   0.606   7.678  1.1028 -0.0313  0.4879
 1071SOL    HW214847   1.206   0.459   7.693 -0.1431  1.2619 -0.8265
 1072SOL     OW14848   2.119   2.430   3.540 -0.1344  0.2809 -0.2922
 1072SOL    HW114849   2.177   2.355   3.526 -0.0752  0.4585 -1.0247
 1072SOL    HW214850   2.080   2.458   3.457  3.6660  1.2381 -1.7711
 1073SOL     OW14851   1.469   2.425   0.878 -0.3082  1.0858  0.4138
 1073SOL    HW114852   1.503   2.488   0.941  0.5244  1.2422 -0.1948
 1073SOL    HW214853   1.435   2.488   0.814 -2.7848  0.9244  1.5769
 1074SOL     OW14854   4.633   1.155   7.456 -0.6170 -0.3258  0.0302
 1074SOL    HW114855   4.552   1.153   7.405 -0.3694 -1.7867 -0.2935
 1074SOL    HW214856   4.642   1.063   7.478 -1.8282 -0.0552  1.6149
 1075SOL     OW14857   2.445   2.789  15.898  0.0339 -1.0541  0.6440
 1075SOL    HW114858   2.533   2.767  15.865  0.3947  1.9503 -0.4366
 1075SOL    HW214859   2.454   2.883  15.915  0.1119 -0.7574 -1.0380
 1076SOL     OW14860   2.275   1.484   5.977 -0.2206  0.3134 -0.0776
 1076SOL    HW114861   2.251   1.545   5.907 -1.8362 -0.3799 -0.1448
 1076SOL    HW214862   2.202   1.423   5.971 -0.9102  1.1757 -0.5091
 1077SOL     OW14863   1.582   0.640   4.457 -0.0001 -0.6416  0.0259
 1077SOL    HW114864   1.601   0.551   4.428  1.7984 -0.0020 -0.7700
 1077SOL    HW214865   1.642   0.656   4.530  1.1041  0.8704 -1.2123
 1078SOL     OW14866   2.846   1.681   3.878  0.1830 -0.0842 -0.3168
 1078SOL    HW114867   2.892   1.652   3.956 -1.2930 -1.1299  0.1592
 1078SOL    HW214868   2.908   1.747   3.846 -0.4249  0.4812 -0.3399
 1079SOL     OW14869   4.366   0.511   1.246  0.2407 -0.2165  0.5559
 1079SOL    HW114870   4.431   0.561   1.296  0.5175  0.0853 -0.1099
 1079SOL    HW214871   4.365   0.430   1.297 -0.4616  0.0914  1.0328
 1080SOL     OW14872   1.757   3.136   9.958 -0.9077  0.1659  0.0620
 1080SOL    HW114873   1.790   3.169  10.042 -2.7575 -1.9881  1.6503
 1080SOL    HW214874   1.694   3.208   9.943 -0.6141  0.4440  0.1623
 1081SOL     OW14875   3.535   3.537  15.164 -0.6549 -0.1881  0.0290
 1081SOL    HW114876   3.553   3.481  15.239 -0.2822  1.1295  0.9406
 1081SOL    HW214877   3.487   3.473  15.112 -2.2064  1.3842 -0.4779
 1082SOL     OW14878   3.292   4.488   5.714  0.3484  0.1425 -0.5031
 1082SOL    HW114879   3.358   4.504   5.646 -0.3035 -0.2641 -1.2278
 1082SOL    HW214880   3.352   4.483   5.788  1.4456  0.5046 -1.3629
 1083SOL     OW14881   2.787   3.408   4.204 -0.5412 -0.2554 -0.0951
 1083SOL    HW114882   2.785   3.324   4.159  0.3751 -1.0111  1.2720
 1083SOL    HW214883   2.807   3.465   4.130  0.8318 -0.5258  0.0786
 1084SOL     OW14884   4.336   3.235   1.452 -0.5744  0.0332  0.4212
 1084SOL    HW114885   4.291   3.315   1.426 -0.8161 -0.1346  0.3262
 1084SOL    HW214886   4.386   3.254   1.531 -0.1428 -0.6537  0.3215
 1085SOL     OW14887   3.918   4.674   2.834 -0.2007  1.0630  0.4674
 1085SOL    HW114888   4.001   4.714   2.862 -0.6331  1.9166  0.5147
 1085SOL    HW214889   3.894   4.622   2.911  1.6632 -3.3133 -1.8968
 1086SOL     OW14890   2.604   0.519  15.056 -0.0857 -0.3226  0.4671
 1086SOL    HW114891   2.530   0.486  15.107  1.3001 -1.8628  1.4814
 1086SOL    HW214892   2.558   0.534  14.973  3.0331 -1.2440 -1.4426
 1087SOL     OW14893   0.635   0.461  11.334 -0.1923 -0.3066 -0.4844
 1087SOL    HW114894   0.591   0.424  11.258 -1.1727  2.0022 -1.0237
 1087SOL    HW214895   0.567   0.442  11.399 -0.0359  1.1609  0.0997
 1088SOL     OW14896   1.450   0.333   6.496 -0.3356  0.1762  0.0520
 1088SOL    HW114897   1.474   0.424   6.478 -1.2956  0.5740  0.8081
 1088SOL    HW214898   1.450   0.335   6.591  1.5675  0.6406  0.0357
 1089SOL     OW14899   0.437   2.250   2.568 -0.1994  0.7941  0.3142
 1089SOL    HW114900   0.379   2.174   2.559 -0.0333  0.7697 -0.6257
 1089SOL    HW214901   0.422   2.291   2.482 -0.5405 -2.1132 -1.0235
 1090SOL     OW14902   0.757   0.631   5.459 -0.4824 -1.1662 -0.1388
 1090SOL    HW114903   0.850   0.611   5.469 -0.7530 -3.1993 -1.6641
 1090SOL    HW214904   0.740   0.624   5.552  0.1635  0.0151  0.0771
 1091SOL     OW14905   0.353   1.984   3.558 -0.6636 -0.1719  0.1303
 1091SOL    HW114906   0.360   1.961   3.465 -0.4114 -2.1904  0.6572
 1091SOL    HW214907   0.281   1.926   3.584 -0.9319  0.3039  0.4613
 1092SOL     OW14908   3.141   4.122   1.861 -0.0409  0.0400  0.0639
 1092SOL    HW114909   3.111   4.105   1.950 -3.2291  1.6093 -0.7383
 1092SOL    HW214910   3.061   4.134   1.810 -0.2804 -2.4856 -0.1446
 1093SOL     OW14911   1.566   2.395  17.261 -0.6021  0.5013  0.2951
 1093SOL    HW114912   1.568   2.352  17.347  0.0334 -1.3270 -0.6481
 1093SOL    HW214913   1.535   2.318  17.215 -1.0471  0.7963  0.0961
 1094SOL     OW14914   4.538   0.091   6.167  0.2510  0.5607 -0.7003
 1094SOL    HW114915   4.473   0.024   6.145 -0.3397  1.3125 -1.2543
 1094SOL    HW214916   4.617   0.062   6.121  1.3511  0.9001  0.9514
 1095SOL     OW14917   1.102   1.409   9.855  0.3408 -0.1695 -0.0050
 1095SOL    HW114918   1.089   1.318   9.883  0.4648  0.1730  1.1900
 1095SOL    HW214919   1.127   1.402   9.763 -0.9582 -0.4821 -0.3386
 1096SOL     OW14920   0.531   4.452   6.098  0.2418 -0.0885  0.4292
 1096SOL    HW114921   0.557   4.370   6.058 -1.0269  0.5058 -1.6208
 1096SOL    HW214922   0.582   4.442   6.178  2.0489  1.1150 -0.5760
 1097SOL     OW14923   2.969   1.820   3.205  0.1396  0.1550  0.4687
 1097SOL    HW114924   2.903   1.751   3.215 -2.1892  2.1006 -1.1653
 1097SOL    HW214925   3.026   1.800   3.279 -1.0240  0.6150  1.4846
 1098SOL     OW14926   1.722   3.075   8.443  0.0892 -0.1513  0.2333
 1098SOL    HW114927   1.670   3.123   8.507 -0.9353  0.3066 -0.9294
 1098SOL    HW214928   1.697   2.983   8.447  2.0669 -0.7100 -0.2510
 1099SOL     OW14929   4.321   3.305   2.689  0.2663  0.1674  0.1168
 1099SOL    HW114930   4.371   3.353   2.623 -1.6991  3.0939  0.7568
 1099SOL    HW214931   4.314   3.217   2.652  2.7797 -0.1990  0.4964
 1100SOL     OW14932   0.234   0.205  12.268  0.2403 -0.0433 -0.0763
 1100SOL    HW114933   0.250   0.299  12.264 -0.8507  0.1076 -0.8208
 1100SOL    HW214934   0.324   0.172  12.273 -0.5086 -2.3607 -1.7410
 1101SOL     OW14935   0.756   4.363  16.386  0.3303 -0.4038  0.1241
 1101SOL    HW114936   0.818   4.321  16.326  1.7603  1.1743  0.5017
 1101SOL    HW214937   0.760   4.295  16.454 -0.2943  0.2536  0.8103
 1102SOL     OW14938   2.692   3.016   6.060 -0.2129  0.0949  0.8452
 1102SOL    HW114939   2.722   3.105   6.078  2.2326 -0.6655  0.3994
 1102SOL    HW214940   2.626   3.013   6.130  1.5137  1.1890  2.5213
 1103SOL     OW14941   0.041   2.622   8.054  0.6740 -0.5296  0.1303
 1103SOL    HW114942   4.705   2.643   8.112 -0.5181 -1.2428 -1.1021
 1103SOL    HW214943   0.004   2.650   7.969  0.3508  0.8649  0.7214
 1104SOL     OW14944   1.227   0.502   9.845  0.0401 -0.4208 -0.0178
 1104SOL    HW114945   1.278   0.457   9.778 -0.3452 -0.2856 -0.4003
 1104SOL    HW214946   1.188   0.425   9.886  2.1459 -0.4612  1.8906
 1105SOL     OW14947   1.479   1.292  12.664 -0.2312 -0.0270 -0.3639
 1105SOL    HW114948   1.573   1.299  12.644 -0.5103  0.0551 -1.6647
 1105SOL    HW214949   1.471   1.242  12.746 -0.3857 -0.9432 -0.9308
 1106SOL     OW14950   0.795   4.699  10.083 -0.1443  0.0497 -0.0171
 1106SOL    HW114951   0.708   4.696  10.124 -0.8331 -1.2108 -1.5745
 1106SOL    HW214952   0.779   4.672   9.993  0.0855  0.1411 -0.0853
 1107SOL     OW14953   4.700   1.435   7.926  0.2018 -0.0848 -0.3193
 1107SOL    HW114954   4.692   1.416   7.832  0.4417  0.7762 -0.5183
 1107SOL    HW214955   0.054   1.464   7.930  0.3278 -0.3557 -1.1254
 1108SOL     OW14956   0.215   2.093   0.470 -0.0103 -0.3987  0.3004
 1108SOL    HW114957   0.297   2.139   0.451 -0.0187 -0.4874  0.0601
 1108SOL    HW214958   0.167   2.161   0.518 -0.1946 -0.4536  0.1914
 1109SOL     OW14959   3.223   2.354  17.531 -0.7195 -0.5828 -0.6370
 1109SOL    HW114960   3.266   2.338  17.614  1.7571  0.4306 -1.7191
 1109SOL    HW214961   3.162   2.280  17.522 -2.7919  1.0490 -0.0066
 1110SOL     OW14962   1.458   2.629  11.080  0.3173 -0.2276  0.0386
 1110SOL    HW114963   1.375   2.630  11.128 -0.3359  3.0597 -1.1231
 1110SOL    HW214964   1.511   2.567  11.130 -3.5741 -3.0581  0.6551
 1111SOL     OW14965   2.107   0.563   4.031 -0.2275  0.3797 -0.4640
 1111SOL    HW114966   2.077   0.476   4.058  0.9466  1.8442  5.4559
 1111SOL    HW214967   2.188   0.530   3.992 -0.2342 -1.7947  1.3834
 1112SOL     OW14968   2.976   1.672   5.726  0.5420  0.1463  0.4958
 1112SOL    HW114969   2.942   1.605   5.667  1.9282  0.2270 -0.3791
 1112SOL    HW214970   3.019   1.620   5.795  1.8323  0.4560 -0.0808
 1113SOL     OW14971   2.526   1.106  13.287 -0.1694 -0.7285  0.6966
 1113SOL    HW114972   2.581   1.163  13.340 -0.9516 -0.0802  0.8092
 1113SOL    HW214973   2.528   1.153  13.204 -1.1834 -0.7627  0.6534
 1114SOL     OW14974   0.023   0.261   4.047 -0.0914 -0.7232 -0.9992
 1114SOL    HW114975   0.111   0.227   4.030  0.4855  1.3060 -2.1591
 1114SOL    HW214976   4.699   0.211   3.993 -1.3923 -2.1147  1.7702
 1115SOL     OW14977   2.511   3.131   3.540  0.5220  0.4165 -0.0198
 1115SOL    HW114978   2.471   3.046   3.561  0.9260  0.4453  0.8883
 1115SOL    HW214979   2.458   3.151   3.463 -2.7116  0.2591  2.1791
 1116SOL     OW14980   3.416   2.408  16.315 -0.8929  0.1397  0.0166
 1116SOL    HW114981   3.455   2.323  16.334 -1.5020 -0.4111 -1.1741
 1116SOL    HW214982   3.325   2.400  16.345 -0.0370  0.4237  2.6742
 1117SOL     OW14983   1.932   3.894   8.406  0.5726 -0.0295  0.3918
 1117SOL    HW114984   1.982   3.843   8.470  0.3863 -0.5584  0.1170
 1117SOL    HW214985   2.001   3.927   8.349  0.9863 -2.2810 -0.4225
 1118SOL     OW14986   4.363   2.219  16.680  0.1837 -0.4261  0.3641
 1118SOL    HW114987   4.422   2.279  16.635 -1.5128 -1.0260 -2.6120
 1118SOL    HW214988   4.383   2.224  16.774  1.3955  2.8641 -0.0424
 1119SOL     OW14989   0.055   4.519   8.758  0.0836  0.2987  0.0803
 1119SOL    HW114990   0.034   4.445   8.701 -3.0225  1.4382 -0.2685
 1119SOL    HW214991   4.726   4.513   8.828  0.3617 -0.7929  0.2356
 1120SOL     OW14992   2.357   0.445   9.741 -0.2767  0.7827 -0.2674
 1120SOL    HW114993   2.442   0.474   9.707 -1.1331 -0.2547 -3.3495
 1120SOL    HW214994   2.327   0.530   9.771 -1.4787  1.0235 -2.1735
 1121SOL     OW14995   1.785   3.247   2.683 -0.0649  0.4244 -0.4529
 1121SOL    HW114996   1.786   3.175   2.620  1.4596 -2.3161  2.7004
 1121SOL    HW214997   1.691   3.264   2.693 -0.0567 -0.4108  1.2238
 1122SOL     OW14998   3.728   2.635   5.657  0.2006 -0.4814  0.0208
 1122SOL    HW114999   3.669   2.702   5.622 -0.4441 -1.2685 -0.3884
 1122SOL    HW215000   3.680   2.617   5.737 -0.7312 -1.8024 -0.8361
 1123SOL     OW15001   0.020   4.251   7.318 -0.1085 -0.1171 -0.3097
 1123SOL    HW115002   0.087   4.274   7.383  1.3601  4.3667 -3.3467
 1123SOL    HW215003   4.677   4.256   7.370  0.9684 -1.2865  1.4589
 1124SOL     OW15004   3.551   1.901   4.887 -0.1240 -0.5295  0.2817
 1124SOL    HW115005   3.544   1.927   4.979  0.5552 -0.8988  0.4355
 1124SOL    HW215006   3.477   1.946   4.847 -0.0044  0.5683  1.3043
 1125SOL     OW15007   3.881   0.053  16.657  0.0875  0.0821 -0.4281
 1125SOL    HW115008   3.830   4.726  16.608  1.0365 -0.1915 -1.0546
 1125SOL    HW215009   3.804   0.107  16.677 -0.5111 -0.3996 -1.4286
 1126SOL     OW15010   0.500   1.545   7.247  0.8573  0.3303  0.2719
 1126SOL    HW115011   0.566   1.477   7.262  0.1210 -0.0192  1.9756
 1126SOL    HW215012   0.542   1.619   7.205 -1.7804 -0.3413 -3.5247
 1127SOL     OW15013   0.737   1.482   6.358 -0.0020  0.0991  0.7739
 1127SOL    HW115014   0.719   1.550   6.293  0.2945  0.0650  0.6556
 1127SOL    HW215015   0.830   1.501   6.373  0.1598 -0.8134  0.9322
 1128SOL     OW15016   0.075   4.585  15.217 -0.8118  0.2003  0.0961
 1128SOL    HW115017   0.091   4.564  15.125 -2.9977 -1.3321  0.0772
 1128SOL    HW215018   0.157   4.547  15.247 -1.9966 -0.7790  2.0564
 1129SOL     OW15019   0.871   1.400   5.979  0.1143  0.3949  0.0258
 1129SOL    HW115020   0.791   1.401   5.927 -0.7868 -0.8133  1.3586
 1129SOL    HW215021   0.867   1.490   6.012 -0.7792 -0.0441  1.1288
 1130SOL     OW15022   0.166   0.381   2.659  0.3479  0.3570 -0.2780
 1130SOL    HW115023   0.249   0.426   2.670 -0.1006  0.6757  1.7925
 1130SOL    HW215024   0.107   0.454   2.679 -0.8242  0.1003 -2.6730
 1131SOL     OW15025   4.415   3.776   5.591 -0.8112 -0.1268  0.2790
 1131SOL    HW115026   4.399   3.852   5.647 -1.0810 -1.7386  2.4172
 1131SOL    HW215027   4.398   3.812   5.504  2.7226  0.0338 -0.3218
 1132SOL     OW15028   4.549   4.524   1.212 -0.3315 -0.1308 -0.2036
 1132SOL    HW115029   4.469   4.488   1.175 -0.5908 -1.2874  1.5021
 1132SOL    HW215030   4.533   4.619   1.208  0.4846 -0.0896 -2.4441
 1133SOL     OW15031   1.428   2.245  17.476 -0.0044  0.5403 -0.1904
 1133SOL    HW115032   1.444   2.172  17.536  0.6014  0.4708 -0.4375
 1133SOL    HW215033   1.373   2.201  17.410 -0.6097  0.1501  0.5780
 1134SOL     OW15034   1.173   4.585  15.423 -0.1908 -0.1404  0.4760
 1134SOL    HW115035   1.086   4.568  15.460  0.7284  0.1885  2.7331
 1134SOL    HW215036   1.149   4.592  15.330  0.2338  0.9674  0.4565
 1135SOL     OW15037   2.168   2.191   5.447 -0.3193 -0.4677 -0.1227
 1135SOL    HW115038   2.081   2.230   5.445  0.0967  0.3139 -3.9786
 1135SOL    HW215039   2.160   2.114   5.392 -1.4151  0.4621 -1.2743
 1136SOL     OW15040   1.403   0.608   1.852 -0.3947  0.1061  0.4294
 1136SOL    HW115041   1.457   0.531   1.832  1.5538  1.7798 -0.7003
 1136SOL    HW215042   1.322   0.578   1.810 -0.7108  1.9758 -0.2979
 1137SOL     OW15043   3.751   4.351   3.203 -0.4812  0.2856 -0.0508
 1137SOL    HW115044   3.840   4.371   3.232  0.5416 -3.2051 -0.8279
 1137SOL    HW215045   3.779   4.315   3.119  1.4934  1.1832  0.2244
 1138SOL     OW15046   1.369   0.948   3.738  0.9245  0.4542  0.3395
 1138SOL    HW115047   1.288   0.990   3.767  0.9163  0.0879  0.8544
 1138SOL    HW215048   1.415   0.935   3.821  1.2861  0.1109  0.0858
 1139SOL     OW15049   1.547   3.212   2.584 -0.1857 -0.1871  0.7142
 1139SOL    HW115050   1.522   3.120   2.575  3.1762 -1.2439  2.4708
 1139SOL    HW215051   1.459   3.248   2.592 -0.0549  0.3842 -0.3636
 1140SOL     OW15052   1.664   2.184   7.802 -0.3335  0.2177  0.1421
 1140SOL    HW115053   1.656   2.214   7.893  3.4230  1.2455  0.1178
 1140SOL    HW215054   1.729   2.242   7.762  1.2210 -0.6318  1.4342
 1141SOL     OW15055   1.211   3.134   6.624  0.5332 -0.3363 -0.5833
 1141SOL    HW115056   1.295   3.131   6.671  0.2934 -0.4713 -0.1658
 1141SOL    HW215057   1.225   3.114   6.532  0.1762 -0.2325 -0.6575
 1142SOL     OW15058   4.018   2.888   6.846  0.1136  0.6401  0.0603
 1142SOL    HW115059   4.091   2.830   6.822 -0.4644  0.2661 -0.8037
 1142SOL    HW215060   3.966   2.824   6.895 -1.0499  1.2806 -0.3309
 1143SOL     OW15061   1.365   4.523   7.124  0.0936  0.4586  0.2370
 1143SOL    HW115062   1.407   4.486   7.047  1.1205  1.0085  0.5282
 1143SOL    HW215063   1.277   4.485   7.120 -0.2295  1.3543 -1.1027
 1144SOL     OW15064   1.695   2.346   4.741 -0.1457 -0.3118  0.0031
 1144SOL    HW115065   1.751   2.423   4.734  1.9452 -1.7433  1.1122
 1144SOL    HW215066   1.688   2.315   4.650  0.6037  0.9417 -0.4767
 1145SOL     OW15067   1.183   0.379   2.720 -0.3465 -0.7513 -0.5870
 1145SOL    HW115068   1.270   0.341   2.710 -0.8124 -1.5013 -1.8223
 1145SOL    HW215069   1.199   0.436   2.795  1.8208 -1.0502 -0.8180
 1146SOL     OW15070   3.150   1.388  12.542  0.5436  0.2652 -0.0367
 1146SOL    HW115071   3.211   1.337  12.487  1.1554  2.6014 -1.5487
 1146SOL    HW215072   3.176   1.352  12.627 -0.1778  0.5883  0.3177
 1147SOL     OW15073   0.869   3.893  11.301 -0.7613 -0.3584 -0.3963
 1147SOL    HW115074   0.817   3.931  11.372  0.7824  1.4157 -0.2292
 1147SOL    HW215075   0.914   3.835  11.363  1.4403  4.0142  2.0986
 1148SOL     OW15076   2.290   3.215   8.471  0.2721 -0.3050  0.2547
 1148SOL    HW115077   2.219   3.277   8.454 -0.0459 -0.4775  0.9576
 1148SOL    HW215078   2.242   3.133   8.477 -0.5494  0.0494 -1.3673
 1149SOL     OW15079   3.853   2.582  16.461 -0.4471  0.0181 -0.1859
 1149SOL    HW115080   3.877   2.518  16.394  1.8016  0.4002  0.2481
 1149SOL    HW215081   3.896   2.659  16.425 -2.7292  1.9794  1.2352
 1150SOL     OW15082   1.005   0.624  13.932 -0.1338  0.8121 -0.1725
 1150SOL    HW115083   1.000   0.575  14.014  1.1266 -0.2136 -0.7048
 1150SOL    HW215084   1.024   0.710  13.969 -0.6463 -0.2568  2.5562
 1151SOL     OW15085   0.325   1.145   7.578  0.0287 -0.1206  0.8408
 1151SOL    HW115086   0.316   1.198   7.499 -1.4346 -0.8155  0.5399
 1151SOL    HW215087   0.419   1.128   7.581  0.7130  2.9618 -3.4221
 1152SOL     OW15088   4.407   4.191  11.755  0.1549 -0.1937 -0.0107
 1152SOL    HW115089   4.428   4.157  11.842  0.4348  1.7687  0.7014
 1152SOL    HW215090   4.450   4.124  11.704 -1.9847 -1.8731  0.3844
 1153SOL     OW15091   2.945   3.605   4.432 -0.3034  0.2203  0.0744
 1153SOL    HW115092   2.999   3.585   4.356  0.5182 -1.6163  1.1186
 1153SOL    HW215093   3.000   3.668   4.478  0.4402 -0.0041 -0.4992
 1154SOL     OW15094   2.230   0.285   2.962  0.2682  0.0347  0.3571
 1154SOL    HW115095   2.257   0.368   2.924  0.6388 -1.0381 -1.7638
 1154SOL    HW215096   2.221   0.226   2.887  1.5288  0.8764 -0.4512
 1155SOL     OW15097   0.436   3.421   3.570  0.4608 -0.3666  0.0836
 1155SOL    HW115098   0.360   3.370   3.596  1.7720 -1.5304  1.6480
 1155SOL    HW215099   0.507   3.357   3.576  3.0341  2.5017  0.2494
 1156SOL     OW15100   1.712   0.153   5.849 -0.1408  0.4533 -0.0129
 1156SOL    HW115101   1.757   0.112   5.923  2.2839  1.5478 -0.8834
 1156SOL    HW215102   1.624   0.157   5.886 -1.3593  1.1452 -2.9844
 1157SOL     OW15103   4.255   0.279   4.788  0.2813 -0.4608 -0.9712
 1157SOL    HW115104   4.300   0.356   4.752  1.1636 -0.5401 -0.0639
 1157SOL    HW215105   4.237   0.234   4.706 -0.1271 -0.5123 -0.8526
 1158SOL     OW15106   4.089   3.424   7.603 -0.0976  0.2018 -0.1707
 1158SOL    HW115107   4.153   3.494   7.615 -0.3092  0.0949  1.5948
 1158SOL    HW215108   4.022   3.439   7.669 -0.7231 -0.9085 -0.5476
 1159SOL     OW15109   1.693   3.722   6.822 -0.2059  0.3546 -0.5005
 1159SOL    HW115110   1.785   3.715   6.799 -0.2997 -0.5353 -0.5946
 1159SOL    HW215111   1.657   3.727   6.733  0.4702  0.1131 -0.7854
 1160SOL     OW15112   3.804   0.558   1.577  0.0195  0.1178 -0.0929
 1160SOL    HW115113   3.878   0.613   1.600  1.0316 -0.5811 -1.7120
 1160SOL    HW215114   3.843   0.520   1.499 -0.4339  0.6775 -0.5856
 1161SOL     OW15115   1.012   2.991   9.544  0.3452 -0.1392  0.2781
 1161SOL    HW115116   0.990   2.918   9.602 -2.1872  0.4720  0.0692
 1161SOL    HW215117   0.959   3.055   9.591  1.3523  0.1051  1.0786
 1162SOL     OW15118   4.037   4.336   1.839 -0.1942 -0.3423 -0.2677
 1162SOL    HW115119   4.116   4.389   1.847 -0.5128  0.3284 -1.5521
 1162SOL    HW215120   3.985   4.375   1.769  0.1437  1.3445  0.4342
 1163SOL     OW15121   3.896   1.857   1.062 -0.1009  0.0146  0.4929
 1163SOL    HW115122   3.904   1.943   1.022 -2.5635  0.1244  0.2520
 1163SOL    HW215123   3.810   1.861   1.103  0.0375  0.9792  0.6824
 1164SOL     OW15124   3.322   0.735   6.906 -0.2240  0.9242  0.3169
 1164SOL    HW115125   3.405   0.751   6.862 -2.3602  2.4240 -3.1481
 1164SOL    HW215126   3.281   0.821   6.896  1.3443  1.4705 -1.4506
 1165SOL     OW15127   1.028   3.389  13.900  0.1410  0.0809 -0.0320
 1165SOL    HW115128   1.071   3.358  13.980 -0.0375  0.5523  0.2541
 1165SOL    HW215129   1.099   3.443  13.865 -0.9812  1.7197  0.2321
 1166SOL     OW15130   3.404   3.990   9.311 -0.5097 -0.3210 -0.3105
 1166SOL    HW115131   3.345   4.044   9.258  1.5406 -0.0877 -2.3617
 1166SOL    HW215132   3.341   3.947   9.369 -0.7361  0.2957 -0.1027
 1167SOL     OW15133   1.170   4.476  17.729  0.5345  0.7416  0.3534
 1167SOL    HW115134   1.134   4.506  17.646 -1.2882 -0.1764  0.8147
 1167SOL    HW215135   1.113   4.538   0.028 -0.7828 -1.1270  1.2811
 1168SOL     OW15136   0.998   1.047   3.503 -0.2845  0.0796  0.4939
 1168SOL    HW115137   0.920   1.035   3.448 -0.1195  3.4938 -0.4862
 1168SOL    HW215138   0.954   1.084   3.580 -2.2394  0.8827 -0.9967
 1169SOL     OW15139   2.612   2.155   4.729 -0.2135 -0.3736 -0.4621
 1169SOL    HW115140   2.540   2.108   4.686 -2.2899  0.4292  2.1690
 1169SOL    HW215141   2.671   2.080   4.739 -0.6545 -0.5769  0.5967
 1170SOL     OW15142   2.760   0.351   7.647  0.3032  0.3021 -0.6053
 1170SOL    HW115143   2.819   0.321   7.716 -1.1916 -0.9742  0.1198
 1170SOL    HW215144   2.703   0.276   7.633 -0.1421  0.2996  1.1859
 1171SOL     OW15145   4.560   4.248   8.309 -0.2495  0.1270  0.4526
 1171SOL    HW115146   4.600   4.182   8.253  0.2954  2.1662 -1.5594
 1171SOL    HW215147   4.631   4.312   8.308  2.2797 -2.7257 -1.0577
 1172SOL     OW15148   4.374   4.623   6.114 -0.4139 -0.1973  0.0609
 1172SOL    HW115149   4.434   4.573   6.059  1.2150  0.9878  0.7567
 1172SOL    HW215150   4.357   4.565   6.188 -0.9548  0.6133  0.5695
 1173SOL     OW15151   1.030   3.740   3.158 -0.2478  0.0875  0.0128
 1173SOL    HW115152   1.025   3.673   3.226  3.5715  1.3761  1.5337
 1173SOL    HW215153   1.010   3.672   3.093 -1.0702 -1.3636  1.7847
 1174SOL     OW15154   3.521   0.698   6.707 -0.2903 -0.0124 -0.1725
 1174SOL    HW115155   3.548   0.714   6.616  0.0488 -1.8761 -0.4091
 1174SOL    HW215156   3.431   0.672   6.685 -0.2178 -0.0017 -0.4794
 1175SOL     OW15157   4.557   1.320   5.128  0.6159  0.3223  0.5857
 1175SOL    HW115158   4.531   1.347   5.040 -0.5680  0.3720  0.9532
 1175SOL    HW215159   4.515   1.387   5.181  0.9479  0.5091  0.6124
 1176SOL     OW15160   4.241   0.190   6.751  0.0131 -0.4504 -0.0864
 1176SOL    HW115161   4.331   0.218   6.733 -0.2312 -0.3420 -1.1559
 1176SOL    HW215162   4.266   0.099   6.766 -1.8278 -1.3764 -2.6361
 1177SOL     OW15163   2.960   0.201   9.050 -0.2841  0.2089  0.1740
 1177SOL    HW115164   3.045   0.193   9.008 -0.3800 -0.2872  0.0808
 1177SOL    HW215165   2.904   0.158   8.985 -0.3207 -0.0499  0.3772
 1178SOL     OW15166   1.450   0.835   6.718  0.1215 -0.1431 -0.7556
 1178SOL    HW115167   1.366   0.880   6.721  0.8038  0.9809  1.4129
 1178SOL    HW215168   1.463   0.843   6.623  3.4514 -0.2493 -0.3210
 1179SOL     OW15169   2.889   2.349   5.635 -0.1656  0.1931 -0.2896
 1179SOL    HW115170   2.952   2.316   5.700 -0.9898  0.3130  0.5739
 1179SOL    HW215171   2.930   2.298   5.565 -1.5531  1.1546 -1.7775
 1180SOL     OW15172   4.111   1.757   6.247  1.0535 -0.1904 -0.4164
 1180SOL    HW115173   4.086   1.843   6.279 -1.2930 -1.4070  0.9976
 1180SOL    HW215174   4.063   1.761   6.164 -1.6778 -2.1111  1.0557
 1181SOL     OW15175   0.140   1.992  16.004  0.0956  0.3272  0.0736
 1181SOL    HW115176   0.054   1.983  16.045  0.6249  2.1452  1.5917
 1181SOL    HW215177   0.189   2.050  16.064 -0.8398  0.1039  1.0605
 1182SOL     OW15178   2.767   0.344   0.398 -0.5061  0.0947 -0.7351
 1182SOL    HW115179   2.698   0.282   0.376  1.1202 -1.7113 -0.7891
 1182SOL    HW215180   2.721   0.425   0.381 -0.8516  0.0956  0.2090
 1183SOL     OW15181   3.554   0.871   4.475 -0.1188 -0.1905  0.4454
 1183SOL    HW115182   3.519   0.845   4.561  1.9842 -0.0537  1.3325
 1183SOL    HW215183   3.642   0.834   4.481 -0.8947 -2.1984 -0.5347
 1184SOL     OW15184   1.983   0.467   2.416  0.1064 -0.1376  0.5728
 1184SOL    HW115185   2.073   0.439   2.436 -0.2568 -0.1018  2.2264
 1184SOL    HW215186   1.969   0.421   2.333 -0.5873 -2.0761  1.7622
 1185SOL     OW15187   2.081   1.226   9.176  0.6486  0.0069 -0.2095
 1185SOL    HW115188   2.130   1.186   9.248 -0.8812  1.3945  1.6175
 1185SOL    HW215189   2.061   1.149   9.122 -0.0938 -1.7704  2.5932
 1186SOL     OW15190   3.001   2.498   8.098  0.3936  0.3511 -0.4352
 1186SOL    HW115191   2.934   2.508   8.030  1.4383 -0.8510 -1.6381
 1186SOL    HW215192   2.995   2.584   8.138 -0.3152  0.1196 -0.0363
 1187SOL     OW15193   2.674   4.718  15.685  0.1806  0.1136  0.3546
 1187SOL    HW115194   2.640   0.005  15.599  3.4476 -1.2468 -1.3075
 1187SOL    HW215195   2.767   4.733  15.671  0.0128  0.0836 -0.8541
 1188SOL     OW15196   0.283   0.899   1.437  0.6639 -0.4607 -0.2819
 1188SOL    HW115197   0.286   0.946   1.520 -0.7880  0.6332 -0.8462
 1188SOL    HW215198   0.373   0.902   1.407  0.8330 -2.2797  0.0349
 1189SOL     OW15199   1.292   1.051  12.470  0.1653  0.5230 -0.0734
 1189SOL    HW115200   1.343   0.976  12.502  0.3816 -0.0193 -1.6957
 1189SOL    HW215201   1.342   1.124  12.508  3.2833 -0.1281 -2.9044
 1190SOL     OW15202   2.999   2.377   7.415  0.4147 -0.0271 -0.2427
 1190SOL    HW115203   3.053   2.455   7.402 -0.7536  1.1120  1.5995
 1190SOL    HW215204   3.040   2.332   7.488 -0.7896  1.2337  1.2302
 1191SOL     OW15205   0.450   3.230   4.827  0.0324 -0.4930  0.7318
 1191SOL    HW115206   0.509   3.201   4.758 -0.8756  2.1034 -1.1398
 1191SOL    HW215207   0.446   3.326   4.823  2.8774 -0.4896 -1.2373
 1192SOL     OW15208   3.596   2.738   6.485 -0.1355 -0.3353  0.2982
 1192SOL    HW115209   3.638   2.766   6.566  0.9466 -2.6571  0.5397
 1192SOL    HW215210   3.517   2.792   6.482 -0.9800 -1.7616 -2.5207
 1193SOL     OW15211   3.078   0.895   8.251 -0.2075  0.0881 -0.3261
 1193SOL    HW115212   3.080   0.990   8.252 -1.5179  0.1289 -0.8202
 1193SOL    HW215213   2.991   0.875   8.288 -0.2988 -0.1334 -0.6596
 1194SOL     OW15214   3.283   1.516   2.949 -0.4626 -0.6740 -0.1539
 1194SOL    HW115215   3.271   1.424   2.974 -1.0334 -0.2682  1.0988
 1194SOL    HW215216   3.305   1.507   2.856 -0.3768 -1.0231 -0.1003
 1195SOL     OW15217   4.211   3.918   4.076  0.1064 -0.4335  0.3635
 1195SOL    HW115218   4.204   3.825   4.053 -0.3786  0.4571 -3.0429
 1195SOL    HW215219   4.303   3.920   4.102 -0.8946  1.7040  3.7315
 1196SOL     OW15220   4.393   1.539   3.716  0.5783  0.8627 -0.4392
 1196SOL    HW115221   4.476   1.534   3.764  0.3813 -3.0001 -0.5229
 1196SOL    HW215222   4.423   1.534   3.625  2.1341 -1.7929  0.2035
 1197SOL     OW15223   1.387   4.439   5.724 -0.3463 -0.0142 -0.3003
 1197SOL    HW115224   1.293   4.453   5.714  0.0766  3.5164  0.7239
 1197SOL    HW215225   1.398   4.345   5.707  1.3739 -0.0943  1.1773
 1198SOL     OW15226   3.405   4.187   5.491  0.0983 -0.0176 -0.0215
 1198SOL    HW115227   3.463   4.262   5.477  0.0290  0.1348  0.5220
 1198SOL    HW215228   3.321   4.223   5.464  0.7179 -1.7858 -4.2539
 1199SOL     OW15229   0.919   1.005  10.586  0.2856 -0.1384  0.2488
 1199SOL    HW115230   0.901   0.949  10.511 -0.0238  0.2139  0.0625
 1199SOL    HW215231   0.876   1.085  10.556  1.8012  0.1869 -1.0675
 1200SOL     OW15232   0.032   0.669   9.123 -0.0716  0.1232 -0.2572
 1200SOL    HW115233   4.677   0.654   9.100  0.1222  0.0784 -1.0067
 1200SOL    HW215234   0.063   0.686   9.034  2.8691  0.2102  0.7644
 1201SOL     OW15235   0.802   3.101   6.212 -0.0596 -0.6925 -0.1048
 1201SOL    HW115236   0.831   3.064   6.296  1.2307  1.1149  0.2467
 1201SOL    HW215237   0.736   3.046   6.171 -1.5914 -0.4514  2.0385
 1202SOL     OW15238   0.722   1.079   2.354  0.4791 -0.0567  0.3700
 1202SOL    HW115239   0.660   1.151   2.369 -0.5433 -1.0040  0.6811
 1202SOL    HW215240   0.785   1.097   2.423  0.0875  1.2297  0.3838
 1203SOL     OW15241   0.906   0.381   9.870  0.2517  0.1698  0.2729
 1203SOL    HW115242   0.931   0.424   9.951  0.5446  1.3082 -0.4218
 1203SOL    HW215243   0.944   0.296   9.892  0.1362 -0.4066 -1.7206
 1204SOL     OW15244   2.635   0.330   2.776  0.5673 -0.0770 -0.2919
 1204SOL    HW115245   2.690   0.408   2.778  1.5528 -0.7822  0.4635
 1204SOL    HW215246   2.618   0.319   2.682  0.7831  0.9096 -0.4493
 1205SOL     OW15247   2.025   2.851   6.292  1.3018  0.4913  0.4366
 1205SOL    HW115248   1.978   2.828   6.212  2.4665 -2.3395  0.5757
 1205SOL    HW215249   1.974   2.930   6.312  0.9030  0.4206 -0.2820
 1206SOL     OW15250   3.009   0.837   7.377 -0.3677  0.0780  0.2325
 1206SOL    HW115251   2.963   0.784   7.442 -0.0419 -0.2977  0.1541
 1206SOL    HW215252   3.101   0.825   7.399 -0.1298  1.5401  0.0639
 1207SOL     OW15253   4.507   3.936   7.060  0.2939  0.1026  0.1640
 1207SOL    HW115254   4.462   4.020   7.064 -1.0377 -0.5252 -1.9263
 1207SOL    HW215255   4.436   3.884   7.099 -1.2583  1.4773 -0.8776
 1208SOL     OW15256   2.957   1.036  16.964 -0.3839  0.2218  0.2013
 1208SOL    HW115257   2.929   0.950  16.994 -2.0006  1.0312  1.0250
 1208SOL    HW215258   3.043   1.038  17.005  0.7067 -1.5990 -1.9981
 1209SOL     OW15259   2.920   1.570   4.529  0.5683  0.1582 -0.3980
 1209SOL    HW115260   2.972   1.616   4.463  1.5893  1.2218  1.1390
 1209SOL    HW215261   2.884   1.495   4.483  0.6806 -0.6705  0.8706
 1210SOL     OW15262   1.001   1.165   4.425 -0.4225 -0.4967  0.0402
 1210SOL    HW115263   1.080   1.133   4.469 -1.0099 -2.0799 -0.0703
 1210SOL    HW215264   0.993   1.104   4.353 -2.3337  0.6160 -0.6976
 1211SOL     OW15265   2.442   0.058  15.218  0.3088  0.8307 -0.7693
 1211SOL    HW115266   2.532   0.046  15.249 -0.0708  0.7469  0.2958
 1211SOL    HW215267   2.394   0.011  15.286 -1.3538  3.3212 -0.2359
 1212SOL     OW15268   2.445   0.792   6.721  0.2343 -0.1765 -0.0634
 1212SOL    HW115269   2.427   0.716   6.775  0.3775 -1.1247 -1.3650
 1212SOL    HW215270   2.365   0.843   6.734 -0.0616 -1.2536  2.2949
 1213SOL     OW15271   4.063   2.738   7.279 -0.4863 -0.0650  0.4640
 1213SOL    HW115272   3.971   2.767   7.278 -0.4505  0.0482  1.3240
 1213SOL    HW215273   4.042   2.648   7.302 -2.0618 -0.0233 -0.7203
 1214SOL     OW15274   1.379   0.817   3.498 -0.0028 -0.2304 -0.3002
 1214SOL    HW115275   1.344   0.838   3.584  0.5332  1.3624 -0.4711
 1214SOL    HW215276   1.467   0.848   3.519 -1.3770  3.4083  0.0424
 1215SOL     OW15277   2.160   2.881  16.906 -0.1607 -0.5105  0.0957
 1215SOL    HW115278   2.080   2.837  16.934  0.2885 -0.1119  1.9588
 1215SOL    HW215279   2.127   2.964  16.872 -0.2111 -0.0481  1.3119
 1216SOL     OW15280   4.266   2.778  13.881  0.1471 -0.1483 -0.2603
 1216SOL    HW115281   4.346   2.814  13.842  0.2982 -0.4890 -0.2663
 1216SOL    HW215282   4.246   2.725  13.804 -2.6424  1.9243 -0.9580
 1217SOL     OW15283   3.076   0.806  15.879  0.5173 -0.6679  0.1636
 1217SOL    HW115284   3.047   0.856  15.803  1.2038 -0.4368  0.0498
 1217SOL    HW215285   3.002   0.809  15.938 -0.1261 -1.5646 -0.5987
 1218SOL     OW15286   4.438   1.677  15.099  0.0695 -0.0639 -0.1871
 1218SOL    HW115287   4.511   1.673  15.038  1.4682 -0.0710  1.4955
 1218SOL    HW215288   4.378   1.746  15.070  1.7927  1.3396 -0.4497
 1219SOL     OW15289   2.718   0.272   5.692  0.3498  0.1164  0.2707
 1219SOL    HW115290   2.643   0.227   5.652  0.6201 -0.2543  0.1850
 1219SOL    HW215291   2.779   0.255   5.620 -1.9962 -0.0251 -1.6756
 1220SOL     OW15292   0.758   1.400   3.875 -0.1459 -0.3223 -0.6407
 1220SOL    HW115293   0.783   1.458   3.802  0.2601 -0.7564 -0.8443
 1220SOL    HW215294   0.839   1.397   3.926 -0.5762  0.7305  0.0914
 1221SOL     OW15295   2.032   4.463   3.035  0.6894 -0.2838 -0.1688
 1221SOL    HW115296   2.122   4.439   3.056  0.6277  0.7339  1.2056
 1221SOL    HW215297   2.012   4.390   2.975  1.6347  1.4324 -2.5750
 1222SOL     OW15298   3.081   4.374   7.046  0.5950 -0.1649 -0.0799
 1222SOL    HW115299   3.030   4.442   7.003  0.5675  0.3827  0.8299
 1222SOL    HW215300   3.030   4.328   7.112 -2.0025  1.4841 -0.9407
 1223SOL     OW15301   4.047   3.071  12.385 -0.0793  1.2313 -0.0679
 1223SOL    HW115302   4.117   3.034  12.331 -1.0332 -1.7768  0.7340
 1223SOL    HW215303   4.087   3.148  12.426  2.8432 -0.3853  0.1597
 1224SOL     OW15304   3.310   4.073   6.081 -0.1830 -0.1571  0.0428
 1224SOL    HW115305   3.278   4.016   6.151 -0.6550 -1.2235 -1.0391
 1224SOL    HW215306   3.398   4.037   6.072 -0.6948 -1.3352 -0.2079
 1225SOL     OW15307   2.704   0.549   6.097  0.7033 -0.1787  0.5855
 1225SOL    HW115308   2.657   0.466   6.100  0.2351  0.0152 -1.2083
 1225SOL    HW215309   2.793   0.526   6.069  1.6525  2.4942  1.3995
 1226SOL     OW15310   0.223   2.387   9.944  0.6274  0.6773 -0.3988
 1226SOL    HW115311   0.150   2.329   9.968  0.1231  1.2678 -0.5265
 1226SOL    HW215312   0.209   2.458  10.007 -0.7463 -0.1884  0.2651
 1227SOL     OW15313   2.363   2.380   1.827  0.0780 -0.4144  0.0817
 1227SOL    HW115314   2.414   2.461   1.836  0.1560 -0.4051 -0.4798
 1227SOL    HW215315   2.324   2.399   1.742 -1.9708  1.0644  1.3640
 1228SOL     OW15316   3.973   2.829   4.941  0.3392 -0.2831 -0.4986
 1228SOL    HW115317   4.002   2.897   5.002  1.5461 -0.5401 -0.7774
 1228SOL    HW215318   4.048   2.769   4.933  0.6197  0.1583 -1.1654
 1229SOL     OW15319   0.240   2.101   9.051 -0.2991 -0.2545 -0.3269
 1229SOL    HW115320   0.213   2.136   9.136  1.5277  0.7996 -0.1670
 1229SOL    HW215321   0.197   2.016   9.053  0.2231 -0.5088  0.3427
 1230SOL     OW15322   1.810   4.732   5.251  0.0314  0.1921 -0.0152
 1230SOL    HW115323   1.773   4.721   5.164  1.3741  2.5245 -0.8862
 1230SOL    HW215324   1.885   0.051   5.233 -1.2266  2.0284  0.3970
 1231SOL     OW15325   1.295   2.675   2.962  0.2885  0.9744 -0.5932
 1231SOL    HW115326   1.360   2.689   2.893  1.0413 -3.7682 -0.8673
 1231SOL    HW215327   1.217   2.659   2.909  1.5152  0.7475 -2.3471
 1232SOL     OW15328   0.285   3.266   1.104 -0.2375 -0.5207  0.0753
 1232SOL    HW115329   0.336   3.342   1.132 -0.3756 -0.8950  1.3641
 1232SOL    HW215330   0.201   3.306   1.084 -0.2924  0.0148  1.4308
 1233SOL     OW15331   0.009   0.941  14.773 -0.7240  0.1116 -0.5436
 1233SOL    HW115332   0.005   0.883  14.696  2.2315  0.4367 -0.9672
 1233SOL    HW215333   4.658   0.930  14.809  0.6576 -2.2221  2.0388
 1234SOL     OW15334   3.492   0.999   4.968 -0.6279 -0.1532  0.3415
 1234SOL    HW115335   3.529   1.046   5.043  0.9178  0.2965 -0.7053
 1234SOL    HW215336   3.576   0.959   4.943  0.4636  2.1720  0.2802
 1235SOL     OW15337   2.823   0.473   6.565  0.4882  0.8807 -0.1206
 1235SOL    HW115338   2.797   0.553   6.519 -1.2440 -0.4066 -1.3518
 1235SOL    HW215339   2.755   0.414   6.533  1.0043  0.7670 -1.0173
 1236SOL     OW15340   2.564   0.355   4.599  0.1708 -0.1233 -0.2023
 1236SOL    HW115341   2.552   0.430   4.658 -1.0884 -1.5972  1.4008
 1236SOL    HW215342   2.659   0.353   4.589  0.3913  3.6422  1.0644
 1237SOL     OW15343   3.494   0.751   0.523 -0.0992  0.2067  0.4293
 1237SOL    HW115344   3.406   0.788   0.528 -0.1837 -0.2786  2.4113
 1237SOL    HW215345   3.483   0.705   0.440 -2.1541 -1.2259  1.4934
 1238SOL     OW15346   0.056   0.124   0.076  0.1023 -0.2261 -0.5693
 1238SOL    HW115347   4.709   0.133   0.029  0.3689  3.2494 -0.3778
 1238SOL    HW215348   0.100   0.208   0.071 -0.5336  0.1423  0.0773
 1239SOL     OW15349   1.569   2.481   9.812  0.3082  0.7024  0.1501
 1239SOL    HW115350   1.589   2.396   9.772 -2.0317 -0.1014  0.6869
 1239SOL    HW215351   1.581   2.473   9.907  0.7222  0.9685  0.1207
 1240SOL     OW15352   2.507   0.140   3.905 -0.1161 -0.2230 -0.1009
 1240SOL    HW115353   2.496   0.178   3.992  1.6742 -0.3492  0.1770
 1240SOL    HW215354   2.415   0.119   3.888 -0.8702  2.6330  0.4394
 1241SOL     OW15355   3.758   4.615   0.234  0.0142 -0.3752  0.7134
 1241SOL    HW115356   3.680   4.579   0.276  0.2639  1.9636  3.1335
 1241SOL    HW215357   3.782   4.556   0.162  2.0124  0.1637  0.9530
 1242SOL     OW15358   3.215   1.794   3.778 -0.0956  0.3374  0.8840
 1242SOL    HW115359   3.182   1.841   3.855 -0.7849 -1.1164  1.4749
 1242SOL    HW215360   3.291   1.847   3.755 -1.0406  1.2587 -0.0802
 1243SOL     OW15361   0.771   4.499  16.673  0.5413  0.2546 -0.3070
 1243SOL    HW115362   0.776   4.437  16.601 -0.9154 -0.4889  0.2446
 1243SOL    HW215363   0.735   4.572  16.622  0.6780  1.2299  0.9882
 1244SOL     OW15364   2.331   1.289  12.115  0.3317 -0.7825  0.2000
 1244SOL    HW115365   2.416   1.279  12.157  0.3570 -2.7456 -0.2871
 1244SOL    HW215366   2.275   1.333  12.179  1.9290  2.1184 -0.4121
 1245SOL     OW15367   0.075   4.642   6.851 -0.1097  0.5485  0.3229
 1245SOL    HW115368   0.083   4.557   6.807  0.7433  0.7386  0.0998
 1245SOL    HW215369   0.010   4.688   6.798  0.7773 -0.0651 -1.2867
 1246SOL     OW15370   0.572   3.692  11.783  0.2368  0.1047  0.0225
 1246SOL    HW115371   0.502   3.749  11.814 -0.2334 -0.9625  0.9084
 1246SOL    HW215372   0.581   3.636  11.860 -0.2267 -2.0453 -1.5187
 1247SOL     OW15373   1.174   1.692   3.254 -0.3254 -0.3477 -0.3329
 1247SOL    HW115374   1.162   1.660   3.165  0.4509  1.1683 -0.9811
 1247SOL    HW215375   1.203   1.782   3.237  1.8043 -0.3963  2.9811
 1248SOL     OW15376   4.405   4.723   2.478 -0.1182  0.5692  0.4271
 1248SOL    HW115377   4.460   0.045   2.427 -2.0991  2.4405  0.4441
 1248SOL    HW215378   4.340   0.049   2.509  0.5205  1.6100 -0.3372
 1249SOL     OW15379   2.022   0.488   9.161 -0.1219 -0.0308 -0.0021
 1249SOL    HW115380   2.034   0.559   9.098  1.9096 -1.9292 -1.7653
 1249SOL    HW215381   1.999   0.412   9.108  1.1365 -1.6417  1.7442
 1250SOL     OW15382   2.830   1.928   5.232 -0.1070 -0.5287 -0.3326
 1250SOL    HW115383   2.897   1.934   5.299 -0.2883 -1.6424 -0.0586
 1250SOL    HW215384   2.851   1.852   5.179  0.8852  0.6983 -1.6918
 1251SOL     OW15385   0.235   0.108  15.521  0.4668 -0.5777  0.4559
 1251SOL    HW115386   0.327   0.134  15.527  0.2336  0.9475 -2.3362
 1251SOL    HW215387   0.190   0.153  15.592 -0.6574 -0.9252 -0.0309
 1252SOL     OW15388   1.312   1.064   1.740 -0.3848 -0.0711  0.2158
 1252SOL    HW115389   1.379   1.133   1.740 -1.2875  0.8005 -0.7670
 1252SOL    HW215390   1.372   0.990   1.745  1.5265  1.5695  1.6355
 1253SOL     OW15391   3.381   3.136   5.119  0.3531 -0.1498  0.1066
 1253SOL    HW115392   3.459   3.184   5.092  1.6487 -1.2287  1.9743
 1253SOL    HW215393   3.332   3.142   5.037 -0.2714 -2.6760  0.2856
 1254SOL     OW15394   3.073   0.540   3.484  0.4645  0.1036  0.1816
 1254SOL    HW115395   2.997   0.574   3.531  0.9531  1.5607 -0.0900
 1254SOL    HW215396   3.091   0.611   3.423 -1.0673  0.1471 -0.2103
 1255SOL     OW15397   3.520   2.220   3.836 -0.4346  0.4189  0.1697
 1255SOL    HW115398   3.599   2.209   3.784 -0.6535 -1.4036  0.2061
 1255SOL    HW215399   3.455   2.189   3.773  1.1257 -0.1951 -1.1385
 1256SOL     OW15400   3.287   3.769   8.869  0.1363  0.0841  0.7048
 1256SOL    HW115401   3.313   3.817   8.790 -0.2132  1.1135  1.2175
 1256SOL    HW215402   3.207   3.808   8.906  0.5141  1.5755 -0.0643
 1257SOL     OW15403   1.754   0.314   2.175 -0.0933  0.1221  0.2934
 1257SOL    HW115404   1.847   0.295   2.185 -0.4109 -1.4519  0.3480
 1257SOL    HW215405   1.726   0.247   2.112 -1.9395  2.1901 -1.0766
 1258SOL     OW15406   3.520   4.558   8.354 -0.0654 -0.5639 -0.4942
 1258SOL    HW115407   3.452   4.623   8.372  2.1783  2.0251 -1.2570
 1258SOL    HW215408   3.483   4.473   8.373  0.0603 -0.2560  1.0775
 1259SOL     OW15409   3.744   0.832   8.478  0.0798 -0.5671  0.3657
 1259SOL    HW115410   3.737   0.777   8.400  1.1031  1.2425 -0.9899
 1259SOL    HW215411   3.755   0.765   8.546 -0.8942 -0.7943  0.2899
 1260SOL     OW15412   0.304   1.471   3.321  0.0542 -0.5428  0.2914
 1260SOL    HW115413   0.278   1.540   3.382 -1.6878 -2.7030  1.9927
 1260SOL    HW215414   0.333   1.526   3.248  1.3040 -1.7334 -0.1126
 1261SOL     OW15415   4.075   3.678  12.030  0.1945 -0.0511 -0.1424
 1261SOL    HW115416   3.984   3.682  12.060  0.6267  2.1591  0.9007
 1261SOL    HW215417   4.112   3.599  12.070 -2.4958 -1.5292 -0.5635
 1262SOL     OW15418   0.407   0.653  11.359  0.5544 -0.2557  0.1301
 1262SOL    HW115419   0.500   0.679  11.361  0.3486  0.4838 -0.0522
 1262SOL    HW215420   0.368   0.740  11.369  1.4580 -0.0337  1.8331
 1263SOL     OW15421   2.188   1.054   6.541 -0.3106  0.1449  0.3780
 1263SOL    HW115422   2.136   1.040   6.463  0.6825  0.2414 -0.3016
 1263SOL    HW215423   2.268   1.007   6.519 -0.9381 -1.6650  1.9162
 1264SOL     OW15424   0.466   0.726   7.826 -0.3576  0.2211  0.7318
 1264SOL    HW115425   0.506   0.758   7.745  0.8281  0.8466  1.5731
 1264SOL    HW215426   0.506   0.639   7.813  0.8858  0.5619  2.2187
 1265SOL     OW15427   1.056   3.498   9.129 -0.3559  0.4423 -0.3632
 1265SOL    HW115428   0.970   3.499   9.086 -0.1345  0.3813 -0.8026
 1265SOL    HW215429   1.112   3.435   9.083  0.1736  0.2872  0.4797
 1266SOL     OW15430   0.513   4.508   5.249  0.0216 -0.0127  0.3868
 1266SOL    HW115431   0.553   4.594   5.235  0.3600  0.5062  4.5416
 1266SOL    HW215432   0.592   4.463   5.280  0.7917  0.3947 -0.9863
 1267SOL     OW15433   2.123   0.855   4.536  0.5017 -0.1114 -0.5397
 1267SOL    HW115434   2.035   0.883   4.512  0.2562 -0.4113  0.0235
 1267SOL    HW215435   2.102   0.762   4.534  0.1442 -0.0210 -0.8542
 1268SOL     OW15436   0.399   0.042   6.332  0.3050  0.1383  0.1849
 1268SOL    HW115437   0.413   0.136   6.345 -0.8153  0.3155  0.0420
 1268SOL    HW215438   0.320   0.043   6.279  1.2311  1.7993 -1.1749
 1269SOL     OW15439   3.868   1.846   3.650  0.0403  0.3187  0.3945
 1269SOL    HW115440   3.870   1.772   3.710 -0.0372 -0.3513 -0.4211
 1269SOL    HW215441   3.821   1.904   3.710  0.0542 -0.0232  0.7377
 1270SOL     OW15442   1.608   0.159  16.346 -0.4918 -0.3345 -0.2857
 1270SOL    HW115443   1.600   0.233  16.287  1.7721 -0.0579 -0.2288
 1270SOL    HW215444   1.521   0.151  16.385 -0.9183 -1.4145 -1.4397
 1271SOL     OW15445   3.172   2.587   5.907  0.0685  0.2774 -0.2381
 1271SOL    HW115446   3.227   2.604   5.984 -0.0921  1.5296 -0.3958
 1271SOL    HW215447   3.244   2.550   5.855  0.2907  0.3962 -0.0173
 1272SOL     OW15448   2.187   4.157   3.489 -0.2972  0.4521 -0.0561
 1272SOL    HW115449   2.166   4.247   3.514 -0.7929  0.8662 -1.9606
 1272SOL    HW215450   2.130   4.100   3.541 -0.9112  0.5917 -0.5727
 1273SOL     OW15451   3.728   2.267   4.417 -0.2279 -0.1921  0.4554
 1273SOL    HW115452   3.676   2.196   4.454 -0.9760  0.9007  1.5051
 1273SOL    HW215453   3.817   2.239   4.439  0.6997  0.9664 -1.7939
 1274SOL     OW15454   1.945   2.369   0.443  0.0772 -0.4146 -0.1817
 1274SOL    HW115455   1.865   2.411   0.412 -1.1079 -1.2589  1.7371
 1274SOL    HW215456   1.981   2.343   0.358 -0.6180 -1.7853 -0.0639
 1275SOL     OW15457   0.345   4.361   5.423 -0.6351 -0.0808 -0.4322
 1275SOL    HW115458   0.352   4.283   5.369  0.1480 -0.5412  0.3357
 1275SOL    HW215459   0.385   4.426   5.365  0.8369  0.1362  0.8246
 1276SOL     OW15460   1.442   0.441   4.258 -0.1304 -0.3957 -0.2860
 1276SOL    HW115461   1.472   0.386   4.330  0.9023  0.5573  0.0032
 1276SOL    HW215462   1.458   0.393   4.176 -1.4073 -0.0315 -0.7491
 1277SOL     OW15463   2.932   1.079   1.162 -0.4740 -0.3441 -0.1160
 1277SOL    HW115464   2.877   1.008   1.195 -0.5162 -1.4424 -2.5329
 1277SOL    HW215465   2.884   1.156   1.193  1.3241  0.7165  0.0090
 1278SOL     OW15466   2.144   3.168   8.958  0.0253  1.0668  0.2208
 1278SOL    HW115467   2.121   3.258   8.982 -2.8296  0.4093 -0.0139
 1278SOL    HW215468   2.111   3.121   9.035 -3.0955 -0.5184 -2.0828
 1279SOL     OW15469   2.292   0.116   2.748 -0.4642  0.2260  0.2583
 1279SOL    HW115470   2.274   0.030   2.787  1.1112  0.3879  1.3556
 1279SOL    HW215471   2.379   0.100   2.711  1.2041  1.0135  3.8419
 1280SOL     OW15472   3.294   3.430   7.797 -0.1004 -0.3707  0.1647
 1280SOL    HW115473   3.351   3.356   7.818 -0.2350 -0.6100 -0.3093
 1280SOL    HW215474   3.203   3.401   7.803  0.1071 -0.9444  0.5713
 1281SOL     OW15475   2.787   0.305   2.199  0.1267  0.0970  0.2029
 1281SOL    HW115476   2.818   0.251   2.127  1.4989  1.4826 -0.2420
 1281SOL    HW215477   2.707   0.261   2.226  1.3290 -2.4605 -0.4216
 1282SOL     OW15478   3.925   2.062  15.332 -0.0059  0.0877  0.6901
 1282SOL    HW115479   3.889   2.061  15.244  0.2239 -0.8277  0.6093
 1282SOL    HW215480   4.019   2.075  15.314  0.0224  0.0035  0.7770
 1283SOL     OW15481   0.001   3.748   4.189  0.0742  0.0593  0.5172
 1283SOL    HW115482   0.038   3.664   4.214  1.1374  0.7142  1.1237
 1283SOL    HW215483   4.671   3.770   4.254 -0.4178  0.5373 -0.1490
 1284SOL     OW15484   2.033   3.159   1.875 -0.0926 -0.0317  0.5174
 1284SOL    HW115485   1.993   3.245   1.864  0.1538  0.4984  3.9528
 1284SOL    HW215486   1.958   3.105   1.899 -0.8827  0.3062 -1.1403
 1285SOL     OW15487   2.731   4.500  16.015  0.2115 -0.0607  0.6975
 1285SOL    HW115488   2.805   4.445  16.038  1.3357  1.0753 -0.1751
 1285SOL    HW215489   2.697   4.524  16.101 -1.0105  0.2694  0.1246
 1286SOL     OW15490   1.286   0.813   9.502 -0.4664  0.1308 -0.0537
 1286SOL    HW115491   1.311   0.721   9.497 -0.8163  0.1186 -1.6109
 1286SOL    HW215492   1.296   0.849   9.414 -2.4093  0.3743 -0.1695
 1287SOL     OW15493   4.049   0.403   5.811 -0.3234  0.3853  0.3881
 1287SOL    HW115494   4.021   0.313   5.828 -0.1662  0.3891  0.6626
 1287SOL    HW215495   4.074   0.395   5.719 -0.1035  0.8305  0.4064
 1288SOL     OW15496   2.190   2.020   8.388  0.0471 -0.2057  0.2530
 1288SOL    HW115497   2.278   2.058   8.383 -0.2108  0.3796  0.1933
 1288SOL    HW215498   2.139   2.077   8.331  0.4186  0.2513  0.3717
 1289SOL     OW15499   0.907   2.830   4.344 -0.3525 -0.1223 -0.2715
 1289SOL    HW115500   0.964   2.847   4.419 -2.3651  0.2904  1.1830
 1289SOL    HW215501   0.977   2.817   4.280  1.6395 -0.6967  2.0367
 1290SOL     OW15502   2.131   4.565  16.591 -0.4717  0.0402 -0.5954
 1290SOL    HW115503   2.100   4.544  16.679 -0.5307 -1.9405 -1.0894
 1290SOL    HW215504   2.094   4.499  16.533  1.7134 -1.2525 -0.5239
 1291SOL     OW15505   0.713   3.856  10.030 -0.3568  0.2914  0.4862
 1291SOL    HW115506   0.634   3.869   9.977  0.2990  0.4899 -0.4584
 1291SOL    HW215507   0.669   3.867  10.114  0.8228 -0.5773  1.2281
 1292SOL     OW15508   1.733   3.897   3.065 -0.5550 -0.4464 -0.1186
 1292SOL    HW115509   1.798   3.929   3.128 -0.4227 -1.7040  0.3907
 1292SOL    HW215510   1.798   3.864   3.002 -0.2349 -0.7911  0.3970
 1293SOL     OW15511   4.524   1.256   8.586  0.4502  0.1002 -0.3271
 1293SOL    HW115512   4.609   1.223   8.612  1.0680  3.5812  2.0219
 1293SOL    HW215513   4.525   1.259   8.490 -0.3547 -0.6441 -0.3644
 1294SOL     OW15514   4.111   3.934   5.817 -0.5032 -0.2144  0.0296
 1294SOL    HW115515   4.196   3.956   5.855  1.1386  0.3170 -3.9987
 1294SOL    HW215516   4.069   4.020   5.811  1.0231  0.5337  0.1771
 1295SOL     OW15517   3.415   3.196   2.550 -0.1842 -0.5181 -0.2505
 1295SOL    HW115518   3.357   3.159   2.616  0.1221  1.1185  0.9537
 1295SOL    HW215519   3.461   3.115   2.531 -2.1697 -1.8917  0.7868
 1296SOL     OW15520   3.522   2.906   2.551  0.0810  0.2440 -0.2982
 1296SOL    HW115521   3.483   2.846   2.487  0.6489  0.4139 -0.8045
 1296SOL    HW215522   3.462   2.902   2.625  0.7637  2.5535  0.3812
 1297SOL     OW15523   2.932   4.292   5.465 -0.0815  0.0165  0.0514
 1297SOL    HW115524   3.001   4.227   5.469  2.0341  2.2846  0.3419
 1297SOL    HW215525   2.973   4.356   5.523 -0.6749  0.7181 -0.2943
 1298SOL     OW15526   3.284   0.073   2.237  0.0291 -0.1872 -0.6231
 1298SOL    HW115527   3.370   0.093   2.274 -1.2753  1.1525  1.7065
 1298SOL    HW215528   3.233   0.150   2.262  1.8868  1.0927 -0.7842
 1299SOL     OW15529   1.657   1.674   5.888  0.2287  0.2061  0.6203
 1299SOL    HW115530   1.667   1.711   5.801  0.4382 -0.0582  0.5344
 1299SOL    HW215531   1.567   1.645   5.876  0.2061  0.2994  0.5685
 1300SOL     OW15532   3.813   1.976   9.104 -0.5607 -0.0947  0.2664
 1300SOL    HW115533   3.753   1.936   9.167  2.1267 -1.1604  2.1437
 1300SOL    HW215534   3.882   2.013   9.160 -0.4339  0.0381  0.0203
 1301SOL     OW15535   0.341   3.320   8.549  0.0663 -0.3296 -0.2710
 1301SOL    HW115536   0.286   3.364   8.614 -1.1374 -0.8590 -0.9303
 1301SOL    HW215537   0.417   3.378   8.559  0.4395 -0.9446  0.4841
 1302SOL     OW15538   0.964   1.258   8.800  0.0128  0.1191 -0.1950
 1302SOL    HW115539   0.923   1.223   8.721 -2.2395  1.4275  0.3878
 1302SOL    HW215540   0.938   1.350   8.794 -0.5038  0.0853  1.7057
 1303SOL     OW15541   2.345   0.457   8.528  0.4265 -0.0395 -0.2918
 1303SOL    HW115542   2.288   0.521   8.569  0.4259 -1.0033  1.2274
 1303SOL    HW215543   2.429   0.500   8.543  0.6385 -0.7833  0.6775
 1304SOL     OW15544   3.802   3.547   5.250  0.4223 -0.1342 -0.2896
 1304SOL    HW115545   3.712   3.536   5.280  0.3413  0.7048 -0.2320
 1304SOL    HW215546   3.843   3.479   5.303 -1.2968 -1.5801 -0.8150
 1305SOL     OW15547   4.554   0.911   2.568  0.3682 -0.1329 -0.2148
 1305SOL    HW115548   4.601   0.867   2.639 -1.7130 -1.8065  0.1390
 1305SOL    HW215549   4.462   0.913   2.597  0.3520  0.8293 -0.3253
 1306SOL     OW15550   3.362   0.763   6.232 -0.2696 -1.0622 -0.2626
 1306SOL    HW115551   3.422   0.688   6.227 -0.7040 -1.3106 -1.8374
 1306SOL    HW215552   3.332   0.761   6.141  3.1489 -0.3356 -1.4363
 1307SOL     OW15553   1.211   2.507   6.666 -0.2605  0.0147  0.0164
 1307SOL    HW115554   1.163   2.432   6.632 -0.2627  0.1618 -0.3072
 1307SOL    HW215555   1.129   2.556   6.672 -0.4421 -0.1752 -0.8785
 1308SOL     OW15556   0.174   0.528  13.384 -0.2640  0.2579  0.5953
 1308SOL    HW115557   0.117   0.563  13.316  1.4612 -0.5592 -1.2591
 1308SOL    HW215558   0.205   0.445  13.349  0.7272  0.4713  0.9688
 1309SOL     OW15559   3.163   3.360   2.079  0.0068  0.1199  0.5800
 1309SOL    HW115560   3.121   3.415   2.145 -0.4522 -1.0253  1.2457
 1309SOL    HW215561   3.222   3.308   2.134 -0.7467 -1.0966  0.2533
 1310SOL     OW15562   2.593   4.666  10.851  0.3318 -0.0554 -0.4317
 1310SOL    HW115563   2.619   0.007  10.899 -0.0613 -1.5246  2.1579
 1310SOL    HW215564   2.552   4.609  10.916  1.6250  0.4617  0.8378
 1311SOL     OW15565   4.718   0.961  11.182 -0.5990  0.1808 -0.3779
 1311SOL    HW115566   0.069   0.996  11.168 -0.4063 -1.3729 -2.9676
 1311SOL    HW215567   4.706   0.903  11.108 -0.0340 -0.4825  0.0445
 1312SOL     OW15568   0.536   0.283   3.974 -0.3902 -0.1396  0.3811
 1312SOL    HW115569   0.492   0.357   3.933  0.0335  0.4811  1.0616
 1312SOL    HW215570   0.530   0.312   4.065  0.2551  2.8613 -0.5240
 1313SOL     OW15571   1.265   3.018   6.066 -0.4721 -0.0652  0.1773
 1313SOL    HW115572   1.269   3.094   6.124 -0.1387 -0.4652  0.6745
 1313SOL    HW215573   1.345   2.968   6.084  0.4067  0.9305 -0.9299
 1314SOL     OW15574   0.061   2.701  11.925  0.5929 -0.0428  0.4352
 1314SOL    HW115575   0.044   2.682  11.833  1.2441  1.2835  0.0523
 1314SOL    HW215576   0.153   2.675  11.922 -0.0352 -2.5430  2.0821
 1315SOL     OW15577   3.286   4.439   4.690  0.2920 -0.0626  0.3626
 1315SOL    HW115578   3.280   4.469   4.599 -1.2942 -1.9851 -0.1558
 1315SOL    HW215579   3.357   4.376   4.693 -0.3175 -0.7977 -0.7070
 1316SOL     OW15580   3.031   4.302   2.783  0.0266 -0.2656 -0.2313
 1316SOL    HW115581   3.121   4.322   2.808  0.4996 -2.5059 -0.1395
 1316SOL    HW215582   2.991   4.386   2.804 -0.9004 -0.2677 -1.9797
 1317SOL     OW15583   4.145   2.256  15.878  0.0920  0.0927  0.6562
 1317SOL    HW115584   4.056   2.241  15.911 -0.5299  0.3388 -0.8646
 1317SOL    HW215585   4.195   2.263  15.959  0.8997 -1.0113  0.2558
 1318SOL     OW15586   3.723   2.514  10.759 -0.0784 -0.0936 -0.7572
 1318SOL    HW115587   3.652   2.449  10.763  0.4271 -0.5775  0.4657
 1318SOL    HW215588   3.744   2.520  10.852 -1.1593 -3.5011 -0.3061
 1319SOL     OW15589   0.894   0.196   9.220 -0.0871  0.1069  0.1304
 1319SOL    HW115590   0.847   0.145   9.154  1.1107 -0.1704 -0.5069
 1319SOL    HW215591   0.926   0.270   9.168  0.3433 -1.6783 -2.1526
 1320SOL     OW15592   3.808   2.742   2.737  0.5030 -0.0703 -0.3795
 1320SOL    HW115593   3.749   2.677   2.698 -1.5252  1.0681  0.7994
 1320SOL    HW215594   3.817   2.803   2.664  3.5733  1.3512  1.1829
 1321SOL     OW15595   0.982   3.938   3.957  0.0906  0.3571 -0.3632
 1321SOL    HW115596   1.029   3.855   3.959  1.5582  1.1056 -3.0565
 1321SOL    HW215597   0.890   3.919   3.938 -0.4990  0.5019  2.4443
 1322SOL     OW15598   4.303   1.562   4.053  0.7766 -0.0960 -0.3918
 1322SOL    HW115599   4.266   1.543   4.139  2.1919 -1.0519  0.0242
 1322SOL    HW215600   4.266   1.499   3.991 -0.1421  0.1198 -0.0573
 1323SOL     OW15601   3.366   3.322  11.979  0.3945 -0.3314  0.0024
 1323SOL    HW115602   3.325   3.387  11.921 -0.0682 -1.4018 -0.8643
 1323SOL    HW215603   3.284   3.286  12.013  0.1470  0.4304  0.2159
 1324SOL     OW15604   1.135   4.552   1.884  0.0949 -0.5148 -0.1380
 1324SOL    HW115605   1.187   4.588   1.812  2.9965  1.8259  3.1815
 1324SOL    HW215606   1.056   4.595   1.850  2.0304  1.0903 -2.6083
 1325SOL     OW15607   1.257   2.938   7.395 -0.7268  0.8837  0.1706
 1325SOL    HW115608   1.263   2.983   7.479 -0.3518 -1.5716  1.4461
 1325SOL    HW215609   1.270   3.007   7.329  2.4881 -1.1508 -1.3175
 1326SOL     OW15610   2.500   0.062   8.787 -0.5992  0.0479 -0.1268
 1326SOL    HW115611   2.407   0.078   8.800 -0.8079 -0.8771 -0.4761
 1326SOL    HW215612   2.498   0.065   8.691 -0.5259 -0.7860 -0.1594
 1327SOL     OW15613   0.937   3.628   6.431  0.3371 -0.7179 -0.1886
 1327SOL    HW115614   0.882   3.627   6.353  0.6272 -2.9406 -0.3814
 1327SOL    HW215615   0.917   3.548   6.480 -0.8269 -0.0711  0.4011
 1328SOL     OW15616   3.872   1.899  10.083 -0.3946 -0.1089  0.4508
 1328SOL    HW115617   3.928   1.826  10.058  0.0588  0.3885  0.0195
 1328SOL    HW215618   3.789   1.878  10.038  0.2338 -1.2186 -0.2013
 1329SOL     OW15619   0.973   4.154   7.625  0.4383 -0.2324 -0.0778
 1329SOL    HW115620   1.048   4.098   7.647  0.1834 -0.3507  0.4955
 1329SOL    HW215621   0.929   4.098   7.561  0.5187 -1.9622  1.3560
 1330SOL     OW15622   0.871   4.478   9.447 -0.3132 -0.2584 -0.3490
 1330SOL    HW115623   0.801   4.413   9.450 -0.8726  0.3778  0.7633
 1330SOL    HW215624   0.906   4.454   9.533  1.1938 -0.3176 -0.9820
 1331SOL     OW15625   4.636   1.486   1.866 -0.4956  0.0541  0.7730
 1331SOL    HW115626   4.583   1.475   1.945 -0.1430  0.7015  1.1015
 1331SOL    HW215627   4.714   1.530   1.900 -0.1322  0.5371 -0.6611
 1332SOL     OW15628   4.090   1.723   3.540  0.0259 -0.0409 -0.3281
 1332SOL    HW115629   4.038   1.644   3.559  1.0456 -0.3524  1.1982
 1332SOL    HW215630   4.036   1.796   3.570  2.3297  1.5056  0.0634
 1333SOL     OW15631   1.197   0.635  13.725 -0.0663 -0.2074  0.1620
 1333SOL    HW115632   1.262   0.566  13.734 -1.4538 -1.3531  1.2921
 1333SOL    HW215633   1.126   0.602  13.780  0.5470 -0.1966  0.9610
 1334SOL     OW15634   0.375   2.182   0.816  0.5602  0.1287  0.8303
 1334SOL    HW115635   0.362   2.272   0.844 -1.2247  0.5063 -1.1409
 1334SOL    HW215636   0.285   2.152   0.798  1.3303 -1.4732 -0.4174
 1335SOL     OW15637   0.257   0.647   3.258 -0.1354  0.1969  0.3715
 1335SOL    HW115638   0.178   0.679   3.300  0.7362 -0.5061  2.5083
 1335SOL    HW215639   0.310   0.628   3.335 -1.0407 -1.3409  0.6247
 1336SOL     OW15640   1.605   2.155  11.521  0.5166  0.0850 -0.6465
 1336SOL    HW115641   1.621   2.249  11.534  1.7131 -0.0994 -0.7886
 1336SOL    HW215642   1.569   2.135  11.608 -0.0431  0.3357 -0.8203
 1337SOL     OW15643   3.671   1.267   5.972  0.7034 -0.0793 -0.1546
 1337SOL    HW115644   3.735   1.260   6.043 -1.8899 -1.5037  2.0701
 1337SOL    HW215645   3.598   1.301   6.024  1.3935 -0.1744  0.8839
 1338SOL     OW15646   3.942   4.184  11.273 -0.2916  0.5411 -0.2047
 1338SOL    HW115647   3.894   4.131  11.337 -0.0627 -1.2581 -1.5397
 1338SOL    HW215648   4.025   4.200  11.318 -0.0205  0.8246 -0.8145
 1339SOL     OW15649   3.860   4.308   7.958 -0.2531 -0.2145  0.0281
 1339SOL    HW115650   3.921   4.241   7.925  1.5825  1.8112 -0.6873
 1339SOL    HW215651   3.777   4.273   7.927  0.4816  0.6053 -2.9018
 1340SOL     OW15652   2.908   2.183  12.344  0.6554  0.7870  0.0223
 1340SOL    HW115653   2.923   2.129  12.266 -0.5289  1.3091 -0.5603
 1340SOL    HW215654   2.859   2.120  12.396 -0.5526 -0.0225 -2.1170
 1341SOL     OW15655   2.502   1.378   8.610 -0.1676  0.8739 -0.5672
 1341SOL    HW115656   2.558   1.392   8.534  1.1187 -2.7814 -0.2918
 1341SOL    HW215657   2.421   1.343   8.573 -0.2317 -1.2543  1.5897
 1342SOL     OW15658   1.423   0.770  12.586  0.5464  0.6463 -0.3207
 1342SOL    HW115659   1.475   0.690  12.582 -0.5923 -0.1875  1.2554
 1342SOL    HW215660   1.357   0.753  12.518  0.7104  0.7814 -0.5097
 1343SOL     OW15661   0.341   1.180   9.130  0.0503 -0.0113 -0.1596
 1343SOL    HW115662   0.286   1.111   9.093  1.2323 -2.3514  2.4548
 1343SOL    HW215663   0.286   1.218   9.199 -0.5112 -2.1576  0.5519
 1344SOL     OW15664   1.798   2.433   7.026  0.2105  0.0400 -0.1300
 1344SOL    HW115665   1.717   2.388   7.001 -0.0373 -1.3552  3.2146
 1344SOL    HW215666   1.874   2.387   6.990  0.1867  0.8123 -1.1519
 1345SOL     OW15667   2.626   2.556   2.439 -0.0141 -0.0370  0.3045
 1345SOL    HW115668   2.532   2.556   2.458 -0.0954 -2.4405 -0.1387
 1345SOL    HW215669   2.628   2.462   2.453  1.0876 -0.3247 -1.7763
 1346SOL     OW15670   4.288   0.432   0.739 -0.6596  0.1104 -0.0965
 1346SOL    HW115671   4.282   0.524   0.764 -0.7791  0.2944 -0.8329
 1346SOL    HW215672   4.383   0.435   0.725 -0.5533 -0.8112  0.3669
 1347SOL     OW15673   2.997   0.370  11.194 -0.2073  0.3975 -0.6527
 1347SOL    HW115674   2.931   0.438  11.208 -0.7449 -0.0299 -1.1136
 1347SOL    HW215675   2.988   0.360  11.099 -1.4429 -0.0591 -0.4975
 1348SOL     OW15676   3.100   0.703   5.225  0.8211 -0.1831  0.0052
 1348SOL    HW115677   3.083   0.770   5.159 -0.5458  0.9031  1.4637
 1348SOL    HW215678   3.167   0.655   5.176  0.4672 -0.3931 -0.2734
 1349SOL     OW15679   3.724   2.152  16.673  0.1481  0.2679 -0.5180
 1349SOL    HW115680   3.660   2.157  16.745  0.4884 -0.6306 -0.1513
 1349SOL    HW215681   3.800   2.198  16.710 -0.4239  0.4481  0.4493
 1350SOL     OW15682   2.713   1.323  17.731  0.2022  0.2861  0.2794
 1350SOL    HW115683   2.749   1.328  17.643  0.7201 -2.7466  0.3179
 1350SOL    HW215684   2.652   1.250  17.719 -0.2230  0.8032 -0.6777
 1351SOL     OW15685   2.782   3.571   6.045  0.1662  0.3853  0.1379
 1351SOL    HW115686   2.799   3.615   5.962 -0.8385  0.9235  0.2118
 1351SOL    HW215687   2.686   3.572   6.042  0.1426 -2.0427  0.1168
 1352SOL     OW15688   1.784   4.209   3.112 -0.3633 -0.1797  0.1223
 1352SOL    HW115689   1.831   4.147   3.168  0.2530 -0.3414 -0.5605
 1352SOL    HW215690   1.829   4.206   3.027 -0.3697 -1.1270  0.1474
 1353SOL     OW15691   0.492   1.652  12.138  0.1192 -0.0295 -0.0926
 1353SOL    HW115692   0.576   1.681  12.105 -0.0046  2.5806  1.8828
 1353SOL    HW215693   0.472   1.713  12.209  0.1349  1.6135 -1.5207
 1354SOL     OW15694   4.684   0.501   3.969  0.2742  0.5159 -0.2728
 1354SOL    HW115695   4.654   0.417   4.004  0.7074  0.6670  0.4602
 1354SOL    HW215696   4.726   0.547   4.041 -0.3066  0.0968  0.3351
 1355SOL     OW15697   3.750   3.092   0.356 -0.4282 -0.1893  0.0512
 1355SOL    HW115698   3.784   3.177   0.331 -1.2854  0.4423  1.0359
 1355SOL    HW215699   3.665   3.094   0.310  0.4836  1.2156 -1.5799
 1356SOL     OW15700   1.045   0.424   3.059  0.5988 -0.2266 -0.2186
 1356SOL    HW115701   1.067   0.343   3.013  2.3227 -0.2617  0.6888
 1356SOL    HW215702   1.097   0.497   3.025 -1.5146  0.0928 -2.8154
 1357SOL     OW15703   3.808   2.129   5.190  0.1762 -0.0730 -0.0644
 1357SOL    HW115704   3.900   2.138   5.212 -0.1384 -0.3421  1.3730
 1357SOL    HW215705   3.824   2.085   5.107  0.2388 -1.0702  0.4766
 1358SOL     OW15706   2.859   4.528   2.886  0.0092 -0.2201 -0.2294
 1358SOL    HW115707   2.782   4.546   2.940  0.8199 -0.0744  0.8672
 1358SOL    HW215708   2.918   4.499   2.956 -2.9499  0.1563  2.4164
 1359SOL     OW15709   2.371   1.779  12.610  0.3955  0.2911  0.3908
 1359SOL    HW115710   2.313   1.852  12.632 -0.0678 -0.3760  1.3697
 1359SOL    HW215711   2.445   1.792  12.669  0.1504  0.8059  0.5857
 1360SOL     OW15712   1.514   0.045  14.704  0.0685 -0.2095 -0.6464
 1360SOL    HW115713   1.442   0.098  14.738 -0.7532 -1.4518 -0.4250
 1360SOL    HW215714   1.472   4.704  14.667  0.5420  0.0645 -1.7736
 1361SOL     OW15715   1.731   2.367   3.680 -0.3307 -0.7869  0.2317
 1361SOL    HW115716   1.812   2.341   3.723  0.1992 -2.8594 -2.0343
 1361SOL    HW215717   1.748   2.365   3.586 -1.6685  2.1859 -0.0603
 1362SOL     OW15718   0.180   1.178   1.679  0.6155 -0.2043 -0.3323
 1362SOL    HW115719   0.242   1.246   1.704  1.1402  0.1151 -2.5691
 1362SOL    HW215720   0.119   1.174   1.753  0.8951 -1.1371 -0.1501
 1363SOL     OW15721   2.758   4.126   7.280 -0.1723  0.5188  0.6102
 1363SOL    HW115722   2.691   4.067   7.244  0.8159 -0.9396  1.1554
 1363SOL    HW215723   2.835   4.109   7.225 -0.6987  1.2689 -0.3586
 1364SOL     OW15724   3.873   1.017  12.804 -0.1938 -0.2237 -0.1894
 1364SOL    HW115725   3.824   1.098  12.792 -0.9490 -0.9349 -2.0469
 1364SOL    HW215726   3.794   0.965  12.787 -0.8692  0.2015  1.6555
 1365SOL     OW15727   3.862   0.511   7.161  0.1148 -0.6600 -0.1599
 1365SOL    HW115728   3.858   0.426   7.117 -0.3955 -1.0934  0.7225
 1365SOL    HW215729   3.864   0.487   7.254  1.5699 -1.2199 -0.3344
 1366SOL     OW15730   1.385   2.998  16.835  0.8158 -0.0732 -0.3217
 1366SOL    HW115731   1.412   2.958  16.918 -3.3181  0.9506  1.5100
 1366SOL    HW215732   1.292   2.979  16.839  0.9391 -0.8812 -1.2685
 1367SOL     OW15733   2.583   2.539  15.479 -0.4582  0.6398  0.5202
 1367SOL    HW115734   2.571   2.463  15.422 -0.1039  0.1816  1.0594
 1367SOL    HW215735   2.547   2.604  15.419  0.5463 -0.8820 -1.7382
 1368SOL     OW15736   1.346   3.413   9.193  0.1529  0.0728 -0.1068
 1368SOL    HW115737   1.318   3.374   9.276  1.0871  1.4017  0.8456
 1368SOL    HW215738   1.359   3.335   9.140 -1.5500  1.6849 -2.8583
 1369SOL     OW15739   0.743   3.883  12.499 -0.4985 -0.1049 -0.1690
 1369SOL    HW115740   0.731   3.816  12.567  2.2493  1.2824  1.7210
 1369SOL    HW215741   0.738   3.964  12.550  0.4369 -0.9199  1.2465
 1370SOL     OW15742   0.977   3.471   1.681 -0.2389 -0.3071 -0.5024
 1370SOL    HW115743   0.911   3.538   1.700  0.3091  0.5753 -1.6974
 1370SOL    HW215744   0.935   3.401   1.731  1.0886 -1.4205 -0.9520
 1371SOL     OW15745   0.491   0.914   0.124  0.6683  0.1442  0.1253
 1371SOL    HW115746   0.540   0.975   0.068  0.5267 -1.4940 -1.7669
 1371SOL    HW215747   0.541   0.832   0.129 -1.3222 -1.0401  0.3727
 1372SOL     OW15748   1.024   4.302   4.898 -0.2216  0.6279 -0.3659
 1372SOL    HW115749   1.051   4.213   4.878 -2.0759  0.4973 -2.4082
 1372SOL    HW215750   1.102   4.343   4.936  1.4914 -2.3013 -0.7622
 1373SOL     OW15751   1.925   0.450  11.825  0.2104  0.2095  0.0481
 1373SOL    HW115752   1.973   0.429  11.905 -0.8009  2.1875  1.1676
 1373SOL    HW215753   1.848   0.492  11.861  0.5939  0.3716  0.6842
 1374SOL     OW15754   3.768   1.991  16.968 -0.2193  0.1996 -0.1472
 1374SOL    HW115755   3.713   2.068  16.978 -0.9540 -0.4022  0.3596
 1374SOL    HW215756   3.795   1.964  17.056 -0.6342 -1.4272 -0.5124
 1375SOL     OW15757   4.354   4.666   6.571  0.1551 -0.0577  0.0386
 1375SOL    HW115758   4.358   4.570   6.576 -2.2120 -0.2525 -1.9558
 1375SOL    HW215759   4.374   4.692   6.661 -0.1418 -0.0025  0.0887
 1376SOL     OW15760   2.858   2.547   4.363 -0.4187  0.4046  0.4932
 1376SOL    HW115761   2.823   2.553   4.274  1.7597 -0.4075 -0.4142
 1376SOL    HW215762   2.778   2.525   4.410 -0.5271 -0.9682 -0.3539
 1377SOL     OW15763   1.419   4.306   6.923 -0.0325  0.4807  0.3493
 1377SOL    HW115764   1.362   4.245   6.877 -2.1064  1.7179  1.2767
 1377SOL    HW215765   1.472   4.337   6.849 -0.3093 -0.3586 -0.2011
 1378SOL     OW15766   3.348   0.043   5.106  0.2661  0.1356 -0.0056
 1378SOL    HW115767   3.370   4.712   5.042 -1.6934 -1.2792  0.7853
 1378SOL    HW215768   3.254   0.023   5.116  1.1715 -2.6649  2.9677
 1379SOL     OW15769   2.808   4.028   6.285  0.1189 -0.2450 -0.0341
 1379SOL    HW115770   2.881   4.088   6.272  0.4593 -0.5550  0.4616
 1379SOL    HW215771   2.816   3.982   6.201 -0.1065  1.9419 -1.2308
 1380SOL     OW15772   4.334   1.712  10.816  0.0080 -0.7274 -0.6083
 1380SOL    HW115773   4.405   1.776  10.812 -1.8655  1.4378  0.9881
 1380SOL    HW215774   4.281   1.748  10.887  2.5855  0.2013  0.8790
 1381SOL     OW15775   2.814   4.118   4.192 -0.2567  0.5329 -0.9592
 1381SOL    HW115776   2.729   4.113   4.235  0.2209 -1.3161 -0.2763
 1381SOL    HW215777   2.831   4.212   4.180  0.8584  0.3497 -0.8277
 1382SOL     OW15778   0.741   1.104   3.380  0.0041 -0.5392 -0.1829
 1382SOL    HW115779   0.772   1.179   3.329  1.0498  0.0707  1.3393
 1382SOL    HW215780   0.654   1.135   3.408 -0.8376 -0.0924 -3.2094
 1383SOL     OW15781   0.954   0.271   0.306 -0.1810 -0.1292 -0.1860
 1383SOL    HW115782   0.924   0.201   0.364 -0.7290  2.7558  2.9854
 1383SOL    HW215783   0.878   0.329   0.305 -0.1137 -0.0399 -0.1265
 1384SOL     OW15784   4.048   3.519   4.597  0.1473  0.4224 -0.6748
 1384SOL    HW115785   3.971   3.565   4.630  0.2238 -1.3581  2.0000
 1384SOL    HW215786   4.104   3.504   4.673 -1.6313 -0.4254  0.4645
 1385SOL     OW15787   3.891   0.798   8.220  0.0170  0.8965  0.2089
 1385SOL    HW115788   3.911   0.727   8.281 -0.9128  0.0059 -0.5288
 1385SOL    HW215789   3.796   0.800   8.219 -0.0043 -0.1001 -0.5423
 1386SOL     OW15790   4.085   3.746   3.821 -0.4321 -0.2749  0.1188
 1386SOL    HW115791   4.036   3.827   3.835 -1.1431 -0.2792 -2.4101
 1386SOL    HW215792   4.165   3.777   3.778 -0.8215  2.4692  1.3630
 1387SOL     OW15793   2.604   1.464   8.371 -0.8957  0.1431 -0.4267
 1387SOL    HW115794   2.623   1.436   8.281  4.8047  0.9501  0.5369
 1387SOL    HW215795   2.563   1.550   8.369 -1.3486 -0.0509  0.6406
 1388SOL     OW15796   0.462   1.336  13.472 -0.0946 -0.1384 -0.9133
 1388SOL    HW115797   0.483   1.255  13.425  0.4235  1.8312 -4.0903
 1388SOL    HW215798   0.521   1.397  13.427  0.1704 -0.2804 -0.7620
 1389SOL     OW15799   1.118   3.081  14.546  0.1388 -0.3057  0.0639
 1389SOL    HW115800   1.028   3.067  14.573 -0.7257  1.8633 -1.7595
 1389SOL    HW215801   1.165   3.005  14.581  0.3227 -1.0535 -1.7772
 1390SOL     OW15802   4.493   1.099   6.422  0.1849 -0.8315 -0.5158
 1390SOL    HW115803   4.428   1.029   6.432 -0.5797 -0.0229  0.1173
 1390SOL    HW215804   4.478   1.166   6.489  0.7169 -1.4872  0.2542
 1391SOL     OW15805   4.267   1.509  12.110 -0.1331  0.0935 -0.0514
 1391SOL    HW115806   4.298   1.427  12.071 -0.8204  0.1138 -0.6319
 1391SOL    HW215807   4.350   1.555  12.097 -0.4232  0.2144 -1.4766
 1392SOL     OW15808   1.685   2.827   2.004  0.5062  0.1106  0.0021
 1392SOL    HW115809   1.626   2.870   1.942 -0.1528 -1.1627 -0.2422
 1392SOL    HW215810   1.628   2.779   2.064  3.4491 -3.6874 -0.2105
 1393SOL     OW15811   3.903   1.651  17.666  0.3306  0.0346 -0.1132
 1393SOL    HW115812   3.938   1.740  17.656  0.6055 -0.2799 -1.8988
 1393SOL    HW215813   3.822   1.656  17.616 -0.6707 -2.1664  1.2901
 1394SOL     OW15814   0.907   1.258   4.933 -0.2626  0.0766 -0.0732
 1394SOL    HW115815   0.949   1.172   4.926 -0.7608 -0.1322 -0.4372
 1394SOL    HW215816   0.981   1.313   4.960 -1.1230  0.7526  0.9244
 1395SOL     OW15817   3.555   3.319  15.869 -0.5120 -1.0224  0.4512
 1395SOL    HW115818   3.499   3.259  15.918 -1.5304 -0.8310 -0.4804
 1395SOL    HW215819   3.487   3.381  15.844  0.5993 -0.1561 -0.4476
 1396SOL     OW15820   4.700   0.248   8.258 -0.4241 -0.0390 -0.7319
 1396SOL    HW115821   4.694   0.153   8.243  2.3276 -0.5221  1.2085
 1396SOL    HW215822   4.626   0.283   8.308  0.0511  0.1417 -0.1668
 1397SOL     OW15823   2.136   2.130   2.761  0.0955 -0.1665  0.2292
 1397SOL    HW115824   2.222   2.127   2.803  1.0165  4.0221 -1.3625
 1397SOL    HW215825   2.106   2.039   2.762  0.9281 -0.4531 -0.1221
 1398SOL     OW15826   4.721   2.516   7.206  0.1508  0.5789  0.3476
 1398SOL    HW115827   0.062   2.460   7.205 -0.9912 -1.0145  1.2287
 1398SOL    HW215828   4.651   2.451   7.211  1.7077 -1.2266 -1.2177
 1399SOL     OW15829   4.263   2.718   5.969  0.4794  0.0658  0.1955
 1399SOL    HW115830   4.237   2.636   6.010  1.4415 -1.0320 -1.3928
 1399SOL    HW215831   4.188   2.748   5.919 -0.3750  1.4587  2.3025
 1400SOL     OW15832   1.335   1.723   0.472  0.0436  0.3241  0.9574
 1400SOL    HW115833   1.301   1.688   0.554 -2.4936  2.0858  0.6411
 1400SOL    HW215834   1.356   1.813   0.497  0.2069  0.1802  1.3324
 1401SOL     OW15835   0.572   2.853  13.724  0.4239  0.1721 -0.7888
 1401SOL    HW115836   0.535   2.855  13.812  2.1082 -1.1396 -0.0396
 1401SOL    HW215837   0.576   2.948  13.715  1.7568  0.1308 -0.7313
 1402SOL     OW15838   4.347   1.758  14.279 -0.6142  0.0346  0.0050
 1402SOL    HW115839   4.312   1.842  14.308  1.6250  0.3769  1.7329
 1402SOL    HW215840   4.270   1.713  14.315 -0.2380 -2.0524 -1.8136
 1403SOL     OW15841   3.072   1.319   4.727 -0.4662  0.5509  0.5916
 1403SOL    HW115842   3.112   1.400   4.697 -1.0354  0.8461  0.6216
 1403SOL    HW215843   3.097   1.316   4.820  2.6560  0.4211 -0.2569
 1404SOL     OW15844   2.925   2.754   9.217  0.1238 -0.4991 -0.1639
 1404SOL    HW115845   2.959   2.825   9.163  0.6007 -1.0844 -0.6350
 1404SOL    HW215846   2.903   2.691   9.148 -0.7695  1.3377 -1.5540
 1405SOL     OW15847   3.744   0.651  15.193  0.8695  0.2837 -0.0753
 1405SOL    HW115848   3.665   0.627  15.240  0.5738 -1.2084 -1.3118
 1405SOL    HW215849   3.773   0.567  15.155 -1.4500 -1.3258  1.7587
 1406SOL     OW15850   1.458   0.556   8.736 -0.1315  0.2933 -0.4084
 1406SOL    HW115851   1.391   0.603   8.786  1.1652 -0.0879  1.6691
 1406SOL    HW215852   1.470   0.612   8.659 -2.5482  0.5054 -0.6414
 1407SOL     OW15853   3.242   2.636   3.238 -0.0827 -0.4539 -0.2077
 1407SOL    HW115854   3.266   2.726   3.259 -0.0787  0.1998 -2.9131
 1407SOL    HW215855   3.324   2.619   3.191  1.1984  0.8630  1.5521
 1408SOL     OW15856   0.681   2.987   6.898 -0.3706  0.4327 -0.3799
 1408SOL    HW115857   0.772   2.991   6.928 -0.5911 -2.2236  0.6694
 1408SOL    HW215858   0.691   2.952   6.810  0.1970  1.4804 -0.7358
 1409SOL     OW15859   4.094   1.305   5.974  0.1818  0.2337 -0.5466
 1409SOL    HW115860   4.027   1.363   5.937 -3.0448 -1.5524  2.4894
 1409SOL    HW215861   4.138   1.369   6.029  0.4224  1.1340 -1.7761
 1410SOL     OW15862   3.285   4.428   1.425 -0.7720  0.1548  0.1173
 1410SOL    HW115863   3.365   4.389   1.460 -0.7616  0.9259  0.9428
 1410SOL    HW215864   3.280   4.509   1.475  2.1914  0.0266  0.6367
 1411SOL     OW15865   2.324   3.159   1.887 -0.0667  0.3741 -0.2116
 1411SOL    HW115866   2.345   3.143   1.979 -1.1393 -2.0965 -0.3997
 1411SOL    HW215867   2.229   3.153   1.897  0.1271 -3.0218 -0.4871
 1412SOL     OW15868   4.134   4.332  16.220  0.3862 -0.4569  0.2425
 1412SOL    HW115869   4.150   4.425  16.203  0.8268 -0.3811  1.0518
 1412SOL    HW215870   4.039   4.333  16.232  0.5271  0.3922  1.3415
 1413SOL     OW15871   4.138   0.688   5.228  0.7083  0.1034 -0.0263
 1413SOL    HW115872   4.076   0.627   5.268  0.2405 -0.1509 -1.1517
 1413SOL    HW215873   4.181   0.721   5.307 -0.0229  0.2837  0.2995
 1414SOL     OW15874   4.494   2.268   6.928 -0.1777 -0.7117  0.1186
 1414SOL    HW115875   4.553   2.206   6.973  0.9309 -0.5754 -1.1366
 1414SOL    HW215876   4.512   2.242   6.838 -0.2458 -0.9861  0.1846
 1415SOL     OW15877   0.255   4.322   3.236 -0.0566  0.3355  0.3726
 1415SOL    HW115878   0.274   4.230   3.257  0.1276  0.6892  1.7580
 1415SOL    HW215879   0.234   4.321   3.143  1.0648 -1.0256  0.1320
 1416SOL     OW15880   2.383   2.479   1.307 -0.1910 -0.0653 -0.3662
 1416SOL    HW115881   2.297   2.467   1.267  0.3519  0.6241 -1.7158
 1416SOL    HW215882   2.436   2.494   1.229  1.9936  2.0477  1.5115
 1417SOL     OW15883   1.755   0.583   2.161 -0.5221 -0.0758 -0.3887
 1417SOL    HW115884   1.836   0.566   2.113 -2.0704 -2.5106 -2.1329
 1417SOL    HW215885   1.729   0.492   2.174  0.8903 -0.5028 -0.4760
 1418SOL     OW15886   0.219   3.821   2.587  0.3271 -0.7199  0.3560
 1418SOL    HW115887   0.130   3.836   2.555  0.1969  2.1634  2.0641
 1418SOL    HW215888   0.202   3.869   2.668  2.7481 -1.4705  1.3059
 1419SOL     OW15889   4.583   4.709   0.954  0.8532 -0.0745 -0.2323
 1419SOL    HW115890   4.612   4.727   1.043 -2.0300 -0.6870  0.8300
 1419SOL    HW215891   4.657   4.660   0.917  1.2818  0.4821 -0.1125
 1420SOL     OW15892   2.090   2.702   2.877 -0.1783 -0.4178 -0.3087
 1420SOL    HW115893   2.126   2.614   2.885  2.3199  0.4894 -1.4552
 1420SOL    HW215894   2.119   2.748   2.956  1.1237  0.4885 -1.2991
 1421SOL     OW15895   0.566   0.552  13.213 -0.1548 -1.0290 -0.3730
 1421SOL    HW115896   0.555   0.637  13.170  0.5658 -1.4481 -1.4023
 1421SOL    HW215897   0.659   0.531  13.208  0.4803  2.3415 -2.4976
 1422SOL     OW15898   0.307   0.160   5.937 -0.0271 -0.3270 -0.4546
 1422SOL    HW115899   0.386   0.112   5.963 -0.1419 -0.2181  0.0864
 1422SOL    HW215900   0.257   0.090   5.895 -0.8852 -0.7150  1.2264
 1423SOL     OW15901   1.609   1.030   9.399 -0.3394  0.4801  0.0790
 1423SOL    HW115902   1.679   1.010   9.337 -1.1409 -1.4014 -0.2277
 1423SOL    HW215903   1.660   1.094   9.448  2.1748 -1.2805 -0.2052
 1424SOL     OW15904   2.854   2.477  10.871 -0.1095 -0.2521  0.6192
 1424SOL    HW115905   2.838   2.567  10.901  0.5325 -0.2538  0.9747
 1424SOL    HW215906   2.911   2.442  10.939 -0.1821 -1.3841  0.0817
 1425SOL     OW15907   0.548   0.652   0.885  0.2006  0.1950 -0.2186
 1425SOL    HW115908   0.509   0.615   0.807 -2.6952 -1.7233  2.1512
 1425SOL    HW215909   0.554   0.746   0.869 -1.1585  0.2753 -0.1832
 1426SOL     OW15910   0.897   1.519  10.492 -0.3435  0.4215 -0.0141
 1426SOL    HW115911   0.826   1.572  10.456 -0.0745  1.3249  0.7700
 1426SOL    HW215912   0.948   1.524  10.411  0.8785  0.4971  0.7546
 1427SOL     OW15913   2.613   3.122  12.822 -0.4385  0.3332 -0.5589
 1427SOL    HW115914   2.588   3.040  12.780  0.2727 -0.2345  0.1222
 1427SOL    HW215915   2.532   3.172  12.819 -0.5417  0.0520 -2.3674
 1428SOL     OW15916   3.590   3.202  12.237  0.3169 -0.2629  0.3553
 1428SOL    HW115917   3.564   3.118  12.198  0.1196 -0.4810  0.9438
 1428SOL    HW215918   3.621   3.242  12.156  0.6334 -2.6819 -0.7283
 1429SOL     OW15919   2.747   4.380   2.497 -0.3204 -0.2024 -0.1408
 1429SOL    HW115920   2.712   4.426   2.573  1.0550  2.0249 -0.8659
 1429SOL    HW215921   2.840   4.402   2.503 -0.3188 -0.5771  1.3041
 1430SOL     OW15922   1.544   2.204   0.671 -0.7886  0.2022  0.1833
 1430SOL    HW115923   1.492   2.283   0.654 -0.9098  0.3514  1.2342
 1430SOL    HW215924   1.629   2.242   0.693 -0.2885 -0.3548 -0.7925
 1431SOL     OW15925   4.471   4.299   2.069 -0.0348  0.0099 -0.4272
 1431SOL    HW115926   4.526   4.359   2.020 -0.6557  0.4208 -0.6221
 1431SOL    HW215927   4.526   4.294   2.148 -1.1176 -0.5958  0.2930
 1432SOL     OW15928   1.394   3.049  12.970  0.0301 -0.1604  0.3549
 1432SOL    HW115929   1.447   3.047  13.050  1.8983 -2.1126 -0.9320
 1432SOL    HW215930   1.308   3.059  13.010 -0.8741  0.7234 -1.8359
 1433SOL     OW15931   1.046   2.782   3.066 -1.2446  0.1309  0.3946
 1433SOL    HW115932   1.131   2.740   3.081 -0.9261  0.8954  0.7317
 1433SOL    HW215933   0.989   2.710   3.095  1.2721 -2.4100 -0.9760
 1434SOL     OW15934   2.961   3.580   9.169  0.7961 -0.4744 -0.1452
 1434SOL    HW115935   3.029   3.547   9.227  0.6695  1.2452  0.9519
 1434SOL    HW215936   2.907   3.501   9.180  0.1432  0.1410  1.0224
 1435SOL     OW15937   3.192   3.743   3.567  0.0942 -0.1385 -0.2157
 1435SOL    HW115938   3.251   3.811   3.601 -0.1814  0.1399 -0.2912
 1435SOL    HW215939   3.113   3.789   3.538 -0.4297 -0.3969  0.7801
 1436SOL     OW15940   2.702   3.908   2.085  0.2403 -0.3434  0.5617
 1436SOL    HW115941   2.653   3.855   2.148  1.4256 -1.9587  0.1108
 1436SOL    HW215942   2.664   3.994   2.103 -0.7204 -0.3389 -1.4578
 1437SOL     OW15943   0.400   3.076   9.776  0.1949  0.1076 -0.3006
 1437SOL    HW115944   0.406   2.983   9.798 -1.2199  0.0715 -0.0469
 1437SOL    HW215945   0.488   3.112   9.792 -0.3610  0.6378  1.6392
 1438SOL     OW15946   0.289   2.588   5.988  0.5529 -0.3248  0.0907
 1438SOL    HW115947   0.299   2.678   6.017  0.4225 -0.6213  1.0609
 1438SOL    HW215948   0.371   2.582   5.939 -0.3416 -0.8957 -1.3255
 1439SOL     OW15949   0.344   3.901  10.504 -0.3239  0.4730  0.7121
 1439SOL    HW115950   0.303   3.815  10.508 -1.9075  1.2665  1.8709
 1439SOL    HW215951   0.412   3.889  10.570  1.2400 -0.7302 -1.1313
 1440SOL     OW15952   1.335   2.616   6.918  0.0628 -0.0728 -0.4652
 1440SOL    HW115953   1.301   2.566   6.843  1.6523  0.0579 -1.2813
 1440SOL    HW215954   1.344   2.545   6.981  0.1148  0.5731  0.2523
 1441SOL     OW15955   0.226   0.879   9.353  0.2360  0.3097 -0.2788
 1441SOL    HW115956   0.233   0.784   9.348  0.0131  0.3199 -0.8206
 1441SOL    HW215957   0.279   0.913   9.424  0.8723 -2.8603  0.7348
 1442SOL     OW15958   3.991   1.149   4.987  0.0284 -0.0986 -0.5907
 1442SOL    HW115959   4.063   1.086   4.990  0.0267  0.0444  2.0818
 1442SOL    HW215960   3.986   1.155   5.082  0.4903  1.1616 -0.6489
 1443SOL     OW15961   0.374   3.312   8.003  0.4037  0.6337  0.5377
 1443SOL    HW115962   0.466   3.336   8.012  0.1158  1.0696  2.1624
 1443SOL    HW215963   0.346   3.340   8.090 -1.1907  0.5486  0.0595
 1444SOL     OW15964   2.561   2.669   6.108  0.0248  0.1648 -0.1773
 1444SOL    HW115965   2.655   2.687   6.101 -0.4667  2.2423 -1.3492
 1444SOL    HW215966   2.520   2.748   6.074 -0.5047  0.4734  1.1840
 1445SOL     OW15967   1.814   3.861   4.480  0.2096  0.1500  0.1487
 1445SOL    HW115968   1.817   3.780   4.530 -1.9981 -0.0933 -0.1232
 1445SOL    HW215969   1.752   3.916   4.529  1.1242 -0.3647  1.8988
 1446SOL     OW15970   1.345   3.968   8.486 -0.2509  0.3771  0.5959
 1446SOL    HW115971   1.271   3.907   8.480  1.0525 -1.1788  0.5486
 1446SOL    HW215972   1.394   3.938   8.562  0.1928  1.4743  0.7451
 1447SOL     OW15973   0.727   4.432   8.270 -0.6496  0.1473  0.2556
 1447SOL    HW115974   0.820   4.417   8.253 -0.4327  3.5272 -1.4720
 1447SOL    HW215975   0.733   4.517   8.314  2.2895 -0.2424  0.6328
 1448SOL     OW15976   4.724   1.182   8.755  0.3933 -0.1337  0.0206
 1448SOL    HW115977   0.069   1.179   8.705 -0.2771  2.7896 -1.2553
 1448SOL    HW215978   0.009   1.242   8.827 -3.1862  1.4223 -0.1890
 1449SOL     OW15979   2.397   1.572  14.095  0.0490 -0.4361  0.7308
 1449SOL    HW115980   2.360   1.628  14.027  1.3687  1.7596  1.8016
 1449SOL    HW215981   2.411   1.633  14.168 -1.4072 -0.6148  1.1685
 1450SOL     OW15982   4.426   1.530   5.248  0.1032 -0.1690 -0.8938
 1450SOL    HW115983   4.379   1.578   5.315  1.3212  0.2153 -0.3195
 1450SOL    HW215984   4.470   1.603   5.204 -1.7668  0.6885 -1.3226
 1451SOL     OW15985   0.856   4.185   7.891  0.4809 -0.0092  0.3182
 1451SOL    HW115986   0.892   4.206   7.804  0.1425  0.7365  0.3585
 1451SOL    HW215987   0.795   4.116   7.864  0.7583 -0.0599 -0.1778
 1452SOL     OW15988   3.892   1.563  17.226 -0.0373 -0.0503  0.7528
 1452SOL    HW115989   3.921   1.475  17.251 -0.9252 -0.9211 -1.3665
 1452SOL    HW215990   3.966   1.597  17.176 -1.0436  2.2292  0.7969
 1453SOL     OW15991   2.792   4.554  16.724 -0.2775 -0.0937 -0.4515
 1453SOL    HW115992   2.760   4.642  16.703 -0.7214 -0.7915 -2.7194
 1453SOL    HW215993   2.830   4.530  16.639  0.6816  0.9998 -0.3329
 1454SOL     OW15994   3.699   1.817   6.853 -0.3761  0.5091  0.0302
 1454SOL    HW115995   3.781   1.777   6.882 -0.6631 -0.8357 -1.0062
 1454SOL    HW215996   3.644   1.754   6.901 -0.1934  0.0328 -0.3866
 1455SOL     OW15997   1.492   3.462  10.583  0.0054  0.3401 -0.2292
 1455SOL    HW115998   1.493   3.438  10.490  1.6853 -0.3920 -0.0252
 1455SOL    HW215999   1.538   3.545  10.584  0.0105  0.3556 -1.6266
 1456SOL     OW16000   2.019   0.965   3.209 -0.2320 -0.1689  0.1113
 1456SOL    HW116001   2.040   0.963   3.115 -2.5317 -0.2630 -0.3920
 1456SOL    HW216002   2.052   1.051   3.232 -3.0493 -0.2435  4.3399
 1457SOL     OW16003   3.530   3.886   5.429 -0.8998 -0.4304 -0.3439
 1457SOL    HW116004   3.491   3.935   5.501  2.1935  1.9595 -0.3183
 1457SOL    HW216005   3.616   3.858   5.460 -1.5231 -0.8793  0.9959
 1458SOL     OW16006   3.099   0.342   6.730  0.2022 -0.5789 -0.0043
 1458SOL    HW116007   3.084   0.395   6.651 -0.1240  1.2082  1.2636
 1458SOL    HW216008   3.014   0.299   6.735  1.6115 -3.3494  0.0617
 1459SOL     OW16009   1.915   0.750   8.015 -0.3572  0.2110  0.4075
 1459SOL    HW116010   1.895   0.790   8.100  0.1842 -0.5903  0.9136
 1459SOL    HW216011   1.839   0.696   7.995 -1.5264  0.9350  2.9293
 1460SOL     OW16012   0.288   0.878   1.111  0.1629 -0.0806  0.3622
 1460SOL    HW116013   0.297   0.872   1.016 -0.7205 -1.0892  0.3430
 1460SOL    HW216014   0.233   0.955   1.118 -1.2399 -0.9961 -0.7779
 1461SOL     OW16015   0.848   2.189  13.563 -0.5388  0.2496 -0.1721
 1461SOL    HW116016   0.813   2.278  13.560 -0.8691  0.1240  0.0522
 1461SOL    HW216017   0.940   2.218  13.563  0.2236 -2.1141 -0.3000
 1462SOL     OW16018   0.433   3.897  11.880  0.2503  0.3654 -0.2121
 1462SOL    HW116019   0.365   3.910  11.946 -0.3374 -0.8308 -0.5900
 1462SOL    HW216020   0.380   3.926  11.806  0.8687 -0.2975 -0.9228
 1463SOL     OW16021   4.537   0.981   6.046 -0.4254 -0.0320  0.4482
 1463SOL    HW116022   4.556   0.905   5.991  0.3497 -1.5844  2.8528
 1463SOL    HW216023   4.574   0.947   6.128 -1.8884 -0.9845  0.7128
 1464SOL     OW16024   4.328   3.755   9.847  0.1238 -0.0390  0.2034
 1464SOL    HW116025   4.352   3.667   9.817  0.2496  0.5327 -1.4016
 1464SOL    HW216026   4.267   3.729   9.915 -0.1082 -2.3412 -0.8525
 1465SOL     OW16027   2.511   3.881   5.834  0.4702  0.5412  0.1654
 1465SOL    HW116028   2.494   3.854   5.924 -0.2874 -1.9696 -0.7509
 1465SOL    HW216029   2.500   3.792   5.802 -0.6415  0.9183 -0.4946
 1466SOL     OW16030   0.135   0.690   8.857 -0.0570  0.0454 -0.2521
 1466SOL    HW116031   0.145   0.596   8.846  2.7667  0.4285 -0.7983
 1466SOL    HW216032   0.103   0.728   8.775  1.7847  0.7852 -0.6109
 1467SOL     OW16033   0.636   1.933   8.294  0.0916 -0.0267  0.5111
 1467SOL    HW116034   0.640   2.023   8.263  0.0374  0.0891  0.8355
 1467SOL    HW216035   0.542   1.915   8.305 -0.0957  1.3764  1.1297
 1468SOL     OW16036   2.250   1.339   7.902  0.3514 -0.3551 -0.2238
 1468SOL    HW116037   2.198   1.390   7.840 -1.5178 -1.3852  0.4880
 1468SOL    HW216038   2.219   1.253   7.875 -0.9620 -0.4012  1.4110
 1469SOL     OW16039   1.157   3.389   8.520 -0.2092  0.1384  0.2506
 1469SOL    HW116040   1.203   3.436   8.590  1.1821  0.7663 -1.0889
 1469SOL    HW216041   1.166   3.454   8.450 -1.2285 -0.8705 -0.8193
 1470SOL     OW16042   1.483   3.643   2.780 -0.0361  0.0839  0.6309
 1470SOL    HW116043   1.455   3.657   2.689  0.2217 -0.1107  0.5194
 1470SOL    HW216044   1.484   3.732   2.814  0.3939  0.8823 -1.4341
 1471SOL     OW16045   1.355   0.275   6.249  0.0756 -0.0629  0.1767
 1471SOL    HW116046   1.288   0.341   6.236  1.3883  1.6899  2.2288
 1471SOL    HW216047   1.393   0.294   6.335 -1.8595 -0.2124  1.0491
 1472SOL     OW16048   1.134   3.924  10.005  0.5596 -0.5323 -0.1744
 1472SOL    HW116049   1.219   3.910  10.046 -0.8228 -0.4145  2.7506
 1472SOL    HW216050   1.136   3.844   9.953 -0.9921  0.1777 -1.3110
 1473SOL     OW16051   1.018   1.439   6.359 -0.2920  0.4303  0.7265
 1473SOL    HW116052   1.073   1.516   6.376 -0.4895  1.0882 -1.6804
 1473SOL    HW216053   1.069   1.386   6.298 -0.3256  0.3882  0.7351
 1474SOL     OW16054   0.941   3.756  11.022  0.0811  0.7387 -0.7551
 1474SOL    HW116055   0.959   3.804  11.102 -0.0409 -1.7524  0.7811
 1474SOL    HW216056   1.022   3.774  10.973  0.2560  0.0805 -0.7164
 1475SOL     OW16057   2.112   0.774  17.042  0.3079 -0.2535  0.3838
 1475SOL    HW116058   2.027   0.793  17.001  0.9821  0.4292 -0.6954
 1475SOL    HW216059   2.112   0.834  17.116  1.5001  3.2871 -2.4880
 1476SOL     OW16060   1.341   4.393   1.810  0.4125  0.6742 -0.0210
 1476SOL    HW116061   1.296   4.435   1.884 -1.2198  1.5336 -1.5161
 1476SOL    HW216062   1.427   4.399   1.851  0.2535 -1.8005  0.6635
 1477SOL     OW16063   4.569   3.825   2.931 -0.1406 -0.2736 -0.1641
 1477SOL    HW116064   4.512   3.880   2.878 -1.4234  1.2680  2.7881
 1477SOL    HW216065   4.621   3.894   2.972  0.4183  0.3111 -1.8879
 1478SOL     OW16066   2.216   0.409   4.619  0.0216  0.0112  0.5402
 1478SOL    HW116067   2.255   0.422   4.706  1.4527  0.3249 -0.1356
 1478SOL    HW216068   2.266   0.483   4.583 -0.1805 -0.3709 -0.5101
 1479SOL     OW16069   4.266   3.045   9.742 -0.7812 -0.2697 -0.4843
 1479SOL    HW116070   4.194   2.982   9.755 -1.6201  0.7291 -0.2565
 1479SOL    HW216071   4.257   3.049   9.647 -1.7853  1.0428 -0.3421
 1480SOL     OW16072   1.278   3.839   3.019  0.1157  0.3661 -0.4975
 1480SOL    HW116073   1.364   3.852   2.979  1.7823  0.0469  2.9750
 1480SOL    HW216074   1.305   3.788   3.095  0.8381 -0.2164 -1.1405
 1481SOL     OW16075   3.279   0.094   8.243  0.6091  0.0971 -0.2505
 1481SOL    HW116076   3.258   0.113   8.151  0.2965  0.2069 -0.1571
 1481SOL    HW216077   3.349   0.157   8.261 -0.7554  1.0386  1.7189
 1482SOL     OW16078   4.095   1.628   0.785 -0.5180 -0.2523 -0.5382
 1482SOL    HW116079   4.179   1.592   0.756 -0.5165  0.0684 -0.9322
 1482SOL    HW216080   4.037   1.617   0.710  0.3426 -1.5690 -1.0042
 1483SOL     OW16081   4.583   0.677   1.113 -0.3452 -0.5490 -0.0996
 1483SOL    HW116082   4.489   0.660   1.116 -0.3761  0.2405  2.7312
 1483SOL    HW216083   4.588   0.732   1.191  3.0446 -0.4753 -0.3738
 1484SOL     OW16084   3.995   3.928  16.974 -0.1479  0.2397  0.5420
 1484SOL    HW116085   3.922   3.876  16.940 -1.7608  2.4984  0.5682
 1484SOL    HW216086   4.042   3.946  16.893 -0.3085 -3.2920 -0.3448
 1485SOL     OW16087   2.264   0.795   2.759  0.1228 -0.5764 -0.0597
 1485SOL    HW116088   2.356   0.783   2.735 -0.1173  0.0884 -1.2970
 1485SOL    HW216089   2.207   0.763   2.689  0.4584  0.6493 -0.9027
 1486SOL     OW16090   4.183   0.116   1.930  0.2409  0.1327  0.2918
 1486SOL    HW116091   4.158   0.184   1.993  1.6079  0.1626  0.8062
 1486SOL    HW216092   4.277   0.109   1.945  0.2429  1.0833  0.7401
 1487SOL     OW16093   0.151   3.200  15.099 -0.4257 -0.1670 -0.1338
 1487SOL    HW116094   0.234   3.167  15.133 -0.4432  1.0764  1.1372
 1487SOL    HW216095   0.172   3.222  15.009  0.9388 -0.1360  0.1941
 1488SOL     OW16096   3.836   1.401  11.602  0.4645  0.2302  0.0029
 1488SOL    HW116097   3.918   1.351  11.602 -0.4848 -1.3143  1.5746
 1488SOL    HW216098   3.873   1.487  11.580  1.7449  0.2747  2.4080
 1489SOL     OW16099   0.097   0.281   5.685 -0.1470  0.4275  0.1801
 1489SOL    HW116100   0.185   0.244   5.673  0.1829  0.3293  2.8902
 1489SOL    HW216101   0.079   0.329   5.604  0.4583 -0.2160 -0.3375
 1490SOL     OW16102   0.627   4.172   2.120  0.4915  0.0545  0.3288
 1490SOL    HW116103   0.712   4.136   2.145  0.4953 -0.8375 -0.9375
 1490SOL    HW216104   0.578   4.101   2.080 -0.4158 -0.5972  2.6078
 1491SOL     OW16105   2.825   2.104   9.868 -0.4398 -0.1710  0.3666
 1491SOL    HW116106   2.738   2.131   9.840  0.0984 -0.8494 -1.9900
 1491SOL    HW216107   2.800   2.045   9.939 -0.0059 -0.0205  0.6453
 1492SOL     OW16108   4.683   0.398   1.160 -0.4882 -0.4961 -0.1206
 1492SOL    HW116109   4.731   0.361   1.234 -0.7020  1.3775  0.9493
 1492SOL    HW216110   4.686   0.491   1.183 -0.6222 -0.8731  1.4113
 1493SOL     OW16111   4.467   2.010   2.974  0.0734  0.4992  0.2570
 1493SOL    HW116112   4.437   2.026   2.885 -0.6743  0.6691  0.5358
 1493SOL    HW216113   4.394   2.046   3.024 -1.4308 -2.3767  0.1099
 1494SOL     OW16114   0.765   0.309  14.646  0.1765 -0.2691  0.3076
 1494SOL    HW116115   0.797   0.341  14.562  0.2170  1.5344  1.0235
 1494SOL    HW216116   0.672   0.300  14.624  0.0417  1.4369  0.1669
 1495SOL     OW16117   2.276   2.064  10.122  0.2604  0.5020  0.1984
 1495SOL    HW116118   2.350   2.035  10.070  0.5234  0.7262  0.4483
 1495SOL    HW216119   2.311   2.107  10.200  2.3801 -1.9857  0.6471
 1496SOL     OW16120   4.132   3.044   7.579  0.6756  0.5401  0.1134
 1496SOL    HW116121   4.156   2.990   7.654 -0.4531 -0.0468  0.0606
 1496SOL    HW216122   4.199   3.112   7.570  0.7235  0.5264  0.3796
 1497SOL     OW16123   0.971   4.390   2.319  0.1143 -0.7019 -0.3660
 1497SOL    HW116124   0.973   4.297   2.341  1.0458  0.0411  2.6013
 1497SOL    HW216125   0.995   4.385   2.226  1.9264  1.6693 -0.0169
 1498SOL     OW16126   1.074   4.629  15.174  0.3411 -0.4457  0.1868
 1498SOL    HW116127   1.000   4.636  15.113  2.1394 -2.8140 -2.2779
 1498SOL    HW216128   1.143   4.606  15.111 -1.3112 -2.7597 -0.8270
 1499SOL     OW16129   4.007   3.983   8.749 -0.1707  0.0788  0.0433
 1499SOL    HW116130   4.047   4.067   8.772  1.7907 -0.7503 -0.3034
 1499SOL    HW216131   4.006   3.984   8.653 -0.0129 -1.1452  0.0240
 1500SOL     OW16132   2.164   2.427   4.877  0.4018 -0.2500 -0.3283
 1500SOL    HW116133   2.167   2.341   4.920  0.5898  0.5485  1.2812
 1500SOL    HW216134   2.252   2.461   4.896  0.2181  0.7410 -1.3143
 1501SOL     OW16135   2.795   4.535   6.015  0.2083  0.4431 -0.2671
 1501SOL    HW116136   2.887   4.518   5.995  0.6581  1.8029  0.6796
 1501SOL    HW216137   2.758   4.481   5.945 -0.6150  1.4259 -0.5850
 1502SOL     OW16138   4.167   0.848   7.798 -0.8569 -1.2973 -0.4457
 1502SOL    HW116139   4.111   0.799   7.858 -1.6377  1.8806  1.4213
 1502SOL    HW216140   4.151   0.941   7.817  3.2518 -0.4143 -1.1944
 1503SOL     OW16141   3.371   0.089   4.613 -0.2926  0.0384 -0.2002
 1503SOL    HW116142   3.444   0.124   4.665 -0.2066 -0.1538 -0.1898
 1503SOL    HW216143   3.392   4.732   4.606  2.9564  0.8916 -2.1035
 1504SOL     OW16144   2.741   0.479  11.343 -0.0955 -0.6061  0.9513
 1504SOL    HW116145   2.784   0.514  11.421  1.3742  2.1273 -1.1072
 1504SOL    HW216146   2.683   0.552  11.319  0.9033 -0.1101  0.0681
 1505SOL     OW16147   2.462   4.108  15.541 -0.6199  0.0152 -0.0852
 1505SOL    HW116148   2.448   4.020  15.506  0.9778  0.2305 -1.2993
 1505SOL    HW216149   2.549   4.120  15.503 -0.3518 -0.7985  0.2679
 1506SOL     OW16150   4.716   2.715   4.605  0.1685  0.9122 -0.1474
 1506SOL    HW116151   4.734   2.773   4.679  0.0204 -0.6492  1.1306
 1506SOL    HW216152   0.024   2.753   4.529 -0.6037  0.2665 -0.9283
 1507SOL     OW16153   1.354   2.007  13.494 -0.1769 -0.4640  0.1996
 1507SOL    HW116154   1.340   1.912  13.493 -1.2272 -0.3127  0.8626
 1507SOL    HW216155   1.433   2.024  13.547  0.9612 -0.8378 -1.3828
 1508SOL     OW16156   2.010   1.116   8.477 -0.5416  0.1633  0.3813
 1508SOL    HW116157   1.996   1.185   8.412  1.8287  1.5653  1.3642
 1508SOL    HW216158   1.968   1.160   8.551 -0.6605 -0.0849  0.4612
 1509SOL     OW16159   0.638   1.072   8.123 -0.4676  0.1582 -0.3962
 1509SOL    HW116160   0.717   1.020   8.103 -0.5316 -0.0827 -0.0125
 1509SOL    HW216161   0.659   1.098   8.212  1.2171 -4.5425  0.6066
 1510SOL     OW16162   1.159   3.292   7.404  0.3138 -0.3362  0.1981
 1510SOL    HW116163   1.065   3.283   7.392  0.1167 -1.0347  2.2945
 1510SOL    HW216164   1.167   3.326   7.493  0.2393  1.6018 -0.5353
 1511SOL     OW16165   3.007   2.288   7.147 -0.6661 -0.4282 -0.2545
 1511SOL    HW116166   2.986   2.285   7.241 -2.4384  2.2808 -0.5351
 1511SOL    HW216167   3.022   2.382   7.136  0.1569 -0.3748  1.3478
 1512SOL     OW16168   2.327   2.474  14.926  0.8070  0.1339  0.7085
 1512SOL    HW116169   2.353   2.443  15.012 -0.7027 -1.4793  0.5789
 1512SOL    HW216170   2.232   2.464  14.926  0.7073  1.1638  1.9729
 1513SOL     OW16171   2.589   0.780   4.992 -0.5029 -0.0658  0.4196
 1513SOL    HW116172   2.651   0.853   4.985 -2.0963  0.8726 -3.5749
 1513SOL    HW216173   2.541   0.784   4.910  0.9496  0.1438 -0.4176
 1514SOL     OW16174   1.158   0.631   3.782 -0.2920  0.0876 -0.0309
 1514SOL    HW116175   1.066   0.618   3.803 -0.1428 -0.1217  0.4865
 1514SOL    HW216176   1.150   0.722   3.752  0.4106  0.3631  0.6428
 1515SOL     OW16177   2.067   2.049   6.211  0.0862  0.0251  0.8172
 1515SOL    HW116178   2.124   1.993   6.159 -0.6426  0.3007 -0.2683
 1515SOL    HW216179   2.111   2.133   6.195  1.8669 -0.3301  3.9018
 1516SOL     OW16180   3.103   4.546   6.595  0.4448 -0.0987 -0.4792
 1516SOL    HW116181   3.044   4.485   6.552  0.3225 -0.2240 -0.1331
 1516SOL    HW216182   3.183   4.494   6.602 -0.2836 -0.7122  3.2846
 1517SOL     OW16183   3.518   2.547   3.162  0.1164 -0.1982 -0.1724
 1517SOL    HW116184   3.520   2.464   3.114 -1.1074 -0.1735 -0.2495
 1517SOL    HW216185   3.519   2.519   3.253  0.7774 -0.9325 -0.3985
 1518SOL     OW16186   0.821   4.064   6.559 -0.2459 -0.6324 -0.3670
 1518SOL    HW116187   0.809   4.066   6.464 -0.6323  0.2431 -0.2972
 1518SOL    HW216188   0.797   3.974   6.581  0.7448 -0.7149  0.3328
 1519SOL     OW16189   1.146   3.995   2.453  0.1424 -0.4490  0.2688
 1519SOL    HW116190   1.118   3.903   2.449  0.0184 -0.3041 -2.5698
 1519SOL    HW216191   1.159   4.016   2.545  0.3570 -1.8433  0.5617
 1520SOL     OW16192   1.259   1.480  13.331  0.2931 -0.2730  0.3426
 1520SOL    HW116193   1.245   1.425  13.408 -0.6169  0.8909  1.0066
 1520SOL    HW216194   1.237   1.427  13.255  0.4044 -0.0510  0.1557
 1521SOL     OW16195   3.660   4.696   7.252  0.0424  0.0066  0.5096
 1521SOL    HW116196   3.667   4.718   7.159  0.4626 -0.7014  0.3730
 1521SOL    HW216197   3.627   0.038   7.295 -0.4540 -0.4570  0.9761
 1522SOL     OW16198   2.679   3.909   5.097 -0.1878 -0.1327 -0.5910
 1522SOL    HW116199   2.657   3.948   5.182 -1.4000 -2.3509  0.1075
 1522SOL    HW216200   2.714   3.828   5.133  0.8617  0.2428 -0.7511
 1523SOL     OW16201   0.390   2.967  11.600 -0.3707 -0.2285  0.1753
 1523SOL    HW116202   0.339   2.993  11.677 -1.3303 -2.1028  0.1711
 1523SOL    HW216203   0.478   2.982  11.634 -1.1725  0.8645  1.7454
 1524SOL     OW16204   1.251   4.071   5.836 -0.2043  0.3858  0.3296
 1524SOL    HW116205   1.335   4.036   5.867 -0.5141  0.2923  1.0661
 1524SOL    HW216206   1.287   4.125   5.766 -1.5800  0.4749 -0.2975
 1525SOL     OW16207   1.639   4.030   5.422  0.4340 -0.5280 -0.9709
 1525SOL    HW116208   1.669   4.120   5.414 -1.2445  0.1617  0.4167
 1525SOL    HW216209   1.602   4.012   5.335 -0.0798 -0.3137 -0.7938
 1526SOL     OW16210   2.147   2.921   4.256 -0.6667  0.2989  0.4020
 1526SOL    HW116211   2.212   2.942   4.189  0.2635 -2.8124  0.2978
 1526SOL    HW216212   2.133   2.827   4.243 -1.1867  0.4938 -0.4202
 1527SOL     OW16213   2.206   4.062   5.088  0.0333 -0.5987 -0.4391
 1527SOL    HW116214   2.193   4.117   5.165  2.3692 -0.6418  0.0034
 1527SOL    HW216215   2.285   4.016   5.118  0.2525  0.0198 -0.0533
 1528SOL     OW16216   2.840   1.895   4.452  0.0326  0.2978  0.2227
 1528SOL    HW116217   2.891   1.957   4.505 -0.0968 -1.0106  1.9108
 1528SOL    HW216218   2.761   1.940   4.424  1.0593  1.2081 -1.2054
 1529SOL     OW16219   4.508   3.303   8.781 -0.0131  0.0897  0.1927
 1529SOL    HW116220   4.533   3.216   8.748 -1.1275 -1.0475  2.3463
 1529SOL    HW216221   4.528   3.351   8.701 -0.8710 -4.1536 -2.5661
 1530SOL     OW16222   3.812   4.325   6.452 -0.4187  0.0443 -0.1910
 1530SOL    HW116223   3.834   4.235   6.429 -0.5527 -0.5934  2.1551
 1530SOL    HW216224   3.811   4.322   6.548 -2.1754 -1.9344 -0.2635
 1531SOL     OW16225   2.884   3.255  11.091 -0.5155 -0.0516 -0.2998
 1531SOL    HW116226   2.979   3.260  11.096 -0.5227 -1.5377  1.2233
 1531SOL    HW216227   2.858   3.183  11.033 -2.6320  0.2814  0.2295
 1532SOL     OW16228   2.041   2.670   8.118 -0.1879  0.6952  0.0734
 1532SOL    HW116229   2.122   2.717   8.137  0.3480 -0.1947 -0.0679
 1532SOL    HW216230   1.980   2.741   8.138 -1.6403 -0.4796 -0.1687
 1533SOL     OW16231   3.394   2.719  16.928  0.1064 -0.4938  0.0238
 1533SOL    HW116232   3.362   2.728  16.838 -0.6192  2.9962  0.6193
 1533SOL    HW216233   3.485   2.699  16.906  0.1790 -0.3074  0.1584
 1534SOL     OW16234   0.013   0.970   4.266  0.1968 -0.0303 -0.3662
 1534SOL    HW116235   0.090   0.933   4.309  2.3697  2.3353 -2.2221
 1534SOL    HW216236   0.051   1.058   4.258 -0.8792  0.6082  1.4961
 1535SOL     OW16237   2.044   2.680  15.125  0.3004  0.2353 -0.0721
 1535SOL    HW116238   1.974   2.669  15.189  0.9073  2.0478  0.8861
 1535SOL    HW216239   2.002   2.743  15.066  1.1383  2.9930  2.2892
 1536SOL     OW16240   4.084   0.573   7.588  0.7944 -0.6124  0.4722
 1536SOL    HW116241   4.154   0.589   7.650  1.2953  3.2576 -1.1150
 1536SOL    HW216242   4.126   0.535   7.511 -1.0645  1.1066 -1.4054
 1537SOL     OW16243   2.392   3.313   8.893 -0.0836  0.0723 -0.3092
 1537SOL    HW116244   2.395   3.408   8.899  1.6142 -0.1179  1.9313
 1537SOL    HW216245   2.419   3.297   8.803 -1.0381  0.2546 -0.6263
 1538SOL     OW16246   0.751   2.962   5.787  0.0644  0.0020 -0.0200
 1538SOL    HW116247   0.709   3.042   5.753  0.4400  0.6914  1.1467
 1538SOL    HW216248   0.680   2.900   5.770  1.3848 -1.6586  0.6439
 1539SOL     OW16249   4.444   2.610   8.032 -0.8254 -0.1018  0.0349
 1539SOL    HW116250   4.509   2.583   8.097 -0.3029  1.7880  0.2850
 1539SOL    HW216251   4.368   2.608   8.090 -0.5058  0.3978  0.4696
 1540SOL     OW16252   1.542   1.391   4.244  0.0024  1.0560  0.1928
 1540SOL    HW116253   1.630   1.356   4.232  0.1832  1.0090  1.6944
 1540SOL    HW216254   1.557   1.437   4.327 -1.3257  1.1880  0.3629
 1541SOL     OW16255   2.647   0.957   5.352 -0.2550  0.0146  0.0220
 1541SOL    HW116256   2.602   0.940   5.269  1.0858 -0.6426 -0.5751
 1541SOL    HW216257   2.586   0.953   5.425 -0.2363 -0.9296 -0.0154
 1542SOL     OW16258   0.901   0.014  14.563  0.1893 -0.2349  0.2822
 1542SOL    HW116259   0.942   0.027  14.648  1.3917  4.3821 -1.0073
 1542SOL    HW216260   0.976   4.723  14.512 -1.1176 -0.9299 -1.2766
 1543SOL     OW16261   3.994   4.581   3.789 -0.2184  0.3849  0.2050
 1543SOL    HW116262   4.016   4.586   3.696  0.8334  1.3881  0.5076
 1543SOL    HW216263   4.077   4.540   3.813  0.9411 -0.2765 -4.9302
 1544SOL     OW16264   3.730   2.240   4.138  0.0139 -0.6198 -0.4313
 1544SOL    HW116265   3.682   2.307   4.091  0.2975  0.7259  1.2090
 1544SOL    HW216266   3.730   2.283   4.224  0.0631 -0.7409 -0.3700
 1545SOL     OW16267   1.850   4.123   7.791  0.1580  0.1696 -0.5786
 1545SOL    HW116268   1.805   4.139   7.708 -1.1930  0.5564  0.2310
 1545SOL    HW216269   1.816   4.193   7.847 -2.4415  0.8423 -3.0011
 1546SOL     OW16270   1.492   1.300   0.503 -0.6712 -0.2249 -0.3677
 1546SOL    HW116271   1.481   1.287   0.409  0.1126 -0.4799 -0.4183
 1546SOL    HW216272   1.584   1.325   0.510 -0.6720 -0.0712 -0.8763
 1547SOL     OW16273   1.656   3.813   1.267  0.8426  0.0542  0.0734
 1547SOL    HW116274   1.620   3.774   1.187  2.6361 -0.4167 -0.5219
 1547SOL    HW216275   1.654   3.904   1.237  1.9828  0.1518  0.2853
 1548SOL     OW16276   1.652   1.628   9.607 -0.1726 -0.2465  0.0330
 1548SOL    HW116277   1.680   1.595   9.521 -0.9480  1.5422 -0.9122
 1548SOL    HW216278   1.604   1.708   9.587 -0.4641 -0.7683 -1.3601
 1549SOL     OW16279   3.022   2.226  15.210 -0.6025 -0.5962 -0.1902
 1549SOL    HW116280   3.064   2.147  15.243 -1.8001 -0.8869  0.6225
 1549SOL    HW216281   3.078   2.267  15.144  0.3088 -2.6120 -0.6510
 1550SOL     OW16282   2.238   0.177   8.512 -0.0691 -0.1941  0.2804
 1550SOL    HW116283   2.321   0.129   8.509 -0.9894 -1.7665 -0.4874
 1550SOL    HW216284   2.263   0.266   8.536 -1.6155  0.2034  0.4158
 1551SOL     OW16285   1.753   3.455   7.056 -0.0208  0.3206  0.1176
 1551SOL    HW116286   1.810   3.463   7.133  2.6027  0.3487 -1.8386
 1551SOL    HW216287   1.813   3.479   6.985  1.2569  1.2016  1.4943
 1552SOL     OW16288   1.285   3.167   7.226  0.0048 -0.0914 -0.4732
 1552SOL    HW116289   1.370   3.212   7.224 -0.3594  0.7385  2.7379
 1552SOL    HW216290   1.237   3.220   7.289  2.5755  0.2845  1.1966
 1553SOL     OW16291   1.542   4.125   8.381  0.4716  0.2253  0.3430
 1553SOL    HW116292   1.467   4.069   8.399 -0.5915  1.2793 -0.8296
 1553SOL    HW216293   1.560   4.094   8.292 -1.1118 -2.1700  0.8472
 1554SOL     OW16294   2.183   1.768   8.158 -0.4269 -0.8548 -0.4556
 1554SOL    HW116295   2.165   1.761   8.252 -1.2005  0.6396 -0.4903
 1554SOL    HW216296   2.260   1.824   8.151 -1.0720 -0.0166 -0.9609
 1555SOL     OW16297   2.674   2.088   6.074  0.5395 -0.0762  0.0657
 1555SOL    HW116298   2.684   2.183   6.076 -2.8912  0.2525  2.8059
 1555SOL    HW216299   2.605   2.078   6.008  0.4441  0.0946  0.1396
 1556SOL     OW16300   3.577   0.271   5.641  0.3001 -0.1390 -0.0868
 1556SOL    HW116301   3.598   0.216   5.716 -0.1414 -1.6412 -1.0556
 1556SOL    HW216302   3.510   0.329   5.678 -1.2508 -1.6928 -0.4820
 1557SOL     OW16303   1.330   0.088   6.824 -0.0077  0.4148  0.0402
 1557SOL    HW116304   1.356   0.087   6.732 -2.0942 -0.0519 -0.5608
 1557SOL    HW216305   1.264   0.019   6.835 -0.2323  0.6976  0.4445
 1558SOL     OW16306   3.877   4.274   3.903  0.8017 -0.7128  0.9048
 1558SOL    HW116307   3.837   4.357   3.875 -0.6568 -2.5123 -2.3615
 1558SOL    HW216308   3.970   4.291   3.889  0.4094  0.0737 -0.8306
 1559SOL     OW16309   0.361   1.748   8.346 -0.2504  0.6278  0.2679
 1559SOL    HW116310   0.279   1.699   8.331  0.6304 -0.3024 -1.5889
 1559SOL    HW216311   0.366   1.792   8.261  0.4654 -0.2906 -0.1704
 1560SOL     OW16312   4.306   0.594  14.702  0.8864 -0.1317  0.5877
 1560SOL    HW116313   4.268   0.511  14.731 -1.7917  0.9572  0.2012
 1560SOL    HW216314   4.282   0.600  14.610 -2.7634  1.0733  1.6451
 1561SOL     OW16315   1.108   2.527   3.773 -0.3438  0.1307 -0.5703
 1561SOL    HW116316   1.047   2.462   3.808  0.0615 -0.0869 -0.2836
 1561SOL    HW216317   1.176   2.468   3.741 -0.7755  0.4761 -2.1422
 1562SOL     OW16318   3.604   0.254   2.772  0.1627 -0.4601  0.8178
 1562SOL    HW116319   3.650   0.171   2.766 -0.5222 -0.6801 -1.5639
 1562SOL    HW216320   3.633   0.298   2.692 -0.5150 -0.2802  0.6681
 1563SOL     OW16321   2.991   4.121   6.920 -0.2489 -0.2314  0.5591
 1563SOL    HW116322   2.951   4.080   6.996 -0.4025 -0.5651  0.2953
 1563SOL    HW216323   3.035   4.057   6.864 -0.3683  0.3410 -0.1844
 1564SOL     OW16324   3.920   0.021   4.911 -0.0102  0.4782 -0.0462
 1564SOL    HW116325   3.943   0.010   4.819  0.3527  0.4663  0.0420
 1564SOL    HW216326   3.873   4.677   4.933  0.4714  0.0397 -0.6291
 1565SOL     OW16327   1.557   2.744   7.010 -0.0766 -0.0054 -0.0398
 1565SOL    HW116328   1.521   2.726   7.097  0.3468 -1.2736 -0.1419
 1565SOL    HW216329   1.494   2.695   6.959  0.1315  0.5729 -0.8554
 1566SOL     OW16330   0.243   4.329   1.499 -0.0595  0.4331 -0.0701
 1566SOL    HW116331   0.234   4.384   1.422  0.6922  0.7518  0.0685
 1566SOL    HW216332   0.312   4.377   1.545 -0.1932  0.7041 -0.1561
 1567SOL     OW16333   0.513   4.597  16.487  0.3749  0.5819  0.7450
 1567SOL    HW116334   0.594   4.646  16.502 -0.6680  3.1637 -2.1290
 1567SOL    HW216335   0.477   4.642  16.410 -1.2393 -0.9241  0.6264
 1568SOL     OW16336   3.261   0.570  17.533  0.3026  0.6834  0.3275
 1568SOL    HW116337   3.277   0.625  17.456 -0.2266  0.5036  0.0929
 1568SOL    HW216338   3.325   0.604  17.595  1.7788  1.0482 -1.3911
 1569SOL     OW16339   0.403   3.526  10.266 -0.3323  0.0746  0.4789
 1569SOL    HW116340   0.327   3.479  10.231  0.7358  0.1108 -1.8993
 1569SOL    HW216341   0.460   3.531  10.190 -0.7691  0.1747  0.1541
 1570SOL     OW16342   0.577   2.979   6.406  0.3853  0.4441 -0.1111
 1570SOL    HW116343   0.492   3.000   6.444 -0.2604 -2.0226 -0.1410
 1570SOL    HW216344   0.559   2.909   6.343 -1.1637  0.5385  0.2421
 1571SOL     OW16345   4.542   0.528   0.705  1.2501  0.0686 -0.0728
 1571SOL    HW116346   4.620   0.538   0.760  1.0986  2.1185 -0.2208
 1571SOL    HW216347   4.580   0.519   0.617  0.8166 -0.9726 -0.1469
 1572SOL     OW16348   2.244   2.839   3.825  0.2843 -0.0255  0.5082
 1572SOL    HW116349   2.289   2.852   3.908  0.5258 -0.8887  0.5116
 1572SOL    HW216350   2.202   2.756   3.847 -0.2958  0.2314  0.3809
 1573SOL     OW16351   3.566   4.085   6.612 -0.0584 -0.2456  0.6426
 1573SOL    HW116352   3.633   4.017   6.621  0.6820  0.4374  0.1669
 1573SOL    HW216353   3.590   4.128   6.530  1.5896 -0.9585  0.7509
 1574SOL     OW16354   2.066   2.831   9.272  1.3197  0.6149 -0.3223
 1574SOL    HW116355   2.003   2.759   9.261 -1.1470  3.0932 -2.4476
 1574SOL    HW216356   2.105   2.795   9.352  0.0537 -0.5240 -0.2125
 1575SOL     OW16357   3.705   3.361   5.630 -0.4105  0.1421 -0.5077
 1575SOL    HW116358   3.631   3.419   5.645 -0.4306  0.0147 -0.1131
 1575SOL    HW216359   3.689   3.313   5.548 -1.0955 -2.0349  0.8879
 1576SOL     OW16360   4.678   4.476   1.483  0.4028 -0.7639 -0.2383
 1576SOL    HW116361   4.662   4.535   1.410  1.8900 -0.2591 -0.1355
 1576SOL    HW216362   4.692   4.395   1.434 -0.8645 -0.1367 -1.6416
 1577SOL     OW16363   3.974   3.596   4.169  0.0417  0.4230  0.7356
 1577SOL    HW116364   3.934   3.681   4.150 -1.7091  0.1625  3.2288
 1577SOL    HW216365   3.899   3.537   4.159 -1.1579  2.0003  0.4339
 1578SOL     OW16366   1.683   3.521   8.326 -0.5230 -0.1337  0.1274
 1578SOL    HW116367   1.736   3.498   8.403  0.0633 -0.4713 -0.3742
 1578SOL    HW216368   1.685   3.445   8.268 -1.7537 -0.1509  0.1130
 1579SOL     OW16369   0.427   3.798  10.939 -0.2384 -0.4976 -0.2792
 1579SOL    HW116370   0.521   3.784  10.933 -0.0753  0.5713 -0.2142
 1579SOL    HW216371   0.410   3.773  11.030  1.4839 -2.5770 -0.5367
 1580SOL     OW16372   3.037   0.117   7.004  0.7454 -0.1746  0.3989
 1580SOL    HW116373   3.118   0.169   7.008  2.1460 -2.2493 -1.3327
 1580SOL    HW216374   3.064   0.042   6.952  0.7005 -0.0692  0.2234
 1581SOL     OW16375   3.090   3.769   5.912 -0.3272 -0.2330 -0.4691
 1581SOL    HW116376   3.093   3.864   5.900 -0.1207 -0.3787 -1.5483
 1581SOL    HW216377   2.997   3.749   5.903 -0.6033  0.1549  1.5459
 1582SOL     OW16378   0.036   0.779   7.552 -0.4137  0.0551  0.0289
 1582SOL    HW116379   4.715   0.807   7.481  1.7881  1.0970 -1.3325
 1582SOL    HW216380   0.064   0.858   7.598 -0.2780 -1.3267  2.3213
 1583SOL     OW16381   4.023   3.201   4.711 -0.3458  0.3694 -0.0421
 1583SOL    HW116382   3.933   3.187   4.739 -0.0152 -1.4341  0.1061
 1583SOL    HW216383   4.026   3.178   4.619  0.6547 -0.7512  0.2675
 1584SOL     OW16384   3.759   3.278  12.437  0.0515  0.2464  0.3399
 1584SOL    HW116385   3.694   3.237  12.380  0.9147 -0.6973  0.0431
 1584SOL    HW216386   3.837   3.289  12.383 -0.9658  0.4812 -1.0653
 1585SOL     OW16387   2.867   3.071  14.056  0.2191  0.0976  0.1329
 1585SOL    HW116388   2.811   3.136  14.012  1.4133  0.2261 -1.1699
 1585SOL    HW216389   2.917   3.116  14.124  1.9871 -2.9393  0.8429
 1586SOL     OW16390   0.528   1.542   4.718  0.0010  0.2008 -0.1123
 1586SOL    HW116391   0.620   1.525   4.738  0.1177  0.8093 -0.1425
 1586SOL    HW216392   0.484   1.459   4.739  2.1497 -0.6920  0.8675
 1587SOL     OW16393   1.468   0.228   9.160 -0.5653  0.0940  0.6625
 1587SOL    HW116394   1.490   0.321   9.170  1.2094  0.0722 -2.9031
 1587SOL    HW216395   1.409   0.217   9.235  0.6648 -1.7539  1.3344
 1588SOL     OW16396   4.272   4.266  14.380  0.3580 -0.1182  0.4095
 1588SOL    HW116397   4.264   4.288  14.287 -0.4941 -0.0992  0.4836
 1588SOL    HW216398   4.335   4.196  14.363 -0.0236  0.0473 -1.6568
 1589SOL     OW16399   0.998   2.954   5.436 -0.1599  0.0256  0.0639
 1589SOL    HW116400   1.018   3.007   5.514 -1.0504  0.1008  0.2384
 1589SOL    HW216401   0.907   2.969   5.411 -0.5814  0.5712  1.9035
 1590SOL     OW16402   2.333   4.324   7.837  1.0193 -0.3421 -0.1448
 1590SOL    HW116403   2.389   4.372   7.898 -2.3820  1.8550  1.2526
 1590SOL    HW216404   2.343   4.365   7.751 -0.0691  2.8031  1.2337
 1591SOL     OW16405   0.415   1.291  15.909 -0.3182 -0.0198 -0.3319
 1591SOL    HW116406   0.401   1.345  15.831  1.8455  1.3496  0.2182
 1591SOL    HW216407   0.411   1.362  15.973  1.1406 -1.2492  1.0967
 1592SOL     OW16408   1.843   2.739   7.499  0.2727 -0.4350 -0.3004
 1592SOL    HW116409   1.804   2.820   7.466  1.7965 -0.4268 -2.0762
 1592SOL    HW216410   1.773   2.707   7.556  3.1674 -1.8864  2.4363
 1593SOL     OW16411   1.317   2.242   8.349  0.1237  0.4228 -0.2236
 1593SOL    HW116412   1.310   2.328   8.308  3.4746  0.6220 -0.3952
 1593SOL    HW216413   1.316   2.257   8.443 -1.2277 -1.4374  0.0632
 1594SOL     OW16414   1.705   4.313   5.689  0.0307 -0.1068 -0.5271
 1594SOL    HW116415   1.692   4.408   5.679  1.8061  0.0082 -1.8074
 1594SOL    HW216416   1.620   4.272   5.699  0.4274 -0.7473  0.2053
 1595SOL     OW16417   0.391   4.612   0.625 -0.5130  0.4295  0.5299
 1595SOL    HW116418   0.351   4.616   0.712 -1.6844 -0.8298  0.0484
 1595SOL    HW216419   0.354   4.529   0.593  1.2418 -0.2758  0.3028
 1596SOL     OW16420   2.992   2.752   3.229 -0.2532  0.2097 -0.2723
 1596SOL    HW116421   2.984   2.742   3.134  0.9731  2.0278 -0.5811
 1596SOL    HW216422   3.057   2.686   3.253  0.4740  0.3353 -1.9188
 1597SOL     OW16423   3.079   0.651   3.794 -0.6838  0.0807 -0.2292
 1597SOL    HW116424   3.136   0.593   3.744  0.2336  2.2092 -1.6000
 1597SOL    HW216425   2.994   0.637   3.753 -1.6948  1.2477  1.4592
 1598SOL     OW16426   1.602   0.196   1.368 -0.4003  0.3461  0.2545
 1598SOL    HW116427   1.550   0.236   1.438 -0.1011  1.3222 -0.0896
 1598SOL    HW216428   1.545   0.223   1.296 -0.3395  0.7650  0.3618
 1599SOL     OW16429   3.134   3.082   7.178  0.4501  0.2646  0.2598
 1599SOL    HW116430   3.227   3.075   7.157  0.6411 -2.3054  1.9417
 1599SOL    HW216431   3.127   3.114   7.268  1.5010  0.3548  0.3165
 1600SOL     OW16432   3.647   3.232   6.778 -0.1033  0.2248 -0.7069
 1600SOL    HW116433   3.577   3.171   6.802 -1.5721  1.2981 -2.2966
 1600SOL    HW216434   3.713   3.165   6.758 -0.0688 -0.8934  3.1163
 1601SOL     OW16435   0.608   3.053   5.559 -0.7990 -0.2192 -0.2078
 1601SOL    HW116436   0.549   3.126   5.539 -0.2322  0.6312  1.2441
 1601SOL    HW216437   0.662   3.052   5.479 -0.0696 -1.5353  0.3148
 1602SOL     OW16438   0.627   1.286   8.694  0.4554  0.4814 -0.5488
 1602SOL    HW116439   0.645   1.194   8.673  1.2418  0.4808  0.1362
 1602SOL    HW216440   0.579   1.283   8.777  0.6252  0.1051 -0.4651
 1603SOL     OW16441   2.949   0.905   7.847 -0.3271 -0.0386 -0.3371
 1603SOL    HW116442   2.922   0.965   7.917 -2.5017 -1.8350  0.3529
 1603SOL    HW216443   2.869   0.888   7.798 -0.2802 -3.3778  0.7774
 1604SOL     OW16444   4.465   3.024  12.834  0.4029 -0.1547  0.5032
 1604SOL    HW116445   4.459   3.110  12.876 -0.3425  0.0217  0.0309
 1604SOL    HW216446   4.398   3.029  12.766 -0.6862  0.3193  1.6084
 1605SOL     OW16447   2.574   3.936   3.018 -0.5748  0.1417 -0.3192
 1605SOL    HW116448   2.575   4.030   3.036 -4.6985 -0.3376  2.4832
 1605SOL    HW216449   2.487   3.912   3.050  0.5921 -1.5311  1.6329
 1606SOL     OW16450   0.563   3.454   9.259  0.2612  0.4575  0.6688
 1606SOL    HW116451   0.581   3.436   9.351  0.3439  2.6290  1.0769
 1606SOL    HW216452   0.613   3.535   9.247 -0.9662  1.1034 -0.1723
 1607SOL     OW16453   2.951   3.273  15.788 -0.0829 -0.2459  0.0615
 1607SOL    HW116454   2.868   3.239  15.821  1.5422 -1.8732  2.5015
 1607SOL    HW216455   2.982   3.194  15.744 -0.9256 -0.6537  0.2016
 1608SOL     OW16456   4.049   1.386   6.463 -0.6568 -0.6397  0.2353
 1608SOL    HW116457   4.022   1.302   6.426  1.2828 -0.4043 -1.6786
 1608SOL    HW216458   4.097   1.351   6.538 -0.3554 -1.9798 -0.5673
 1609SOL     OW16459   2.263   0.933  13.143 -0.4920  0.1065 -0.9611
 1609SOL    HW116460   2.353   0.913  13.118  0.4545  0.9156  1.8544
 1609SOL    HW216461   2.218   0.849  13.133  1.0482 -0.7402 -0.8625
 1610SOL     OW16462   2.963   3.651   4.827  1.1012 -0.3973 -0.0626
 1610SOL    HW116463   2.911   3.579   4.790 -0.0544  0.1378  0.5192
 1610SOL    HW216464   3.021   3.595   4.878 -0.0904  0.4167  2.2162
 1611SOL     OW16465   4.017   2.163  14.341  1.2078  0.1039 -0.1436
 1611SOL    HW116466   3.935   2.118  14.361  0.7973  0.8576 -0.1076
 1611SOL    HW216467   4.005   2.203  14.255  1.5873 -0.5397 -0.4971
 1612SOL     OW16468   3.690   3.701   6.501  0.6578  0.5158 -0.3493
 1612SOL    HW116469   3.651   3.710   6.588  0.1360 -0.6063 -0.4752
 1612SOL    HW216470   3.728   3.616   6.523 -0.7404 -0.2762 -0.9835
 1613SOL     OW16471   0.525   2.831   4.035  0.1344  0.1515 -0.2775
 1613SOL    HW116472   0.507   2.742   4.006  0.6409  0.1767 -0.6834
 1613SOL    HW216473   0.620   2.827   4.021  0.3843  2.6825  0.6484
 1614SOL     OW16474   0.385   2.056  12.352  0.0075 -0.0598  0.1993
 1614SOL    HW116475   0.327   2.129  12.374  0.7344  0.4841  0.2998
 1614SOL    HW216476   0.431   2.040  12.435  1.2704 -2.9032 -1.0676
 1615SOL     OW16477   4.219   1.444  10.025  0.4257  0.4494  0.1921
 1615SOL    HW116478   4.208   1.368  10.081 -2.2706  1.3404  0.8696
 1615SOL    HW216479   4.273   1.411   9.953 -1.3858 -1.1382 -0.4414
 1616SOL     OW16480   1.774   1.541   6.361 -0.2057 -0.4968  0.0932
 1616SOL    HW116481   1.773   1.576   6.451  1.4286 -1.0635  0.3257
 1616SOL    HW216482   1.868   1.536   6.343 -0.4846  0.5143 -1.6532
 1617SOL     OW16483   2.197   2.385   0.935 -0.0408  0.3977 -0.0785
 1617SOL    HW116484   2.222   2.342   0.853 -0.5912 -1.4380  0.7250
 1617SOL    HW216485   2.240   2.325   0.996 -1.4008  0.0980  0.5838
 1618SOL     OW16486   1.466   2.957   2.574 -0.0879 -0.0660  0.1764
 1618SOL    HW116487   1.525   2.889   2.541 -0.0602 -0.9094  1.9494
 1618SOL    HW216488   1.403   2.907   2.625 -1.9183  2.1561  0.0738
 1619SOL     OW16489   2.366   3.471   1.791  0.1138  0.1475  0.1161
 1619SOL    HW116490   2.276   3.446   1.770 -0.0782  0.9024  0.0388
 1619SOL    HW216491   2.389   3.386   1.830 -1.3518  0.5815  1.9759
 1620SOL     OW16492   1.401   0.317   0.750  0.6668 -0.1167  0.8192
 1620SOL    HW116493   1.351   0.239   0.772  0.7083 -0.0878  1.0109
 1620SOL    HW216494   1.356   0.389   0.794 -1.3292 -0.5377 -0.5475
 1621SOL     OW16495   4.620   3.106   5.176 -0.0212 -0.2943  0.4418
 1621SOL    HW116496   4.545   3.104   5.116 -1.3011 -1.8753  2.1137
 1621SOL    HW216497   4.579   3.074   5.256  1.5442  0.0262  1.3584
 1622SOL     OW16498   4.409   4.679   7.192 -0.6898  0.2872 -0.0852
 1622SOL    HW116499   4.491   4.699   7.145 -1.5210  1.9398 -0.8468
 1622SOL    HW216500   4.353   0.018   7.173  0.7425  1.1307 -1.0735
 1623SOL     OW16501   3.236   0.612  11.828  0.2122 -0.4696 -0.2107
 1623SOL    HW116502   3.184   0.567  11.762  0.6178 -0.7449 -0.3415
 1623SOL    HW216503   3.286   0.669  11.769  3.4159 -2.5398  0.5005
 1624SOL     OW16504   0.489   0.298   1.572  0.1788  0.1071  0.0851
 1624SOL    HW116505   0.479   0.350   1.491 -0.8604  1.0682  0.8316
 1624SOL    HW216506   0.501   0.374   1.629 -0.1134  0.1890  0.0359
 1625SOL     OW16507   2.572   3.031   9.342  0.4547  0.1968 -0.1446
 1625SOL    HW116508   2.612   2.947   9.365 -1.1126 -0.9795 -1.6987
 1625SOL    HW216509   2.539   3.058   9.428  1.9599  0.2928  0.4031
 1626SOL     OW16510   2.430   3.710  11.977 -0.1886  0.3976 -0.2577
 1626SOL    HW116511   2.374   3.786  11.991 -1.6168 -0.5898 -0.5969
 1626SOL    HW216512   2.443   3.724  11.883 -2.8935 -1.8970 -0.9986
 1627SOL     OW16513   0.709   3.254  17.505  0.0204 -0.5303  0.3027
 1627SOL    HW116514   0.697   3.248  17.600 -2.3901 -2.2746 -0.0888
 1627SOL    HW216515   0.682   3.168  17.472 -1.8831 -0.3102  1.2427
 1628SOL     OW16516   2.953   1.484   8.517 -0.2787 -0.2718 -0.0764
 1628SOL    HW116517   2.881   1.518   8.571 -0.1853 -0.1967 -0.0010
 1628SOL    HW216518   3.029   1.477   8.575  0.3074  0.1461 -0.7963
 1629SOL     OW16519   2.753   3.362  11.393 -0.0524 -0.0119  0.9599
 1629SOL    HW116520   2.830   3.307  11.378 -0.3017 -0.1953  0.3361
 1629SOL    HW216521   2.697   3.332  11.321  3.0088 -1.8604 -0.6379
 1630SOL     OW16522   2.700   3.539   5.717  0.0353 -0.5316 -0.0362
 1630SOL    HW116523   2.711   3.568   5.627  1.5600 -0.8746  0.0524
 1630SOL    HW216524   2.616   3.495   5.705  0.6884 -1.7838  0.0450
 1631SOL     OW16525   1.965   4.003  14.819 -0.1656 -0.0803  0.2299
 1631SOL    HW116526   1.911   4.017  14.741  0.5445 -2.3817 -0.6850
 1631SOL    HW216527   1.938   4.076  14.874 -0.2955  0.5312 -0.6467
 1632SOL     OW16528   3.749   1.153   7.991 -0.4565  0.0157 -0.0122
 1632SOL    HW116529   3.786   1.191   7.912 -1.3180  3.8351  1.4089
 1632SOL    HW216530   3.719   1.069   7.956 -4.2203  1.4189 -0.1390
 1633SOL     OW16531   2.304   2.390   5.294  0.2136 -0.2630 -0.4519
 1633SOL    HW116532   2.319   2.418   5.384  0.3381 -3.5237  0.5424
 1633SOL    HW216533   2.266   2.304   5.311  1.2438 -0.8929 -1.2690
 1634SOL     OW16534   0.361   1.022   4.453 -0.9432 -0.0711 -0.0525
 1634SOL    HW116535   0.383   1.107   4.414 -0.2705 -0.5977 -0.8262
 1634SOL    HW216536   0.301   1.042   4.524  0.9991 -0.1476  1.5910
 1635SOL     OW16537   0.895   2.043  15.171 -0.4370  0.3555 -0.2186
 1635SOL    HW116538   0.986   2.073  15.171 -0.3148  0.0187  1.5976
 1635SOL    HW216539   0.877   2.015  15.082  1.3359  0.4313 -0.5904
 1636SOL     OW16540   3.200   2.785   5.227 -0.1916 -0.1307 -0.3007
 1636SOL    HW116541   3.166   2.707   5.273  1.0038 -0.7425 -0.4416
 1636SOL    HW216542   3.291   2.756   5.228 -0.6701 -1.6851 -0.1192
 1637SOL     OW16543   1.267   2.971   3.704  0.1052  0.2715  0.3266
 1637SOL    HW116544   1.269   3.000   3.612  2.3502 -1.3179 -0.1264
 1637SOL    HW216545   1.313   3.042   3.749  0.8395 -1.0901  1.7055
 1638SOL     OW16546   3.218   2.315   4.518 -0.3759  0.8435  0.0577
 1638SOL    HW116547   3.279   2.382   4.486  1.1464 -0.8530 -0.5679
 1638SOL    HW216548   3.272   2.237   4.507  0.0253  1.0256  0.7286
 1639SOL     OW16549   4.187   0.879   2.187 -0.1170 -0.2868  0.2151
 1639SOL    HW116550   4.229   0.933   2.119 -1.1392  0.5271  0.2323
 1639SOL    HW216551   4.226   0.907   2.270 -1.6842  0.1776  0.7892
 1640SOL     OW16552   2.180   1.720  17.219 -0.1611  0.4208 -0.4093
 1640SOL    HW116553   2.135   1.711  17.303 -2.0884 -1.9592 -1.7118
 1640SOL    HW216554   2.272   1.728  17.246 -0.4007  1.2593  0.1220
 1641SOL     OW16555   2.464   1.799   5.061 -0.2619 -0.5430 -0.4045
 1641SOL    HW116556   2.459   1.787   4.967  1.6554  1.7564 -0.8263
 1641SOL    HW216557   2.539   1.748   5.091  0.0905  0.6811  0.8340
 1642SOL     OW16558   3.615   3.800  13.435  0.9917 -0.3331  1.1744
 1642SOL    HW116559   3.613   3.872  13.372  1.5211  0.6814  2.3267
 1642SOL    HW216560   3.659   3.736  13.378  0.3828  1.7715 -1.6678
 1643SOL     OW16561   4.216   4.356   7.853  0.4620 -0.1216  0.7966
 1643SOL    HW116562   4.223   4.332   7.945  2.1370 -2.8012 -0.0122
 1643SOL    HW216563   4.138   4.304   7.834  1.2239 -1.5474  1.4971
 1644SOL     OW16564   3.549   0.266  14.264 -0.2572 -0.3158 -0.0184
 1644SOL    HW116565   3.506   0.260  14.179 -2.7252 -0.0227  1.2164
 1644SOL    HW216566   3.583   0.355  14.254 -0.9689 -0.0610 -0.1757
 1645SOL     OW16567   4.609   4.571   4.936 -0.4487 -0.0677 -0.0396
 1645SOL    HW116568   4.662   4.494   4.957 -0.6017 -0.0418  0.4532
 1645SOL    HW216569   4.567   4.551   4.852 -1.1999 -1.7192  0.7197
 1646SOL     OW16570   1.702   1.896   4.663  0.5876  0.1869 -0.1998
 1646SOL    HW116571   1.784   1.935   4.632  2.0754  0.2504  3.7736
 1646SOL    HW216572   1.663   1.966   4.716  1.7293  0.6204  0.0731
 1647SOL     OW16573   4.626   4.311   6.339 -0.1805  0.3338 -0.2328
 1647SOL    HW116574   4.567   4.326   6.414  1.5637  0.9865  1.0160
 1647SOL    HW216575   4.569   4.244   6.301 -0.6160  1.2296 -1.1712
 1648SOL     OW16576   4.600   2.133   6.712 -0.0287 -0.1129  0.2940
 1648SOL    HW116577   4.635   2.142   6.623 -0.5060 -1.2911 -0.0109
 1648SOL    HW216578   4.572   2.042   6.721  2.6769 -1.0687 -1.0914
 1649SOL     OW16579   3.608   3.954  10.898  0.0614 -0.4081 -0.3101
 1649SOL    HW116580   3.610   4.005  10.979 -3.6295  0.7320 -0.9569
 1649SOL    HW216581   3.513   3.951  10.882 -0.5626 -0.4404  3.3642
 1650SOL     OW16582   1.497   3.126  14.373  0.2406  0.0430  0.0554
 1650SOL    HW116583   1.478   3.112  14.281 -0.8703 -0.9511  0.4381
 1650SOL    HW216584   1.592   3.132  14.368 -0.0685  3.2767 -2.0093
 1651SOL     OW16585   0.388   0.051   7.987  0.1604 -0.3538 -0.2641
 1651SOL    HW116586   0.455   4.720   7.995  2.0256  1.5331  0.0437
 1651SOL    HW216587   0.444   0.127   7.969  0.6699 -0.9184 -1.1076
 1652SOL     OW16588   3.616   0.650   7.803  0.2513  0.8003  0.6791
 1652SOL    HW116589   3.698   0.664   7.757 -0.7341  2.3711 -0.5758
 1652SOL    HW216590   3.589   0.570   7.759  2.0045  0.5149  0.1153
 1653SOL     OW16591   1.965   3.151  12.044  0.2431  0.6817 -0.0706
 1653SOL    HW116592   1.950   3.113  12.131  0.5508 -0.6394 -0.6020
 1653SOL    HW216593   1.994   3.070  12.003 -1.5354 -1.4760  2.8822
 1654SOL     OW16594   2.619   3.798   8.672  0.3706 -0.3580 -0.0387
 1654SOL    HW116595   2.699   3.813   8.623  0.9205 -1.3168  0.5462
 1654SOL    HW216596   2.645   3.721   8.723  2.0810 -0.0673 -0.4843
 1655SOL     OW16597   3.054   2.230   7.656  0.0078 -0.3970  0.1724
 1655SOL    HW116598   3.132   2.177   7.675  0.5146 -0.6650 -2.6927
 1655SOL    HW216599   3.080   2.307   7.707  2.0242  0.2338 -1.8037
 1656SOL     OW16600   4.124   1.330   5.593 -0.5599 -0.0870  0.0077
 1656SOL    HW116601   4.165   1.253   5.554  0.5217  0.2748  0.4402
 1656SOL    HW216602   4.199   1.371   5.635 -0.6407  0.4933 -0.4167
 1657SOL     OW16603   1.530   2.698   2.192  0.4184 -0.0003  0.2022
 1657SOL    HW116604   1.484   2.782   2.203  2.7335  1.4394 -1.2318
 1657SOL    HW216605   1.454   2.641   2.179 -1.0247  1.2242  3.1390
 1658SOL     OW16606   4.686   3.706   9.333 -0.3084  0.2122 -0.2452
 1658SOL    HW116607   4.701   3.649   9.257 -0.5056  0.0628 -0.1707
 1658SOL    HW216608   0.026   3.686   9.387 -0.3706 -0.2538 -0.3281
 1659SOL     OW16609   0.642   1.605  15.898  0.9506  0.1027  0.2020
 1659SOL    HW116610   0.563   1.575  15.854  1.3789  0.2129 -0.6485
 1659SOL    HW216611   0.614   1.588  15.988 -0.8263 -1.9111 -0.7433
 1660SOL     OW16612   1.112   3.160  15.929 -0.4034 -0.2040 -0.1488
 1660SOL    HW116613   1.132   3.142  16.020 -1.7875 -1.2438 -0.0543
 1660SOL    HW216614   1.192   3.128  15.887 -0.3093  0.8695 -0.8146
 1661SOL     OW16615   1.063   4.151   9.846  0.2220 -0.5598  0.4642
 1661SOL    HW116616   1.003   4.183   9.914  0.0543 -1.3300  0.6823
 1661SOL    HW216617   1.080   4.064   9.882  0.4040 -1.5864 -2.1323
 1662SOL     OW16618   3.240   1.430   8.346  0.0561 -0.0521 -0.1849
 1662SOL    HW116619   3.240   1.474   8.430  1.1464 -2.2654  0.9776
 1662SOL    HW216620   3.230   1.337   8.368 -1.1355 -0.2792 -1.6327
 1663SOL     OW16621   3.135   3.839   6.184  0.7626  0.5488  0.0261
 1663SOL    HW116622   3.050   3.796   6.196  0.2658  1.4547 -0.2804
 1663SOL    HW216623   3.136   3.845   6.089  2.2902  1.6859  0.1126
 1664SOL     OW16624   0.018   3.336   5.823  0.1321 -0.0759  0.2324
 1664SOL    HW116625   4.683   3.313   5.764 -0.2604  0.8894  0.3306
 1664SOL    HW216626   4.712   3.366   5.903  0.9167  1.1948  0.1722
 1665SOL     OW16627   0.540   2.385  15.095 -0.8848  0.4291  0.1214
 1665SOL    HW116628   0.598   2.351  15.026 -0.9836  1.9426 -0.7345
 1665SOL    HW216629   0.574   2.327  15.162 -3.5109 -1.9786 -0.6425
 1666SOL     OW16630   2.916   3.324   8.097  0.2450 -0.8926  0.5196
 1666SOL    HW116631   3.011   3.336   8.103  0.7048 -3.6362 -1.6271
 1666SOL    HW216632   2.886   3.403   8.144 -1.1950 -1.0158 -0.1833
 1667SOL     OW16633   3.729   4.633  11.089 -0.2494  0.2843  0.1674
 1667SOL    HW116634   3.770   4.719  11.084 -1.5866  0.8430 -1.1819
 1667SOL    HW216635   3.741   4.610  11.181  0.4875 -1.1756 -0.3000
 1668SOL     OW16636   1.576   1.105   7.441  0.4254  0.3583 -0.3761
 1668SOL    HW116637   1.491   1.062   7.454  0.5008  0.6016  0.9444
 1668SOL    HW216638   1.626   1.029   7.409 -0.6381  0.6047 -2.6719
 1669SOL     OW16639   1.892   0.374   8.099  0.1144 -0.0417 -0.4024
 1669SOL    HW116640   1.900   0.419   8.183  2.0108 -1.6812  0.2903
 1669SOL    HW216641   1.826   0.429   8.056  1.1590  0.4702 -1.3518
 1670SOL     OW16642   1.305   1.226   2.708  0.0518  0.1410  0.1008
 1670SOL    HW116643   1.304   1.131   2.699  1.5932 -0.0426  1.8568
 1670SOL    HW216644   1.328   1.258   2.621 -0.6170  1.5791  0.4478
 1671SOL     OW16645   2.615   3.493  17.418  0.1759  0.3675  0.0155
 1671SOL    HW116646   2.691   3.535  17.459  0.1658  0.2368  0.1676
 1671SOL    HW216647   2.565   3.470  17.496  1.7107 -1.0607  0.5826
 1672SOL     OW16648   0.542   1.394   7.559 -0.2079 -0.3325 -0.4993
 1672SOL    HW116649   0.625   1.406   7.514  0.0691  1.4117  0.4973
 1672SOL    HW216650   0.492   1.475   7.545  2.1664  1.0743 -0.8011
 1673SOL     OW16651   0.178   3.493   1.828  0.2927 -0.2976 -0.0458
 1673SOL    HW116652   0.218   3.557   1.769 -3.0488  1.0378 -0.8924
 1673SOL    HW216653   0.089   3.528   1.817  1.3320  1.8158 -1.6405
 1674SOL     OW16654   3.802   2.873   5.391  0.3605  0.1469  0.1080
 1674SOL    HW116655   3.786   2.947   5.332 -0.7984  0.5519  0.9290
 1674SOL    HW216656   3.784   2.801   5.330  0.0224 -0.8719  1.4157
 1675SOL     OW16657   0.140   0.089   6.190  0.5431 -0.4986  0.0903
 1675SOL    HW116658   0.115   0.066   6.100  0.5861  1.0885 -0.3351
 1675SOL    HW216659   0.123   0.183   6.193 -0.9660 -0.7304 -0.9945
 1676SOL     OW16660   0.045   1.951   3.994 -0.3554 -0.0397 -0.1138
 1676SOL    HW116661   4.699   1.911   3.967 -0.9525  0.5066  0.9313
 1676SOL    HW216662   0.020   2.022   4.053 -2.3853 -0.1017 -0.9140
 1677SOL     OW16663   3.339   0.433   3.330  0.3026 -0.2189  0.0437
 1677SOL    HW116664   3.348   0.518   3.373 -0.7955 -0.1393  0.1367
 1677SOL    HW216665   3.267   0.445   3.267  1.6169 -0.1439 -1.4419
 1678SOL     OW16666   1.027   3.088  11.327  0.6273  0.2499  0.2631
 1678SOL    HW116667   1.111   3.054  11.297 -0.4746 -1.8921 -0.3910
 1678SOL    HW216668   1.038   3.181  11.345 -1.4643  0.7881 -1.3219
 1679SOL     OW16669   2.755   0.297   4.121 -0.0480  0.1522  0.1987
 1679SOL    HW116670   2.659   0.291   4.125  0.0480 -0.7369  1.1106
 1679SOL    HW216671   2.763   0.370   4.183  3.6304 -1.1383  1.2238
 1680SOL     OW16672   0.506   0.519   7.643  0.2095  0.0153  0.0247
 1680SOL    HW116673   0.546   0.435   7.663  2.0452  0.5612 -1.2612
 1680SOL    HW216674   0.411   0.510   7.652  0.0170  1.5802 -0.4253
 1681SOL     OW16675   0.762   4.252  11.743  0.3220 -0.5383  0.0237
 1681SOL    HW116676   0.732   4.292  11.825 -1.6100  0.4220 -1.1546
 1681SOL    HW216677   0.824   4.189  11.778  0.4580 -0.4528 -0.0665
 1682SOL     OW16678   0.590   2.469   2.431 -0.3235  0.3821  0.6606
 1682SOL    HW116679   0.564   2.407   2.363  1.2096 -0.7266  1.0871
 1682SOL    HW216680   0.665   2.517   2.398  0.5189 -1.6398 -0.2990
 1683SOL     OW16681   2.759   4.563   5.707 -0.0810  1.4261  0.0098
 1683SOL    HW116682   2.844   4.549   5.665 -1.0535  0.0793 -1.5632
 1683SOL    HW216683   2.696   4.517   5.650  0.5438  0.7738 -0.1664
 1684SOL     OW16684   2.501   3.013   6.237  0.5085 -0.6317 -0.6696
 1684SOL    HW116685   2.498   3.089   6.295  0.1525 -0.0927 -1.3934
 1684SOL    HW216686   2.408   2.992   6.225  0.5506 -1.7898  1.0198
 1685SOL     OW16687   1.032   1.953   6.787 -0.0978  0.0700 -0.3360
 1685SOL    HW116688   1.115   1.942   6.833 -0.3860  0.1028  0.1841
 1685SOL    HW216689   0.992   1.866   6.780 -2.4070  1.0977 -0.0488
 1686SOL     OW16690   3.134   4.600   5.103 -0.1521  0.1426 -0.4112
 1686SOL    HW116691   3.093   4.521   5.138  0.2982  0.2553  0.3852
 1686SOL    HW216692   3.192   4.576   5.031  0.5632  0.5422  0.0180
 1687SOL     OW16693   1.617   1.046   4.138  0.1520 -0.0123  0.4156
 1687SOL    HW116694   1.675   1.058   4.063  2.7788 -0.2516  2.4186
 1687SOL    HW216695   1.570   0.972   4.098 -0.4777  1.8109 -2.2495
 1688SOL     OW16696   1.128   3.956  13.104  0.1709 -0.3835  0.2330
 1688SOL    HW116697   1.103   3.985  13.017 -0.1024 -0.1125  0.3993
 1688SOL    HW216698   1.209   3.910  13.085  2.5145  3.6025  0.6169
 1689SOL     OW16699   0.934   3.091  14.076 -0.8259  0.1808  0.0737
 1689SOL    HW116700   0.912   3.173  14.033  0.8965  0.5778 -0.0489
 1689SOL    HW216701   0.881   3.033  14.022  1.7791 -1.9156 -0.2292
 1690SOL     OW16702   0.218   4.191   1.880 -0.7496  0.1511 -0.6649
 1690SOL    HW116703   0.152   4.122   1.890  0.6891 -1.0129  0.6991
 1690SOL    HW216704   0.286   4.148   1.828 -0.7814 -0.3552 -0.2963
 1691SOL     OW16705   1.014   4.268  13.810  0.1112 -0.2837 -0.4772
 1691SOL    HW116706   0.955   4.332  13.770  2.2981  1.6373 -0.6416
 1691SOL    HW216707   1.073   4.256  13.735 -1.0519 -0.2893 -1.3783
 1692SOL     OW16708   2.093   1.465   0.061  0.6408  0.0687  0.1571
 1692SOL    HW116709   2.148   1.448  17.731 -0.0915 -0.2269 -0.3138
 1692SOL    HW216710   2.044   1.535   0.018  1.6208 -0.4741 -1.8522
 1693SOL     OW16711   4.330   4.234   8.099  0.0658 -0.3877 -0.0668
 1693SOL    HW116712   4.352   4.292   8.172  0.9257 -0.5258 -0.2222
 1693SOL    HW216713   4.418   4.223   8.064  0.7924  1.1581  1.2892
 1694SOL     OW16714   2.689   3.604   3.401 -0.1925 -0.3537  0.2331
 1694SOL    HW116715   2.764   3.613   3.342  0.2219 -0.4751  0.7416
 1694SOL    HW216716   2.706   3.516   3.435 -1.1316 -0.8094 -0.4776
 1695SOL     OW16717   4.625   0.590   7.997  0.0949  0.0672  0.1430
 1695SOL    HW116718   4.551   0.602   8.056  1.3948  0.5424  1.6422
 1695SOL    HW216719   4.582   0.639   7.927 -0.9393 -1.7829 -0.5504
 1696SOL     OW16720   1.585   2.175  14.229  0.8320  0.2643  0.5103
 1696SOL    HW116721   1.537   2.245  14.184  0.2646 -0.7362 -0.4478
 1696SOL    HW216722   1.655   2.216  14.279  2.6482 -1.6929 -0.4671
 1697SOL     OW16723   3.985   3.305   1.938  0.0445 -0.3211 -0.1601
 1697SOL    HW116724   3.917   3.332   2.000 -2.0871  0.3558 -2.7959
 1697SOL    HW216725   3.966   3.212   1.924  0.3875 -0.0576 -2.3095
 1698SOL     OW16726   4.455   2.992  11.508 -0.2002 -0.6890  0.2433
 1698SOL    HW116727   4.374   2.946  11.532 -0.4722 -0.2338  0.2061
 1698SOL    HW216728   4.481   2.959  11.422  1.0197  3.4755 -0.9465
 1699SOL     OW16729   0.974   3.829   9.592 -0.1425  0.3500 -0.2064
 1699SOL    HW116730   0.996   3.837   9.685  1.5224 -1.1629 -0.4660
 1699SOL    HW216731   0.893   3.879   9.592  0.0894  0.7343  1.3813
 1700SOL     OW16732   3.593   0.042   5.451  0.1016  0.0428  0.4168
 1700SOL    HW116733   3.593   0.090   5.533  1.2805 -2.8859  2.1382
 1700SOL    HW216734   3.683   0.053   5.419  0.1106  1.0052  0.7990
 1701SOL     OW16735   4.611   2.659   6.488  0.2051 -0.9129  0.2363
 1701SOL    HW116736   4.672   2.648   6.561 -0.2720 -0.9731  0.6207
 1701SOL    HW216737   4.526   2.618   6.504  0.9267 -2.7128 -0.5557
 1702SOL     OW16738   4.461   1.110   3.577 -0.2589  0.0006 -0.6123
 1702SOL    HW116739   4.435   1.023   3.605  1.0864 -0.3474 -0.4708
 1702SOL    HW216740   4.399   1.155   3.634  1.2369 -0.0479  1.0341
 1703SOL     OW16741   4.636   0.577   3.615  0.0156 -0.2276 -0.2340
 1703SOL    HW116742   4.635   0.517   3.690 -0.4719 -0.5155 -0.4674
 1703SOL    HW216743   4.638   0.652   3.675 -0.5565  0.0935 -0.6202
 1704SOL     OW16744   2.567   2.305   4.269 -0.0915  0.1618  0.2291
 1704SOL    HW116745   2.635   2.305   4.337 -0.3163  2.0346  0.4618
 1704SOL    HW216746   2.488   2.294   4.321  0.1920  0.0769  0.6489
 1705SOL     OW16747   0.069   0.658   4.180  0.0760 -0.1084 -0.2387
 1705SOL    HW116748   0.030   0.743   4.159  0.2943 -0.0180 -0.2808
 1705SOL    HW216749   0.150   0.681   4.226 -0.9312 -2.2114  2.5719
 1706SOL     OW16750   0.814   0.120   8.034  0.1758 -0.1235  0.8649
 1706SOL    HW116751   0.768   0.124   7.950 -0.2827 -0.2932  1.1072
 1706SOL    HW216752   0.833   0.026   8.037 -2.7064 -0.7669 -0.8997
 1707SOL     OW16753   0.139   2.487  10.530  0.3873  0.0131 -0.8517
 1707SOL    HW116754   0.131   2.552  10.600 -0.4683 -0.5143 -0.4592
 1707SOL    HW216755   0.078   2.521  10.465 -0.2730  1.0409  0.3015
 1708SOL     OW16756   1.656   2.165   2.872  0.5774 -0.3927 -0.2388
 1708SOL    HW116757   1.729   2.137   2.927  1.6641  0.8022 -1.0810
 1708SOL    HW216758   1.691   2.190   2.787  1.4008 -0.2354  0.1444
 1709SOL     OW16759   3.340   1.616  12.578 -0.0333 -0.2486 -0.0890
 1709SOL    HW116760   3.431   1.591  12.558 -0.2313 -0.4321 -0.7715
 1709SOL    HW216761   3.298   1.567  12.508 -1.0301  2.1498 -1.1955
 1710SOL     OW16762   2.426   2.675  14.455 -0.3078 -0.1430 -0.4690
 1710SOL    HW116763   2.456   2.606  14.397  0.0285 -0.3504 -0.0513
 1710SOL    HW216764   2.432   2.648  14.547  0.1991 -0.4202 -0.5820
 1711SOL     OW16765   1.649   1.475   6.636 -0.1818 -0.4155  0.0163
 1711SOL    HW116766   1.743   1.464   6.650 -0.0183 -0.0642 -0.7841
 1711SOL    HW216767   1.629   1.569   6.628 -0.7589 -0.7273 -2.0249
 1712SOL     OW16768   1.215   1.165   7.501 -0.6694 -0.5551 -0.2528
 1712SOL    HW116769   1.289   1.210   7.541 -1.4678  0.0501  0.5493
 1712SOL    HW216770   1.179   1.108   7.569  2.3429 -1.2824  0.7203
 1713SOL     OW16771   4.022   1.726   7.249 -0.0060 -0.2817  0.1597
 1713SOL    HW116772   4.042   1.740   7.157  1.0025 -0.3820  0.3603
 1713SOL    HW216773   3.935   1.687   7.243 -0.3478  0.3372  1.1808
 1714SOL     OW16774   2.270   2.969   8.757  0.0207  0.1738 -0.0052
 1714SOL    HW116775   2.266   2.986   8.663  0.0977  0.4016  0.0332
 1714SOL    HW216776   2.177   2.984   8.775  0.3048 -0.5998  2.1375
 1715SOL     OW16777   4.473   3.645   3.111  0.5416  0.2203  0.3400
 1715SOL    HW116778   4.549   3.587   3.103  1.0173  0.7371  1.1913
 1715SOL    HW216779   4.508   3.715   3.056 -1.2256  0.6034 -0.2953
 1716SOL     OW16780   1.055   0.822   2.333  1.0666  0.5967 -0.1261
 1716SOL    HW116781   1.131   0.867   2.369  2.0069  0.9554 -2.5743
 1716SOL    HW216782   1.106   0.743   2.317 -1.6070 -1.2503  0.3817
 1717SOL     OW16783   2.496   4.017   8.746  0.3888  0.1314  0.6776
 1717SOL    HW116784   2.540   3.941   8.709  0.3968  0.9454 -1.0108
 1717SOL    HW216785   2.439   3.965   8.802 -1.3250 -0.7283 -1.8906
 1718SOL     OW16786   1.814   4.208   4.384 -0.1301 -0.5648  0.0257
 1718SOL    HW116787   1.886   4.146   4.373  0.2267  0.0508 -1.1388
 1718SOL    HW216788   1.838   4.245   4.469 -2.2916 -1.1237  0.8844
 1719SOL     OW16789   1.731   4.572   6.179 -0.3940  0.1523  0.3279
 1719SOL    HW116790   1.652   4.588   6.127  1.2205  2.8965 -1.2995
 1719SOL    HW216791   1.778   4.655   6.180  0.2658 -0.2007 -1.0093
 1720SOL     OW16792   0.235   3.417   7.802  0.5652  0.3183 -0.0604
 1720SOL    HW116793   0.309   3.375   7.844 -0.2450  0.3170  1.3919
 1720SOL    HW216794   0.279   3.482   7.748  0.8368  0.8975  0.8432
 1721SOL     OW16795   2.327   2.504   6.121  0.8334  0.6842 -0.0999
 1721SOL    HW116796   2.279   2.580   6.088 -2.0184 -2.0175 -2.2072
 1721SOL    HW216797   2.413   2.539   6.101  0.6502  1.4596  0.4440
 1722SOL     OW16798   0.466   1.462  10.889 -0.0257  0.3492  0.1457
 1722SOL    HW116799   0.482   1.503  10.974 -1.6545  0.5370  0.3569
 1722SOL    HW216800   0.475   1.533  10.826  0.4929 -0.9464 -1.2371
 1723SOL     OW16801   1.086   4.273   4.450 -0.2008 -0.5057 -0.1183
 1723SOL    HW116802   1.065   4.188   4.411 -0.6499 -1.2332  1.6818
 1723SOL    HW216803   1.003   4.291   4.493  1.5392 -0.1161  3.1274
 1724SOL     OW16804   3.598   2.551   8.270  0.8514  0.9778  0.0436
 1724SOL    HW116805   3.681   2.531   8.313  0.2621 -2.8325 -0.5988
 1724SOL    HW216806   3.568   2.606   8.343 -0.4863  1.1478 -0.6172
 1725SOL     OW16807   4.558   4.434   4.313 -0.1405  0.6533 -0.3301
 1725SOL    HW116808   4.645   4.455   4.279  0.6709 -1.9724  0.0636
 1725SOL    HW216809   4.501   4.437   4.236 -2.1231 -0.2377  1.1001
 1726SOL     OW16810   0.688   1.881   7.712 -0.0495 -0.2006 -0.4021
 1726SOL    HW116811   0.650   1.944   7.651 -3.1212 -2.6379 -1.0372
 1726SOL    HW216812   0.665   1.926   7.793 -0.4862 -1.2539  0.0635
 1727SOL     OW16813   3.740   0.378   1.843  0.0130 -0.3011  0.2120
 1727SOL    HW116814   3.744   0.423   1.758  0.2212 -1.8675 -0.6253
 1727SOL    HW216815   3.787   0.299   1.814  2.3359  1.0028  0.4892
 1728SOL     OW16816   2.251   1.850   9.844  0.3019 -0.3363  0.2882
 1728SOL    HW116817   2.247   1.790   9.770 -2.1315 -0.4959  0.5482
 1728SOL    HW216818   2.227   1.932   9.799 -0.1938 -1.3210 -1.2394
 1729SOL     OW16819   0.920   0.225   1.940  0.0426 -0.1442 -0.5555
 1729SOL    HW116820   0.845   0.273   1.906 -0.1675 -1.1523 -1.5172
 1729SOL    HW216821   0.964   0.290   1.994 -1.1329 -0.0075  0.2168
 1730SOL     OW16822   2.911   4.347   4.086  0.0295 -0.3521 -0.5382
 1730SOL    HW116823   2.900   4.336   3.992  2.5913 -1.5617 -0.6902
 1730SOL    HW216824   2.871   4.433   4.100  0.3253  0.2868 -3.6370
 1731SOL     OW16825   0.449   3.252   2.096 -0.3793 -0.2447 -0.0070
 1731SOL    HW116826   0.436   3.162   2.064 -1.7913  0.1018 -0.4102
 1731SOL    HW216827   0.504   3.278   2.022 -1.5183  2.8814  0.2673
 1732SOL     OW16828   4.012   2.946   7.845  0.4303 -0.2764  0.3172
 1732SOL    HW116829   4.090   2.898   7.873  0.6625  0.4666  0.9531
 1732SOL    HW216830   3.959   2.869   7.826  0.3183 -0.2669  0.5979
 1733SOL     OW16831   0.952   1.783   7.639 -0.4609 -0.1843 -0.1121
 1733SOL    HW116832   0.950   1.773   7.544  0.1939 -1.6174  0.0256
 1733SOL    HW216833   0.859   1.798   7.656 -0.8738  1.5584 -3.8391
 1734SOL     OW16834   3.810   2.964  17.546 -0.0008 -1.0483 -0.3177
 1734SOL    HW116835   3.714   2.959  17.544  0.0901 -3.1002  0.6188
 1734SOL    HW216836   3.830   3.057  17.542 -1.1181 -0.7194  1.7008
 1735SOL     OW16837   1.235   2.591   7.439  0.3609  0.1264  0.7563
 1735SOL    HW116838   1.300   2.636   7.386 -0.3917 -0.7183 -0.8749
 1735SOL    HW216839   1.165   2.584   7.375  0.7217  1.2887  0.2314
 1736SOL     OW16840   0.026   3.671   6.690  0.6672 -0.2320  0.2102
 1736SOL    HW116841   4.695   3.685   6.624  1.5945  1.1915 -0.4578
 1736SOL    HW216842   0.082   3.749   6.680 -0.8371  0.9159  0.7304
 1737SOL     OW16843   3.500   2.503   3.731  0.8896  0.3337 -0.1837
 1737SOL    HW116844   3.500   2.452   3.812  0.8869  1.8597  0.7770
 1737SOL    HW216845   3.407   2.523   3.720  0.5849  0.8290  3.3621
 1738SOL     OW16846   2.404   2.027   8.921 -0.2707 -0.2583 -0.1587
 1738SOL    HW116847   2.344   2.090   8.959 -1.8494 -0.5782 -2.1079
 1738SOL    HW216848   2.373   2.031   8.830 -2.1124  0.5631  0.5209
 1739SOL     OW16849   1.478   4.440   4.527  0.0107  0.1318  0.6290
 1739SOL    HW116850   1.414   4.409   4.463  2.1532  0.2992 -1.5927
 1739SOL    HW216851   1.531   4.362   4.545  1.3861  1.0982  0.7726
 1740SOL     OW16852   1.703   2.693   6.616  0.1540 -0.8302  0.2348
 1740SOL    HW116853   1.749   2.614   6.644  0.8520 -1.1747 -1.9213
 1740SOL    HW216854   1.722   2.746   6.693  1.5338 -1.8571  0.5940
 1741SOL     OW16855   0.876   3.209  16.115 -0.2412 -0.8580 -0.4472
 1741SOL    HW116856   0.910   3.255  16.192 -0.3047  0.3940 -1.1793
 1741SOL    HW216857   0.955   3.187  16.066  1.5985  0.2225  2.0099
 1742SOL     OW16858   3.418   4.735   3.859 -0.4737  0.1793 -0.6904
 1742SOL    HW116859   3.476   0.019   3.785 -1.3812  1.6003 -0.9976
 1742SOL    HW216860   3.414   4.639   3.852 -0.2184  0.1333 -0.1799
 1743SOL     OW16861   3.621   0.392   5.955  0.0759 -0.0232 -0.0447
 1743SOL    HW116862   3.579   0.477   5.950 -0.2145 -0.1783 -0.2816
 1743SOL    HW216863   3.553   0.344   5.907  0.1605 -0.3120  0.1202
 1744SOL     OW16864   1.144   3.304   4.994  0.2971  0.5782 -0.5234
 1744SOL    HW116865   1.129   3.346   5.079 -1.8733  0.3312 -0.7832
 1744SOL    HW216866   1.147   3.212   5.020 -0.9735  0.3570 -1.1444
 1745SOL     OW16867   2.534   0.192  14.786 -0.2952 -0.0724  0.2009
 1745SOL    HW116868   2.548   0.120  14.726  0.4495 -0.0309  0.3211
 1745SOL    HW216869   2.507   0.262  14.727 -2.7815 -0.1254  1.2963
 1746SOL     OW16870   4.620   0.400   0.186 -0.0342  0.2887  0.4762
 1746SOL    HW116871   4.707   0.362   0.199 -0.6301 -0.9013  0.9313
 1746SOL    HW216872   4.600   0.376   0.096  2.0076 -1.3903  0.4672
 1747SOL     OW16873   4.054   3.258   2.434 -0.3179 -0.3375  0.3917
 1747SOL    HW116874   4.140   3.223   2.456  0.8155  0.0642 -3.3655
 1747SOL    HW216875   4.003   3.220   2.506 -0.9397 -2.6465 -1.2538
 1748SOL     OW16876   1.436   0.973   6.072 -0.4309  0.2271  0.0362
 1748SOL    HW116877   1.381   0.938   6.142 -2.0763  3.1771  0.2062
 1748SOL    HW216878   1.470   1.045   6.125  0.1638 -0.8394  1.1275
 1749SOL     OW16879   2.716   0.039   3.743 -0.4919 -0.5250 -0.2537
 1749SOL    HW116880   2.775   0.112   3.763 -1.9788  0.8504 -0.9046
 1749SOL    HW216881   2.641   0.057   3.800 -0.3319 -0.9677  0.0941
 1750SOL     OW16882   4.098   0.688  14.031 -0.1720  0.0608 -0.2196
 1750SOL    HW116883   4.013   0.648  14.017  0.1492 -0.8918  0.5845
 1750SOL    HW216884   4.146   0.653  13.957  2.9267  1.5840  1.0635
 1751SOL     OW16885   0.958   0.680  13.510  0.2370  0.9173  0.2574
 1751SOL    HW116886   0.930   0.600  13.556  0.2870 -0.5115 -2.1986
 1751SOL    HW216887   0.877   0.720  13.479 -0.7611  0.3215  2.0802
 1752SOL     OW16888   1.726   0.886   1.971  0.0747  0.2359  0.5810
 1752SOL    HW116889   1.639   0.902   1.935  0.6102  2.0669  0.0587
 1752SOL    HW216890   1.761   0.821   1.910  1.7711 -0.6209  2.4537
 1753SOL     OW16891   1.719   2.386   5.598  0.3936  0.0520  0.2782
 1753SOL    HW116892   1.661   2.317   5.566  0.0270 -0.0310  1.1174
 1753SOL    HW216893   1.654   2.455   5.605 -0.2272 -0.6023  0.9810
 1754SOL     OW16894   1.576   0.364  16.173  0.0836  0.1418 -1.0261
 1754SOL    HW116895   1.567   0.459  16.171  1.3731  0.3290  1.2008
 1754SOL    HW216896   1.532   0.355  16.089  0.4194  1.3735 -1.3280
 1755SOL     OW16897   1.794   4.613  15.614  0.0872  0.1742  0.5948
 1755SOL    HW116898   1.721   4.575  15.662  0.0192 -2.8206 -1.9323
 1755SOL    HW216899   1.742   4.664  15.552 -0.4652  0.0018  0.9244
 1756SOL     OW16900   0.804   3.331  11.674 -0.6123 -0.1474  0.9821
 1756SOL    HW116901   0.795   3.238  11.691  1.2957 -0.5567 -0.3002
 1756SOL    HW216902   0.864   3.328  11.599  1.0055 -1.7846  2.3511
 1757SOL     OW16903   3.413   4.028   1.147 -0.4199 -0.0360  0.3430
 1757SOL    HW116904   3.423   4.084   1.224  0.3162  0.5075 -0.1367
 1757SOL    HW216905   3.325   4.053   1.118 -0.0918 -0.4025 -0.9847
 1758SOL     OW16906   4.710   1.300   5.551  0.0853  0.3536 -0.3097
 1758SOL    HW116907   4.724   1.213   5.589  1.2300 -0.3924 -2.3687
 1758SOL    HW216908   0.012   1.356   5.618  0.7398  0.1813 -0.5461
 1759SOL     OW16909   2.428   0.381  14.649 -0.3113  0.3698  0.0384
 1759SOL    HW116910   2.500   0.409  14.593 -0.4164 -1.7892 -1.1731
 1759SOL    HW216911   2.414   0.458  14.704  3.6313  0.1950  1.2868
 1760SOL     OW16912   2.953   2.098   6.526 -0.2476 -0.8336 -1.6061
 1760SOL    HW116913   2.938   2.161   6.596  1.1219  1.0584 -3.0178
 1760SOL    HW216914   2.983   2.153   6.453  0.5694  2.1347  0.9453
 1761SOL     OW16915   0.659   4.699   3.704  0.0638  0.0428 -0.5317
 1761SOL    HW116916   0.678   4.627   3.643  0.7822  0.8036 -1.2147
 1761SOL    HW216917   0.740   4.713   3.753 -0.3509  2.0210 -0.4125
 1762SOL     OW16918   0.916   1.605   9.552 -1.2999 -0.0387 -0.6697
 1762SOL    HW116919   0.929   1.522   9.599 -0.8357  0.6583  0.4422
 1762SOL    HW216920   1.001   1.648   9.559 -0.7542 -0.9090 -2.0563
 1763SOL     OW16921   1.611   1.215   0.726  0.5235  0.7895 -0.2726
 1763SOL    HW116922   1.551   1.213   0.800  0.2152 -2.0681 -0.6042
 1763SOL    HW216923   1.547   1.220   0.656  0.3525 -0.4244 -0.2076
 1764SOL     OW16924   3.898   1.320   1.549  0.3662 -0.5386  0.3922
 1764SOL    HW116925   3.815   1.365   1.563  1.7436  2.6386 -1.4082
 1764SOL    HW216926   3.920   1.339   1.458  0.4478  1.9825  0.9236
 1765SOL     OW16927   0.304   4.496  15.943 -0.8589 -0.1339  0.2337
 1765SOL    HW116928   0.275   4.560  16.009 -2.7017 -0.5856 -0.1453
 1765SOL    HW216929   0.302   4.563  15.874 -0.8548  0.2613  0.6130
 1766SOL     OW16930   1.064   2.317  10.266 -0.1745 -0.2904  0.0834
 1766SOL    HW116931   1.072   2.300  10.360  2.5727 -1.5461 -0.3871
 1766SOL    HW216932   1.157   2.311  10.244 -0.1851 -3.2383  0.8364
 1767SOL     OW16933   1.562   0.350   0.498  0.1549 -0.6944 -0.3824
 1767SOL    HW116934   1.520   0.361   0.584 -0.3812  2.3694 -1.0464
 1767SOL    HW216935   1.489   0.382   0.445  0.2491 -0.2203 -0.2279
 1768SOL     OW16936   0.177   3.735  10.862 -0.2160 -0.2857 -0.4690
 1768SOL    HW116937   0.196   3.692  10.779 -1.9999 -1.4521 -0.2746
 1768SOL    HW216938   0.264   3.740  10.902 -1.0668 -0.1332  1.3711
 1769SOL     OW16939   4.137   0.073  17.024  0.1034 -0.2406 -0.7229
 1769SOL    HW116940   4.212   0.079  16.965 -1.0209 -0.6523 -2.2028
 1769SOL    HW216941   4.138   0.157  17.069 -2.4479 -0.2123 -0.7073
 1770SOL     OW16942   1.072   1.989   3.291 -0.1855  0.1033  0.4346
 1770SOL    HW116943   0.993   1.978   3.344 -0.8594  0.0411 -0.5790
 1770SOL    HW216944   1.074   2.085   3.286  2.5717  0.1551  2.8721
 1771SOL     OW16945   0.942   4.545  11.234 -0.2156  0.0215 -0.0145
 1771SOL    HW116946   0.985   4.501  11.307  0.3191 -1.4374 -1.2131
 1771SOL    HW216947   0.939   4.473  11.171 -0.2492 -1.9447  2.2681
 1772SOL     OW16948   2.377   3.303  13.405  0.5777 -0.0178 -0.2774
 1772SOL    HW116949   2.466   3.271  13.414 -0.0120 -1.3834  0.6678
 1772SOL    HW216950   2.401   3.393  13.424  1.6014 -0.1397 -0.9876
 1773SOL     OW16951   3.141   0.096  15.853  0.2071  0.4445  0.4888
 1773SOL    HW116952   3.197   0.110  15.930 -0.9309  1.8484  1.0443
 1773SOL    HW216953   3.198   0.064  15.783  1.3664  0.6658  1.3133
 1774SOL     OW16954   3.044   1.862   1.768 -0.0725  0.3929 -0.4833
 1774SOL    HW116955   3.006   1.832   1.685 -1.6990 -0.0808  0.4346
 1774SOL    HW216956   2.994   1.943   1.780  2.2024  1.6227  0.4919
 1775SOL     OW16957   3.277   3.445  16.152  0.4518 -0.0364  0.1073
 1775SOL    HW116958   3.190   3.437  16.113 -0.0863  0.9927  1.1055
 1775SOL    HW216959   3.309   3.355  16.144 -0.8330 -0.2546 -2.3193
 1776SOL     OW16960   4.103   0.870   6.701  0.4291  0.4373 -0.3425
 1776SOL    HW116961   4.030   0.917   6.740  0.9191  0.0955  0.9696
 1776SOL    HW216962   4.056   0.796   6.662 -0.8071  1.1636 -0.2100
 1777SOL     OW16963   0.228   4.611   0.842  0.1828 -0.1892 -0.0211
 1777SOL    HW116964   0.185   4.619   0.927  1.9556  0.8768  0.7780
 1777SOL    HW216965   0.159   4.637   0.781 -0.5337  3.4930  2.3754
 1778SOL     OW16966   2.102   4.221   6.930  0.1340 -0.3684  0.2198
 1778SOL    HW116967   2.094   4.202   6.837 -1.4624 -1.3925  0.5543
 1778SOL    HW216968   2.078   4.140   6.976 -2.2131 -0.1438 -0.5937
 1779SOL     OW16969   1.664   3.428   3.032  0.0409  0.4187 -0.1571
 1779SOL    HW116970   1.717   3.492   3.079 -3.0459  2.2322  0.8470
 1779SOL    HW216971   1.590   3.432   3.093  0.8707  0.9801  0.8090
 1780SOL     OW16972   3.526   0.419   7.134 -0.2734  0.5329  0.2835
 1780SOL    HW116973   3.467   0.492   7.150  1.0675  1.8630 -0.7809
 1780SOL    HW216974   3.540   0.437   7.041 -3.0572  0.2461 -0.1664
 1781SOL     OW16975   3.946   2.994  15.946  0.1271  0.3408  0.1747
 1781SOL    HW116976   3.858   3.000  15.986  0.3624  0.4795  0.6756
 1781SOL    HW216977   4.006   3.033  16.009  0.0599  0.5715  0.0958
 1782SOL     OW16978   2.777   2.650   5.714 -0.3475  0.5120  0.6842
 1782SOL    HW116979   2.837   2.582   5.746  0.7048  1.1236  0.0070
 1782SOL    HW216980   2.749   2.682   5.800 -0.1442 -0.3754  1.0860
 1783SOL     OW16981   1.610   3.659   1.811 -0.5200 -0.1100 -0.2067
 1783SOL    HW116982   1.556   3.714   1.754 -0.5815  1.5028  1.4170
 1783SOL    HW216983   1.636   3.719   1.881  0.7827 -1.5689  0.5504
 1784SOL     OW16984   1.733   4.334   7.919 -0.3894 -0.0416  0.1925
 1784SOL    HW116985   1.726   4.423   7.885 -0.5949  0.6531  2.0270
 1784SOL    HW216986   1.651   4.335   7.968  0.0052 -2.0162  0.8699
 1785SOL     OW16987   1.123   1.196   9.005  0.5611 -0.6349 -0.6753
 1785SOL    HW116988   1.101   1.116   8.956 -0.5927  0.5198 -2.0606
 1785SOL    HW216989   1.053   1.244   8.959  1.0692  1.0302  0.3397
 1786SOL     OW16990   1.711   4.486   5.317  0.3761 -0.4176  0.0348
 1786SOL    HW116991   1.749   4.573   5.324  0.4813 -0.5912  1.6554
 1786SOL    HW216992   1.692   4.491   5.223 -0.0172 -1.9201  0.0300
 1787SOL     OW16993   1.421   4.014  14.004 -0.4063 -0.3396  0.5490
 1787SOL    HW116994   1.376   4.090  14.043 -1.2242 -0.9501  0.8034
 1787SOL    HW216995   1.342   3.977  13.964 -0.9854  0.1259  1.2415
 1788SOL     OW16996   0.936   1.244   7.431  0.1030  0.2537 -0.1746
 1788SOL    HW116997   1.029   1.255   7.450 -0.0601  1.8610 -0.2749
 1788SOL    HW216998   0.902   1.321   7.477  0.5079  0.2042  0.2131
 1789SOL     OW16999   2.343   3.537   7.673 -0.2052  0.7608 -0.2803
 1789SOL    HW117000   2.250   3.518   7.660  0.0560  1.6104 -3.2535
 1789SOL    HW217001   2.346   3.568   7.764  0.8749  0.4567 -0.2036
 1790SOL     OW17002   4.485   1.467   6.048  0.1038 -0.1127  0.2679
 1790SOL    HW117003   4.405   1.467   5.995  0.3692 -1.6352 -0.1305
 1790SOL    HW217004   4.530   1.388   6.015 -3.7074 -2.9451  1.9243
 1791SOL     OW17005   3.860   2.717  10.624 -0.4538  0.0099 -0.7797
 1791SOL    HW117006   3.808   2.652  10.672 -1.2162 -0.0319 -1.6616
 1791SOL    HW217007   3.846   2.709  10.530 -1.4256  1.4304 -0.7566
 1792SOL     OW17008   0.549   2.092   7.621 -0.2566  0.5626  0.3136
 1792SOL    HW117009   0.471   2.096   7.566 -0.9546 -0.0675  1.2725
 1792SOL    HW217010   0.594   2.176   7.620  0.8451 -0.0415 -1.1116
 1793SOL     OW17011   3.006   2.468   8.755  0.1415 -0.0028 -0.0474
 1793SOL    HW117012   3.008   2.445   8.663  0.4031 -0.7323  0.1415
 1793SOL    HW217013   2.943   2.403   8.785 -0.6923  0.8890  0.1547
 1794SOL     OW17014   4.414   0.189   4.121  0.3892 -0.1818  0.6648
 1794SOL    HW117015   4.469   0.170   4.046 -1.4378 -1.3631 -0.3456
 1794SOL    HW217016   4.443   0.131   4.191 -1.3614  0.1080  1.6271
 1795SOL     OW17017   3.770   0.295   7.023  0.0041 -0.5646  0.0473
 1795SOL    HW117018   3.686   0.340   7.032  0.9482  1.7385 -2.4588
 1795SOL    HW217019   3.739   0.206   7.005  1.1907 -0.5873 -1.8530
 1796SOL     OW17020   0.410   0.839   0.399 -0.5593 -0.2241 -0.2106
 1796SOL    HW117021   0.439   0.862   0.310 -1.3452  1.2236 -0.0901
 1796SOL    HW217022   0.485   0.867   0.450 -1.4345  0.5720  0.6350
 1797SOL     OW17023   1.799   3.712   0.084 -0.2217  0.7720 -0.2138
 1797SOL    HW117024   1.847   3.766   0.147  0.3162  0.3876 -0.2923
 1797SOL    HW217025   1.723   3.765   0.061 -1.4946 -1.0176 -0.1639
 1798SOL     OW17026   2.311   0.892   2.204 -0.0034  0.3548  0.0089
 1798SOL    HW117027   2.310   0.983   2.234  2.2222  0.3719 -0.0320
 1798SOL    HW217028   2.258   0.893   2.124 -1.6177 -2.0789  1.0531
 1799SOL     OW17029   0.115   0.605   0.228 -0.6121  0.1438 -0.0509
 1799SOL    HW117030   0.144   0.533   0.173  0.0796 -0.8328  1.5871
 1799SOL    HW217031   0.185   0.670   0.225 -2.0000  1.5661 -1.3362
 1800SOL     OW17032   0.117   2.985   5.342 -0.6098  0.1500 -0.2519
 1800SOL    HW117033   0.053   3.041   5.299  0.2708  0.8628 -0.6554
 1800SOL    HW217034   0.072   2.945   5.417 -0.2483 -2.4546 -1.4326
 1801SOL     OW17035   2.962   3.775   1.094  0.3592  0.0074  0.4693
 1801SOL    HW117036   3.024   3.795   1.164  0.3426  1.2376  0.1378
 1801SOL    HW217037   3.017   3.799   1.020 -0.2291  0.4331  0.1685
 1802SOL     OW17038   2.899   0.780  13.474  0.4410 -0.3174 -0.6466
 1802SOL    HW117039   2.826   0.828  13.514 -1.3983 -1.6758 -2.3728
 1802SOL    HW217040   2.957   0.850  13.445 -2.4509  3.0803  1.8422
 1803SOL     OW17041   0.861   0.877   6.924 -0.6319 -0.3324  0.7554
 1803SOL    HW117042   0.836   0.787   6.947 -1.6757  0.3345  2.2275
 1803SOL    HW217043   0.860   0.872   6.828  1.4305  1.7029  0.6366
 1804SOL     OW17044   3.169   3.216   1.633 -0.3039 -0.6353 -0.4079
 1804SOL    HW117045   3.158   3.297   1.583  0.1131 -0.6594 -0.5375
 1804SOL    HW217046   3.100   3.217   1.699  0.7677  1.3244  0.6862
 1805SOL     OW17047   1.788   0.187   1.709 -0.5684  0.4361 -0.2067
 1805SOL    HW117048   1.875   0.151   1.726 -0.7830  0.1584  0.2967
 1805SOL    HW217049   1.744   0.111   1.671  0.5311  0.2725 -1.1472
 1806SOL     OW17050   2.197   3.073   5.166  0.2868  0.3837 -0.1400
 1806SOL    HW117051   2.183   2.988   5.124 -0.9190  0.7306 -0.4342
 1806SOL    HW217052   2.131   3.124   5.119  1.1234 -0.1020 -1.8350
 1807SOL     OW17053   2.299   1.686   8.823  0.2587  0.4140  0.4678
 1807SOL    HW117054   2.250   1.713   8.900  0.1800 -0.9350  0.8962
 1807SOL    HW217055   2.249   1.737   8.759  0.9151  0.3984 -0.0568
 1808SOL     OW17056   0.723   0.416   1.871  0.1402 -0.1084  0.4721
 1808SOL    HW117057   0.774   0.497   1.869  1.5495 -1.0376 -1.4903
 1808SOL    HW217058   0.669   0.417   1.792  0.3875 -0.8882  0.2964
 1809SOL     OW17059   1.983   2.975  12.944 -0.1883 -0.5443  0.2524
 1809SOL    HW117060   1.920   3.041  12.914 -0.5741 -0.9623  0.1422
 1809SOL    HW217061   1.999   2.987  13.037 -1.1811  0.0796  0.3433
 1810SOL     OW17062   1.315   2.168  10.325 -0.1622  0.2973 -0.0760
 1810SOL    HW117063   1.251   2.117  10.375  0.2637 -0.7399 -0.5972
 1810SOL    HW217064   1.388   2.106  10.326 -1.4741 -1.2721  0.0590
 1811SOL     OW17065   1.816   1.043   6.569  0.7264 -0.5957 -0.2752
 1811SOL    HW117066   1.760   1.108   6.526 -0.0621 -1.0221  0.0895
 1811SOL    HW217067   1.887   1.046   6.506  1.6069 -0.3419  0.7322
 1812SOL     OW17068   0.173   0.360   1.826  0.3787  0.5987  0.1701
 1812SOL    HW117069   0.155   0.266   1.828  1.2562  0.4067 -1.0427
 1812SOL    HW217070   0.256   0.359   1.875  0.1704 -0.8128  0.4794
 1813SOL     OW17071   0.192   4.155   4.583 -0.3505 -0.0298 -0.3684
 1813SOL    HW117072   0.212   4.227   4.524 -1.8341  0.5501 -0.1745
 1813SOL    HW217073   0.238   4.077   4.552 -1.0645 -0.7026  0.2500
 1814SOL     OW17074   0.353   0.519  15.242  0.0426 -0.1112  0.1194
 1814SOL    HW117075   0.284   0.475  15.192  1.0664  0.0556 -1.4376
 1814SOL    HW217076   0.425   0.517  15.180  0.1412 -0.5759  0.2442
 1815SOL     OW17077   3.868   0.440  12.962  0.2893  0.2206  0.4067
 1815SOL    HW117078   3.874   0.404  12.873 -0.6075  0.6104  0.1836
 1815SOL    HW217079   3.929   0.380  13.004  0.4102 -0.4110 -0.6532
 1816SOL     OW17080   1.899   1.051   2.404  0.3502  0.0990 -0.3136
 1816SOL    HW117081   1.854   0.971   2.377 -0.1418  1.2965 -3.0113
 1816SOL    HW217082   1.932   1.087   2.321 -0.2854  0.3474 -0.4525
 1817SOL     OW17083   2.082   3.709   5.507  0.1053  0.0131  0.2530
 1817SOL    HW117084   2.115   3.755   5.584  0.5125  1.0668 -0.5483
 1817SOL    HW217085   2.007   3.766   5.489  0.8845  1.2792  1.0084
 1818SOL     OW17086   1.107   4.574   1.142  0.2236 -0.1985  0.3740
 1818SOL    HW117087   1.093   4.521   1.063  0.5651  0.0534  0.1445
 1818SOL    HW217088   1.037   4.535   1.194 -1.0620 -1.5847 -2.3585
 1819SOL     OW17089   2.445   2.695   3.998  0.9971  0.2418 -0.4296
 1819SOL    HW117090   2.411   2.639   3.929  0.9342 -0.6760  0.3575
 1819SOL    HW217091   2.439   2.632   4.070 -0.3108  0.1086 -0.6652
 1820SOL     OW17092   2.786   3.038   6.553  0.2750  0.1518  0.0032
 1820SOL    HW117093   2.728   3.114   6.543  1.4477  0.8068 -1.8198
 1820SOL    HW217094   2.733   2.965   6.521 -1.9207  1.7604 -0.0853
 1821SOL     OW17095   4.571   0.879   7.410 -0.4397 -0.0037  0.2053
 1821SOL    HW117096   4.577   0.858   7.317  1.2213  0.1175  0.2909
 1821SOL    HW217097   4.476   0.883   7.425 -0.5949  1.0841 -1.0914
 1822SOL     OW17098   0.852   2.218   8.695 -0.1967  0.1202 -0.0828
 1822SOL    HW117099   0.847   2.143   8.635  2.2998  0.8627 -1.2378
 1822SOL    HW217100   0.781   2.207   8.758  0.4718 -2.6447  0.2024
 1823SOL     OW17101   1.757   3.909  13.823  0.1722  0.0393  0.7468
 1823SOL    HW117102   1.809   3.904  13.903 -0.1256 -1.8120  0.8230
 1823SOL    HW217103   1.672   3.881  13.858  0.0887  0.9242  1.2476
 1824SOL     OW17104   0.703   2.557   7.267 -0.4072  0.0233 -0.1647
 1824SOL    HW117105   0.733   2.469   7.289 -1.3861 -0.9860 -2.9842
 1824SOL    HW217106   0.701   2.599   7.353  0.0330  0.0091 -0.1443
 1825SOL     OW17107   0.846   0.539   8.154  0.0189  0.2019  0.1619
 1825SOL    HW117108   0.758   0.557   8.119  1.1631  3.6485 -0.9389
 1825SOL    HW217109   0.892   0.520   8.073  1.1213  1.0310  0.5952
 1826SOL     OW17110   2.480   4.320  14.565 -0.0137 -0.0455 -0.2783
 1826SOL    HW117111   2.542   4.334  14.494  1.2936 -1.9889  0.4781
 1826SOL    HW217112   2.396   4.307  14.522 -0.5702  0.3591  0.6778
 1827SOL     OW17113   0.518   0.864  16.226  0.6954  0.3591  0.5201
 1827SOL    HW117114   0.435   0.910  16.225 -0.1675 -1.2000 -2.3169
 1827SOL    HW217115   0.516   0.830  16.315 -0.4459  1.8088  1.0253
 1828SOL     OW17116   1.063   2.104   5.615 -0.2569  0.0574  0.1594
 1828SOL    HW117117   1.107   2.022   5.589 -0.5396 -0.0988  0.1804
 1828SOL    HW217118   0.995   2.110   5.548  0.0549 -1.1993 -0.2772
 1829SOL     OW17119   2.132   4.122  10.481 -0.5260  0.1820 -0.4969
 1829SOL    HW117120   2.189   4.093  10.410  2.2650  1.8427  1.0577
 1829SOL    HW217121   2.188   4.097  10.555 -0.2737  0.1967 -0.6837
 1830SOL     OW17122   2.701   0.712   5.492  0.2019 -0.0106 -0.5929
 1830SOL    HW117123   2.675   0.795   5.451  0.2911 -0.9131 -2.4971
 1830SOL    HW217124   2.759   0.739   5.563 -3.0686 -0.6841  2.3402
 1831SOL     OW17125   1.516   0.222  14.018 -0.1105 -0.2082  0.6151
 1831SOL    HW117126   1.591   0.270  14.050 -0.2649 -0.4288  1.3050
 1831SOL    HW217127   1.557   0.180  13.942 -1.2428 -1.5640  0.7386
 1832SOL     OW17128   3.853   3.069   6.690 -0.4993  0.0741  0.0653
 1832SOL    HW117129   3.857   2.983   6.731 -0.3648 -0.0657 -0.2417
 1832SOL    HW217130   3.942   3.089   6.661 -0.3964  0.8619  0.9107
 1833SOL     OW17131   3.150   3.689   1.534 -0.1836  0.1655  0.5534
 1833SOL    HW117132   3.086   3.744   1.579 -0.6223  0.6208 -0.6417
 1833SOL    HW217133   3.107   3.604   1.534  1.6538 -0.7827  0.9818
 1834SOL     OW17134   0.596   1.134   4.219  0.2182 -0.6289 -0.5229
 1834SOL    HW117135   0.627   1.056   4.265  0.2283 -1.0369 -1.2125
 1834SOL    HW217136   0.679   1.161   4.181 -0.0353 -0.8577 -1.2451
 1835SOL     OW17137   1.774   4.012  14.635  0.4147 -0.6443  0.3666
 1835SOL    HW117138   1.747   3.921  14.649 -0.2835 -0.4978 -0.0477
 1835SOL    HW217139   1.691   4.059  14.624  0.4673 -1.3621 -2.9738
 1836SOL     OW17140   1.486   1.202  17.685  0.1931  0.8276  0.3492
 1836SOL    HW117141   1.504   1.283  17.732  0.9904  0.9206 -0.1205
 1836SOL    HW217142   1.558   1.146  17.713 -0.2991 -0.5673 -1.1449
 1837SOL     OW17143   1.249   4.349   5.024  0.3361  0.3086 -0.2448
 1837SOL    HW117144   1.316   4.292   4.985 -0.3352 -1.4670  1.1624
 1837SOL    HW217145   1.254   4.320   5.115 -0.1829 -2.4297 -1.0700
 1838SOL     OW17146   1.982   3.062   4.022 -0.0647 -0.2997  0.3827
 1838SOL    HW117147   1.929   3.025   3.951  0.3255 -2.1253  1.0364
 1838SOL    HW217148   1.917   3.078   4.091  0.0693 -0.2634  0.4998
 1839SOL     OW17149   2.605   0.575   4.752 -0.3248 -0.6284 -0.0472
 1839SOL    HW117150   2.582   0.563   4.845 -1.1543  0.0134 -0.1690
 1839SOL    HW217151   2.524   0.608   4.712 -0.4720  0.8125  1.4280
 1840SOL     OW17152   0.020   0.581   0.839  0.7530 -0.0455 -0.1768
 1840SOL    HW117153   0.022   0.582   0.934 -0.2104  0.7847 -0.1662
 1840SOL    HW217154   0.069   0.662   0.824 -0.6291  0.7108 -0.5750
 1841SOL     OW17155   3.764   0.344   4.789 -0.7050  0.3959 -0.1249
 1841SOL    HW117156   3.833   0.383   4.843  0.0714 -0.9545 -0.1416
 1841SOL    HW217157   3.788   0.393   4.711 -0.4165 -1.0506 -0.9398
 1842SOL     OW17158   1.329   2.885  11.261  0.0873  0.2602  0.3020
 1842SOL    HW117159   1.396   2.883  11.329  1.5007 -2.5490 -1.1570
 1842SOL    HW217160   1.308   2.792  11.251 -0.6387  0.5499 -0.9114
 1843SOL     OW17161   3.487   3.455  16.757 -0.5671 -0.7883 -0.5569
 1843SOL    HW117162   3.453   3.502  16.833  0.8423  0.2904 -0.5875
 1843SOL    HW217163   3.405   3.453  16.708  1.9472  2.1810 -4.8829
 1844SOL     OW17164   0.302   3.889   5.002  0.0680 -0.2735 -0.2455
 1844SOL    HW117165   0.324   3.797   4.992 -1.5068 -0.8692  1.6984
 1844SOL    HW217166   0.247   3.880   5.080 -1.3172  0.0644 -1.1640
 1845SOL     OW17167   1.761   1.349   5.853  0.4400 -0.2262 -0.1555
 1845SOL    HW117168   1.686   1.359   5.912 -0.3644  0.3554 -1.2810
 1845SOL    HW217169   1.748   1.260   5.820 -0.5345 -0.3002  0.4128
 1846SOL     OW17170   2.249   3.153   5.426 -0.4915  0.3565  0.6684
 1846SOL    HW117171   2.219   3.126   5.339 -1.2247 -0.4624  1.1826
 1846SOL    HW217172   2.251   3.249   5.422 -1.5022  0.3317 -0.4385
 1847SOL     OW17173   0.605   1.022   7.590  0.1065  0.1290  0.2630
 1847SOL    HW117174   0.579   0.931   7.576  2.2074 -0.2362 -1.3090
 1847SOL    HW217175   0.692   1.022   7.628  0.7831  2.2399 -1.2710
 1848SOL     OW17176   1.651   2.641   1.004  0.1302 -0.3022  0.4847
 1848SOL    HW117177   1.658   2.594   1.087  0.2548  1.6785  1.5901
 1848SOL    HW217178   1.724   2.602   0.955 -0.0250 -2.6248  2.0519
 1849SOL     OW17179   0.966   0.433   9.119  0.3982 -0.2417  0.2187
 1849SOL    HW117180   1.060   0.430   9.097  0.5408  2.3808  0.3979
 1849SOL    HW217181   0.930   0.444   9.031  1.0508  2.5899  0.3050
 1850SOL     OW17182   3.680   3.484   2.347  0.1790 -0.0499  0.2903
 1850SOL    HW117183   3.596   3.526   2.329  1.2708  1.3555 -1.4837
 1850SOL    HW217184   3.672   3.391   2.326 -0.4941  0.0546  0.0900
 1851SOL     OW17185   2.857   0.504  15.288 -0.3873  0.1426 -0.0114
 1851SOL    HW117186   2.835   0.456  15.368  1.8583  0.2799  0.6810
 1851SOL    HW217187   2.904   0.576  15.329  1.0363 -0.5349 -0.4622
 1852SOL     OW17188   0.376   2.021   8.477  0.6397  0.1444 -0.0249
 1852SOL    HW117189   0.356   1.938   8.433  3.1155 -1.0045  1.0071
 1852SOL    HW217190   0.351   2.000   8.567  0.7550  0.0783 -0.0086
 1853SOL     OW17191   0.070   2.274   5.869 -0.0284 -0.3931 -0.3953
 1853SOL    HW117192   0.121   2.349   5.839  2.8081 -1.6376  1.3613
 1853SOL    HW217193   0.133   2.202   5.873  0.2077 -0.2938 -2.2749
 1854SOL     OW17194   3.087   3.778   0.837 -0.5066 -0.0022 -0.3742
 1854SOL    HW117195   3.139   3.854   0.812  0.2873 -0.0672  1.0588
 1854SOL    HW217196   3.041   3.760   0.755 -2.1492  0.1920  0.4853
 1855SOL     OW17197   1.817   1.917   5.169 -0.6753  0.1279  0.1177
 1855SOL    HW117198   1.867   1.836   5.175  0.9795  1.1832  0.6485
 1855SOL    HW217199   1.845   1.957   5.086 -0.5019  1.8935  1.0270
 1856SOL     OW17200   1.285   4.454   4.710 -0.1050 -0.1127  0.0912
 1856SOL    HW117201   1.372   4.439   4.672 -1.0397 -2.3360 -1.1680
 1856SOL    HW217202   1.258   4.369   4.742  1.9882 -0.4963  0.8832
 1857SOL     OW17203   0.421   0.308  15.713  0.4327 -0.4059 -0.2600
 1857SOL    HW117204   0.443   0.335  15.802  1.0178  2.6816 -1.3584
 1857SOL    HW217205   0.326   0.316  15.706  0.7371  2.4328 -0.8199
 1858SOL     OW17206   4.691   1.724   7.704  0.4419 -0.4487 -0.2948
 1858SOL    HW117207   4.655   1.675   7.778  2.2813 -0.8351  0.3479
 1858SOL    HW217208   4.630   1.796   7.691  0.3322 -0.5403 -0.2904
 1859SOL     OW17209   3.302   0.927  13.488 -0.0308 -0.0420  0.1578
 1859SOL    HW117210   3.367   0.916  13.419  1.3369 -1.3417  1.6588
 1859SOL    HW217211   3.287   1.021  13.476 -1.4678 -0.3144 -0.1448
 1860SOL     OW17212   1.401   1.359   6.523 -0.2634 -0.1433  0.3828
 1860SOL    HW117213   1.392   1.413   6.601  2.3600  1.6196 -0.5257
 1860SOL    HW217214   1.438   1.427   6.467 -3.3608  0.0765 -1.3679
 1861SOL     OW17215   4.468   3.845   8.726  0.4676 -0.5286 -0.1282
 1861SOL    HW117216   4.526   3.876   8.796 -0.1800  0.6044 -0.0902
 1861SOL    HW217217   4.384   3.875   8.762  0.8279  0.9065 -0.5093
 1862SOL     OW17218   3.712   1.864   9.388  0.0160 -0.3968 -0.3974
 1862SOL    HW117219   3.633   1.855   9.335  0.0762 -0.4671 -0.4752
 1862SOL    HW217220   3.710   1.801   9.459 -2.6651 -0.8568 -0.8939
 1863SOL     OW17221   2.455   1.856   2.343  0.0594 -0.0451 -0.3954
 1863SOL    HW117222   2.484   1.859   2.434  1.3369 -0.9209 -0.7709
 1863SOL    HW217223   2.363   1.838   2.363 -0.0573  0.8031 -0.1842
 1864SOL     OW17224   1.021   3.419  16.220 -1.1320  0.0859 -0.1813
 1864SOL    HW117225   1.108   3.425  16.180 -0.4442 -1.5981  1.0677
 1864SOL    HW217226   1.023   3.490  16.285  0.4562 -1.0615  1.0139
 1865SOL     OW17227   0.097   1.719   2.684  0.3685  0.0713 -0.1679
 1865SOL    HW117228   0.183   1.749   2.712 -0.1235  1.8717 -0.5874
 1865SOL    HW217229   0.039   1.790   2.710 -0.9991 -0.3343 -2.1003
 1866SOL     OW17230   1.835   2.349   7.680  0.7401  0.6556  0.1972
 1866SOL    HW117231   1.923   2.342   7.643 -0.0667  0.6547 -1.7325
 1866SOL    HW217232   1.847   2.410   7.752 -0.8832  1.0977  0.0802
 1867SOL     OW17233   1.373   2.909   3.114 -0.2075 -0.1015  0.1225
 1867SOL    HW117234   1.360   2.838   3.050 -1.1515 -0.5988  0.8653
 1867SOL    HW217235   1.376   2.986   3.057 -1.3572  0.4236  0.7728
 1868SOL     OW17236   2.569   2.367   9.658  0.0246 -0.0827 -0.3237
 1868SOL    HW117237   2.599   2.399   9.743  0.0507 -0.0314 -0.3519
 1868SOL    HW217238   2.622   2.426   9.605  0.9874 -1.0494 -0.4331
 1869SOL     OW17239   1.055   3.965   6.002 -0.4182 -0.3007  0.1291
 1869SOL    HW117240   1.102   4.019   5.938  0.2617 -2.9413 -1.6325
 1869SOL    HW217241   1.014   3.894   5.952 -0.7372  2.2287 -3.2557
 1870SOL     OW17242   1.667   0.767   4.741 -0.3955 -0.6617 -0.4346
 1870SOL    HW117243   1.614   0.708   4.794  0.1700 -0.5279  0.2900
 1870SOL    HW217244   1.610   0.844   4.743  0.2382 -0.2045  1.0129
 1871SOL     OW17245   1.964   2.678   5.229 -0.7067  0.4654 -0.3565
 1871SOL    HW117246   2.058   2.663   5.233 -0.8953 -0.6099 -0.1736
 1871SOL    HW217247   1.964   2.745   5.160 -0.2326  1.1192  0.2870
 1872SOL     OW17248   4.120   4.625  13.657 -0.0916  0.3273  0.3368
 1872SOL    HW117249   4.182   4.680  13.703 -0.1002 -0.9697  1.9006
 1872SOL    HW217250   4.186   4.560  13.631 -1.5439 -1.2683  0.6421
 1873SOL     OW17251   1.474   0.308   7.275 -0.2876  0.5014  0.2987
 1873SOL    HW117252   1.489   0.218   7.243  0.8127  0.1505  1.7881
 1873SOL    HW217253   1.547   0.312   7.337 -1.3642 -0.4931  1.6420
 1874SOL     OW17254   0.359   2.877   7.886 -0.2034  0.0026 -0.3757
 1874SOL    HW117255   0.314   2.865   7.802  0.1278 -1.9246 -0.2579
 1874SOL    HW217256   0.444   2.908   7.854  0.0999 -1.1956 -0.7349
 1875SOL     OW17257   2.028   4.564   9.366 -0.1325  0.1662  0.0806
 1875SOL    HW117258   2.052   4.484   9.413 -0.7741 -1.2457 -2.0340
 1875SOL    HW217259   2.077   4.625   9.422  1.5406  0.6993 -1.9742
 1876SOL     OW17260   0.766   3.314  12.140 -0.7154 -0.7750 -0.0885
 1876SOL    HW117261   0.693   3.322  12.202  0.1153 -0.4942  0.8566
 1876SOL    HW217262   0.713   3.324  12.061  2.6081  1.9248 -1.9762
 1877SOL     OW17263   1.377   3.802  10.064  0.0376  0.1265 -0.2966
 1877SOL    HW117264   1.401   3.714  10.094  1.6982  0.2714 -1.1773
 1877SOL    HW217265   1.434   3.817   9.988 -0.1354  3.0838  0.1815
 1878SOL     OW17266   0.254   3.713  14.486 -0.1752 -0.4475  0.3491
 1878SOL    HW117267   0.194   3.753  14.550  0.6894 -0.4331  1.1657
 1878SOL    HW217268   0.334   3.741  14.532  1.1141 -2.1542 -0.8902
 1879SOL     OW17269   0.778   2.955   4.932 -0.0722  0.0415 -0.0020
 1879SOL    HW117270   0.737   3.026   4.981  2.0263  0.8524  0.5600
 1879SOL    HW217271   0.783   2.985   4.841 -1.3268  0.2191 -0.0121
 1880SOL     OW17272   0.728   3.943  15.944 -0.7450  0.3274 -0.7764
 1880SOL    HW117273   0.728   3.949  15.849  1.4485  0.7674 -0.7532
 1880SOL    HW217274   0.696   4.029  15.970 -0.9646  0.2446 -0.7747
 1881SOL     OW17275   2.260   1.320   8.439 -0.1096  0.4055  0.5989
 1881SOL    HW117276   2.232   1.391   8.382 -1.0282 -0.3114  0.1544
 1881SOL    HW217277   2.254   1.241   8.385  0.7134 -0.4471  1.7357
 1882SOL     OW17278   2.299   2.410   1.564  0.3254 -0.0100 -0.1829
 1882SOL    HW117279   2.208   2.380   1.565 -0.3484  1.9692 -1.5038
 1882SOL    HW217280   2.315   2.449   1.478 -0.4452 -2.0502 -1.2511
 1883SOL     OW17281   1.161   1.853   5.536 -0.0824 -0.1427  0.0710
 1883SOL    HW117282   1.250   1.816   5.535 -0.0773 -0.1356  0.5487
 1883SOL    HW217283   1.159   1.890   5.447 -0.6450 -1.2826 -0.3876
 1884SOL     OW17284   4.336   3.767  10.177  0.0331 -0.6225  0.0754
 1884SOL    HW117285   4.263   3.822  10.208 -0.8460 -0.5726 -2.0962
 1884SOL    HW217286   4.282   3.692  10.154  0.4230 -0.6169 -0.8234
 1885SOL     OW17287   1.834   1.957   9.075  0.0717  0.1024 -0.4051
 1885SOL    HW117288   1.809   1.872   9.041 -1.2308  1.3609 -2.5995
 1885SOL    HW217289   1.745   1.993   9.071 -0.3904 -0.6481  2.8374
 1886SOL     OW17290   1.648   3.550   5.472  0.6041  0.1410  0.1186
 1886SOL    HW117291   1.624   3.525   5.562 -0.3003  0.5336 -0.0204
 1886SOL    HW217292   1.651   3.464   5.430 -0.5650 -0.0004  0.3305
 1887SOL     OW17293   3.922   0.117   3.811 -0.2052 -0.5292  0.7473
 1887SOL    HW117294   3.942   0.024   3.798  0.5284 -0.4911  1.6196
 1887SOL    HW217295   3.956   0.124   3.900 -0.5471 -1.1153  0.9302
 1888SOL     OW17296   4.070   4.579   5.286  0.2266 -0.1887  0.1836
 1888SOL    HW117297   4.136   4.510   5.290 -0.7408 -1.0301  1.7722
 1888SOL    HW217298   4.055   4.592   5.380  0.4482 -2.3088  0.5008
 1889SOL     OW17299   0.638   0.597  15.358  0.1665 -0.1497 -0.5332
 1889SOL    HW117300   0.660   0.504  15.350  1.3901  0.1484 -0.5733
 1889SOL    HW217301   0.604   0.603  15.447  0.4414  1.4554 -0.5452
 1890SOL     OW17302   3.808   4.662   3.482 -0.1965 -0.2049 -1.0210
 1890SOL    HW117303   3.870   4.589   3.490 -0.7531 -0.5754  0.0277
 1890SOL    HW217304   3.851   4.704   3.408 -2.0985 -0.8895 -2.5365
 1891SOL     OW17305   1.464   3.429   1.348 -0.1135  0.0500 -0.0727
 1891SOL    HW117306   1.427   3.368   1.284  0.0067  0.9719 -1.0443
 1891SOL    HW217307   1.417   3.507   1.317 -0.3746 -0.9253 -2.1621
 1892SOL     OW17308   0.999   4.473   2.767  0.3179  0.6395  0.3056
 1892SOL    HW117309   0.918   4.472   2.817 -0.4882  0.8482 -0.9983
 1892SOL    HW217310   0.976   4.517   2.686  2.3705  1.5062  0.1836
 1893SOL     OW17311   4.585   3.763   3.940 -0.4124 -0.4803  0.6183
 1893SOL    HW117312   4.594   3.764   4.036  0.4953 -1.5072  0.5517
 1893SOL    HW217313   4.548   3.848   3.919 -0.9089 -0.5540  1.1822
 1894SOL     OW17314   1.178   0.481   6.170 -0.1332 -0.5984 -0.3029
 1894SOL    HW117315   1.206   0.517   6.255  2.9286 -2.4907 -0.5282
 1894SOL    HW217316   1.087   0.462   6.191 -0.0192  0.2830  0.9877
 1895SOL     OW17317   1.638   0.118  15.374  0.9282 -0.1858 -0.1281
 1895SOL    HW117318   1.579   0.174  15.323  1.6519 -0.0319 -0.8037
 1895SOL    HW217319   1.590   0.036  15.361  1.4588 -0.6140  0.5855
 1896SOL     OW17320   3.740   2.475  13.541 -0.0566  0.6311 -0.6375
 1896SOL    HW117321   3.795   2.408  13.584 -1.8585 -0.9732 -0.8420
 1896SOL    HW217322   3.802   2.503  13.473  0.0261  0.2900 -0.7033
 1897SOL     OW17323   0.650   3.469  11.084  0.4078  0.2061  0.4897
 1897SOL    HW117324   0.632   3.530  11.012 -0.8901 -1.1370 -0.3094
 1897SOL    HW217325   0.644   3.523  11.163  0.4827  0.4300  0.3437
 1898SOL     OW17326   1.590   3.477   5.727 -0.2377 -0.0944  0.1799
 1898SOL    HW117327   1.651   3.405   5.713  0.5304  0.6441 -0.2986
 1898SOL    HW217328   1.508   3.430   5.742  0.9840 -2.0356  0.7131
 1899SOL     OW17329   3.346   0.624   4.129  0.0094 -0.4263 -0.1756
 1899SOL    HW117330   3.350   0.707   4.176 -0.8156 -0.6392  0.2561
 1899SOL    HW217331   3.381   0.572   4.201  0.1671 -1.4742 -0.9965
 1900SOL     OW17332   2.774   1.555   8.145 -0.2186 -0.9665 -0.7186
 1900SOL    HW117333   2.808   1.478   8.099 -0.1097 -1.0242 -0.5428
 1900SOL    HW217334   2.837   1.571   8.216 -0.7169 -0.7139 -0.3282
 1901SOL     OW17335   2.670   0.864  14.151 -0.0449 -0.0315 -0.1983
 1901SOL    HW117336   2.704   0.867  14.061 -1.3790 -0.0643 -0.7031
 1901SOL    HW217337   2.644   0.772  14.149  0.5209 -0.2166  0.8355
 1902SOL     OW17338   2.621   0.935  16.232  0.5442  0.4101  0.2282
 1902SOL    HW117339   2.660   0.922  16.318  0.2959  3.0041  0.7411
 1902SOL    HW217340   2.536   0.976  16.250  0.0704 -1.0756  1.3750
 1903SOL     OW17341   2.775   1.262   1.299 -0.2528  0.4277  0.1026
 1903SOL    HW117342   2.819   1.232   1.378  0.7235  0.2395 -0.4996
 1903SOL    HW217343   2.761   1.353   1.324  1.9787  1.3010 -1.8113
 1904SOL     OW17344   0.936   2.593   3.487  0.2073 -0.9476  0.7739
 1904SOL    HW117345   1.011   2.551   3.528  0.6763  0.1599  1.0497
 1904SOL    HW217346   0.859   2.568   3.537 -0.4644 -0.2414  0.1088
 1905SOL     OW17347   0.260   0.937   6.951  0.2137 -0.0182 -0.1629
 1905SOL    HW117348   0.302   1.007   6.902  0.7743  0.7298  1.3732
 1905SOL    HW217349   0.247   0.984   7.034  0.3201  0.6973 -0.5485
 1906SOL     OW17350   3.487   2.922   5.381 -0.4196  0.4621  0.2314
 1906SOL    HW117351   3.393   2.920   5.362 -0.1303 -0.2944 -1.1286
 1906SOL    HW217352   3.523   2.914   5.292  0.4771  0.0401  0.6352
 1907SOL     OW17353   3.814   1.161   6.158 -0.0489 -0.6960  0.0093
 1907SOL    HW117354   3.763   1.107   6.218  0.3212  0.6465  1.5145
 1907SOL    HW217355   3.889   1.182   6.214  2.0559 -1.9067 -2.3382
 1908SOL     OW17356   2.928   2.556   6.601 -0.2823  0.4785  0.5084
 1908SOL    HW117357   2.911   2.594   6.515 -1.0269 -1.3700 -0.1575
 1908SOL    HW217358   3.006   2.503   6.587 -0.4694  1.0206 -2.6905
 1909SOL     OW17359   4.637   2.405   2.557  0.1612  0.0137 -0.0238
 1909SOL    HW117360   4.647   2.479   2.497  0.2754 -0.9959 -1.2405
 1909SOL    HW217361   4.720   2.413   2.604 -0.2979  0.4575  0.7197
 1910SOL     OW17362   1.166   1.268   6.216  0.1216  0.2587 -0.1556
 1910SOL    HW117363   1.094   1.210   6.191 -0.6756  2.1168 -2.1919
 1910SOL    HW217364   1.246   1.217   6.200  0.3975  1.2795 -2.0361
 1911SOL     OW17365   0.700   4.158   6.311 -0.4064  0.4836 -0.3003
 1911SOL    HW117366   0.609   4.132   6.298  0.1879 -0.4255 -2.6242
 1911SOL    HW217367   0.751   4.109   6.246  1.7584  0.7461  1.2046
 1912SOL     OW17368   0.791   0.283   1.173 -0.6115 -0.3192  0.3214
 1912SOL    HW117369   0.766   0.320   1.089  1.0585  1.8989  0.8071
 1912SOL    HW217370   0.844   0.358   1.201  0.8064 -0.9593 -0.6263
 1913SOL     OW17371   0.664   4.057  11.946  0.6369  0.2746  0.0189
 1913SOL    HW117372   0.671   4.040  12.040  0.7936  2.8543  0.4810
 1913SOL    HW217373   0.607   3.986  11.917 -4.0492  2.6339  3.4717
 1914SOL     OW17374   3.135   1.061  11.318 -0.2067  0.0827  0.2114
 1914SOL    HW117375   3.061   1.121  11.309  0.3864  0.6259 -0.9617
 1914SOL    HW217376   3.107   1.000  11.251  1.6634 -0.6487  0.1044
 1915SOL     OW17377   1.109   3.118   9.068 -0.6254  0.1314 -0.5344
 1915SOL    HW117378   1.063   3.037   9.046  1.1488 -0.4860 -1.8707
 1915SOL    HW217379   1.105   3.123   9.164 -3.5939  0.9959 -0.6877
 1916SOL     OW17380   3.031   0.734   2.441  0.0451  0.1617  0.4324
 1916SOL    HW117381   3.058   0.655   2.488  1.0491  0.6170  0.6053
 1916SOL    HW217382   3.012   0.690   2.358  0.2477  0.4220  0.2495
 1917SOL     OW17383   3.711   4.693  17.693  0.1064 -0.0165  0.1808
 1917SOL    HW117384   3.656   4.640   0.005  1.8686  0.4893  2.3543
 1917SOL    HW217385   3.687   4.666  17.605 -1.5881  0.2429  0.5546
 1918SOL     OW17386   2.486   3.843  15.433 -0.3915 -0.3995 -0.0441
 1918SOL    HW117387   2.511   3.811  15.346  0.9958  0.4196  0.0544
 1918SOL    HW217388   2.435   3.766  15.459  0.0317 -1.0988 -1.2751
 1919SOL     OW17389   1.129   4.382   3.931 -0.0285 -0.1895 -0.1836
 1919SOL    HW117390   1.215   4.376   3.891 -0.5383  2.1074 -1.6260
 1919SOL    HW217391   1.087   4.303   3.895  0.7497 -0.9297  0.5288
 1920SOL     OW17392   1.187   3.405   3.840 -0.0520  0.3915 -0.0295
 1920SOL    HW117393   1.231   3.473   3.890 -0.1442 -0.0161  0.6086
 1920SOL    HW217394   1.240   3.326   3.852  3.2979  2.7972  0.7659
 1921SOL     OW17395   0.192   1.367   9.700 -0.1419 -0.2786  0.0742
 1921SOL    HW117396   0.136   1.435   9.664 -0.7586 -1.6019 -1.4586
 1921SOL    HW217397   0.136   1.290   9.695  0.6441 -0.9013  0.8514
 1922SOL     OW17398   0.689   1.737   7.126  0.0382  0.0552  0.0400
 1922SOL    HW117399   0.676   1.792   7.049  0.2447 -0.0690 -0.0856
 1922SOL    HW217400   0.767   1.692   7.094 -0.8912 -1.5801  0.0796
 1923SOL     OW17401   1.675   3.524  10.146 -0.9515 -0.3966 -0.2438
 1923SOL    HW117402   1.621   3.533  10.224 -1.2927  1.5683 -0.6986
 1923SOL    HW217403   1.697   3.618  10.145 -0.1170 -0.5575  3.4044
 1924SOL     OW17404   2.422   1.494   2.578 -0.2486 -0.3739 -0.0087
 1924SOL    HW117405   2.459   1.528   2.496 -2.2007 -1.4192 -1.3322
 1924SOL    HW217406   2.345   1.444   2.552 -0.8638  0.2866  0.5690
 1925SOL     OW17407   2.292   1.790  11.033 -0.0313  0.0944 -0.6736
 1925SOL    HW117408   2.283   1.702  11.072 -1.5253  0.2028 -0.7508
 1925SOL    HW217409   2.280   1.788  10.938 -0.1062 -2.1236 -0.6353
 1926SOL     OW17410   2.041   0.301   4.033  0.7396 -0.1790 -0.3023
 1926SOL    HW117411   2.025   0.237   4.102 -3.1386  2.5318  1.3379
 1926SOL    HW217412   1.969   0.285   3.973  0.7733  2.0607 -0.9427
 1927SOL     OW17413   2.979   3.291  14.217 -0.5039  0.7613  0.1864
 1927SOL    HW117414   2.900   3.338  14.189 -0.3584  2.0182  1.8905
 1927SOL    HW217415   3.037   3.294  14.140 -0.6118 -1.0645  0.0344
 1928SOL     OW17416   3.467   1.366  14.842 -0.4075 -0.2781 -0.0048
 1928SOL    HW117417   3.556   1.335  14.825 -0.6613 -0.1597 -1.6220
 1928SOL    HW217418   3.462   1.430  14.771 -0.0546  0.5653  0.7403
 1929SOL     OW17419   3.787   2.517   3.925 -0.0068  0.1345 -0.0049
 1929SOL    HW117420   3.777   2.592   3.865 -2.3849  0.4035  0.6976
 1929SOL    HW217421   3.846   2.470   3.867  1.3652  1.6572  0.1559
 1930SOL     OW17422   3.996   0.602   2.669 -0.2502 -0.4783  0.0231
 1930SOL    HW117423   4.053   0.635   2.599 -0.0282 -2.3414 -0.6880
 1930SOL    HW217424   4.067   0.572   2.727  0.2116 -0.0241 -0.3086
 1931SOL     OW17425   2.632   0.007   3.282 -0.4125  0.1917  0.3917
 1931SOL    HW117426   2.601   4.704   3.363  1.3707  1.0519  1.5002
 1931SOL    HW217427   2.561   0.070   3.269 -0.4229  0.0259 -0.3561
 1932SOL     OW17428   4.358   0.763   9.732  0.0522 -0.2028 -0.5353
 1932SOL    HW117429   4.301   0.698   9.690 -1.1185  1.8312 -2.1141
 1932SOL    HW217430   4.429   0.702   9.750 -0.4796 -1.0172 -1.2311
 1933SOL     OW17431   4.260   4.485   1.422 -0.0613  0.2369 -0.2013
 1933SOL    HW117432   4.306   4.401   1.423 -2.8391 -1.3175 -1.6967
 1933SOL    HW217433   4.169   4.456   1.415 -0.4310  1.1427  0.9143
 1934SOL     OW17434   0.446   0.413   7.098 -0.6876 -0.3612 -0.3232
 1934SOL    HW117435   0.448   0.371   7.012 -2.9013  1.0951 -1.0884
 1934SOL    HW217436   0.446   0.335   7.154  1.2410 -2.3424 -3.0759
 1935SOL     OW17437   1.971   0.387   1.576 -0.2050 -0.1978 -0.1170
 1935SOL    HW117438   1.897   0.331   1.597 -1.4015  2.0699  1.7524
 1935SOL    HW217439   2.009   0.349   1.497  1.0623  1.1354 -0.1609
 1936SOL     OW17440   4.129   0.580   7.106 -0.2507  0.1761 -0.1970
 1936SOL    HW117441   4.036   0.574   7.125  0.1651  0.1973  1.9000
 1936SOL    HW217442   4.141   0.508   7.044  0.5132  1.1200 -1.1444
 1937SOL     OW17443   1.457   4.329   8.048 -0.3427 -0.6836 -0.2355
 1937SOL    HW117444   1.430   4.419   8.029 -0.6391 -0.9840 -1.2109
 1937SOL    HW217445   1.375   4.300   8.087 -0.5439  0.4560  0.1966
 1938SOL     OW17446   0.479   0.676   1.197  0.4575 -0.2742 -0.1166
 1938SOL    HW117447   0.447   0.756   1.156 -1.0212 -0.1822  1.2364
 1938SOL    HW217448   0.520   0.631   1.124  0.0992  0.5497 -0.8301
 1939SOL     OW17449   1.850   3.630   8.979 -0.0134 -0.3192  0.3262
 1939SOL    HW117450   1.776   3.606   8.924 -0.7557  2.3625  0.1603
 1939SOL    HW217451   1.813   3.647   9.066  0.7958  2.6712  0.0890
 1940SOL     OW17452   0.345   2.362   5.738 -0.1123 -0.1322 -0.1338
 1940SOL    HW117453   0.399   2.433   5.771 -2.6236  2.3943 -1.4990
 1940SOL    HW217454   0.408   2.290   5.725 -0.5018  0.0197 -2.9148
 1941SOL     OW17455   3.647   1.141   6.379  0.3838 -0.3570 -0.1453
 1941SOL    HW117456   3.594   1.220   6.394 -0.1228 -0.3033 -2.2158
 1941SOL    HW217457   3.641   1.100   6.465 -2.5710  1.4487  0.5300
 1942SOL     OW17458   3.776   2.197  15.533 -0.2550  0.3163  0.0908
 1942SOL    HW117459   3.814   2.140  15.466 -2.4645 -1.8685  0.7216
 1942SOL    HW217460   3.840   2.202  15.604  2.0340  1.2749 -2.0029
 1943SOL     OW17461   2.585   3.945  12.848  0.0670 -0.0631  0.2854
 1943SOL    HW117462   2.631   4.016  12.894 -2.9928  2.0850  0.0587
 1943SOL    HW217463   2.496   3.981  12.846 -0.2138 -0.8036 -0.4850
 1944SOL     OW17464   3.093   1.832  10.226  0.1565  0.3243 -0.3379
 1944SOL    HW117465   3.099   1.897  10.155 -0.4803  0.8175  0.0614
 1944SOL    HW217466   3.148   1.872  10.293 -1.3408  1.2774  0.3327
 1945SOL     OW17467   0.597   0.326   6.400  0.4358  0.3292  0.1905
 1945SOL    HW117468   0.562   0.337   6.311  3.1730  0.2473 -0.9114
 1945SOL    HW217469   0.524   0.371   6.442  1.0293  2.0198 -0.5924
 1946SOL     OW17470   1.123   1.843   3.887  0.5360  0.2870 -0.0320
 1946SOL    HW117471   1.184   1.869   3.955  0.4636  2.2504 -0.7109
 1946SOL    HW217472   1.042   1.827   3.935  0.4463 -2.1770 -0.9723
 1947SOL     OW17473   1.388   1.723   6.193 -0.0342 -0.4540 -0.3998
 1947SOL    HW117474   1.479   1.749   6.178 -0.3774  1.5483  0.9526
 1947SOL    HW217475   1.376   1.762   6.279  0.5835 -1.3157  0.0690
 1948SOL     OW17476   1.212   4.614  13.625  0.4188 -0.2068 -0.3921
 1948SOL    HW117477   1.150   4.633  13.554 -1.3477 -2.0743  0.6161
 1948SOL    HW217478   1.290   4.664  13.604 -0.6663  1.9147  0.6749
 1949SOL     OW17479   2.359   2.726   7.834  0.0124  0.2358 -0.1693
 1949SOL    HW117480   2.320   2.640   7.850  1.0046 -0.3273 -0.7940
 1949SOL    HW217481   2.288   2.766   7.784  0.9538 -0.4832 -2.0621
 1950SOL     OW17482   0.302   1.825   8.096  0.2895 -0.2153  0.5730
 1950SOL    HW117483   0.317   1.885   8.022 -0.8696 -1.3596 -0.5809
 1950SOL    HW217484   0.370   1.759   8.083  0.3576  0.6289 -3.3603
 1951SOL     OW17485   1.403   0.597   8.081 -0.2897  0.3344 -0.2241
 1951SOL    HW117486   1.350   0.590   8.001 -0.2073 -4.3068  0.1374
 1951SOL    HW217487   1.364   0.532   8.140  0.5010 -1.8418 -2.1154
 1952SOL     OW17488   4.692   1.640   5.359  0.3475 -0.6742  0.0233
 1952SOL    HW117489   4.703   1.643   5.264 -2.4538  1.6092 -0.2204
 1952SOL    HW217490   0.046   1.627   5.385  0.5519 -1.7335 -1.2038
 1953SOL     OW17491   3.121   4.060   5.869 -0.5618 -0.1416 -0.4370
 1953SOL    HW117492   3.039   4.101   5.894  0.2200  1.7106 -0.9271
 1953SOL    HW217493   3.187   4.088   5.932  0.8741  0.4330 -2.1952
 1954SOL     OW17494   3.501   4.239   4.663  0.3861  0.2968  0.3215
 1954SOL    HW117495   3.546   4.169   4.615  0.7169  1.3633 -0.9141
 1954SOL    HW217496   3.515   4.303   4.594  0.0516 -0.3890 -0.3933
 1955SOL     OW17497   0.790   2.592   7.982  0.1952  0.2251  0.0951
 1955SOL    HW117498   0.708   2.586   8.031  1.9498  0.4100  2.9938
 1955SOL    HW217499   0.752   2.610   7.896 -0.6483 -0.1671  0.3779
 1956SOL     OW17500   3.490   1.668   6.984 -0.0643 -0.3176 -0.3901
 1956SOL    HW117501   3.437   1.724   7.041 -0.9727 -0.6212 -0.9322
 1956SOL    HW217502   3.466   1.580   7.014  0.1730 -0.2843 -0.1145
 1957SOL     OW17503   4.445   1.231  14.425 -0.2112  0.5230  0.2030
 1957SOL    HW117504   4.518   1.206  14.369  0.4059  2.6211  0.0645
 1957SOL    HW217505   4.419   1.146  14.462  0.9356  0.7929  1.6327
 1958SOL     OW17506   3.284   3.049   4.013  0.8474 -0.3922 -0.2781
 1958SOL    HW117507   3.237   2.976   3.972  1.9218 -1.4764  0.4342
 1958SOL    HW217508   3.348   3.075   3.947  0.8788  1.3334  0.4628
 1959SOL     OW17509   0.192   4.648   4.834  0.5318  0.0220 -0.0951
 1959SOL    HW117510   0.141   4.579   4.878  1.2989 -1.1960 -1.0980
 1959SOL    HW217511   0.249   4.596   4.778 -0.6158  0.8195 -2.0278
 1960SOL     OW17512   1.695   1.028  17.053 -0.3053  0.1317  0.3814
 1960SOL    HW117513   1.613   1.043  17.006  0.3108 -0.5672 -0.9039
 1960SOL    HW217514   1.707   1.104  17.110  2.7331 -1.4484  1.7808
 1961SOL     OW17515   4.031   2.674  15.990 -0.1697 -0.4419  0.5225
 1961SOL    HW117516   4.078   2.757  15.996 -0.0547 -0.3149 -2.1768
 1961SOL    HW217517   3.961   2.696  15.929  0.9632 -1.5589 -1.1724
 1962SOL     OW17518   3.055   4.337   4.750  0.5656 -0.0803  0.3461
 1962SOL    HW117519   3.131   4.387   4.723 -0.6164  1.0881 -0.8404
 1962SOL    HW217520   3.030   4.290   4.670 -1.3391 -1.1058  1.5429
 1963SOL     OW17521   2.663   3.190   6.939 -0.3550  0.0033  0.1041
 1963SOL    HW117522   2.744   3.177   6.889 -3.1517  1.0321 -4.6315
 1963SOL    HW217523   2.679   3.281   6.965  0.6934  0.1753 -1.1276
 1964SOL     OW17524   4.173   4.523   4.280 -0.3770  0.3351 -0.9131
 1964SOL    HW117525   4.220   4.526   4.364 -3.4060  0.8213  0.7561
 1964SOL    HW217526   4.189   4.434   4.250  1.6832  0.3299  0.1697
 1965SOL     OW17527   3.065   1.199   3.329  0.2476 -0.6756 -0.0350
 1965SOL    HW117528   3.003   1.126   3.338  0.8113 -0.8730  2.1407
 1965SOL    HW217529   3.021   1.269   3.377 -0.5492 -0.9009 -0.4333
 1966SOL     OW17530   4.124   1.935   9.182  0.1999 -0.0872  0.4393
 1966SOL    HW117531   4.052   1.909   9.239  0.6233 -0.9368  0.5843
 1966SOL    HW217532   4.188   1.870   9.210  0.4320  0.5986  1.5293
 1967SOL     OW17533   3.241   1.459   5.470 -0.3809 -0.7497 -0.0002
 1967SOL    HW117534   3.289   1.450   5.553  0.5656  1.6801 -0.2856
 1967SOL    HW217535   3.158   1.417   5.492 -0.7277  0.2452  0.5571
 1968SOL     OW17536   3.321   4.061  12.872  0.1796  0.2908  0.0314
 1968SOL    HW117537   3.239   4.098  12.905  0.5453  1.2667 -0.1243
 1968SOL    HW217538   3.364   4.147  12.882 -1.1976  1.1063 -1.0871
 1969SOL     OW17539   1.823   1.578   5.269  0.3674 -0.2732 -0.0929
 1969SOL    HW117540   1.886   1.643   5.240  1.7177 -0.7318  1.7706
 1969SOL    HW217541   1.869   1.493   5.268  1.4962  0.3192  1.1149
 1970SOL     OW17542   0.830   2.927   9.829  0.1163 -0.6223 -0.1765
 1970SOL    HW117543   0.789   2.874   9.762  0.6054  0.2378 -1.1528
 1970SOL    HW217544   0.920   2.898   9.819  0.3627  0.2593 -0.5582
 1971SOL     OW17545   0.684   0.519   2.842 -1.3614 -0.1108 -0.2040
 1971SOL    HW117546   0.754   0.488   2.785 -1.5649  1.6147 -1.3952
 1971SOL    HW217547   0.659   0.436   2.882  1.9012 -0.3730  1.2563
 1972SOL     OW17548   0.152   3.201   5.040 -0.2279 -0.3354  0.2439
 1972SOL    HW117549   0.067   3.166   5.066 -0.2661 -0.9556 -0.7047
 1972SOL    HW217550   0.133   3.228   4.950  3.0027  0.2707 -0.2493
 1973SOL     OW17551   1.302   2.776   8.919  0.1289  0.0032  0.6027
 1973SOL    HW117552   1.269   2.795   8.831 -1.5496 -2.5243  0.6945
 1973SOL    HW217553   1.219   2.758   8.963  1.2208 -2.1526  1.7842
 1974SOL     OW17554   1.952   2.717   3.545  0.1253 -0.5063  0.0028
 1974SOL    HW117555   2.036   2.681   3.573  0.1269 -2.9011 -3.1772
 1974SOL    HW217556   1.980   2.808   3.530  3.1121 -1.4966 -0.3835
 1975SOL     OW17557   0.167   1.870   6.182  0.1548  0.2003  0.5364
 1975SOL    HW117558   0.241   1.887   6.240  1.0190  0.8562 -0.7657
 1975SOL    HW217559   0.124   1.954   6.197  0.7403  0.6667 -0.4438
 1976SOL     OW17560   0.859   2.306  11.050  0.2553  0.8981 -0.0692
 1976SOL    HW117561   0.789   2.291  11.113 -1.3379 -1.2073 -2.3721
 1976SOL    HW217562   0.886   2.217  11.028  2.3276  2.5798 -4.2684
 1977SOL     OW17563   2.103   1.499   3.766 -0.2289 -0.2786 -0.0335
 1977SOL    HW117564   2.184   1.461   3.731 -0.7303 -1.5980  0.2566
 1977SOL    HW217565   2.137   1.578   3.809 -2.3568  1.5596 -1.7580
 1978SOL     OW17566   4.251   3.136   3.415  0.4386  0.1737 -0.3869
 1978SOL    HW117567   4.246   3.041   3.421  0.0907  0.3732  2.3957
 1978SOL    HW217568   4.311   3.151   3.342  1.3389  0.4195  0.4075
 1979SOL     OW17569   4.121   3.945   2.807  0.5173  0.0492  0.3626
 1979SOL    HW117570   4.103   3.938   2.713 -0.5192 -0.9600  0.6420
 1979SOL    HW217571   4.086   3.860   2.834 -0.0757  0.4359  0.7966
 1980SOL     OW17572   2.767   0.941   8.932 -0.3432  0.1720  0.1318
 1980SOL    HW117573   2.796   1.028   8.961 -0.8682 -0.0738  1.3701
 1980SOL    HW217574   2.720   0.967   8.852  1.7497 -1.8982 -1.7716
 1981SOL     OW17575   2.426   1.589  16.950  0.1636 -0.0934 -0.4338
 1981SOL    HW117576   2.515   1.561  16.968  0.6037  1.8589  0.3604
 1981SOL    HW217577   2.442   1.678  16.917  0.7258 -0.0444 -0.0215
 1982SOL     OW17578   2.187   4.543   5.300 -0.0559 -0.1611 -0.3733
 1982SOL    HW117579   2.272   4.570   5.266 -0.3853 -1.1426 -1.9819
 1982SOL    HW217580   2.159   4.615   5.356 -0.6517  0.1133 -1.0166
 1983SOL     OW17581   1.487   0.187   8.877  0.4550  0.7891  0.5634
 1983SOL    HW117582   1.480   0.201   8.971 -0.4745 -0.3471  0.6589
 1983SOL    HW217583   1.524   0.271   8.850  3.1273 -0.7014 -0.3535
 1984SOL     OW17584   0.232   2.447   4.639  0.2132 -0.0420  0.2056
 1984SOL    HW117585   0.155   2.454   4.696 -0.5950 -3.3978 -0.4809
 1984SOL    HW217586   0.270   2.522   4.683  0.7048 -0.6515  0.8144
 1985SOL     OW17587   4.445   1.890   8.634 -0.1655 -0.1469  0.1944
 1985SOL    HW117588   4.458   1.796   8.625 -0.4312 -0.1008 -0.6114
 1985SOL    HW217589   4.362   1.892   8.585 -0.8460  1.4727  1.3776
 1986SOL     OW17590   0.372   2.275   7.943 -0.0761  0.3943  0.2105
 1986SOL    HW117591   0.338   2.265   7.855  0.9444 -0.4311 -0.0921
 1986SOL    HW217592   0.355   2.369   7.955 -2.3069  0.0188 -0.0544
 1987SOL     OW17593   3.607   1.564   6.280 -0.4672 -0.1894  0.1986
 1987SOL    HW117594   3.662   1.626   6.329 -0.0360 -0.0621 -0.4393
 1987SOL    HW217595   3.575   1.504   6.347  0.9804  1.7260  2.5888
 1988SOL     OW17596   4.202   0.449   7.892  0.1598  0.2842  1.0252
 1988SOL    HW117597   4.162   0.405   7.967  0.1299 -2.2581 -0.4446
 1988SOL    HW217598   4.182   0.382   7.826 -0.4297  1.2086  0.2841
 1989SOL     OW17599   2.740   3.064   3.362 -0.1408 -0.0709 -0.1980
 1989SOL    HW117600   2.667   3.003   3.362 -1.1003  1.0731  1.4215
 1989SOL    HW217601   2.783   3.041   3.280  1.0106 -1.0440  0.6785
 1990SOL     OW17602   0.210   2.335   5.478 -0.0537  0.6117 -0.6260
 1990SOL    HW117603   0.225   2.402   5.411  1.7019  0.3831 -0.4655
 1990SOL    HW217604   0.276   2.370   5.537 -1.6290  0.3035  1.3197
 1991SOL     OW17605   1.665   2.285   7.463 -0.0091 -0.3374 -0.0894
 1991SOL    HW117606   1.704   2.325   7.541  0.0998  0.3198 -0.4707
 1991SOL    HW217607   1.717   2.205   7.463  1.3314  0.5150 -0.6850
 1992SOL     OW17608   4.193   3.826   4.743 -0.5469 -0.1972  0.2077
 1992SOL    HW117609   4.098   3.832   4.758 -0.7356  0.2694 -1.1637
 1992SOL    HW217610   4.231   3.844   4.829  0.2082 -0.8295  0.0094
 1993SOL     OW17611   2.300   1.710  13.774 -0.5107 -0.0667  0.0432
 1993SOL    HW117612   2.391   1.699  13.747 -0.7559 -1.2021 -0.3588
 1993SOL    HW217613   2.262   1.642  13.718 -0.2563 -0.0743 -0.1173
 1994SOL     OW17614   2.511   2.965   4.696 -0.3801 -0.3076  0.4656
 1994SOL    HW117615   2.600   2.976   4.729 -0.5813  1.7380  0.3401
 1994SOL    HW217616   2.456   2.991   4.769 -0.9328 -0.9512  0.2725
 1995SOL     OW17617   2.443   2.572  16.795  0.6070 -0.2797 -0.0688
 1995SOL    HW117618   2.490   2.656  16.799  2.7378 -1.4630 -0.3100
 1995SOL    HW217619   2.393   2.584  16.715 -0.9472 -0.9153  0.7991
 1996SOL     OW17620   0.556   2.582  13.795  0.0406  0.1861 -0.8440
 1996SOL    HW117621   0.627   2.621  13.846  1.5683 -2.6384 -0.7681
 1996SOL    HW217622   0.518   2.661  13.757 -3.3758 -0.5379  1.0850
 1997SOL     OW17623   1.473   0.384  10.412  0.0557 -0.3336 -0.1291
 1997SOL    HW117624   1.446   0.321  10.346 -0.0376  0.9060 -1.2731
 1997SOL    HW217625   1.481   0.464  10.360 -0.4511  0.9162  1.7256
 1998SOL     OW17626   0.266   2.083   5.881  0.1481  0.0461 -0.5151
 1998SOL    HW117627   0.275   1.988   5.887  2.3772  0.3898  1.2692
 1998SOL    HW217628   0.279   2.088   5.786  2.0894 -0.4801 -0.2769
 1999SOL     OW17629   3.134   1.479   8.114  0.2909 -0.6739 -0.3572
 1999SOL    HW117630   3.186   1.440   8.185 -0.1538  0.6022  0.6819
 1999SOL    HW217631   3.081   1.537   8.169  0.1375 -0.8499 -0.3208
 2000SOL     OW17632   2.917   3.707  16.797 -0.7860 -0.3220 -1.1752
 2000SOL    HW117633   2.838   3.691  16.745 -0.6823  1.0625 -1.7380
 2000SOL    HW217634   2.967   3.625  16.805 -1.0800 -0.4277 -0.4313
 2001SOL     OW17635   2.248   3.993   2.834  0.4529  0.1880  0.2944
 2001SOL    HW117636   2.326   4.049   2.830  1.3310 -1.1421 -1.4397
 2001SOL    HW217637   2.273   3.935   2.905 -3.0777 -0.9554  0.5783
 2002SOL     OW17638   0.547   3.768  10.652  0.2718 -0.4533  0.6791
 2002SOL    HW117639   0.535   3.679  10.620  2.1815  0.0764 -1.4288
 2002SOL    HW217640   0.533   3.766  10.747  2.2495  0.2624  0.9884
 2003SOL     OW17641   4.240   3.460  10.768 -0.2403  0.4620  0.0480
 2003SOL    HW117642   4.243   3.549  10.803 -1.5884 -0.2044  1.8114
 2003SOL    HW217643   4.208   3.478  10.679 -0.4805 -2.2768 -0.4157
 2004SOL     OW17644   1.882   1.570   7.775  0.0731 -0.0785  0.5296
 2004SOL    HW117645   1.824   1.505   7.733  1.6580 -0.8250 -0.4981
 2004SOL    HW217646   1.828   1.649   7.772 -1.6188 -1.2055  1.2421
 2005SOL     OW17647   2.450   3.065   5.721 -0.1780  0.4633  0.8307
 2005SOL    HW117648   2.514   3.088   5.654 -1.2610 -0.3966 -0.4935
 2005SOL    HW217649   2.399   3.004   5.667  0.0754  1.3518 -0.4231
 2006SOL     OW17650   0.484   0.603   6.347 -0.3840  0.0630 -0.5123
 2006SOL    HW117651   0.429   0.534   6.386  0.1484 -1.0639 -1.7862
 2006SOL    HW217652   0.459   0.595   6.255 -1.3767 -1.9015 -0.0846
 2007SOL     OW17653   4.137   3.376   3.856  0.5406 -0.3599 -0.0805
 2007SOL    HW117654   4.158   3.284   3.870 -1.7397 -0.2808  3.7977
 2007SOL    HW217655   4.054   3.380   3.810  0.7770 -3.7311 -0.7870
 2008SOL     OW17656   1.990   0.244   6.294  0.2833 -0.4054 -0.1136
 2008SOL    HW117657   2.037   0.315   6.250  0.2684 -0.3849 -0.0962
 2008SOL    HW217658   1.945   0.278   6.371  0.0957 -0.9827  0.0329
 2009SOL     OW17659   0.719   3.867   9.484 -0.4074 -0.0316 -0.0461
 2009SOL    HW117660   0.653   3.907   9.541 -0.1268 -1.0414  0.9797
 2009SOL    HW217661   0.682   3.898   9.401 -0.1818  3.4172  1.1396
 2010SOL     OW17662   2.580   1.407   9.294 -0.1471 -0.0016  0.5290
 2010SOL    HW117663   2.653   1.459   9.262 -1.7259  1.5458 -0.5210
 2010SOL    HW217664   2.573   1.446   9.381 -1.3737  3.7720 -1.2742
 2011SOL     OW17665   0.875   4.018   4.324 -0.1118  0.3599 -0.2245
 2011SOL    HW117666   0.885   3.936   4.275  0.4488 -0.1570  0.7494
 2011SOL    HW217667   0.949   4.063   4.285 -0.5904  0.9741 -0.4234
 2012SOL     OW17668   0.927   1.902   9.454 -0.2342 -0.6661  0.4677
 2012SOL    HW117669   0.861   1.950   9.404  0.6119 -0.5802 -0.5545
 2012SOL    HW217670   0.869   1.846   9.507  0.0630 -1.5001 -0.0900
 2013SOL     OW17671   0.613   1.656   9.159  0.6432 -0.2142 -0.4309
 2013SOL    HW117672   0.638   1.655   9.251 -0.9033 -0.1863 -0.0110
 2013SOL    HW217673   0.527   1.698   9.164 -0.0708 -1.8638  0.8342
 2014SOL     OW17674   1.650   2.458  11.238 -0.3321  0.2188  0.4573
 2014SOL    HW117675   1.604   2.451  11.322  2.3573  0.4891  1.9848
 2014SOL    HW217676   1.679   2.550  11.244 -0.0666  0.3816 -3.8013
 2015SOL     OW17677   1.193   0.164   5.749 -0.1310 -0.1093 -0.5195
 2015SOL    HW117678   1.162   0.227   5.813  0.1141  0.8793 -1.3656
 2015SOL    HW217679   1.279   0.201   5.726  0.0674  0.3417  0.9481
 2016SOL     OW17680   1.749   4.611   5.668  0.2721 -0.4772 -0.2035
 2016SOL    HW117681   1.833   4.639   5.704  0.4000  1.1065 -1.7335
 2016SOL    HW217682   1.765   4.594   5.575 -0.9467  0.0406 -0.4976
 2017SOL     OW17683   2.512   1.383   6.569 -0.1302 -0.9062 -0.0220
 2017SOL    HW117684   2.468   1.362   6.652 -1.6381 -0.6022 -0.7486
 2017SOL    HW217685   2.603   1.353   6.574  0.8670  1.6902 -2.7103
 2018SOL     OW17686   2.266   2.150   6.534  0.1345 -0.9015  0.2440
 2018SOL    HW117687   2.243   2.087   6.466  2.2032  0.1087 -1.3595
 2018SOL    HW217688   2.320   2.215   6.489 -0.8684 -1.8903 -2.3969
 2019SOL     OW17689   1.896   3.385   5.254 -0.5427  0.5769 -0.2019
 2019SOL    HW117690   1.971   3.438   5.281  0.3138 -0.1342 -1.2347
 2019SOL    HW217691   1.913   3.372   5.161  2.9822 -2.0762  0.8480
 2020SOL     OW17692   3.958   2.439   3.658 -0.0277 -0.7577  0.2236
 2020SOL    HW117693   3.926   2.527   3.636  0.3285 -1.0171 -1.3671
 2020SOL    HW217694   4.051   2.461   3.665  0.1275 -0.5877 -2.1492
 2021SOL     OW17695   3.854   3.946  13.200  0.1333 -0.5548 -0.1558
 2021SOL    HW117696   3.780   4.003  13.220 -1.3085 -2.2613 -0.5615
 2021SOL    HW217697   3.927   3.996  13.234 -0.7661 -1.2331  2.8339
 2022SOL     OW17698   3.106   2.888  17.011  0.4288 -0.2450  0.4897
 2022SOL    HW117699   3.010   2.881  17.012  0.3617  0.5019 -0.3830
 2022SOL    HW217700   3.122   2.955  17.077  1.3222 -0.0601  0.0773
 2023SOL     OW17701   2.937   4.072   4.637 -0.2103 -0.1894  0.1846
 2023SOL    HW117702   3.029   4.059   4.657 -0.4756  0.6469  1.8999
 2023SOL    HW217703   2.894   4.023   4.707  0.1433 -0.2153  0.3845
 2024SOL     OW17704   4.375   1.248   6.655 -0.0733  0.3441  0.3983
 2024SOL    HW117705   4.281   1.233   6.645  0.0468 -0.7672  0.9304
 2024SOL    HW217706   4.398   1.190   6.727  0.4785  0.7706  0.5694
 2025SOL     OW17707   1.409   4.276   2.523  0.4561  0.7966  0.4197
 2025SOL    HW117708   1.367   4.234   2.598 -0.8419  1.2908 -0.0340
 2025SOL    HW217709   1.405   4.205   2.459  0.2137  0.3639  0.9136
 2026SOL     OW17710   1.216   0.045   6.136 -0.0384  0.1589  0.5676
 2026SOL    HW117711   1.249   0.129   6.169  1.2929 -0.0282 -0.2885
 2026SOL    HW217712   1.122   0.038   6.152  0.5478 -0.9671  3.6245
 2027SOL     OW17713   1.991   0.052  16.303 -0.3505 -0.0492  0.0349
 2027SOL    HW117714   1.936   0.025  16.377  2.0840  1.1597  2.2800
 2027SOL    HW217715   1.943   0.037  16.222 -0.2363  1.4811 -0.3140
 2028SOL     OW17716   1.461   3.713  13.716  0.1064  0.2454 -0.8136
 2028SOL    HW117717   1.492   3.761  13.793 -0.1492  0.1988 -0.6807
 2028SOL    HW217718   1.539   3.705  13.662 -1.1255 -1.9381 -2.2610
 2029SOL     OW17719   3.558   4.543  11.840 -0.2175 -0.0926  0.5441
 2029SOL    HW117720   3.631   4.498  11.797  1.5938  1.9235  1.5081
 2029SOL    HW217721   3.522   4.589  11.764  0.6059 -2.4076 -1.2751
 2030SOL     OW17722   3.755   1.030   3.302 -0.8862 -0.3987 -0.1483
 2030SOL    HW117723   3.829   0.973   3.323 -0.3861  0.4835  0.4582
 2030SOL    HW217724   3.787   1.119   3.315 -0.6961 -0.4542 -0.2287
 2031SOL     OW17725   1.303   1.601   2.467  0.1434 -0.5737 -0.5676
 2031SOL    HW117726   1.363   1.546   2.418  0.8536 -1.0353  0.8170
 2031SOL    HW217727   1.361   1.660   2.515 -0.7819 -0.5292  0.4907
 2032SOL     OW17728   2.957   2.148   0.960 -0.3761  0.7414 -0.0341
 2032SOL    HW117729   2.963   2.144   1.055  2.9771  2.1179 -0.1764
 2032SOL    HW217730   2.941   2.054   0.952 -0.2876  0.7623 -0.4516
 2033SOL     OW17731   1.047   2.379   5.129 -0.3564  0.2771  0.4552
 2033SOL    HW117732   1.031   2.407   5.038  2.3248  0.6467  0.0939
 2033SOL    HW217733   1.113   2.311   5.121 -0.9263 -0.0120 -1.8556
 2034SOL     OW17734   0.470   2.833  12.906 -0.1353  0.6454 -0.0393
 2034SOL    HW117735   0.497   2.921  12.931 -0.4864  0.9351 -0.6610
 2034SOL    HW217736   0.416   2.807  12.981  0.2302 -0.7201 -0.2483
 2035SOL     OW17737   1.084   0.800   6.509  0.0717  0.3943 -0.6218
 2035SOL    HW117738   1.025   0.863   6.468 -1.6186 -0.9335 -0.1695
 2035SOL    HW217739   1.118   0.848   6.585  1.3967 -1.2512 -0.1806
 2036SOL     OW17740   2.804   2.893   4.679 -0.0919  0.3058  0.0701
 2036SOL    HW117741   2.868   2.859   4.617  2.4857  2.6046  1.4495
 2036SOL    HW217742   2.801   2.818   4.738  0.3021  0.7376  0.6442
 2037SOL     OW17743   3.616   2.592   2.631 -0.1589 -0.6102  0.4849
 2037SOL    HW117744   3.545   2.594   2.567  0.1357  0.2741  0.1835
 2037SOL    HW217745   3.568   2.565   2.708 -1.2609  1.7359  0.6032
 2038SOL     OW17746   3.734   2.171   3.324  0.1959  0.5431 -0.2886
 2038SOL    HW117747   3.726   2.136   3.235  1.2581 -0.8470  0.1677
 2038SOL    HW217748   3.798   2.109   3.357  0.6409  0.1893 -1.8055
 2039SOL     OW17749   4.429   2.857   3.782 -0.8818  0.1813 -0.1909
 2039SOL    HW117750   4.371   2.781   3.786 -1.8938  1.0874  2.0506
 2039SOL    HW217751   4.398   2.906   3.858  2.6680  1.5640  0.3579
 2040SOL     OW17752   1.415   4.464   3.172  0.0143  0.0547  0.1233
 2040SOL    HW117753   1.383   4.512   3.095 -0.5694  1.3056  1.1450
 2040SOL    HW217754   1.361   4.385   3.168  1.4558 -0.8001 -2.3370
 2041SOL     OW17755   0.980   2.932   6.592  0.5280 -0.0706  0.0100
 2041SOL    HW117756   0.938   2.953   6.675 -1.5936  0.0326 -1.0963
 2041SOL    HW217757   1.071   2.955   6.609 -0.0625  1.6209  0.8530
 2042SOL     OW17758   1.334   3.263  14.648 -0.4443  0.3507  0.0631
 2042SOL    HW117759   1.286   3.198  14.596  0.1594  0.3337 -0.4773
 2042SOL    HW217760   1.296   3.252  14.735 -1.8663  0.7712 -0.5007
 2043SOL     OW17761   0.582   3.820  10.253 -0.0245 -0.2311  0.1051
 2043SOL    HW117762   0.560   3.854  10.340 -3.4879 -1.6586 -0.2586
 2043SOL    HW217763   0.642   3.751  10.282  0.5592 -0.6538 -2.1096
 2044SOL     OW17764   4.290   0.781   5.451 -0.0658 -0.2323  0.0204
 2044SOL    HW117765   4.279   0.733   5.533  1.3317 -1.2441 -0.3811
 2044SOL    HW217766   4.309   0.871   5.478 -1.2789  0.3351 -0.9600
 2045SOL     OW17767   4.308   0.930   6.514  1.0892 -0.5597  0.3761
 2045SOL    HW117768   4.253   0.936   6.592 -1.7542 -2.2688 -1.4487
 2045SOL    HW217769   4.267   0.849   6.482 -1.9332  0.6212  1.2353
 2046SOL     OW17770   2.748   3.573   1.965  0.6430  0.5798  0.4882
 2046SOL    HW117771   2.734   3.493   1.915  2.9743 -0.4421  1.4788
 2046SOL    HW217772   2.700   3.630   1.904  1.1662  1.1897  0.6483
 2047SOL     OW17773   0.368   4.729   3.456  0.4180  0.1346 -0.3713
 2047SOL    HW117774   0.428   4.684   3.516  2.7064  1.5399 -1.5878
 2047SOL    HW217775   0.335   4.665   3.393 -2.0416  0.3025  0.7725
 2048SOL     OW17776   3.774   2.004   3.857  0.3868  0.0052  0.1676
 2048SOL    HW117777   3.709   2.003   3.928  0.6138  2.6753  0.4087
 2048SOL    HW217778   3.768   2.093   3.823  1.6876 -0.7666 -2.0263
 2049SOL     OW17779   0.375   0.989  14.007 -0.0027  0.3894 -0.4171
 2049SOL    HW117780   0.426   1.041  14.069 -0.2612 -0.7266  0.7178
 2049SOL    HW217781   0.310   1.043  13.962 -0.0202 -0.2438 -1.1492
 2050SOL     OW17782   2.815   3.629   2.748 -0.0549  0.6707 -0.0214
 2050SOL    HW117783   2.879   3.584   2.804  0.0858  3.2822  1.9080
 2050SOL    HW217784   2.832   3.716   2.784  1.6994 -0.7924  2.7319
 2051SOL     OW17785   3.162   4.082  17.106 -0.1632 -0.3649 -0.2495
 2051SOL    HW117786   3.153   4.155  17.046 -1.5113 -0.0541  0.3410
 2051SOL    HW217787   3.257   4.067  17.100  0.0299  0.0095  1.7891
 2052SOL     OW17788   0.252   4.411   4.495  0.3531  0.5735 -0.0858
 2052SOL    HW117789   0.258   4.431   4.401  0.1053 -0.6709 -0.3621
 2052SOL    HW217790   0.171   4.458   4.517  0.5883  0.5515  0.7981
 2053SOL     OW17791   3.386   4.324   8.400  0.3581  0.3198 -0.3428
 2053SOL    HW117792   3.435   4.244   8.420  0.8647  1.4523  2.8535
 2053SOL    HW217793   3.396   4.336   8.305  1.9547  1.7672 -0.0045
 2054SOL     OW17794   1.149   4.002   9.235 -0.1777  1.0538 -0.1904
 2054SOL    HW117795   1.202   3.942   9.182 -0.6067 -1.9016  2.7968
 2054SOL    HW217796   1.206   4.079   9.225 -0.9936  1.8186  1.1001
 2055SOL     OW17797   1.804   2.041   3.107  0.8784  0.3756  0.3954
 2055SOL    HW117798   1.803   1.955   3.065  0.3356  0.7280 -0.3054
 2055SOL    HW217799   1.895   2.059   3.132  1.0586 -0.3523  0.2772
 2056SOL     OW17800   2.014   3.844   7.887  0.3925 -0.0513  0.2926
 2056SOL    HW117801   2.058   3.907   7.943  2.2426 -0.2332 -0.9793
 2056SOL    HW217802   2.025   3.891   7.805 -1.0855 -0.3699 -0.0941
 2057SOL     OW17803   2.158   1.032   9.375 -0.0413  0.3630 -0.9086
 2057SOL    HW117804   2.246   1.000   9.356 -0.2164 -0.6929  0.0702
 2057SOL    HW217805   2.105   0.956   9.352  0.4835  1.0840 -4.4709
 2058SOL     OW17806   0.138   3.600   7.079  0.1295 -0.6926 -0.5836
 2058SOL    HW117807   0.216   3.633   7.123  0.2374 -0.4940 -0.9306
 2058SOL    HW217808   0.174   3.580   6.993  0.0724 -1.4302 -0.4435
 2059SOL     OW17809   0.344   2.231   3.047 -0.1417  0.2970  0.1774
 2059SOL    HW117810   0.289   2.307   3.064 -1.7844 -0.9393  0.4588
 2059SOL    HW217811   0.377   2.263   2.963 -0.0950  0.5658  0.2995
 2060SOL     OW17812   0.117   2.062  16.761  0.2549 -0.1565 -0.2699
 2060SOL    HW117813   0.162   2.003  16.702 -0.5857 -1.5029  0.4392
 2060SOL    HW217814   0.185   2.087  16.823  1.1473 -0.3061 -1.1970
 2061SOL     OW17815   1.984   1.320   3.497  0.6076 -0.4718 -0.4563
 2061SOL    HW117816   1.960   1.283   3.582  0.8409  2.9544  1.1142
 2061SOL    HW217817   1.897   1.320   3.456  0.2830  0.2035  0.2149
 2062SOL     OW17818   4.338   1.562   2.201  0.1184  0.6696 -0.4191
 2062SOL    HW117819   4.313   1.471   2.187 -0.4213  0.7888 -0.2497
 2062SOL    HW217820   4.427   1.557   2.165  0.1892 -0.2753 -0.0893
 2063SOL     OW17821   4.616   1.157   0.369  0.2296 -0.3520 -0.4343
 2063SOL    HW117822   4.594   1.072   0.406 -0.4475 -0.1726 -0.4217
 2063SOL    HW217823   4.686   1.123   0.314  0.3680 -0.0470 -0.4508
 2064SOL     OW17824   1.321   3.620   4.469 -0.0840 -0.2586  0.3567
 2064SOL    HW117825   1.357   3.675   4.538  0.2499 -1.0053  0.7749
 2064SOL    HW217826   1.276   3.681   4.409  1.7556  0.2228 -0.5282
 2065SOL     OW17827   2.005   2.100   3.777  0.9896  0.2841  0.0317
 2065SOL    HW117828   2.041   2.057   3.699  0.3271 -1.4195  0.6712
 2065SOL    HW217829   2.046   2.046   3.844 -0.4485  0.5378  1.1199
 2066SOL     OW17830   3.854   0.044   8.155 -0.1481  0.1781  0.0873
 2066SOL    HW117831   3.861   0.106   8.083  0.9305  0.3346  0.3291
 2066SOL    HW217832   3.944   0.044   8.189 -0.9786  1.1313  2.3093
 2067SOL     OW17833   2.851   0.906   5.631  0.2827  0.0292  0.1898
 2067SOL    HW117834   2.815   0.976   5.575  3.2053 -0.0124 -1.7236
 2067SOL    HW217835   2.846   0.949   5.717 -1.3939 -1.5599  0.8697
 2068SOL     OW17836   1.759   3.272  10.720 -0.6223  0.0094 -1.1950
 2068SOL    HW117837   1.674   3.242  10.751 -1.7245  3.7128 -0.6380
 2068SOL    HW217838   1.759   3.353  10.770  2.4589 -0.7629  0.0672
 2069SOL     OW17839   2.250   2.208   9.784  0.5959  0.3172  0.0723
 2069SOL    HW117840   2.173   2.221   9.840 -0.9262  0.4343 -2.0273
 2069SOL    HW217841   2.205   2.196   9.700 -0.0278  0.3490  0.4015
 2070SOL     OW17842   0.321   4.081   1.540 -0.0701 -0.5553 -0.6782
 2070SOL    HW117843   0.259   4.024   1.584  0.6737 -1.5941 -0.9667
 2070SOL    HW217844   0.276   4.163   1.558  0.0667 -0.5115 -0.5303
 2071SOL     OW17845   0.756   2.085   3.945 -0.4113 -0.4205 -0.4227
 2071SOL    HW117846   0.696   2.047   3.882 -0.8539 -0.1234 -0.1840
 2071SOL    HW217847   0.785   2.009   3.995  1.0498  0.7365  0.4897
 2072SOL     OW17848   3.845   2.384   2.560 -0.0052  0.0476  0.4144
 2072SOL    HW117849   3.761   2.427   2.575  0.2290  0.6733 -0.0522
 2072SOL    HW217850   3.865   2.448   2.492 -1.2325  0.4064  0.3867
 2073SOL     OW17851   0.837   3.757   4.124  0.0139  0.0960  0.3060
 2073SOL    HW117852   0.745   3.732   4.112  0.3631 -0.9326 -0.2626
 2073SOL    HW217853   0.891   3.708   4.062 -1.4638  0.2549 -1.1176
 2074SOL     OW17854   2.380   1.309   6.820  0.5889  0.2376  0.2063
 2074SOL    HW117855   2.351   1.386   6.869 -0.0451 -0.3668  0.7652
 2074SOL    HW217856   2.454   1.275   6.872  0.3746 -1.4433 -0.5898
 2075SOL     OW17857   0.122   1.794   4.846  0.0638 -0.8251 -0.2927
 2075SOL    HW117858   0.070   1.716   4.831 -0.1144 -0.8454  0.4401
 2075SOL    HW217859   0.116   1.823   4.755  4.1752 -1.3457 -0.7356
 2076SOL     OW17860   2.220   0.342   3.584  0.1384 -0.5234 -0.2671
 2076SOL    HW117861   2.155   0.315   3.649 -1.9518  0.8219 -1.7787
 2076SOL    HW217862   2.256   0.256   3.563 -0.2501 -0.4628 -1.2124
 2077SOL     OW17863   2.900   4.593  10.765  0.2221  0.2704 -0.2348
 2077SOL    HW117864   2.947   4.647  10.702  0.5778 -1.8059 -1.7551
 2077SOL    HW217865   2.822   4.565  10.718  0.6753  2.2698 -2.1673
 2078SOL     OW17866   3.418   0.571   2.264 -0.4890  0.3647 -0.6993
 2078SOL    HW117867   3.484   0.515   2.224 -1.1089 -0.1965 -0.9245
 2078SOL    HW217868   3.446   0.655   2.228  1.4109 -0.3212 -0.7826
 2079SOL     OW17869   0.581   3.470  10.082 -0.0822  0.0069 -0.2638
 2079SOL    HW117870   0.640   3.396  10.066 -1.7140 -1.6161  1.2290
 2079SOL    HW217871   0.594   3.521  10.002 -2.6782 -0.7130 -1.1531
 2080SOL     OW17872   0.045   0.608   8.218  0.0253  0.1527  0.1502
 2080SOL    HW117873   0.122   0.639   8.169 -0.8456  0.9099 -0.7484
 2080SOL    HW217874   4.717   0.598   8.149  0.6144 -0.1387 -0.3660
 2081SOL     OW17875   0.476   1.469   5.795  0.0669 -0.0109  0.2005
 2081SOL    HW117876   0.553   1.413   5.800  1.5053  1.9113 -0.4939
 2081SOL    HW217877   0.438   1.448   5.880 -1.1180  3.1968  0.4681
 2082SOL     OW17878   3.452   4.359   7.133  0.1737  0.2175 -0.1621
 2082SOL    HW117879   3.434   4.328   7.222 -0.9307 -0.9677 -0.8052
 2082SOL    HW217880   3.399   4.294   7.088  1.3027 -1.0863  0.4092
 2083SOL     OW17881   4.522   0.486   1.931  0.3252 -0.5328 -0.5558
 2083SOL    HW117882   4.609   0.524   1.936 -0.7599  1.9971 -0.8114
 2083SOL    HW217883   4.501   0.505   1.839  2.2955 -0.0905 -0.9144
 2084SOL     OW17884   0.029   2.606  10.309  0.4174 -0.5466  0.4534
 2084SOL    HW117885   0.105   2.578  10.258  0.4069  1.8638 -0.8922
 2084SOL    HW217886   4.735   2.679  10.255 -0.3888 -0.8707  0.4706
 2085SOL     OW17887   0.780   0.661   7.341 -0.0384 -0.7912  0.2721
 2085SOL    HW117888   0.874   0.678   7.330 -0.0368 -0.2281  1.1078
 2085SOL    HW217889   0.788   0.567   7.330 -0.3993 -0.7772 -0.0992
 2086SOL     OW17890   3.333   3.935   6.659  0.5099  0.4563 -0.0284
 2086SOL    HW117891   3.339   3.927   6.564 -2.1929 -2.3611  0.0307
 2086SOL    HW217892   3.413   3.984   6.678  0.6971  0.2125 -0.1755
 2087SOL     OW17893   4.169   3.638   1.015 -0.3234 -0.5253 -0.5631
 2087SOL    HW117894   4.149   3.545   1.004  2.9104 -1.2895  0.0409
 2087SOL    HW217895   4.221   3.659   0.937 -0.4649  0.6280 -0.3459
 2088SOL     OW17896   1.754   0.425   4.056  0.7533 -0.2634 -0.1410
 2088SOL    HW117897   1.658   0.427   4.049  0.5793 -2.3564  1.6524
 2088SOL    HW217898   1.769   0.518   4.072  2.2739 -0.3495 -1.1366
 2089SOL     OW17899   2.207   1.938   7.788  0.0193 -0.3229 -0.1906
 2089SOL    HW117900   2.240   1.995   7.857  1.1443 -2.5988  1.1206
 2089SOL    HW217901   2.128   1.903   7.828  1.4782 -0.1463  2.8244
 2090SOL     OW17902   0.729   0.649   6.980 -0.1635 -0.1653  0.7131
 2090SOL    HW117903   0.679   0.702   7.042  3.3986  3.0410  0.8145
 2090SOL    HW217904   0.727   0.558   7.011 -1.3549  0.3696  2.1745
 2091SOL     OW17905   0.884   0.988   6.474 -0.4158 -0.3334  0.2344
 2091SOL    HW117906   0.857   0.983   6.382 -1.2429 -0.2318  0.4816
 2091SOL    HW217907   0.883   1.079   6.502  1.4786 -0.1724 -0.2149
 2092SOL     OW17908   0.020   0.683  12.867  0.9786  0.2459  1.0289
 2092SOL    HW117909   4.668   0.718  12.867  0.8945  0.0212 -1.2412
 2092SOL    HW217910   0.066   0.765  12.849  0.0194  0.5156 -0.1874
 2093SOL     OW17911   0.875   3.360   2.797  0.2269  1.0785 -0.1008
 2093SOL    HW117912   0.804   3.352   2.733 -0.8180 -0.8959  1.3228
 2093SOL    HW217913   0.922   3.415   2.734  1.2879  2.2644  1.7431
 2094SOL     OW17914   3.520   4.584   9.192  0.2365  0.0897 -0.5857
 2094SOL    HW117915   3.445   4.624   9.235  0.7972  0.1811  0.2998
 2094SOL    HW217916   3.586   4.653   9.193 -0.6511  0.9720 -1.8673
 2095SOL     OW17917   2.315   3.677   6.653  0.3592  0.4647 -0.2650
 2095SOL    HW117918   2.237   3.635   6.615  0.9100 -0.7688 -0.0287
 2095SOL    HW217919   2.294   3.684   6.746 -3.2309 -1.3923 -0.9303
 2096SOL     OW17920   2.982   3.745   6.978 -1.4514  0.8053  0.2761
 2096SOL    HW117921   3.029   3.662   6.979 -0.0144  1.6080 -0.6656
 2096SOL    HW217922   3.011   3.786   6.897 -1.3164  0.1692  0.0096
 2097SOL     OW17923   0.282   4.004  10.778 -0.4700  0.4379  0.1427
 2097SOL    HW117924   0.296   3.914  10.808 -0.0053  0.0563 -1.2059
 2097SOL    HW217925   0.308   4.051  10.858  1.4400 -1.6572  0.7500
 2098SOL     OW17926   3.238   2.369  15.134  0.1014  0.0340  0.4733
 2098SOL    HW117927   3.305   2.324  15.083 -0.7702  0.5736 -1.1733
 2098SOL    HW217928   3.245   2.458  15.100 -1.0202  0.1958  0.6626
 2099SOL     OW17929   0.982   1.804  16.952  0.2121  0.1348  0.0294
 2099SOL    HW117930   0.965   1.743  17.024  0.5768  0.9068  0.7758
 2099SOL    HW217931   0.959   1.759  16.871  2.5608 -0.3430 -0.3916
 2100SOL     OW17932   1.069   3.453   2.624 -0.4503 -0.4334  0.5296
 2100SOL    HW117933   1.098   3.542   2.609 -0.7912 -0.5001 -0.4917
 2100SOL    HW217934   1.140   3.420   2.570  0.2014 -1.5169  2.0427
 2101SOL     OW17935   0.312   3.787   9.430 -0.6294  0.2002  0.0604
 2101SOL    HW117936   0.255   3.712   9.416  1.5571 -1.0753 -2.0694
 2101SOL    HW217937   0.338   3.755   9.517 -1.0242 -2.0891 -0.6725
 2102SOL     OW17938   2.233   2.231  11.027  0.6788 -0.0060  0.0019
 2102SOL    HW117939   2.157   2.173  11.036  0.1166  0.4715 -1.6589
 2102SOL    HW217940   2.281   2.169  10.973 -0.4279 -0.1679 -0.8024
 2103SOL     OW17941   1.460   3.733  17.616  0.0316 -0.3902  0.2066
 2103SOL    HW117942   1.506   3.785  17.683  2.2130 -2.0670  0.0076
 2103SOL    HW217943   1.530   3.681  17.577  0.0889 -0.3318  0.2329
 2104SOL     OW17944   3.567   3.286   2.189 -0.4131 -0.0902  0.2094
 2104SOL    HW117945   3.553   3.275   2.095  2.4006  0.1669 -0.2360
 2104SOL    HW217946   3.626   3.213   2.208 -1.0467 -0.1176  2.0394
 2105SOL     OW17947   2.230   1.893   3.014 -0.4133  0.0773 -0.5734
 2105SOL    HW117948   2.178   1.861   2.940 -0.8678 -1.2961  0.3467
 2105SOL    HW217949   2.288   1.960   2.977 -0.9821  1.3305  0.7915
 2106SOL     OW17950   0.004   3.203  10.235  0.7381 -0.4176 -0.2386
 2106SOL    HW117951   0.014   3.296  10.219 -2.1152 -0.3064 -1.3132
 2106SOL    HW217952   0.006   3.206  10.331 -1.1347 -3.7466 -0.0731
 2107SOL     OW17953   3.256   2.632   8.267  0.2038 -0.3153  0.3855
 2107SOL    HW117954   3.198   2.686   8.321  0.1821 -0.0946  0.1448
 2107SOL    HW217955   3.249   2.553   8.321 -1.8016  1.0282  2.1166
 2108SOL     OW17956   0.301   2.537   7.968 -0.4812  0.1769 -0.4846
 2108SOL    HW117957   0.277   2.575   7.884 -0.3077  1.5308  0.0840
 2108SOL    HW217958   0.223   2.557   8.020  1.9410  2.4899  2.2745
 2109SOL     OW17959   4.591   0.203   5.814  0.1806  0.1416  0.6890
 2109SOL    HW117960   4.555   0.141   5.751  2.3535 -0.3027 -0.1243
 2109SOL    HW217961   4.676   0.229   5.777 -0.2404 -0.2270 -0.5173
 2110SOL     OW17962   3.409   1.719   2.564  0.1457  0.0979  0.2871
 2110SOL    HW117963   3.365   1.743   2.646 -0.3066 -1.2814  0.4517
 2110SOL    HW217964   3.478   1.657   2.591  0.5659  0.1247 -0.7166
 2111SOL     OW17965   3.665   0.509   3.358 -0.0433 -0.5455  0.5550
 2111SOL    HW117966   3.734   0.451   3.391  0.2497 -1.2994 -1.3521
 2111SOL    HW217967   3.607   0.518   3.433  0.2062  1.5779  0.4977
 2112SOL     OW17968   3.945   0.443  10.263 -0.0032  0.6504  0.6961
 2112SOL    HW117969   3.966   0.476  10.350  0.4196  0.4358  0.6768
 2112SOL    HW217970   3.987   0.506  10.205 -1.9687 -0.6757 -2.1601
 2113SOL     OW17971   0.804   0.518   4.743 -0.0727 -0.1982 -0.6156
 2113SOL    HW117972   0.715   0.508   4.711 -0.5541  1.8556  0.1046
 2113SOL    HW217973   0.849   0.500   4.661 -1.4005  0.6014 -1.5212
 2114SOL     OW17974   3.423   1.012   6.085 -0.1823  0.3847 -0.1458
 2114SOL    HW117975   3.483   0.937   6.086  1.0711  1.3701 -1.0077
 2114SOL    HW217976   3.464   1.073   6.146  3.1983 -0.6989 -1.3146
 2115SOL     OW17977   1.826   1.729  10.155 -0.3835  0.0960  0.3416
 2115SOL    HW117978   1.892   1.719  10.086  1.0072 -0.2924  1.7497
 2115SOL    HW217979   1.880   1.721  10.233  0.2788  0.8713 -0.0380
 2116SOL     OW17980   1.508   2.451   8.175 -0.7009 -0.4528  0.2151
 2116SOL    HW117981   1.544   2.452   8.263  1.9170 -2.1349 -0.8266
 2116SOL    HW217982   1.420   2.480   8.197 -0.6505  1.0607 -1.5683
 2117SOL     OW17983   2.779   4.353   6.243  0.4042  0.2607  0.5562
 2117SOL    HW117984   2.687   4.328   6.252  0.5277 -0.9899 -1.7821
 2117SOL    HW217985   2.760   4.434   6.195  1.2002  0.6578  0.9010
 2118SOL     OW17986   4.544   1.540   6.491 -0.2364 -0.5899 -0.1186
 2118SOL    HW117987   4.461   1.510   6.453 -1.4452 -2.1052  3.6182
 2118SOL    HW217988   4.602   1.551   6.416  0.8679  1.4925  1.0644
 2119SOL     OW17989   1.224   1.334   1.658  0.1419  0.0778  0.4324
 2119SOL    HW117990   1.172   1.414   1.655  1.0533  0.5909 -1.7360
 2119SOL    HW217991   1.241   1.328   1.752  0.2894 -0.4735  0.3735
 2120SOL     OW17992   0.802   3.003   3.567 -0.0252 -0.1395  0.1548
 2120SOL    HW117993   0.873   2.972   3.510 -0.7566 -1.8906  0.1760
 2120SOL    HW217994   0.756   2.923   3.593  0.0127 -0.2313 -0.0619
 2121SOL     OW17995   3.840   3.405   8.156 -0.0224  0.3890  0.6181
 2121SOL    HW117996   3.795   3.473   8.106  1.0737 -1.1924 -2.5135
 2121SOL    HW217997   3.929   3.423   8.123 -0.9743 -0.1265 -2.2399
 2122SOL     OW17998   3.024   1.133   6.043  0.1029  0.6601 -0.0576
 2122SOL    HW117999   2.978   1.208   6.079  0.0459  0.6998 -0.2129
 2122SOL    HW218000   2.951   1.101   5.990 -0.3009  0.0319  0.8803
 2123SOL     OW18001   3.109   4.431  16.258  0.8981  0.2219 -0.0691
 2123SOL    HW118002   3.046   4.378  16.209 -1.1174 -0.3460  3.1371
 2123SOL    HW218003   3.060   4.511  16.276  0.0662 -0.4565  0.6818
 2124SOL     OW18004   4.240   0.092   3.629  0.5666  0.3524 -0.2835
 2124SOL    HW118005   4.197   0.154   3.687 -0.4717 -1.4057  0.8487
 2124SOL    HW218006   4.287   0.048   3.700 -1.9257  0.4807  1.4517
 2125SOL     OW18007   0.352   3.606   9.689 -0.2213 -0.0385  0.2937
 2125SOL    HW118008   0.273   3.580   9.642 -1.5104  2.0020  1.3429
 2125SOL    HW218009   0.317   3.650   9.767 -0.0060 -0.0299  0.3840
 2126SOL     OW18010   0.786   1.177   5.166  0.0686  0.3755  0.9445
 2126SOL    HW118011   0.701   1.142   5.140  1.1555 -2.1618  0.8550
 2126SOL    HW218012   0.819   1.195   5.078 -1.1886  0.6523  0.5242
 2127SOL     OW18013   1.097   4.322   6.826 -0.4352  0.0866 -0.3555
 2127SOL    HW118014   1.016   4.276   6.848  0.6104 -1.4764  0.1959
 2127SOL    HW218015   1.116   4.297   6.736  0.2871 -2.4436  0.4933
 2128SOL     OW18016   3.654   4.440  12.793 -0.4494 -0.3469 -0.5172
 2128SOL    HW118017   3.651   4.503  12.721 -2.1028  1.2581  0.9465
 2128SOL    HW218018   3.569   4.444  12.836 -0.5040 -1.0588 -0.5741
 2129SOL     OW18019   2.531   2.155  13.783 -0.2111  0.2407  0.4764
 2129SOL    HW118020   2.459   2.092  13.786  0.1690 -0.1576  1.2910
 2129SOL    HW218021   2.510   2.225  13.721  1.1327  1.0757  0.9688
 2130SOL     OW18022   1.379   4.274   7.419 -0.5557  0.0552 -0.5259
 2130SOL    HW118023   1.435   4.311   7.350 -1.0031  0.5483 -0.6234
 2130SOL    HW218024   1.356   4.359   7.456 -1.5543 -0.9881  1.2420
 2131SOL     OW18025   1.626   3.299   6.065  0.1493  0.1530  0.1049
 2131SOL    HW118026   1.543   3.341   6.044 -0.0428 -1.0417 -1.4852
 2131SOL    HW218027   1.603   3.216   6.026  0.4871  1.8471 -3.6676
 2132SOL     OW18028   2.833   1.589   3.236 -0.4504  0.1407  0.1819
 2132SOL    HW118029   2.775   1.612   3.308  2.5598 -0.8809  2.9320
 2132SOL    HW218030   2.854   1.503   3.272  2.5121  0.0177 -1.8490
 2133SOL     OW18031   0.642   2.814   3.668  0.3671  0.3099  0.1632
 2133SOL    HW118032   0.563   2.764   3.648  1.2972 -1.9261  2.1682
 2133SOL    HW218033   0.591   2.871   3.726 -0.5373 -1.1669  0.8259
 2134SOL     OW18034   2.476   3.268   7.538 -0.8960 -0.2816  0.0179
 2134SOL    HW118035   2.465   3.287   7.632  0.2550  1.6454 -0.2316
 2134SOL    HW218036   2.425   3.187   7.528 -1.7692  0.3942 -0.9450
 2135SOL     OW18037   3.276   0.251  11.031 -0.3324  0.3484 -0.4851
 2135SOL    HW118038   3.268   0.239  10.936 -0.5074  1.4416 -0.6121
 2135SOL    HW218039   3.326   0.333  11.035 -1.3439  0.9135  0.7015
 2136SOL     OW18040   0.458   3.690   9.044 -0.0756  0.4817 -0.5776
 2136SOL    HW118041   0.477   3.735   9.126 -0.0493  0.1668 -0.4114
 2136SOL    HW218042   0.363   3.705   9.043 -0.3444 -1.2101 -0.5351
 2137SOL     OW18043   0.166   1.851   2.288  0.3568  0.1074 -0.1958
 2137SOL    HW118044   0.212   1.856   2.204  1.8399  2.5681  0.7745
 2137SOL    HW218045   0.086   1.899   2.269  0.1621  0.2754  1.1171
 2138SOL     OW18046   3.821   3.660  16.687  0.2354 -0.0298 -0.3598
 2138SOL    HW118047   3.779   3.696  16.765  1.3497 -0.8778  0.6328
 2138SOL    HW218048   3.892   3.723  16.679  1.5013 -1.6381 -2.0657
 2139SOL     OW18049   1.496   2.683   7.267  0.0308  1.1884  0.1025
 2139SOL    HW118050   1.565   2.617   7.280  1.0918  2.7228  2.4143
 2139SOL    HW218051   1.513   2.750   7.334 -1.0783  0.3396  1.2357
 2140SOL     OW18052   0.483   0.726  12.784 -0.5342  0.6427  0.1152
 2140SOL    HW118053   0.546   0.733  12.712  0.6257  0.6974  1.1448
 2140SOL    HW218054   0.402   0.729  12.733 -0.0890 -0.2180 -0.6451
 2141SOL     OW18055   1.310   0.935  13.090 -0.3404  0.7212  0.1295
 2141SOL    HW118056   1.350   0.895  13.167  0.0304 -2.1548 -1.5540
 2141SOL    HW218057   1.316   0.862  13.029  1.8512  3.0850 -2.5391
 2142SOL     OW18058   1.648   1.718  10.493  0.5418 -0.5429 -0.2913
 2142SOL    HW118059   1.558   1.686  10.488  0.9105 -1.4158 -1.2878
 2142SOL    HW218060   1.707   1.649  10.463 -0.2277 -0.7021 -1.4381
 2143SOL     OW18061   4.576   0.816  14.045 -0.5449 -0.1161 -0.1679
 2143SOL    HW118062   4.566   0.730  14.004  2.8496 -0.8610  0.5732
 2143SOL    HW218063   4.601   0.874  13.973  0.4271 -0.8152 -0.3963
 2144SOL     OW18064   4.181   2.833   6.477 -0.2661  0.2844  0.1005
 2144SOL    HW118065   4.228   2.800   6.401 -1.2068  0.3913 -0.5328
 2144SOL    HW218066   4.098   2.869   6.445  0.8790  1.5633 -1.3803
 2145SOL     OW18067   3.080   3.518  13.113 -0.3332 -0.4683 -0.8032
 2145SOL    HW118068   3.065   3.551  13.024 -1.4508  2.9016  0.6239
 2145SOL    HW218069   3.095   3.425  13.096  0.5725 -0.4079 -0.3115
 2146SOL     OW18070   4.003   1.646  10.029 -0.0675 -0.3013 -0.0866
 2146SOL    HW118071   4.078   1.587  10.016  1.0613  1.3425 -1.1223
 2146SOL    HW218072   3.939   1.613   9.967 -1.9286 -0.3460  1.8684
 2147SOL     OW18073   1.966   0.420  12.164  0.2223 -0.3514 -0.3916
 2147SOL    HW118074   1.910   0.481  12.115 -0.7655 -0.1146  1.0506
 2147SOL    HW218075   2.037   0.480  12.187 -0.2130 -0.2903  0.7757
 2148SOL     OW18076   3.160   2.645  16.600  0.3501 -0.9544 -0.1386
 2148SOL    HW118077   3.210   2.571  16.636 -1.2358 -1.0940  1.7574
 2148SOL    HW218078   3.164   2.622  16.507 -0.1171 -1.0472 -0.1318
 2149SOL     OW18079   0.499   3.602   2.752 -0.5619 -0.0183  0.0856
 2149SOL    HW118080   0.503   3.507   2.751 -1.0115 -0.0809  2.6183
 2149SOL    HW218081   0.449   3.621   2.673  1.4438 -0.2949 -1.2306
 2150SOL     OW18082   1.476   2.058   5.790 -0.0463 -0.5258 -0.2202
 2150SOL    HW118083   1.449   2.118   5.721 -0.1461 -1.3693 -0.9214
 2150SOL    HW218084   1.435   2.100   5.865  1.5388  0.5554  0.0414
 2151SOL     OW18085   4.030   2.661   0.526  0.7494 -0.7023 -0.5227
 2151SOL    HW118086   3.936   2.679   0.536  0.9186  1.1081 -1.9102
 2151SOL    HW218087   4.019   2.587   0.466  1.6069 -0.7023 -0.6753
 2152SOL     OW18088   4.368   3.173  15.097  0.4439 -0.7068 -0.6661
 2152SOL    HW118089   4.408   3.242  15.150 -1.8569  0.2617 -0.2043
 2152SOL    HW218090   4.314   3.220  15.034 -0.3873  1.6909  1.8292
 2153SOL     OW18091   4.464   1.825   6.327  0.2769 -0.5043 -0.6987
 2153SOL    HW118092   4.535   1.777   6.284  0.5246 -0.0567 -0.7832
 2153SOL    HW218093   4.435   1.872   6.250  2.0810  0.6351 -0.6893
 2154SOL     OW18094   1.617   1.269   5.588  0.2054 -0.6747 -0.4277
 2154SOL    HW118095   1.647   1.359   5.594  1.3799 -0.8321 -4.0819
 2154SOL    HW218096   1.527   1.275   5.556  0.7213 -0.5648 -1.8658
 2155SOL     OW18097   2.416   2.439   9.937 -0.2715  0.0528  0.1495
 2155SOL    HW118098   2.404   2.438  10.032 -0.8203 -2.2272  0.0610
 2155SOL    HW218099   2.358   2.366   9.917  1.7719 -1.7004  0.6373
 2156SOL     OW18100   0.502   3.071   9.065 -0.1604  0.1736  0.2962
 2156SOL    HW118101   0.455   3.040   9.142 -0.2272  2.3806  1.1445
 2156SOL    HW218102   0.569   3.131   9.096 -1.8962  1.8648  0.7866
 2157SOL     OW18103   1.883   4.404   5.873  0.4611 -0.0635  0.5595
 2157SOL    HW118104   1.812   4.370   5.818  0.3034  0.4704  0.4301
 2157SOL    HW218105   1.857   4.494   5.895  1.4226 -0.2813  2.5796
 2158SOL     OW18106   1.285   2.579   2.144 -0.1467 -0.3644  0.0069
 2158SOL    HW118107   1.304   2.514   2.077  0.9940 -1.7050  1.6260
 2158SOL    HW218108   1.194   2.551   2.151  0.7369 -3.6109 -1.3616
 2159SOL     OW18109   0.356   3.428   8.252  0.1718  0.0707 -0.2116
 2159SOL    HW118110   0.261   3.436   8.245  0.4203  0.5846 -2.8966
 2159SOL    HW218111   0.369   3.406   8.344  4.6623 -0.5976 -1.0222
 2160SOL     OW18112   0.088   0.208   9.150 -0.0821 -0.3955 -0.5340
 2160SOL    HW118113   0.021   0.198   9.218  0.8063  0.8811  0.5218
 2160SOL    HW218114   0.162   0.244   9.198 -0.6910 -0.5330  0.5023
 2161SOL     OW18115   0.187   3.590  16.932  0.2111 -0.1070  0.0497
 2161SOL    HW118116   0.261   3.644  16.962  0.4262  0.7464 -2.0314
 2161SOL    HW218117   0.119   3.655  16.918 -0.0179 -0.2058  0.7021
 2162SOL     OW18118   3.878   4.060   7.583 -0.1427  0.1023 -0.2120
 2162SOL    HW118119   3.790   4.027   7.600  0.0867  0.6738  2.0380
 2162SOL    HW218120   3.921   3.975   7.571 -1.3511 -0.0543 -3.4368
 2163SOL     OW18121   1.417   2.173   4.271 -0.4003  0.3804  0.0845
 2163SOL    HW118122   1.478   2.170   4.345 -0.8074  0.5449  0.4258
 2163SOL    HW218123   1.392   2.081   4.281 -1.4537  1.0405  3.5275
 2164SOL     OW18124   2.380   1.288   3.865  0.2610  0.3821  0.4593
 2164SOL    HW118125   2.395   1.301   3.958  1.3680 -0.1203  0.3467
 2164SOL    HW218126   2.460   1.327   3.830 -0.4309 -0.3375 -1.9733
 2165SOL     OW18127   0.244   2.531   9.354 -0.4900  0.3487 -0.0684
 2165SOL    HW118128   0.223   2.602   9.293  0.0100  0.0289 -0.6067
 2165SOL    HW218129   0.201   2.559   9.435  2.0807 -1.1456  1.8113
 2166SOL     OW18130   1.055   3.100   5.659  0.0518  0.2600 -0.2466
 2166SOL    HW118131   1.064   3.026   5.718  0.1018 -0.8378 -1.6370
 2166SOL    HW218132   1.097   3.171   5.707 -0.5819 -1.0151  2.1874
 2167SOL     OW18133   0.092   0.809  15.029 -0.2318 -0.0406  0.0021
 2167SOL    HW118134   0.100   0.848  14.942  1.3289 -0.9764 -0.2942
 2167SOL    HW218135   0.075   0.715  15.016  0.4801 -0.0263 -1.0841
 2168SOL     OW18136   2.169   1.447   3.142 -0.3448  0.1110  0.4217
 2168SOL    HW118137   2.191   1.450   3.049  1.6013 -2.4259  0.7903
 2168SOL    HW218138   2.077   1.422   3.133 -1.1827  2.7398  1.8141
 2169SOL     OW18139   0.588   2.200   8.475 -0.5565  0.6612  0.2770
 2169SOL    HW118140   0.509   2.146   8.480  0.1707 -0.4089  0.2274
 2169SOL    HW218141   0.656   2.146   8.516 -1.2976  0.1641  0.8680
 2170SOL     OW18142   0.666   2.236   8.884 -0.1561 -0.5235  0.1979
 2170SOL    HW118143   0.653   2.304   8.950 -1.1940 -1.9466  1.4561
 2170SOL    HW218144   0.629   2.165   8.936  0.4650 -1.6999 -0.9450
 2171SOL     OW18145   4.477   3.377   8.352 -0.5655 -0.0067  0.1837
 2171SOL    HW118146   4.516   3.413   8.432  2.0615  1.9492 -1.9656
 2171SOL    HW218147   4.383   3.382   8.371 -0.0422  2.0840  2.2833
 2172SOL     OW18148   4.555   4.502   5.938 -0.6881  0.0887  0.2724
 2172SOL    HW118149   4.625   4.462   5.886 -0.2811  0.2098  0.7298
 2172SOL    HW218150   4.609   4.534   6.010  0.7012  0.0093 -0.7413
 2173SOL     OW18151   2.340   0.506   2.848  0.6762 -0.2815  0.0966
 2173SOL    HW118152   2.318   0.523   2.757 -2.0251 -0.2558  0.7583
 2173SOL    HW218153   2.369   0.589   2.886 -0.5459 -1.3833  3.5026
 2174SOL     OW18154   0.569   1.078   7.311  0.1006 -0.3035 -0.0148
 2174SOL    HW118155   0.583   1.087   7.406  0.4500  1.4595 -0.2326
 2174SOL    HW218156   0.656   1.053   7.282  0.7099  1.7835  0.0142
 2175SOL     OW18157   3.421   1.650   5.077 -0.3762  0.1986  0.2572
 2175SOL    HW118158   3.350   1.678   5.134 -1.1230  2.0172 -1.6087
 2175SOL    HW218159   3.470   1.581   5.124 -1.1495 -1.4389 -1.3349
 2176SOL     OW18160   4.218   3.807   1.242  0.0805 -0.3912  0.3650
 2176SOL    HW118161   4.140   3.798   1.297  0.6771  2.5748  1.6994
 2176SOL    HW218162   4.186   3.757   1.167 -0.8649 -0.8921  1.0912
 2177SOL     OW18163   2.869   3.915   4.880  0.1699  0.0105  0.4179
 2177SOL    HW118164   2.820   3.904   4.962 -1.2602  2.5470 -0.0864
 2177SOL    HW218165   2.906   3.828   4.867  0.0249 -0.0191  0.2155
 2178SOL     OW18166   2.271   2.723   5.989 -1.0292 -0.0842 -0.5673
 2178SOL    HW118167   2.354   2.770   5.995 -0.4431 -1.1441 -0.2519
 2178SOL    HW218168   2.236   2.756   5.907 -2.0901  0.9868  0.3162
 2179SOL     OW18169   2.436   0.857   5.808  0.2525 -0.1507  0.2142
 2179SOL    HW118170   2.370   0.839   5.875  0.5415 -2.0504  0.0022
 2179SOL    HW218171   2.456   0.771   5.770 -1.2010 -0.8335  0.9676
 2180SOL     OW18172   0.365   3.080   5.217 -0.1858 -0.0918 -0.4385
 2180SOL    HW118173   0.290   3.043   5.263  0.1936  0.1646  0.3955
 2180SOL    HW218174   0.322   3.146   5.163  1.0743  2.7575  2.0058
 2181SOL     OW18175   2.443   0.390   8.892  0.5681 -0.7220  0.0381
 2181SOL    HW118176   2.383   0.400   8.819  1.7067 -0.3658 -0.8429
 2181SOL    HW218177   2.527   0.407   8.851  1.2578 -2.9444  0.5563
 2182SOL     OW18178   0.067   4.382   8.291 -0.1802 -0.3267  0.1687
 2182SOL    HW118179   0.093   4.399   8.382  1.7948 -1.5925 -0.1589
 2182SOL    HW218180   0.117   4.300   8.290  2.1243  1.0375  2.4282
 2183SOL     OW18181   4.246   4.676   9.798 -0.2470  0.4511  0.3259
 2183SOL    HW118182   4.257   4.594   9.846  0.3416 -0.5160 -1.4258
 2183SOL    HW218183   4.186   4.708   9.865  0.9190  2.8213  0.2206
 2184SOL     OW18184   0.400   4.435   3.503  0.5685 -0.2214 -0.0885
 2184SOL    HW118185   0.330   4.403   3.445 -0.9943  0.9033  1.1856
 2184SOL    HW218186   0.474   4.383   3.473  2.4607  2.3012  0.2261
 2185SOL     OW18187   4.084   3.092  11.213 -0.3411 -0.1703  0.2948
 2185SOL    HW118188   4.132   3.171  11.236  1.4783 -1.8668  2.3986
 2185SOL    HW218189   3.997   3.107  11.252 -0.8328 -2.5649  0.1193
 2186SOL     OW18190   4.059   3.798  17.261  0.4682  0.1893  0.3428
 2186SOL    HW118191   4.090   3.786  17.350  0.9305 -0.3158  0.1147
 2186SOL    HW218192   4.134   3.847  17.226  1.4623 -1.1908  0.5685
 2187SOL     OW18193   4.286   2.666   9.701  0.3976  0.2906 -0.6563
 2187SOL    HW118194   4.363   2.651   9.756  0.7995  2.7686 -0.5026
 2187SOL    HW218195   4.224   2.698   9.767  1.3886  2.8828 -0.9376
 2188SOL     OW18196   1.524   1.870  12.714 -0.0331 -0.1303  0.0443
 2188SOL    HW118197   1.540   1.943  12.654  0.1023  1.0360  1.4726
 2188SOL    HW218198   1.592   1.804  12.701  0.6407  0.2149  1.7349
 2189SOL     OW18199   0.259   2.195  16.960 -0.3129  0.4967  0.1625
 2189SOL    HW118200   0.199   2.239  17.020  1.1311  0.6240  1.5008
 2189SOL    HW218201   0.338   2.225  17.003  2.0415 -2.1982 -2.2269
 2190SOL     OW18202   3.066   4.489   3.822  0.7457 -0.2928 -0.2151
 2190SOL    HW118203   3.023   4.563   3.781  1.0241  1.3810  2.5544
 2190SOL    HW218204   2.996   4.424   3.814  0.2452  0.3852 -1.4541
 2191SOL     OW18205   1.119   4.373   7.117  0.3894 -0.0606  0.5238
 2191SOL    HW118206   1.068   4.323   7.180 -2.3102  0.1257 -1.5271
 2191SOL    HW218207   1.096   4.335   7.032  2.9995  1.3227 -0.8143
 2192SOL     OW18208   1.643   1.916   0.318  0.2409 -0.4318  0.5747
 2192SOL    HW118209   1.719   1.912   0.259 -0.3511  0.3200 -0.2433
 2192SOL    HW218210   1.637   1.828   0.354  0.5171 -1.3335 -1.5744
 2193SOL     OW18211   4.711   0.958   1.293  0.0117  0.4239 -0.1201
 2193SOL    HW118212   0.042   0.994   1.236  0.0686  0.9683  0.2941
 2193SOL    HW218213   4.721   1.016   1.368 -1.1365  0.9669 -0.3983
 2194SOL     OW18214   0.389   3.356   2.412 -0.6706 -0.8034 -0.3883
 2194SOL    HW118215   0.342   3.412   2.474 -0.9809 -0.4955 -0.9007
 2194SOL    HW218216   0.338   3.277   2.431 -0.7260 -0.7089 -0.1430
 2195SOL     OW18217   0.247   1.178   2.523  0.1703  0.4341 -0.0915
 2195SOL    HW118218   0.286   1.264   2.538 -1.1835  1.1070 -0.4240
 2195SOL    HW218219   0.265   1.177   2.429 -0.3794  1.2696 -0.2044
 2196SOL     OW18220   3.324   4.019  14.781  0.1663  0.0271 -0.0153
 2196SOL    HW118221   3.317   3.995  14.689 -0.9029 -1.0046  0.3429
 2196SOL    HW218222   3.237   4.056  14.795 -0.4368 -0.3986 -2.6400
 2197SOL     OW18223   4.053   2.248   5.124 -0.2758  0.2753  0.1888
 2197SOL    HW118224   4.028   2.335   5.156 -3.5799 -0.9540  0.9699
 2197SOL    HW218225   4.114   2.231   5.195  0.0733 -2.2756 -0.7106
 2198SOL     OW18226   1.160   3.331   1.545 -0.4404  0.4640  0.3346
 2198SOL    HW118227   1.217   3.296   1.614  1.0274  3.0420  0.4360
 2198SOL    HW218228   1.097   3.389   1.587 -0.1754  1.2845 -0.3887
 2199SOL     OW18229   0.603   3.699   5.248  0.1459  0.3950  0.5482
 2199SOL    HW118230   0.510   3.692   5.224  0.4548 -1.3939 -0.1751
 2199SOL    HW218231   0.632   3.675   5.160  1.5592  0.8855  0.8927
 2200SOL     OW18232   1.204   4.734   5.175 -0.5040  0.0270  0.2824
 2200SOL    HW118233   1.259   0.059   5.224 -1.4356  2.4466 -1.7049
 2200SOL    HW218234   1.275   4.695   5.124 -0.0382  0.8128  0.3303
 2201SOL     OW18235   0.719   0.287   3.055  0.2823 -0.4887  0.1872
 2201SOL    HW118236   0.797   0.327   3.094  1.2564 -0.7443 -1.5143
 2201SOL    HW218237   0.746   0.198   3.034  0.7216  0.0944 -1.6639
 2202SOL     OW18238   2.955   2.181  16.300  0.0787 -0.7039  0.1955
 2202SOL    HW118239   2.991   2.214  16.382  0.0599  3.9094 -1.6189
 2202SOL    HW218240   3.032   2.189  16.244  0.1784 -1.5248  0.2139
 2203SOL     OW18241   2.060   2.531   6.381  0.3972  0.1850 -0.2035
 2203SOL    HW118242   2.074   2.617   6.341  0.8345 -0.7992 -2.1413
 2203SOL    HW218243   1.981   2.489   6.346 -0.0915  1.5826 -0.7957
 2204SOL     OW18244   2.314   2.554   2.146 -0.3491 -0.3386  0.0297
 2204SOL    HW118245   2.242   2.555   2.083  0.7681 -0.0903 -1.2356
 2204SOL    HW218246   2.346   2.466   2.129 -1.2071 -0.8901  1.2490
 2205SOL     OW18247   0.567   3.702   2.161  0.3904  0.0333 -0.3124
 2205SOL    HW118248   0.523   3.644   2.098  1.6561 -0.0101 -1.1535
 2205SOL    HW218249   0.660   3.698   2.137 -0.5560 -2.4140 -3.6657
 2206SOL     OW18250   0.001   0.968   8.375  0.1092  0.3542  0.3728
 2206SOL    HW118251   4.659   0.917   8.358  1.9223 -1.8132 -1.5798
 2206SOL    HW218252   4.726   1.026   8.300  0.6239  0.9461  0.7498
 2207SOL     OW18253   0.850   3.168   8.680  0.0011 -0.5499 -0.4002
 2207SOL    HW118254   0.756   3.166   8.696 -0.1596  0.3975 -1.2376
 2207SOL    HW218255   0.846   3.225   8.603 -3.1194 -0.0219  0.1775
 2208SOL     OW18256   4.684   3.827   1.523  0.6003 -0.2543  0.2528
 2208SOL    HW118257   0.018   3.765   1.508 -1.2131 -2.5384  1.1298
 2208SOL    HW218258   4.618   3.796   1.461 -1.4485  1.4603  1.5780
 2209SOL     OW18259   2.683   0.456   3.788 -0.0064  0.5523 -0.1945
 2209SOL    HW118260   2.599   0.453   3.743  0.6773 -0.9077 -1.3637
 2209SOL    HW218261   2.662   0.518   3.858  1.8573  0.7701  0.1740
 2210SOL     OW18262   0.442   2.716   7.188  0.1106 -0.3085  0.4810
 2210SOL    HW118263   0.514   2.662   7.155  1.2973  1.3134  0.4568
 2210SOL    HW218264   0.475   2.794   7.143 -1.9291  0.2713 -0.0040
 2211SOL     OW18265   2.501   3.684   9.022  0.2827  0.7143 -0.0670
 2211SOL    HW118266   2.560   3.757   9.045  1.3907 -1.1627  3.1217
 2211SOL    HW218267   2.542   3.611   9.069  1.5829  1.3054 -0.2636
 2212SOL     OW18268   3.026   1.087   5.064 -0.0987 -0.3329 -0.1787
 2212SOL    HW118269   3.102   1.030   5.054 -1.3549 -2.0544 -0.0640
 2212SOL    HW218270   3.062   1.166   5.104 -1.0420 -0.8434  1.7077
 2213SOL     OW18271   0.572   4.252   4.738 -0.4697 -0.6808 -0.2558
 2213SOL    HW118272   0.513   4.177   4.729 -0.7209 -0.5392  0.2377
 2213SOL    HW218273   0.570   4.290   4.825 -1.8616 -1.9567  0.2624
 2214SOL     OW18274   2.467   0.087  11.170  0.0002  0.3946 -0.6556
 2214SOL    HW118275   2.516   0.138  11.234  0.2635 -0.7656  0.0658
 2214SOL    HW218276   2.377   0.113  11.189  0.0826 -0.1302  0.4542
 2215SOL     OW18277   1.270   0.448  13.369 -0.0969  0.2302 -0.2889
 2215SOL    HW118278   1.189   0.483  13.405 -0.7785 -1.4520 -0.1755
 2215SOL    HW218279   1.332   0.437  13.442  0.0825  0.9274 -0.3340
 2216SOL     OW18280   2.505   4.585   4.395 -0.2940 -0.1201 -0.2132
 2216SOL    HW118281   2.594   4.568   4.363 -0.6218  0.8147 -1.6133
 2216SOL    HW218282   2.450   4.527   4.342 -2.2516  0.3588  1.3191
 2217SOL     OW18283   3.085   1.375   3.909  0.3191  0.4273  0.7021
 2217SOL    HW118284   3.151   1.366   3.841  0.4682 -1.3144  1.0569
 2217SOL    HW218285   3.002   1.354   3.866  0.0817  0.3329  1.2008
 2218SOL     OW18286   0.457   1.189   1.255  0.3903 -0.1135 -0.2971
 2218SOL    HW118287   0.445   1.245   1.178 -1.6460  0.3109  0.3306
 2218SOL    HW218288   0.380   1.211   1.306 -0.4881 -1.4806 -1.0319
 2219SOL     OW18289   0.392   0.298   5.699  0.3844 -0.3045 -0.0184
 2219SOL    HW118290   0.469   0.242   5.690  1.3465  0.5509  2.7888
 2219SOL    HW218291   0.348   0.256   5.773 -0.3384 -0.0683 -0.3148
 2220SOL     OW18292   1.875   4.259   5.371 -0.3762 -0.7269  0.0750
 2220SOL    HW118293   1.810   4.325   5.345  0.3879  0.2253  0.5713
 2220SOL    HW218294   1.901   4.295   5.456  0.4070 -3.0573  0.8141
 2221SOL     OW18295   4.706   1.158   2.579  0.6119 -0.8975  0.1544
 2221SOL    HW118296   4.698   1.063   2.592 -0.8967 -0.7558  0.2497
 2221SOL    HW218297   0.064   1.168   2.582  0.8453 -2.1897 -2.3043
 2222SOL     OW18298   0.319   2.101   6.463 -0.0640  0.1631  0.3123
 2222SOL    HW118299   0.293   2.042   6.533  1.6098  0.2277  1.0019
 2222SOL    HW218300   0.277   2.182   6.492  0.5144  0.5470  0.0861
 2223SOL     OW18301   3.812   0.192   9.383  0.4497 -0.1161 -0.0795
 2223SOL    HW118302   3.812   0.121   9.448 -2.3215 -1.2897 -1.3547
 2223SOL    HW218303   3.902   0.221   9.372  0.6259 -0.6031  0.0404
 2224SOL     OW18304   1.559   1.492   5.182  0.0488 -0.5302 -0.1195
 2224SOL    HW118305   1.623   1.536   5.239  0.7500 -0.6599 -0.8022
 2224SOL    HW218306   1.478   1.531   5.213  1.5415  1.7797  0.9308
 2225SOL     OW18307   2.354   3.372   2.628  0.1348 -0.3469  0.2411
 2225SOL    HW118308   2.328   3.301   2.570  0.4746  0.1104 -0.4611
 2225SOL    HW218309   2.366   3.441   2.563 -1.3191  0.4545  0.8321
 2226SOL     OW18310   0.686   1.662  10.358 -0.1935 -0.3951 -0.0407
 2226SOL    HW118311   0.653   1.598  10.296 -0.7595 -0.2085  0.0669
 2226SOL    HW218312   0.606   1.715  10.357  0.1950  0.2227  1.4206
 2227SOL     OW18313   0.216   2.189   4.296 -0.0591 -0.1679 -0.4558
 2227SOL    HW118314   0.246   2.186   4.387  0.4364 -0.8010 -0.6369
 2227SOL    HW218315   0.206   2.283   4.281 -1.7991 -0.0967  1.1715
 2228SOL     OW18316   2.128   4.667   3.591  0.5019 -0.3206 -0.6735
 2228SOL    HW118317   2.189   4.643   3.661 -0.1931  0.7297  0.2953
 2228SOL    HW218318   2.190   4.710   3.532  0.3098 -0.7178 -1.1630
 2229SOL     OW18319   0.967   0.083  11.199  0.1131 -0.0200  0.3294
 2229SOL    HW118320   0.928   0.129  11.273 -0.4439  0.1631 -0.0680
 2229SOL    HW218321   0.972   4.727  11.222 -2.9504  0.4100  2.6414
 2230SOL     OW18322   3.948   4.574   9.201  0.2154  0.2264 -0.0797
 2230SOL    HW118323   3.953   4.488   9.243  1.1572  1.1912  1.8243
 2230SOL    HW218324   4.017   4.616   9.252  0.4199  0.9580 -0.9598
 2231SOL     OW18325   4.024   3.159   6.356  0.2310  0.2054  0.5803
 2231SOL    HW118326   4.074   3.110   6.422  0.9867  2.0472  1.3747
 2231SOL    HW218327   4.063   3.245   6.340 -0.0868  0.0509 -1.0970
 2232SOL     OW18328   0.698   4.481   3.436 -0.5168 -0.2617  0.1388
 2232SOL    HW118329   0.656   4.396   3.445  1.5483 -1.0788  2.2204
 2232SOL    HW218330   0.750   4.486   3.516 -0.4448  2.1863 -0.0646
 2233SOL     OW18331   4.430   3.712   9.532 -0.5290 -0.2140  0.0291
 2233SOL    HW118332   4.335   3.722   9.520 -1.1238 -2.5243  2.5904
 2233SOL    HW218333   4.469   3.730   9.447 -1.5500  0.0092 -0.3901
 2234SOL     OW18334   2.611   0.354   2.504 -0.6408 -0.2974  0.5249
 2234SOL    HW118335   2.589   0.273   2.459 -0.5660  0.0915 -0.2188
 2234SOL    HW218336   2.704   0.372   2.487 -0.3727 -0.3794  1.8496
 2235SOL     OW18337   0.343   3.696   4.213 -0.1421 -0.2470 -0.0197
 2235SOL    HW118338   0.268   3.700   4.272  0.5879  0.5816  0.8606
 2235SOL    HW218339   0.307   3.668   4.129 -0.4530 -1.5857  0.5501
 2236SOL     OW18340   1.160   1.069   3.841  0.1280  0.4392 -0.7343
 2236SOL    HW118341   1.128   1.056   3.931 -2.2040  2.4910 -1.2658
 2236SOL    HW218342   1.113   1.150   3.820 -0.4913  1.1473  3.3403
 2237SOL     OW18343   2.179   2.356   4.619  0.0574 -0.2185  0.2992
 2237SOL    HW118344   2.170   2.383   4.710 -3.3040 -1.1282  0.2533
 2237SOL    HW218345   2.174   2.437   4.569 -2.8279 -0.9924 -0.6346
 2238SOL     OW18346   2.350   3.016   6.759 -0.2479 -0.2792 -0.3498
 2238SOL    HW118347   2.291   2.968   6.701 -1.9707  1.3073  0.1214
 2238SOL    HW218348   2.307   2.997   6.842  0.2909 -1.3737 -0.3121
 2239SOL     OW18349   1.347   1.476   8.834  0.2998  0.2850  0.1067
 2239SOL    HW118350   1.354   1.413   8.763 -2.5930  0.4985 -0.3462
 2239SOL    HW218351   1.269   1.442   8.877  1.7004 -0.4916  2.0639
 2240SOL     OW18352   0.626   2.303   5.507  0.1177  0.0551 -0.1729
 2240SOL    HW118353   0.719   2.305   5.485 -0.4604 -0.1361 -2.6215
 2240SOL    HW218354   0.630   2.294   5.602 -0.3989 -2.7873 -0.4458
 2241SOL     OW18355   0.737   2.073   2.221  1.1399 -0.2632 -0.2360
 2241SOL    HW118356   0.713   2.007   2.155 -0.1365  1.1379 -1.1765
 2241SOL    HW218357   0.780   2.014   2.283  1.6122 -1.7974 -2.0395
 2242SOL     OW18358   3.464   2.672   1.737  0.2433  0.5771 -0.1180
 2242SOL    HW118359   3.534   2.715   1.689  0.0988 -0.1154 -0.9510
 2242SOL    HW218360   3.455   2.607   1.667  0.7411  0.0016  0.3496
 2243SOL     OW18361   1.109   1.616   2.998 -0.3344 -0.0676  0.0152
 2243SOL    HW118362   1.111   1.687   2.934  0.0177  0.6625  0.8425
 2243SOL    HW218363   1.175   1.552   2.970 -0.0568 -0.3833  1.3938
 2244SOL     OW18364   0.070   4.254  16.425 -0.2733  0.0892  0.2795
 2244SOL    HW118365   0.039   4.171  16.391 -0.3872 -1.1012  3.2610
 2244SOL    HW218366   0.040   4.240  16.515  0.9156 -0.9009  0.5249
 2245SOL     OW18367   3.394   2.253   4.076  0.4024 -0.7461 -0.1528
 2245SOL    HW118368   3.419   2.340   4.106  0.1061 -1.2528  1.5463
 2245SOL    HW218369   3.442   2.247   3.993  0.4373 -2.3696 -0.0198
 2246SOL     OW18370   3.443   3.413   9.196 -0.4136 -0.1981  0.0131
 2246SOL    HW118371   3.480   3.497   9.224 -0.2441 -0.4216  0.4469
 2246SOL    HW218372   3.446   3.366   9.279  1.4147  0.9814  0.6248
 2247SOL     OW18373   4.591   0.306  17.675  0.1329 -0.7238 -0.6431
 2247SOL    HW118374   4.584   0.224  17.626  0.4898 -1.4728  0.5556
 2247SOL    HW218375   4.615   0.365  17.604  3.9219 -1.1557  0.2590
 2248SOL     OW18376   0.534   4.080  11.630 -0.0733  0.2293 -0.0192
 2248SOL    HW118377   0.496   4.152  11.581 -0.4717  0.0016 -0.0517
 2248SOL    HW218378   0.582   4.128  11.697 -1.7710  3.3972 -1.0796
 2249SOL     OW18379   1.310   3.628  16.078 -0.0432  0.2190 -0.2321
 2249SOL    HW118380   1.273   3.595  15.996 -0.4872 -2.3603  1.0092
 2249SOL    HW218381   1.236   3.680  16.109 -1.1740  0.0118 -2.5752
 2250SOL     OW18382   1.750   0.184  17.025  0.1547 -0.5687 -0.4727
 2250SOL    HW118383   1.825   0.242  17.040  0.7975 -2.2901  2.9758
 2250SOL    HW218384   1.680   0.248  17.024  2.3064  1.7682 -1.3005
 2251SOL     OW18385   2.498   1.715   5.458 -0.5584  0.4541 -0.0129
 2251SOL    HW118386   2.568   1.650   5.450  0.2768  1.3048  0.4577
 2251SOL    HW218387   2.511   1.784   5.393  1.6635  2.0101  2.0809
 2252SOL     OW18388   0.677   0.813  13.141  0.3991  0.5986  0.4249
 2252SOL    HW118389   0.641   0.901  13.133 -0.1798  0.2805 -0.5973
 2252SOL    HW218390   0.725   0.811  13.058 -2.2765  0.3140 -1.1281
 2253SOL     OW18391   1.504   2.373  15.072  0.0518 -0.5090 -0.1291
 2253SOL    HW118392   1.575   2.434  15.052 -0.5931 -0.0356 -0.9707
 2253SOL    HW218393   1.519   2.302  15.010  1.3267 -0.5183  0.1914
 2254SOL     OW18394   1.451   3.302   8.518  0.3406 -0.2532  0.5386
 2254SOL    HW118395   1.419   3.391   8.511 -0.1973 -0.4990 -0.0811
 2254SOL    HW218396   1.534   3.310   8.564  1.3583 -2.4919 -0.8734
 2255SOL     OW18397   3.408   3.733   1.067 -0.3865 -0.0464  0.2930
 2255SOL    HW118398   3.338   3.769   1.121 -1.2056  0.6592 -1.2424
 2255SOL    HW218399   3.475   3.801   1.080 -0.4516  0.1233 -0.2773
 2256SOL     OW18400   3.765   0.178   5.293  0.0518 -0.2275  0.1066
 2256SOL    HW118401   3.782   0.260   5.340  0.3054 -0.6837  0.7927
 2256SOL    HW218402   3.846   0.179   5.242 -0.2018  2.1959 -0.2519
 2257SOL     OW18403   3.915   3.486   7.799  1.0739 -0.0341 -1.1021
 2257SOL    HW118404   3.952   3.403   7.828  0.9896  0.6070  0.8602
 2257SOL    HW218405   3.941   3.545   7.871  0.1182 -0.4803 -0.3933
 2258SOL     OW18406   2.569   0.305   1.795  0.2661 -0.0320 -0.3229
 2258SOL    HW118407   2.515   0.365   1.847  0.7341 -1.4153  1.7641
 2258SOL    HW218408   2.507   0.270   1.731  3.0124 -1.8591 -1.9947
 2259SOL     OW18409   0.420   3.008  16.737  0.3704 -0.3182  0.8665
 2259SOL    HW118410   0.436   2.914  16.749 -1.0015 -0.5148  1.1344
 2259SOL    HW218411   0.449   3.022  16.646 -1.7142  2.5016  0.6235
 2260SOL     OW18412   2.381   3.864  15.935  0.0862  0.0401  0.0929
 2260SOL    HW118413   2.336   3.919  15.871  0.6619 -1.2791 -1.4579
 2260SOL    HW218414   2.441   3.819  15.876  1.1351  1.1586  0.3209
 2261SOL     OW18415   2.816   2.540  12.191 -0.0726  0.1244  0.6422
 2261SOL    HW118416   2.834   2.467  12.131  3.9423 -0.0121  2.0653
 2261SOL    HW218417   2.891   2.598  12.176 -0.2720  0.2853  0.2619
 2262SOL     OW18418   1.561   3.398   7.875 -0.5891  0.1219  0.1370
 2262SOL    HW118419   1.566   3.439   7.789  0.1918 -0.3552 -0.0435
 2262SOL    HW218420   1.655   3.379   7.880 -0.6136  0.1627  0.8103
 2263SOL     OW18421   2.832   3.300   7.444  0.2972 -0.4689  0.4481
 2263SOL    HW118422   2.772   3.374   7.435 -0.8983 -1.5451 -0.3004
 2263SOL    HW218423   2.899   3.332   7.384 -0.8599  1.4439  0.1669
 2264SOL     OW18424   1.772   3.736   8.727 -0.1096  0.3601 -0.2435
 2264SOL    HW118425   1.747   3.826   8.708  1.1865  0.4912 -1.3202
 2264SOL    HW218426   1.846   3.749   8.786  2.2048 -1.4210 -2.7566
 2265SOL     OW18427   2.452   2.056  16.729 -0.4428 -0.0295  0.2245
 2265SOL    HW118428   2.531   2.064  16.676 -1.0963  0.5972 -0.6765
 2265SOL    HW218429   2.451   2.140  16.774  0.7751  0.6365 -0.9992
 2266SOL     OW18430   4.012   4.713   7.245 -1.0180 -0.1369 -0.0139
 2266SOL    HW118431   4.037   4.684   7.157  1.4136 -0.2747  0.7332
 2266SOL    HW218432   3.921   4.683   7.253 -1.5906  1.3854 -0.7744
 2267SOL     OW18433   2.148   3.136   9.844 -0.3957 -0.1609 -0.7635
 2267SOL    HW118434   2.169   3.170   9.757  1.8767 -0.7492 -0.4576
 2267SOL    HW218435   2.229   3.156   9.891 -2.2227  1.7051  1.5795
 2268SOL     OW18436   4.155   0.088   2.897  0.0009  0.3750  0.1235
 2268SOL    HW118437   4.108   0.171   2.888 -0.9479 -0.2715 -0.8822
 2268SOL    HW218438   4.232   0.098   2.841  0.7418 -3.1055  0.5369
 2269SOL     OW18439   0.540   3.973   3.180  0.1045 -0.7332  0.4485
 2269SOL    HW118440   0.589   3.909   3.232 -0.5826 -1.0580  0.7006
 2269SOL    HW218441   0.527   3.918   3.103 -3.5565 -1.4806  1.6098
 2270SOL     OW18442   3.247   0.307   8.904 -0.4611 -0.8673 -0.0809
 2270SOL    HW118443   3.174   0.367   8.892  0.9821  0.7784 -0.5748
 2270SOL    HW218444   3.299   0.349   8.973 -0.1260  1.9770 -2.0943
 2271SOL     OW18445   1.954   0.175   7.210  0.0503  0.9904  0.6092
 2271SOL    HW118446   1.948   0.129   7.294 -0.1297  0.6736  0.4200
 2271SOL    HW218447   1.934   0.104   7.150 -2.1902 -0.4928  3.1114
 2272SOL     OW18448   3.724   1.317   2.762 -0.1530 -0.0748  0.0065
 2272SOL    HW118449   3.709   1.297   2.854  2.0677  1.4979  0.6813
 2272SOL    HW218450   3.803   1.365   2.785 -0.4513 -0.4038  1.7347
 2273SOL     OW18451   3.295   2.182  10.538 -0.4239 -0.3170 -0.3670
 2273SOL    HW118452   3.380   2.200  10.496 -0.5709 -1.1464 -1.0213
 2273SOL    HW218453   3.308   2.216  10.627  2.8075 -1.4118 -0.4237
 2274SOL     OW18454   3.549   3.181   8.442 -0.1557 -0.1396  0.4450
 2274SOL    HW118455   3.595   3.113   8.491 -1.5088 -0.7097  0.9338
 2274SOL    HW218456   3.462   3.140   8.439 -0.3428  0.1324  2.1903
 2275SOL     OW18457   2.636   2.094  16.559  0.7247 -0.3563  0.2308
 2275SOL    HW118458   2.621   2.085  16.464  1.9071 -1.5274  0.1583
 2275SOL    HW218459   2.682   2.177  16.568  1.1995 -0.6074  0.0927
 2276SOL     OW18460   4.289   4.523  14.490 -0.1955 -0.2535  0.6353
 2276SOL    HW118461   4.260   4.519  14.581 -0.7025 -0.7620  0.4448
 2276SOL    HW218462   4.283   4.434  14.455  0.5843 -0.7285  1.6931
 2277SOL     OW18463   0.737   4.224   1.257  0.0266  0.8975 -0.1581
 2277SOL    HW118464   0.664   4.220   1.194  1.7456  1.5256 -2.2151
 2277SOL    HW218465   0.684   4.261   1.328 -1.6731 -0.4963 -0.6913
 2278SOL     OW18466   1.016   1.098  12.640  0.1191  0.1867 -0.3826
 2278SOL    HW118467   1.034   1.192  12.635  2.1425 -0.1523  0.4430
 2278SOL    HW218468   1.069   1.070  12.565  0.6662  3.1559 -1.1102
 2279SOL     OW18469   0.605   1.777   3.928  0.2315  0.0376  0.1667
 2279SOL    HW118470   0.593   1.683   3.914  0.9290 -0.2907  1.6819
 2279SOL    HW218471   0.640   1.807   3.844  1.0854  0.6253  0.7198
 2280SOL     OW18472   0.450   4.140   6.229  0.3185  0.3404  0.0316
 2280SOL    HW118473   0.510   4.106   6.163 -0.1613  0.8865 -0.6769
 2280SOL    HW218474   0.366   4.132   6.186 -0.7389  0.8225  1.9999
 2281SOL     OW18475   1.124   2.981   4.013 -0.1216  0.3425 -0.7197
 2281SOL    HW118476   1.064   2.933   4.070  0.6126 -0.2221 -0.4257
 2281SOL    HW218477   1.064   3.046   3.975  0.3741  1.8635  1.1451
 2282SOL     OW18478   0.179   3.542   9.461 -0.0075  0.1636 -0.1232
 2282SOL    HW118479   0.204   3.472   9.401  1.0516 -0.0331  0.5502
 2282SOL    HW218480   0.095   3.506   9.488  1.0276 -1.1589  1.3128
 2283SOL     OW18481   3.751   3.401   6.371 -0.5919 -0.3939 -0.0624
 2283SOL    HW118482   3.668   3.439   6.342 -2.4882 -3.8410  0.7739
 2283SOL    HW218483   3.738   3.408   6.466  0.9044  0.7546  0.0461
 2284SOL     OW18484   1.097   1.089   8.293  0.0320 -0.0923  0.1660
 2284SOL    HW118485   1.064   1.036   8.221  0.5840  0.4178 -0.4725
 2284SOL    HW218486   1.149   1.156   8.246  0.5220 -0.4610  0.1788
 2285SOL     OW18487   3.325   1.855  12.374 -0.3542  0.4604 -0.2885
 2285SOL    HW118488   3.291   1.826  12.458  1.2861  1.8656  0.8488
 2285SOL    HW218489   3.411   1.814  12.365 -0.5164 -0.5205  2.5836
 2286SOL     OW18490   0.097   3.817   3.438  0.5812 -0.3228 -0.4746
 2286SOL    HW118491   0.061   3.744   3.387 -2.7884 -1.6012  3.7375
 2286SOL    HW218492   0.027   3.882   3.446  0.3282 -0.8568  1.6609
 2287SOL     OW18493   0.024   0.629   2.587 -0.0356 -0.6869  0.0542
 2287SOL    HW118494   0.086   0.603   2.519  1.2383  3.1356 -0.2012
 2287SOL    HW218495   0.059   0.714   2.611  0.4255 -0.7639 -0.3580
 2288SOL     OW18496   0.930   4.244  12.010  0.1845  1.0926 -0.3355
 2288SOL    HW118497   0.836   4.258  12.001 -0.1366 -1.2143 -0.5085
 2288SOL    HW218498   0.970   4.304  11.947 -0.9976  0.4463 -1.6690
 2289SOL     OW18499   1.488   2.739   9.260 -0.3687  0.3673 -0.0807
 2289SOL    HW118500   1.505   2.680   9.334 -1.2784  1.3044  0.8849
 2289SOL    HW218501   1.455   2.677   9.195 -1.5019 -1.5973  2.3668
 2290SOL     OW18502   3.846   0.955  17.590 -0.2945 -0.3376  0.0274
 2290SOL    HW118503   3.804   1.040  17.603 -0.0151 -0.1968  0.0058
 2290SOL    HW218504   3.938   0.980  17.587 -0.5784  0.7048 -0.0617
 2291SOL     OW18505   0.669   3.810   8.884  0.2026  0.4230 -0.0426
 2291SOL    HW118506   0.745   3.847   8.929  0.2585 -1.4751  1.4076
 2291SOL    HW218507   0.617   3.783   8.959 -0.3092  1.2157 -0.1011
 2292SOL     OW18508   1.512   3.418  14.991 -0.8761  0.3189  0.0552
 2292SOL    HW118509   1.556   3.500  15.012 -0.0226  0.2683 -1.6100
 2292SOL    HW218510   1.536   3.417  14.899  1.2591  1.1666  0.6145
 2293SOL     OW18511   3.589   4.261  12.334 -0.7698  0.7449  0.3869
 2293SOL    HW118512   3.573   4.225  12.421  1.9855  1.5261  1.2336
 2293SOL    HW218513   3.622   4.185  12.287 -1.1025  0.3906  0.7328
 2294SOL     OW18514   4.241   3.727   7.526 -0.3827 -0.6990  0.1006
 2294SOL    HW118515   4.306   3.714   7.595  0.5829 -1.0565 -0.8794
 2294SOL    HW218516   4.293   3.767   7.456 -0.6533  1.1492  0.9522
 2295SOL     OW18517   1.520   2.547   3.682  0.4673 -0.5814  0.0012
 2295SOL    HW118518   1.551   2.603   3.611 -1.1547  0.0858 -0.1874
 2295SOL    HW218519   1.585   2.477   3.674  1.1687  0.5809 -4.6688
 2296SOL     OW18520   0.040   1.123   1.896  0.0790 -0.4389  0.0490
 2296SOL    HW118521   0.030   1.031   1.919  0.3669 -0.2593  0.9103
 2296SOL    HW218522   0.049   1.161   1.983  2.7428 -1.0969  0.0785
 2297SOL     OW18523   2.404   0.450  11.585  0.4464  0.2408 -0.1042
 2297SOL    HW118524   2.368   0.487  11.665  1.1300 -2.6084  1.5222
 2297SOL    HW218525   2.330   0.453  11.524 -1.2143 -1.0546  1.8281
 2298SOL     OW18526   2.554   0.676  11.338 -0.0015 -0.0604 -1.1044
 2298SOL    HW118527   2.486   0.702  11.399  1.2562 -1.8978  1.0998
 2298SOL    HW218528   2.495   0.640  11.272  0.3606 -0.9917 -0.9194
 2299SOL     OW18529   4.097   4.068  11.918  0.2556  0.4691  0.4261
 2299SOL    HW118530   4.118   4.002  11.852  1.5019  1.7157 -0.4305
 2299SOL    HW218531   4.165   4.041  11.980  0.7201  1.4838  0.3658
 2300SOL     OW18532   0.444   3.503   4.495 -0.3090 -0.0798 -0.4200
 2300SOL    HW118533   0.433   3.535   4.405 -1.3758  1.8630  0.4131
 2300SOL    HW218534   0.417   3.411   4.496  1.7480 -0.6718  1.4074
 2301SOL     OW18535   0.561   3.584   1.530 -0.0270  0.7500  0.1470
 2301SOL    HW118536   0.573   3.638   1.451 -0.1636  0.0917 -0.3221
 2301SOL    HW218537   0.621   3.512   1.513  0.9374  1.6719 -0.3507
 2302SOL     OW18538   0.509   4.555   4.281  0.9978 -0.3960 -0.2261
 2302SOL    HW118539   0.506   4.529   4.189 -1.0134  0.6532 -0.4643
 2302SOL    HW218540   0.559   4.481   4.315  1.5834 -0.1056 -0.4692
 2303SOL     OW18541   2.994   3.111   6.186  0.3625  0.1675  0.1385
 2303SOL    HW118542   2.920   3.157   6.148 -0.3212 -2.2228 -1.4142
 2303SOL    HW218543   2.992   3.135   6.279 -1.6307  1.1865 -0.1744
 2304SOL     OW18544   3.170   1.796   3.011 -0.7050  0.1497  0.3218
 2304SOL    HW118545   3.119   1.812   3.090 -2.2230  1.1752 -0.8677
 2304SOL    HW218546   3.204   1.708   3.026  0.7679  0.5343 -0.6929
 2305SOL     OW18547   4.515   3.204   4.665 -0.2537  0.0963  0.0653
 2305SOL    HW118548   4.543   3.138   4.602  0.5237  0.2977  0.1943
 2305SOL    HW218549   4.428   3.226   4.630  0.1981  0.3261 -0.9215
 2306SOL     OW18550   1.985   3.110   5.575  0.1708 -0.4548  0.8373
 2306SOL    HW118551   1.962   3.031   5.526 -1.6466 -0.5492  1.8644
 2306SOL    HW218552   2.070   3.122   5.532  1.1739 -0.4878  2.8443
 2307SOL     OW18553   1.873   3.596   9.885 -0.4169 -0.1718 -0.1422
 2307SOL    HW118554   1.833   3.654   9.950  0.8772  0.0809  0.4388
 2307SOL    HW218555   1.897   3.521   9.939 -0.2164 -1.1266 -1.5619
 2308SOL     OW18556   3.022   2.339  11.404  0.0139  0.4458 -0.2180
 2308SOL    HW118557   3.079   2.284  11.458  0.5769  0.3674 -0.8832
 2308SOL    HW218558   3.014   2.274  11.334  1.4479  0.8314 -0.7311
 2309SOL     OW18559   2.778   1.000   3.910  0.1234  0.0139  0.1108
 2309SOL    HW118560   2.762   0.917   3.954 -1.7017 -1.0317 -2.4655
 2309SOL    HW218561   2.687   1.027   3.897 -0.1662 -1.3154 -0.6008
 2310SOL     OW18562   1.401   4.653   9.693  0.5533  0.3958 -0.2524
 2310SOL    HW118563   1.386   4.660   9.599  2.0582 -1.3134 -0.6067
 2310SOL    HW218564   1.402   0.005   9.730 -0.1216  0.5921 -0.6863
 2311SOL     OW18565   1.062   4.016   3.071 -0.1547 -0.0089 -0.5013
 2311SOL    HW118566   1.051   3.924   3.097  1.1343 -0.1262 -0.3611
 2311SOL    HW218567   1.148   4.020   3.028  0.8142  0.4990  1.4499
 2312SOL     OW18568   0.679   4.016  12.244 -0.5525  0.4075 -0.1750
 2312SOL    HW118569   0.697   4.102  12.280  1.2651  0.8307 -2.0835
 2312SOL    HW218570   0.690   3.965  12.324 -0.5067  0.4137 -0.1776
 2313SOL     OW18571   2.031   0.145   5.190  0.0205  0.2010 -0.3278
 2313SOL    HW118572   2.122   0.163   5.166  0.7473 -0.3852  1.8971
 2313SOL    HW218573   1.986   0.177   5.113  0.4866 -1.6738 -1.3878
 2314SOL     OW18574   3.888   1.780   2.108  0.5141  0.8808  0.1759
 2314SOL    HW118575   3.966   1.752   2.154  0.8266 -0.2003 -1.0249
 2314SOL    HW218576   3.821   1.745   2.167  0.1698  0.7044 -0.3147
 2315SOL     OW18577   0.576   3.139   2.369  0.1951 -0.4847 -0.3872
 2315SOL    HW118578   0.534   3.188   2.298 -0.5973 -0.8982 -0.2154
 2315SOL    HW218579   0.499   3.092   2.403 -0.0859 -0.2135 -0.6451
 2316SOL     OW18580   3.198   1.069   2.901  0.7500  0.4563  0.0327
 2316SOL    HW118581   3.279   1.029   2.871 -0.3251 -1.3533 -0.4590
 2316SOL    HW218582   3.159   1.095   2.817 -0.4244  2.2487  1.1442
 2317SOL     OW18583   0.357   0.155   0.281  0.0708 -0.4467  0.0159
 2317SOL    HW118584   0.289   0.097   0.314  0.9375 -0.4542  1.7779
 2317SOL    HW218585   0.427   0.140   0.345  0.2693 -2.0283 -0.5698
 2318SOL     OW18586   0.767   4.435   5.323 -0.3500 -0.2118 -0.3841
 2318SOL    HW118587   0.834   4.503   5.329  1.3489 -2.1131  2.1102
 2318SOL    HW218588   0.782   4.388   5.242 -0.7305  0.4298 -0.8303
 2319SOL     OW18589   2.694   2.787   9.394  0.2166 -0.0425 -0.5674
 2319SOL    HW118590   2.781   2.764   9.360  0.4087 -1.7656  1.1169
 2319SOL    HW218591   2.648   2.705   9.406 -2.5133  1.6340  0.3384
 2320SOL     OW18592   3.935   1.098   0.298 -0.0532 -0.6686 -0.3170
 2320SOL    HW118593   3.954   1.139   0.214  0.6389 -1.3662 -0.4975
 2320SOL    HW218594   3.980   1.147   0.366 -0.8860  0.9570 -0.9365
 2321SOL     OW18595   1.858   1.548   3.700 -0.1928  1.1136  0.0005
 2321SOL    HW118596   1.811   1.527   3.780 -1.7264 -2.0298 -1.7329
 2321SOL    HW218597   1.951   1.547   3.725 -0.6747  1.6154  1.8255
 2322SOL     OW18598   1.351   3.116   2.081 -0.2821  0.5254 -0.1164
 2322SOL    HW118599   1.377   3.040   2.132  2.3659  0.1521 -2.0210
 2322SOL    HW218600   1.309   3.066   2.011 -1.5530 -1.6076  2.1763
 2323SOL     OW18601   0.434   0.950   3.661  0.0043  0.3865 -0.0025
 2323SOL    HW118602   0.391   0.981   3.582 -0.3814  1.2208  0.5372
 2323SOL    HW218603   0.403   1.013   3.726  0.1708 -0.3659  0.8153
 2324SOL     OW18604   4.583   0.441   6.124  0.1763 -0.1911  0.9423
 2324SOL    HW118605   4.513   0.377   6.137 -1.4948  1.4836  0.0825
 2324SOL    HW218606   4.642   0.387   6.071  1.9283  0.9585  1.7080
 2325SOL     OW18607   1.695   2.521   8.785  0.6025  0.3179 -0.3786
 2325SOL    HW118608   1.615   2.551   8.827  0.2784 -1.1902  0.0644
 2325SOL    HW218609   1.771   2.544   8.839 -0.2657 -0.9976  1.3685
 2326SOL     OW18610   2.605   0.462  12.902  0.6680  0.3184 -0.8112
 2326SOL    HW118611   2.597   0.558  12.896  0.0984  0.2694 -0.8530
 2326SOL    HW218612   2.694   0.454  12.869  0.7104  1.4086 -0.9824
 2327SOL     OW18613   0.574   4.342  15.599  0.4564  0.2174  0.0665
 2327SOL    HW118614   0.536   4.416  15.553  0.9507  0.5028  0.1194
 2327SOL    HW218615   0.612   4.393  15.671  2.9524 -0.8653 -0.4762
 2328SOL     OW18616   1.564   0.591   6.466  0.7811  0.0617 -0.2848
 2328SOL    HW118617   1.631   0.543   6.418 -0.5560 -1.5703 -0.5388
 2328SOL    HW218618   1.579   0.680   6.436 -0.3339 -0.2569 -1.7581
 2329SOL     OW18619   2.588   2.149  11.943  0.3787  0.1311 -0.2545
 2329SOL    HW118620   2.579   2.176  12.034  2.6818 -0.8791  0.2588
 2329SOL    HW218621   2.612   2.232  11.901 -0.3912 -0.6557 -2.2482
 2330SOL     OW18622   4.466   0.151   7.601  0.1494  0.3304 -0.2415
 2330SOL    HW118623   4.443   0.204   7.524  1.4197  0.9933 -0.1691
 2330SOL    HW218624   4.548   0.118   7.562  0.5055  0.9538 -0.0196
 2331SOL     OW18625   4.153   1.260   1.608 -0.8544  0.1372  0.0933
 2331SOL    HW118626   4.062   1.281   1.589 -0.7423  1.0913  0.5735
 2331SOL    HW218627   4.143   1.165   1.610 -0.6910  0.1049 -0.6059
 2332SOL     OW18628   0.440   0.955  15.018 -0.0334 -0.2898  1.0081
 2332SOL    HW118629   0.404   0.866  15.009 -1.9417  0.8830 -2.7443
 2332SOL    HW218630   0.435   0.956  15.114 -1.3233  0.0278  0.9264
 2333SOL     OW18631   0.260   2.363   8.454  0.2910  0.3113  0.1687
 2333SOL    HW118632   0.220   2.356   8.368  2.1248 -3.2666 -0.3950
 2333SOL    HW218633   0.242   2.278   8.494  1.6863  0.1203  0.3930
 2334SOL     OW18634   0.055   1.938   8.576  0.0628 -0.0465 -0.2266
 2334SOL    HW118635   0.091   2.026   8.581 -1.0351  0.3903 -0.0541
 2334SOL    HW218636   4.736   1.938   8.653  0.9905 -2.1564  0.4567
 2335SOL     OW18637   3.260   0.171   6.336  0.1766 -0.0890 -0.3718
 2335SOL    HW118638   3.247   0.081   6.366  0.7563  0.3717  1.2456
 2335SOL    HW218639   3.264   0.221   6.418 -0.6905 -0.6128 -0.0105
 2336SOL     OW18640   0.162   3.410   9.851 -0.5292 -0.6545  0.2378
 2336SOL    HW118641   0.125   3.338   9.903  0.3602  0.4072  2.3201
 2336SOL    HW218642   0.131   3.487   9.899  0.1157 -0.0903 -0.2595
 2337SOL     OW18643   0.357   3.071   6.160 -0.5614 -0.0144  0.6734
 2337SOL    HW118644   0.376   3.134   6.230  1.1162 -1.1988  1.2855
 2337SOL    HW218645   0.440   3.060   6.113 -2.0098 -1.0562 -1.6275
 2338SOL     OW18646   2.777   4.045   6.550 -0.6888 -0.1312  0.4590
 2338SOL    HW118647   2.851   3.985   6.558  0.0082  0.2540 -3.0330
 2338SOL    HW218648   2.762   4.052   6.456  0.6893  0.8863  0.3275
 2339SOL     OW18649   1.841   3.032   6.684 -0.2305  0.2043  0.4170
 2339SOL    HW118650   1.848   3.109   6.741 -0.6842  0.4134  0.1866
 2339SOL    HW218651   1.823   2.962   6.747  1.0377  0.1058  0.6715
 2340SOL     OW18652   3.327   4.719   8.508  0.0843 -0.2059  0.4867
 2340SOL    HW118653   3.278   4.640   8.529  3.2757 -1.8884  1.6302
 2340SOL    HW218654   3.276   0.022   8.437  1.5685  1.5984  0.4430
 2341SOL     OW18655   0.927   1.213   1.685 -0.0997 -0.0073 -0.9658
 2341SOL    HW118656   0.866   1.247   1.750  1.5545  1.5092 -0.2476
 2341SOL    HW218657   1.003   1.270   1.688 -0.2231  0.0442  0.8040
 2342SOL     OW18658   0.959   2.595  13.763  0.1137 -0.1151 -0.2676
 2342SOL    HW118659   1.043   2.619  13.723  0.4478  0.3983  0.7559
 2342SOL    HW218660   0.989   2.548  13.840 -1.7422 -0.8902 -0.0146
 2343SOL     OW18661   1.512   1.973   3.895  0.0530  0.4078 -0.1490
 2343SOL    HW118662   1.604   1.950   3.883 -0.2462 -0.6845 -0.3096
 2343SOL    HW218663   1.513   2.043   3.830 -0.6275  0.1728 -0.4105
 2344SOL     OW18664   0.681   3.155   9.862  0.4162  0.3250  0.1561
 2344SOL    HW118665   0.698   3.193   9.948  1.6912  0.2181 -0.0511
 2344SOL    HW218666   0.707   3.064   9.876 -0.3683 -0.2038 -1.7294
 2345SOL     OW18667   4.056   2.059   8.688 -0.3233  0.3169  0.4143
 2345SOL    HW118668   4.022   2.047   8.599  0.8731  1.2730 -0.1678
 2345SOL    HW218669   4.096   1.972   8.697 -0.4806  0.3770  1.6496
 2346SOL     OW18670   1.306   0.453   5.465 -0.3752 -0.6342 -0.6321
 2346SOL    HW118671   1.251   0.376   5.472 -0.3253 -0.5316  0.8995
 2346SOL    HW218672   1.370   0.426   5.531  1.0777  1.4213 -1.1793
 2347SOL     OW18673   3.250   4.702   7.775 -0.7571  0.0877 -0.4359
 2347SOL    HW118674   3.282   4.614   7.794 -1.3441 -0.2636 -1.1225
 2347SOL    HW218675   3.234   4.693   7.681  1.7427 -0.5623 -0.8177
 2348SOL     OW18676   3.859   0.115   7.848 -0.0118 -0.1875 -0.3823
 2348SOL    HW118677   3.874   0.022   7.864 -0.1422 -0.5964 -2.7732
 2348SOL    HW218678   3.855   0.107   7.753 -2.7955  0.1056 -0.2839
 2349SOL     OW18679   0.535   4.254   5.728 -0.0012 -0.4093  0.1118
 2349SOL    HW118680   0.458   4.198   5.713  0.7044 -0.8474 -1.8379
 2349SOL    HW218681   0.609   4.225   5.675  0.7705 -0.7492  1.3771
 2350SOL     OW18682   0.921   4.628  15.813  0.3916 -0.3112  0.2267
 2350SOL    HW118683   0.972   4.595  15.739 -0.7187 -0.0512 -0.6609
 2350SOL    HW218684   0.951   4.719  15.815  1.7271 -0.8045  1.6782
 2351SOL     OW18685   0.727   0.582   6.560  0.2392  0.2623 -0.0198
 2351SOL    HW118686   0.744   0.675   6.575 -0.4340  0.4204 -0.2621
 2351SOL    HW218687   0.639   0.580   6.523  0.6591 -1.6215 -0.8978
 2352SOL     OW18688   3.724   4.163   0.193 -0.3821 -0.0720 -0.3620
 2352SOL    HW118689   3.755   4.101   0.259 -0.3178  1.7392  1.3283
 2352SOL    HW218690   3.687   4.102   0.131  0.8894 -0.6863 -0.5190
 2353SOL     OW18691   0.607   1.535  13.359  0.3069 -0.0132 -0.3578
 2353SOL    HW118692   0.696   1.546  13.324  0.0808 -0.3188 -1.0260
 2353SOL    HW218693   0.579   1.626  13.369  1.1143  0.2087 -0.0924
 2354SOL     OW18694   2.392   2.232   3.925 -0.5299 -0.2655  0.1325
 2354SOL    HW118695   2.378   2.176   3.849  1.9699  0.2198 -0.6646
 2354SOL    HW218696   2.386   2.320   3.888  1.3932 -0.5621 -0.8501
 2355SOL     OW18697   3.950   1.021   4.508 -0.0175  0.7339  0.0397
 2355SOL    HW118698   3.879   0.960   4.529  0.5040 -0.1491 -0.7843
 2355SOL    HW218699   3.922   1.109   4.534 -0.3080  0.2001  1.5364
 2356SOL     OW18700   3.657   2.067  13.697  0.0106  0.0846  0.0216
 2356SOL    HW118701   3.717   1.994  13.716  0.9278  0.8318 -0.0163
 2356SOL    HW218702   3.582   2.061  13.755 -0.4585 -0.0836 -0.6043
 2357SOL     OW18703   2.348   0.777   8.951 -0.1528 -0.0071 -0.3482
 2357SOL    HW118704   2.365   0.830   8.873 -2.6224  1.3589  0.0620
 2357SOL    HW218705   2.433   0.736   8.968 -0.2095  0.3463  0.7654
 2358SOL     OW18706   4.185   2.404   3.050 -0.2508 -0.1991  0.3080
 2358SOL    HW118707   4.269   2.437   3.020 -0.8040 -1.6670 -2.9385
 2358SOL    HW218708   4.127   2.438   2.981  1.2594  1.9357  0.0962
 2359SOL     OW18709   3.477   1.670   9.442 -0.3668 -0.6954  0.1668
 2359SOL    HW118710   3.384   1.647   9.433 -1.0689  2.3008 -0.3298
 2359SOL    HW218711   3.504   1.646   9.353  0.4794  1.1248 -0.0680
 2360SOL     OW18712   0.269   1.706   3.441 -0.6356 -0.6510  0.5302
 2360SOL    HW118713   0.342   1.752   3.399  0.6454 -2.4774  0.7671
 2360SOL    HW218714   0.210   1.718   3.366 -0.9705 -1.2122  0.7000
 2361SOL     OW18715   3.233   2.401   5.585 -0.0732  0.1023  0.1169
 2361SOL    HW118716   3.233   2.315   5.625 -1.5401  0.0594  0.0164
 2361SOL    HW218717   3.272   2.440   5.663  0.4107  0.3397 -0.2414
 2362SOL     OW18718   1.911   1.838  10.778  0.4318 -0.1662 -0.1169
 2362SOL    HW118719   1.964   1.917  10.766  0.5863 -0.0216  1.4877
 2362SOL    HW218720   1.922   1.794  10.693  3.3466  1.2312 -0.4450
 2363SOL     OW18721   3.738   1.826  13.223  0.0514 -0.2002 -0.5385
 2363SOL    HW118722   3.661   1.789  13.178 -1.4928  0.9961  1.1328
 2363SOL    HW218723   3.707   1.915  13.239 -1.0984 -0.4378 -1.4148
 2364SOL     OW18724   3.760   3.062   4.220 -0.0928  0.6338  0.9242
 2364SOL    HW118725   3.675   3.105   4.206 -0.1335 -0.0749 -1.1258
 2364SOL    HW218726   3.814   3.129   4.176 -0.8322 -0.5199 -1.7578
 2365SOL     OW18727   4.686   4.205   3.749  0.7183  0.4053  0.1873
 2365SOL    HW118728   0.017   4.198   3.681  1.0713  0.5561  0.5251
 2365SOL    HW218729   0.007   4.213   3.825 -0.3321 -0.3761  1.0727
 2366SOL     OW18730   2.500   1.643   0.166 -0.0213 -0.3044  0.1392
 2366SOL    HW118731   2.475   1.722   0.119  1.6511  0.7411  1.0309
 2366SOL    HW218732   2.543   1.672   0.246  1.1051  1.9147 -1.2679
 2367SOL     OW18733   0.369   3.024  11.899  0.9997 -0.5992 -0.1942
 2367SOL    HW118734   0.403   2.947  11.944  0.0800  0.9362  3.1519
 2367SOL    HW218735   0.277   3.032  11.926  0.5280 -0.2206 -1.9510
 2368SOL     OW18736   3.292   1.515   2.063 -0.1907 -1.1587  0.0537
 2368SOL    HW118737   3.265   1.494   2.152  0.7179  1.4169  0.9173
 2368SOL    HW218738   3.309   1.429   2.025  0.8122 -0.5469 -0.8755
 2369SOL     OW18739   1.008   2.357   8.357  0.5758 -0.0411  0.0916
 2369SOL    HW118740   1.008   2.436   8.411  0.9501  0.0050  0.0232
 2369SOL    HW218741   1.044   2.377   8.271  0.2715 -1.5671 -0.3954
 2370SOL     OW18742   4.520   4.560  17.264  0.0826 -0.4480 -0.2626
 2370SOL    HW118743   4.481   4.551  17.351  0.6269  1.8836  0.2367
 2370SOL    HW218744   4.611   4.542  17.290 -0.1724 -0.8300  0.3593
 2371SOL     OW18745   1.936   1.588  14.520  0.0672  0.8170 -0.0446
 2371SOL    HW118746   1.946   1.522  14.451 -1.9259  1.0254 -0.5187
 2371SOL    HW218747   1.945   1.666  14.465 -0.8107  0.6465 -0.4234
 2372SOL     OW18748   0.035   2.545   8.647  0.4222  0.2557  0.3510
 2372SOL    HW118749   0.029   2.622   8.704 -4.4676  1.0119 -1.2427
 2372SOL    HW218750   0.124   2.561   8.613 -0.9188  1.9542 -2.3885
 2373SOL     OW18751   3.335   1.563   4.019  0.0121 -0.4094 -0.8862
 2373SOL    HW118752   3.310   1.556   3.927 -1.8107 -1.3866 -0.3253
 2373SOL    HW218753   3.407   1.501   4.033 -1.1327 -1.4447  0.4219
 2374SOL     OW18754   3.512   0.313   4.017 -0.0731  0.4359 -0.2141
 2374SOL    HW118755   3.566   0.341   3.943  1.7091  0.3490  1.0737
 2374SOL    HW218756   3.430   0.325   3.969 -0.0705 -2.5725 -0.9728
 2375SOL     OW18757   3.359   3.696   3.922 -0.8824 -0.1914 -0.0418
 2375SOL    HW118758   3.355   3.601   3.931 -1.3277 -0.1028  0.7562
 2375SOL    HW218759   3.281   3.717   3.870 -1.4726 -2.2743  0.0213
 2376SOL     OW18760   0.614   1.789   8.774  0.4250 -0.0582 -0.0061
 2376SOL    HW118761   0.597   1.700   8.803 -0.2916 -0.2336 -0.9493
 2376SOL    HW218762   0.630   1.775   8.681 -0.4122 -4.5400  0.5354
 2377SOL     OW18763   1.334   4.179   4.695 -0.1684 -0.4260  0.0584
 2377SOL    HW118764   1.364   4.175   4.604 -1.5608  3.5672 -0.6146
 2377SOL    HW218765   1.279   4.102   4.701 -0.4730 -0.1364  0.8663
 2378SOL     OW18766   3.403   3.457   8.928  0.0272 -0.0295  0.2255
 2378SOL    HW118767   3.392   3.445   9.023  0.6326 -1.6581  0.0883
 2378SOL    HW218768   3.447   3.542   8.925  2.3558 -1.3082 -1.4143
 2379SOL     OW18769   4.447   1.570  15.664  0.2680  0.1804 -0.5934
 2379SOL    HW118770   4.402   1.500  15.617 -0.7116 -0.0425  0.6934
 2379SOL    HW218771   4.398   1.649  15.642 -1.3585 -0.4954  0.6117
 2380SOL     OW18772   3.719   2.657   7.264 -0.0087 -0.7462 -0.3251
 2380SOL    HW118773   3.780   2.589   7.290 -0.2181 -2.1518 -3.5430
 2380SOL    HW218774   3.658   2.660   7.338 -0.3759  0.2619 -0.6660
 2381SOL     OW18775   0.736   2.010   5.702  0.2958  0.4120 -0.9534
 2381SOL    HW118776   0.672   1.989   5.635  1.3206  0.4205 -1.9323
 2381SOL    HW218777   0.741   1.925   5.746 -0.6767  2.2209  2.6603
 2382SOL     OW18778   1.644   2.255   9.211  0.2176  0.4008  0.1607
 2382SOL    HW118779   1.668   2.223   9.124 -1.2644 -1.9259  0.6315
 2382SOL    HW218780   1.620   2.177   9.260 -1.4513  0.3653 -0.7307
 2383SOL     OW18781   1.497   2.591   8.996  0.1215 -0.4029  0.5146
 2383SOL    HW118782   1.446   2.513   8.972 -0.4164  0.1724 -0.1985
 2383SOL    HW218783   1.440   2.664   8.972 -1.3339 -2.2131 -1.5118
 2384SOL     OW18784   1.883   0.959  17.646 -0.0584  0.3440  0.1123
 2384SOL    HW118785   1.887   0.870  17.680  1.1116  0.3387 -0.0551
 2384SOL    HW218786   1.924   1.007  17.718 -2.6564  0.3578  1.6191
 2385SOL     OW18787   0.139   4.339   2.264  0.3563 -0.5121 -0.4582
 2385SOL    HW118788   0.204   4.285   2.218  0.9650  1.2131 -1.6280
 2385SOL    HW218789   0.196   4.414   2.281 -0.8309  0.2290  0.1924
 2386SOL     OW18790   4.151   4.504   8.653  0.4885  0.4751 -0.5754
 2386SOL    HW118791   4.090   4.549   8.712  0.0016 -0.1599 -0.5944
 2386SOL    HW218792   4.232   4.509   8.704  1.6403  0.1166 -2.3821
 2387SOL     OW18793   2.856   0.353  14.583  0.0358 -0.5489 -0.3158
 2387SOL    HW118794   2.952   0.353  14.585  0.0191 -0.2525  0.3615
 2387SOL    HW218795   2.840   0.308  14.500 -0.0351 -1.3910  0.1459
 2388SOL     OW18796   1.175   2.287   3.176  0.6520  0.0078  0.2164
 2388SOL    HW118797   1.252   2.244   3.213 -1.1335 -2.9275  0.4486
 2388SOL    HW218798   1.187   2.374   3.214 -1.8904  1.1209 -1.5249
 2389SOL     OW18799   3.866   2.794   1.333  0.2108 -0.2810  0.5252
 2389SOL    HW118800   3.877   2.810   1.427  0.4438  1.0807  0.2768
 2389SOL    HW218801   3.950   2.758   1.305 -1.6332 -2.6491 -2.0204
 2390SOL     OW18802   0.832   2.563   2.440 -0.1561 -0.1487  0.2856
 2390SOL    HW118803   0.873   2.485   2.478 -1.3069  0.0858  2.0042
 2390SOL    HW218804   0.814   2.610   2.522  1.0101  1.4606 -0.3822
 2391SOL     OW18805   0.686   2.964   9.369 -0.0148 -0.0120 -0.0108
 2391SOL    HW118806   0.749   3.035   9.383  0.3109 -0.3129  0.0415
 2391SOL    HW218807   0.722   2.914   9.296  0.5721  0.5216 -0.0823
 2392SOL     OW18808   1.857   0.992   4.719  0.0138 -0.7496  0.2257
 2392SOL    HW118809   1.839   1.067   4.777 -2.6783 -1.4566  0.3349
 2392SOL    HW218810   1.789   0.927   4.738  1.0881 -1.8113  0.4056
 2393SOL     OW18811   4.286   0.526   5.024  0.0582 -0.1760 -0.4438
 2393SOL    HW118812   4.272   0.449   5.079  0.4850  0.0700  0.0047
 2393SOL    HW218813   4.243   0.595   5.073 -1.1236 -2.2774  1.4625
 2394SOL     OW18814   0.794   0.583   3.237  0.3870 -0.4249  0.2590
 2394SOL    HW118815   0.723   0.574   3.300  0.2084  0.3023  0.1626
 2394SOL    HW218816   0.818   0.674   3.257  2.3303 -0.8352 -0.1538
 2395SOL     OW18817   2.271   2.219   5.704 -0.0093  0.0874 -0.2175
 2395SOL    HW118818   2.246   2.309   5.725 -0.7770 -0.2136  0.1595
 2395SOL    HW218819   2.234   2.224   5.616  3.4679  0.4831 -1.6680
 2396SOL     OW18820   0.368   1.024   4.057  0.2213  0.2995 -0.0996
 2396SOL    HW118821   0.430   1.094   4.036 -0.3446  0.4424 -1.2712
 2396SOL    HW218822   0.359   1.019   4.153  0.1667 -1.8580 -0.2220
 2397SOL     OW18823   4.145   2.308   8.114  0.6266 -0.2111 -0.5376
 2397SOL    HW118824   4.232   2.347   8.101 -1.1148  3.3446 -1.6872
 2397SOL    HW218825   4.164   2.218   8.088 -0.9668 -0.7623  0.2173
 2398SOL     OW18826   3.120   2.000   9.997 -0.1690 -0.1888 -0.0393
 2398SOL    HW118827   3.111   1.954   9.914 -0.7925 -2.6611  1.4013
 2398SOL    HW218828   3.050   2.064   9.986  0.6205  0.9677  1.5512
 2399SOL     OW18829   2.710   0.695   6.477  0.1023  0.1341  0.1975
 2399SOL    HW118830   2.708   0.763   6.544  1.9576 -0.8263  1.2203
 2399SOL    HW218831   2.721   0.757   6.404 -2.4348 -0.1490 -0.4026
 2400SOL     OW18832   1.617   3.872   6.147  0.1895  0.0857 -0.1590
 2400SOL    HW118833   1.590   3.917   6.227  1.4487 -1.6428  1.2437
 2400SOL    HW218834   1.712   3.866   6.161  0.0025 -2.3754  0.0670
 2401SOL     OW18835   1.551   1.720   6.520 -0.6033  0.8116 -0.0075
 2401SOL    HW118836   1.492   1.777   6.570  0.5034  1.4182  0.5979
 2401SOL    HW218837   1.610   1.784   6.479  1.3021  0.0592  1.5797
 2402SOL     OW18838   2.112   3.549   7.829 -0.6000  0.0535  0.5355
 2402SOL    HW118839   2.070   3.569   7.914 -0.6763  0.5280  0.3876
 2402SOL    HW218840   2.160   3.631   7.838  0.2739 -0.4214  0.1339
 2403SOL     OW18841   3.181   4.512   8.466  0.3029  0.1899  0.1498
 2403SOL    HW118842   3.229   4.453   8.408 -2.4012  0.1929 -2.1081
 2403SOL    HW218843   3.100   4.524   8.415 -0.1615 -0.5981  0.7095
 2404SOL     OW18844   2.011   0.545   7.695 -0.2051  0.3861 -0.1028
 2404SOL    HW118845   1.985   0.634   7.671 -1.3771  0.6375  2.1137
 2404SOL    HW218846   2.093   0.568   7.738 -1.0948  2.4171  0.5495
 2405SOL     OW18847   0.154   0.273  15.711 -0.3946  0.6304  0.6676
 2405SOL    HW118848   0.107   0.322  15.779  1.0389  0.3644  1.8597
 2405SOL    HW218849   0.122   0.314  15.630  0.8876  0.8100  0.2525
 2406SOL     OW18850   2.255   0.054  13.489 -0.1288  0.2192  0.1030
 2406SOL    HW118851   2.299   4.726  13.543 -3.2283 -2.1218 -0.1583
 2406SOL    HW218852   2.297   0.024  13.409  0.6334 -0.0215  0.6033
 2407SOL     OW18853   4.605   1.856  17.542  0.3384 -0.2067  0.6929
 2407SOL    HW118854   4.517   1.842  17.508  2.5853 -1.0778 -4.8551
 2407SOL    HW218855   4.663   1.871  17.467  1.4672 -0.0700  1.5968
 2408SOL     OW18856   3.789   2.921   9.185  0.6207 -0.2106  0.0173
 2408SOL    HW118857   3.711   2.908   9.131 -0.2815  3.4792  0.3963
 2408SOL    HW218858   3.798   2.832   9.219  0.4280 -0.3107 -0.1926
 2409SOL     OW18859   3.044   3.077   2.926 -0.2868  0.0088 -0.2621
 2409SOL    HW118860   3.127   3.048   2.964 -0.3697  0.0474 -0.0514
 2409SOL    HW218861   2.990   3.089   3.004 -1.0704 -0.7782 -0.6833
 2410SOL     OW18862   3.676   0.655   4.149  0.1655  0.5319  0.1645
 2410SOL    HW118863   3.603   0.635   4.208  0.2213  1.4956  0.5600
 2410SOL    HW218864   3.751   0.604   4.180  0.9918  2.1087  0.7745
 2411SOL     OW18865   1.732   2.436   2.996 -0.0064  0.5375 -0.1210
 2411SOL    HW118866   1.657   2.391   2.957 -0.2967 -0.1828  1.2509
 2411SOL    HW218867   1.798   2.430   2.927  0.1668 -2.3879  0.2718
 2412SOL     OW18868   0.743   0.174  15.941 -0.0499  0.1719  0.0031
 2412SOL    HW118869   0.784   0.253  15.976 -0.1359  0.5513 -0.7424
 2412SOL    HW218870   0.788   0.102  15.986  1.0097 -0.1070 -1.5007
 2413SOL     OW18871   1.398   1.952   0.147 -1.1674  0.2097 -0.0867
 2413SOL    HW118872   1.472   1.919   0.199 -0.4067  2.8957  0.5189
 2413SOL    HW218873   1.323   1.932   0.203  0.8803 -0.3284  2.4802
 2414SOL     OW18874   0.616   3.235   4.627  0.2811 -0.4401 -0.1804
 2414SOL    HW118875   0.546   3.205   4.569  0.1435 -0.0797 -0.1996
 2414SOL    HW218876   0.695   3.182   4.614 -1.1507 -3.1037  2.0052
 2415SOL     OW18877   3.149   0.965   6.874  0.1248  0.0360 -0.4205
 2415SOL    HW118878   3.081   0.944   6.937 -1.0028  1.5181 -1.1483
 2415SOL    HW218879   3.156   1.059   6.893  0.5075  0.1757 -1.2646
 2416SOL     OW18880   0.892   4.437   1.236 -0.1447 -0.2234 -0.9883
 2416SOL    HW118881   0.870   4.343   1.236 -0.6365 -0.1246  1.3255
 2416SOL    HW218882   0.816   4.470   1.189  0.3622 -0.3560 -1.9000
 2417SOL     OW18883   2.566   3.998   5.369 -0.5710  0.5219  0.2250
 2417SOL    HW118884   2.502   4.010   5.300  0.6995  2.2631 -0.6641
 2417SOL    HW218885   2.508   4.001   5.445 -1.0265 -1.2058 -0.0684
 2418SOL     OW18886   4.693   4.462   8.046 -0.2216 -0.1188 -0.1149
 2418SOL    HW118887   4.719   4.442   8.135 -0.3398 -0.3184 -0.1255
 2418SOL    HW218888   0.012   4.539   8.034  2.0525 -1.6065  0.9961
 2419SOL     OW18889   3.685   0.017   3.697 -0.6597 -0.5635 -0.1276
 2419SOL    HW118890   3.739   0.093   3.716 -0.3453 -0.5503 -1.0919
 2419SOL    HW218891   3.726   4.731   3.614  1.5384 -2.6182  1.5369
 2420SOL     OW18892   2.461   2.066   6.250  0.2751  0.0396 -0.0902
 2420SOL    HW118893   2.476   2.148   6.297 -1.1104  0.0405  0.3545
 2420SOL    HW218894   2.527   2.079   6.182 -1.0129  1.6978 -1.0345
 2421SOL     OW18895   3.292   3.771  13.477 -0.1674 -0.2813 -0.2731
 2421SOL    HW118896   3.221   3.738  13.421 -0.0612  1.3388 -1.3597
 2421SOL    HW218897   3.368   3.746  13.424 -0.2454  0.4119 -0.7123
 2422SOL     OW18898   4.626   2.408   7.577  0.2702 -0.4025  0.5663
 2422SOL    HW118899   4.576   2.391   7.497 -1.1838  0.4924  1.2686
 2422SOL    HW218900   4.715   2.411   7.542  0.3356 -1.5682  0.6415
 2423SOL     OW18901   3.858   2.218   8.783  0.0876 -0.3491  0.1441
 2423SOL    HW118902   3.938   2.191   8.740 -1.9685 -1.8488 -2.6939
 2423SOL    HW218903   3.896   2.273   8.852 -0.2033  0.1977 -0.1340
 2424SOL     OW18904   0.961   4.680   2.195 -0.0551 -0.2788  0.1143
 2424SOL    HW118905   1.012   4.636   2.128  0.2281 -1.2402  0.9612
 2424SOL    HW218906   0.874   4.641   2.187  0.2563 -0.6695 -1.2649
 2425SOL     OW18907   4.302   3.896   5.009  0.2736 -0.2844 -0.4869
 2425SOL    HW118908   4.269   3.858   5.090  3.5277 -0.1273  0.9008
 2425SOL    HW218909   4.355   3.969   5.042  1.4317 -1.8209  1.0433
 2426SOL     OW18910   0.972   1.365   3.229  0.2910  0.1583  0.9535
 2426SOL    HW118911   0.935   1.361   3.140 -2.2018 -2.4248  2.1070
 2426SOL    HW218912   1.058   1.324   3.216  0.0584 -0.2353  0.6636
 2427SOL     OW18913   4.679   3.427  12.028  0.5097  0.4051 -0.1113
 2427SOL    HW118914   4.671   3.485  12.104 -1.9163  0.2126 -0.2057
 2427SOL    HW218915   4.692   3.343  12.073  1.6216  1.8160  2.1852
 2428SOL     OW18916   3.746   3.467   0.020 -0.0645  0.3769  0.2347
 2428SOL    HW118917   3.739   3.563   0.025 -2.2742  0.1804  0.8854
 2428SOL    HW218918   3.724   3.459  17.673  4.1988  0.3834 -0.7700
 2429SOL     OW18919   0.053   4.479  14.964 -0.4703  0.4172 -0.1301
 2429SOL    HW118920   0.114   4.409  14.940 -1.2859 -0.3298 -0.0324
 2429SOL    HW218921   4.701   4.448  14.948  0.5254 -0.7423 -3.4056
 2430SOL     OW18922   0.615   2.501   3.305 -0.4596 -0.0272  0.6947
 2430SOL    HW118923   0.525   2.475   3.327 -0.4028 -1.0615 -0.2832
 2430SOL    HW218924   0.619   2.498   3.209 -0.2633 -0.9265  0.7324
 2431SOL     OW18925   0.504   2.760  16.612  0.2128  0.0335 -0.3444
 2431SOL    HW118926   0.519   2.838  16.560 -1.4997  0.8544  0.3986
 2431SOL    HW218927   0.453   2.707  16.551 -0.7315  1.1575 -0.5323
 2432SOL     OW18928   2.129   3.043  17.193  0.0209  0.2963  0.8585
 2432SOL    HW118929   2.150   3.135  17.206  1.1101  0.1816 -0.0182
 2432SOL    HW218930   2.130   3.023  17.099 -0.4454 -0.3330  0.9906
 2433SOL     OW18931   1.781   0.873   9.959  0.4789 -0.2497 -0.2523
 2433SOL    HW118932   1.817   0.904   9.876 -0.4421 -0.3147 -0.6736
 2433SOL    HW218933   1.857   0.878  10.018  0.4595  0.6233 -0.3129
 2434SOL     OW18934   1.580   1.739  11.856  0.1685  0.8320 -0.0881
 2434SOL    HW118935   1.597   1.689  11.777 -2.5860  0.2236 -0.2632
 2434SOL    HW218936   1.650   1.703  11.912  1.2147 -1.0226 -2.6090
 2435SOL     OW18937   0.724   2.393   6.030  0.0283 -0.4053  0.3970
 2435SOL    HW118938   0.808   2.434   6.050  0.1299 -0.5159  0.1959
 2435SOL    HW218939   0.724   2.329   6.101  0.8004  0.2595  0.9995
 2436SOL     OW18940   0.035   1.830   3.634  0.0863  0.7233 -0.3493
 2436SOL    HW118941   0.020   1.779   3.713 -0.8389  0.5482 -0.6406
 2436SOL    HW218942   0.087   1.769   3.582 -0.6741 -0.7689  0.6524
 2437SOL     OW18943   0.743   1.786   5.842  0.1872 -0.3495  0.1433
 2437SOL    HW118944   0.832   1.751   5.850  1.1772  2.3631  1.0922
 2437SOL    HW218945   0.701   1.775   5.927  0.9913 -0.1629  0.5650
 2438SOL     OW18946   2.452   1.509   4.454  0.1356  0.1358  0.0445
 2438SOL    HW118947   2.422   1.491   4.365 -2.9557 -2.7267  1.6716
 2438SOL    HW218948   2.540   1.471   4.455  0.0453 -0.0877 -1.3641
 2439SOL     OW18949   4.035   1.775  11.695 -0.5084  0.4972 -0.1784
 2439SOL    HW118950   3.993   1.839  11.637  0.4656 -0.0429 -1.4775
 2439SOL    HW218951   3.969   1.743  11.756 -2.1311  1.6960 -1.3074
 2440SOL     OW18952   2.836   0.482   4.310  0.6651 -0.9536  0.0645
 2440SOL    HW118953   2.907   0.418   4.301  0.1097 -1.6564  0.7495
 2440SOL    HW218954   2.882   0.557   4.273 -3.0046  0.4467 -1.6608
 2441SOL     OW18955   0.180   3.748  15.660 -0.2233  0.6124  0.8359
 2441SOL    HW118956   0.174   3.702  15.576 -0.9169  0.1190  1.1594
 2441SOL    HW218957   0.274   3.762  15.674  0.0816 -0.8806  0.2634
 2442SOL     OW18958   1.301   1.700  11.870  0.0554  0.2898  0.3256
 2442SOL    HW118959   1.391   1.671  11.884  0.2528  0.5094 -0.5131
 2442SOL    HW218960   1.309   1.778  11.815  0.4220  0.3011  0.3977
 2443SOL     OW18961   1.981   3.342   3.114 -0.2046  0.1723  0.5792
 2443SOL    HW118962   1.963   3.432   3.142 -0.4269  0.2046  0.3314
 2443SOL    HW218963   1.897   3.296   3.112  0.5208 -1.1951  1.4116
 2444SOL     OW18964   2.153   0.267   8.156 -0.3632 -0.4323  0.1641
 2444SOL    HW118965   2.080   0.325   8.135 -0.0178  1.1961  3.4317
 2444SOL    HW218966   2.217   0.333   8.183  1.4948 -1.5365 -1.5431
 2445SOL     OW18967   4.098   1.659   5.266  0.2221 -0.3368  0.0344
 2445SOL    HW118968   4.121   1.678   5.175 -1.7187 -0.6422 -0.5163
 2445SOL    HW218969   4.138   1.727   5.320  1.1569 -0.4366 -0.5380
 2446SOL     OW18970   3.747   3.022   3.437 -0.6490  0.4998  0.0086
 2446SOL    HW118971   3.724   3.112   3.417 -0.4460  0.7646  0.9804
 2446SOL    HW218972   3.841   3.023   3.419 -0.8297 -0.6576 -0.9782
 2447SOL     OW18973   3.371   3.690  16.538 -0.2638 -0.1448  0.0436
 2447SOL    HW118974   3.414   3.737  16.610  0.0359  0.9793 -0.8484
 2447SOL    HW218975   3.283   3.728  16.538  0.1570  0.8574  0.8485
 2448SOL     OW18976   2.171   1.920   2.132  0.2539 -0.0796 -0.1046
 2448SOL    HW118977   2.168   1.917   2.227  1.3288  0.1186 -0.0699
 2448SOL    HW218978   2.179   2.014   2.122  0.1569 -0.0923 -0.3168
 2449SOL     OW18979   1.572   4.119   7.558 -0.2676 -0.5055  0.3812
 2449SOL    HW118980   1.519   4.173   7.499  1.0696 -1.3636 -1.6271
 2449SOL    HW218981   1.653   4.169   7.558  0.8977 -2.3711  1.1082
 2450SOL     OW18982   0.278   2.081   5.590 -0.3928  0.5601  0.1748
 2450SOL    HW118983   0.251   2.008   5.533 -2.7794  0.9338  0.7961
 2450SOL    HW218984   0.251   2.163   5.548 -1.0273 -0.1536 -0.8248
 2451SOL     OW18985   4.479   4.554   8.202  0.8245  0.3061 -0.5635
 2451SOL    HW118986   4.414   4.548   8.132 -1.0394  0.0742  1.1837
 2451SOL    HW218987   4.563   4.548   8.157  0.5861  0.1816 -0.9936
 2452SOL     OW18988   2.834   3.350  15.416 -0.5625  0.0065  0.0629
 2452SOL    HW118989   2.889   3.383  15.488  0.6084 -1.8618  0.0122
 2452SOL    HW218990   2.821   3.426  15.359 -1.5660 -0.1335  0.1044
 2453SOL     OW18991   3.846   1.629   6.979 -0.0506  0.0881 -0.1981
 2453SOL    HW118992   3.828   1.573   7.056 -0.7414 -0.1700 -0.5453
 2453SOL    HW218993   3.916   1.576   6.940 -0.4880  0.0916 -0.9654
 2454SOL     OW18994   2.734   0.639   1.967  0.0524  0.3089 -0.1755
 2454SOL    HW118995   2.686   0.699   2.023  1.2368  2.7292 -1.7253
 2454SOL    HW218996   2.814   0.629   2.019  0.2544 -1.2905 -0.7660
 2455SOL     OW18997   3.893   3.966  12.511  0.1201  0.1983  0.1472
 2455SOL    HW118998   3.959   3.919  12.459 -0.5080 -0.8807  0.3356
 2455SOL    HW218999   3.950   4.018  12.568  1.5696 -1.4756  0.2376
 2456SOL     OW19000   4.052   2.521   4.127 -0.0066 -0.4084 -0.5839
 2456SOL    HW119001   3.983   2.586   4.113  1.7263  1.3216 -1.2210
 2456SOL    HW219002   4.026   2.448   4.072 -1.5833 -0.5756  0.3641
 2457SOL     OW19003   3.673   0.687   3.833  0.2462  0.0026 -0.1923
 2457SOL    HW119004   3.675   0.682   3.928  1.4136 -1.5725 -0.2939
 2457SOL    HW219005   3.756   0.644   3.809  0.3424 -0.6628  1.3656
 2458SOL     OW19006   0.337   2.901   3.480 -0.4719  0.2622  0.1551
 2458SOL    HW119007   0.255   2.918   3.526 -1.5663 -4.4787  0.0220
 2458SOL    HW219008   0.353   2.807   3.491  1.8581  0.6806  0.2343
 2459SOL     OW19009   3.670   1.670   3.848  0.4038 -0.4257  0.1543
 2459SOL    HW119010   3.765   1.668   3.832  0.2303  4.0088 -1.2608
 2459SOL    HW219011   3.667   1.614   3.925  0.0200 -0.6191  0.0013
 2460SOL     OW19012   3.922   0.124   4.299  0.2594 -0.2423  0.7587
 2460SOL    HW119013   3.958   0.052   4.248  0.9105  1.4434 -1.1722
 2460SOL    HW219014   3.861   0.164   4.238 -0.0015 -0.7613  0.6836
 2461SOL     OW19015   3.010   3.430  12.347 -0.4074 -0.4419  0.1221
 2461SOL    HW119016   3.095   3.468  12.370  0.4079 -1.4515 -1.1969
 2461SOL    HW219017   2.993   3.380  12.427 -2.8130  0.7813  0.3711
 2462SOL     OW19018   0.282   3.350  12.006 -0.0460  0.2370  0.1447
 2462SOL    HW119019   0.199   3.312  11.978  0.2186  0.3478 -0.7856
 2462SOL    HW219020   0.282   3.435  11.961 -2.5527  0.7670  1.1679
 2463SOL     OW19021   4.062   1.655   1.059 -0.2720 -0.6874  0.4624
 2463SOL    HW119022   4.089   1.678   0.970  1.8620 -1.0403  1.0094
 2463SOL    HW219023   3.995   1.722   1.074 -0.9492 -1.0007 -1.2938
 2464SOL     OW19024   3.566   0.594   5.366  0.0461 -0.3833  0.0622
 2464SOL    HW119025   3.548   0.513   5.413 -1.4112 -0.0947 -0.0097
 2464SOL    HW219026   3.660   0.600   5.387 -0.1495 -0.4476  0.9317
 2465SOL     OW19027   0.354   1.147   6.826  0.3953 -0.1174  0.1958
 2465SOL    HW119028   0.311   1.166   6.742 -0.2340  0.2171  0.5917
 2465SOL    HW219029   0.336   1.224   6.880 -0.0455  0.4451 -0.7444
 2466SOL     OW19030   2.594   4.195   4.362  0.6705 -0.5720 -0.8885
 2466SOL    HW119031   2.592   4.118   4.418  3.3832  0.1032  0.1396
 2466SOL    HW219032   2.626   4.267   4.416 -2.2580 -1.2584  1.7565
 2467SOL     OW19033   3.618   0.892   2.693 -0.2155 -0.3968 -0.3605
 2467SOL    HW119034   3.631   0.839   2.614 -0.2702  0.8721 -1.2152
 2467SOL    HW219035   3.685   0.867   2.757 -0.8215  1.6446  1.0801
 2468SOL     OW19036   2.042   2.602   8.694  0.2144 -0.2199  0.5510
 2468SOL    HW119037   2.024   2.536   8.761  1.9145  2.6699  3.8315
 2468SOL    HW219038   2.025   2.568   8.606  1.6155  0.1602  0.1426
 2469SOL     OW19039   2.362   3.344  13.914  0.0307  0.0217  0.5684
 2469SOL    HW119040   2.296   3.354  13.983 -1.3420  2.0949 -1.0798
 2469SOL    HW219041   2.328   3.406  13.850 -0.5394 -1.9723 -1.0822
 2470SOL     OW19042   4.375   0.366   4.386 -0.1531 -0.7595  0.1064
 2470SOL    HW119043   4.438   0.380   4.457  0.7747 -1.5245 -0.5561
 2470SOL    HW219044   4.435   0.375   4.312 -0.5021 -0.7348 -0.1698
 2471SOL     OW19045   3.036   4.588   2.189 -0.2194 -0.5070 -0.6474
 2471SOL    HW119046   3.128   4.565   2.179  0.2787  0.0953  2.3237
 2471SOL    HW219047   3.012   4.642   2.114  2.6392  1.9417  0.2073
 2472SOL     OW19048   3.125   2.933   1.987 -1.3434  0.0382  0.4550
 2472SOL    HW119049   3.183   2.859   2.002  1.0987  1.6862 -0.9817
 2472SOL    HW219050   3.081   2.948   2.071  0.7353  0.4395  1.4655
 2473SOL     OW19051   1.066   0.376   8.589 -0.3348  0.0744  0.2894
 2473SOL    HW119052   1.048   0.462   8.627 -1.3059  1.0697 -2.4678
 2473SOL    HW219053   0.997   0.381   8.523  1.6244 -0.0700 -1.7637
 2474SOL     OW19054   4.705   2.651  16.149 -0.6720  0.3387  0.4790
 2474SOL    HW119055   0.047   2.704  16.137  1.4782 -2.6957  1.0307
 2474SOL    HW219056   4.717   2.602  16.068 -1.0838 -1.5613  1.5663
 2475SOL     OW19057   1.896   1.928  13.048 -0.0221 -0.3164  0.1658
 2475SOL    HW119058   1.899   1.879  12.966  1.5146 -2.0141  1.2315
 2475SOL    HW219059   1.988   1.952  13.063 -0.2603  0.6077  0.1731
 2476SOL     OW19060   1.198   1.309   3.102  0.0668  0.1217 -0.0637
 2476SOL    HW119061   1.197   1.358   3.020 -2.7362  0.3433  0.1282
 2476SOL    HW219062   1.184   1.217   3.078 -2.2822 -0.1303  2.2641
 2477SOL     OW19063   3.178   0.731   4.534  0.5136 -0.2534 -0.0631
 2477SOL    HW119064   3.128   0.711   4.455 -0.3698  1.4747  0.0563
 2477SOL    HW219065   3.170   0.656   4.593 -0.3227  0.4466  0.7310
 2478SOL     OW19066   2.523   4.317   4.127 -0.3799  0.3963 -0.4296
 2478SOL    HW119067   2.544   4.275   4.211 -1.1875 -0.3075 -0.5799
 2478SOL    HW219068   2.428   4.304   4.115 -0.5786 -0.0489  1.4573
 2479SOL     OW19069   0.072   4.029   8.683 -0.1773  0.6456  0.3739
 2479SOL    HW119070   0.032   4.010   8.598  0.4346  0.7407  0.0672
 2479SOL    HW219071   0.165   4.017   8.665 -1.0933 -2.5074 -2.3651
 2480SOL     OW19072   2.346   1.687   3.591 -0.0275 -0.2669 -0.1870
 2480SOL    HW119073   2.325   1.593   3.593  1.4665 -0.5027  3.1936
 2480SOL    HW219074   2.433   1.689   3.630  0.6659 -1.0844 -1.7037
 2481SOL     OW19075   1.982   0.420   2.807  0.2574  0.3110 -0.4208
 2481SOL    HW119076   2.032   0.392   2.731 -0.0390  0.7023 -0.7612
 2481SOL    HW219077   1.933   0.339   2.825  0.5001  0.1715 -0.3957
 2482SOL     OW19078   1.914   2.273   5.417 -0.2592  0.1480  0.1750
 2482SOL    HW119079   1.859   2.320   5.479  0.0840  0.2095  0.4340
 2482SOL    HW219080   1.882   2.309   5.334  0.9273  3.6074  1.2417
 2483SOL     OW19081   4.691   3.093   6.044 -0.4458  1.2339 -0.1076
 2483SOL    HW119082   0.000   3.166   6.086 -0.0300  1.1400 -0.4026
 2483SOL    HW219083   4.601   3.124   6.036 -0.2954  1.4921 -0.8372
 2484SOL     OW19084   4.321   1.779   2.803 -0.1135  0.2756  0.0574
 2484SOL    HW119085   4.252   1.750   2.744  0.3910 -0.4487 -0.1798
 2484SOL    HW219086   4.290   1.743   2.887  0.0316 -0.0717 -0.0398
 2485SOL     OW19087   1.605   1.702   0.456  0.3305 -0.3100  0.2955
 2485SOL    HW119088   1.623   1.630   0.516  2.3263 -0.4273 -0.4397
 2485SOL    HW219089   1.509   1.701   0.457  0.3502 -3.7317 -0.3697
 2486SOL     OW19090   2.358   2.935  11.351  0.1241 -0.0976  0.1594
 2486SOL    HW119091   2.412   2.885  11.413  2.2446  0.5431 -1.1741
 2486SOL    HW219092   2.291   2.867  11.341  1.6689 -1.2020 -2.5023
 2487SOL     OW19093   0.343   1.062   3.414  0.0086 -0.3661  0.3649
 2487SOL    HW119094   0.252   1.033   3.421  1.1540 -4.0993  0.2287
 2487SOL    HW219095   0.381   1.005   3.347 -0.3247 -0.0330 -0.0970
 2488SOL     OW19096   1.395   0.750   7.657  0.2804  0.2490 -0.5048
 2488SOL    HW119097   1.384   0.707   7.572  0.6260 -0.9590  0.0560
 2488SOL    HW219098   1.490   0.755   7.672  0.2100  1.1277 -0.3723
 2489SOL     OW19099   4.449   0.956  14.282 -0.0562  0.2670 -0.5455
 2489SOL    HW119100   4.516   0.921  14.223  1.0579 -0.3369  1.0705
 2489SOL    HW219101   4.375   0.932  14.227  1.1032 -0.5478 -1.7353
 2490SOL     OW19102   2.382   0.322  16.897 -0.0475  0.3654 -0.6913
 2490SOL    HW119103   2.381   0.277  16.981  4.5217  1.0337 -0.2925
 2490SOL    HW219104   2.288   0.342  16.895 -0.0428  0.6486  2.6544
 2491SOL     OW19105   3.661   1.726   2.257 -0.1289  0.0398  0.4442
 2491SOL    HW119106   3.609   1.728   2.177  0.1646  0.2361  0.2590
 2491SOL    HW219107   3.637   1.640   2.291 -0.4062 -0.0418  0.0527
 2492SOL     OW19108   1.458   2.204  10.872  0.3527 -0.1276  0.0023
 2492SOL    HW119109   1.374   2.172  10.840 -0.5547  0.7221  1.5159
 2492SOL    HW219110   1.453   2.296  10.847  0.9105 -0.0898  0.0321
 2493SOL     OW19111   2.692   1.824   9.168 -0.8267  0.4069 -0.5470
 2493SOL    HW119112   2.640   1.902   9.189  3.1119  2.6258  0.8356
 2493SOL    HW219113   2.669   1.827   9.075 -1.5507 -1.4811 -0.4309
 2494SOL     OW19114   1.587   0.440  16.999 -0.1888  0.2525 -0.2462
 2494SOL    HW119115   1.586   0.459  17.093  0.0034 -0.1160 -0.1719
 2494SOL    HW219116   1.525   0.506  16.967  0.3926  0.3533 -1.1919
 2495SOL     OW19117   3.883   0.477   6.040  0.3016 -0.6408  0.1281
 2495SOL    HW119118   3.954   0.489   5.977  1.5474  0.2907  1.6872
 2495SOL    HW219119   3.800   0.460   5.996  0.0299 -0.4465  0.5671
 2496SOL     OW19120   1.385   4.024   3.818  0.1642 -0.4770 -0.3042
 2496SOL    HW119121   1.330   3.983   3.751 -1.1057 -0.0016  0.4481
 2496SOL    HW219122   1.378   4.115   3.791 -0.8749 -0.0439  1.4477
 2497SOL     OW19123   2.039   4.067   4.669 -0.1954  0.0307 -0.0163
 2497SOL    HW119124   2.103   4.000   4.694  0.1311  0.4736  0.3398
 2497SOL    HW219125   2.090   4.145   4.687  0.1598  0.1508 -1.5526
 2498SOL     OW19126   3.695   3.608  16.376  0.0357 -0.2454 -0.5318
 2498SOL    HW119127   3.752   3.678  16.344 -0.5070  0.6701  0.4772
 2498SOL    HW219128   3.664   3.567  16.295  1.5362  0.8050 -1.6312
 2499SOL     OW19129   3.603   4.496   5.053 -0.2805 -0.6875  1.0072
 2499SOL    HW119130   3.606   4.592   5.060 -0.2730 -0.9636  4.5403
 2499SOL    HW219131   3.695   4.472   5.066  0.3203  0.7422 -0.4359
 2500SOL     OW19132   0.508   3.888  13.756 -0.6672  0.0911 -0.9075
 2500SOL    HW119133   0.446   3.872  13.827  0.1166 -1.8891 -0.6639
 2500SOL    HW219134   0.552   3.961  13.800 -0.0044 -1.2446  0.6174
 2501SOL     OW19135   2.891   0.235   1.661  0.0740 -0.2828  0.2857
 2501SOL    HW119136   2.892   0.315   1.713  0.4299  1.0780 -1.8452
 2501SOL    HW219137   2.811   0.187   1.686  0.4763 -1.3235 -0.3854
 2502SOL     OW19138   4.057   2.109   1.358 -0.1978 -0.0109 -0.1810
 2502SOL    HW119139   3.970   2.144   1.340 -0.6750 -1.3803 -0.6103
 2502SOL    HW219140   4.040   2.020   1.389  0.1567 -0.3145 -0.8592
 2503SOL     OW19141   3.988   3.655   2.253 -0.1169  0.1341  0.2799
 2503SOL    HW119142   3.958   3.604   2.329 -1.2418 -2.3085 -1.7873
 2503SOL    HW219143   4.043   3.722   2.292 -2.0326  1.4066  0.8089
 2504SOL     OW19144   3.288   1.029   1.622  0.9735 -0.0311 -0.2240
 2504SOL    HW119145   3.212   1.087   1.624  0.6917 -0.3685 -1.5592
 2504SOL    HW219146   3.290   1.018   1.527  0.7312 -1.3460 -0.0809
 2505SOL     OW19147   1.497   3.622   9.152  0.0153 -0.0031 -0.6310
 2505SOL    HW119148   1.544   3.574   9.084 -2.7918 -1.9533 -1.1774
 2505SOL    HW219149   1.426   3.563   9.176 -1.5176  2.3938  0.7840
 2506SOL     OW19150   2.307   3.084   7.790  0.1817 -0.2136  0.1376
 2506SOL    HW119151   2.242   3.020   7.821 -1.0013  1.4274  1.0883
 2506SOL    HW219152   2.262   3.167   7.807 -0.3134 -0.0415 -1.9976
 2507SOL     OW19153   2.550   3.316   4.508  0.2212 -0.1291 -0.6341
 2507SOL    HW119154   2.574   3.396   4.461  1.2625 -0.3289 -0.4299
 2507SOL    HW219155   2.480   3.292   4.447  0.7622 -1.6436 -0.6464
 2508SOL     OW19156   1.733   1.691  15.391  0.5545  0.2225 -0.0161
 2508SOL    HW119157   1.695   1.752  15.455  0.4401  0.7556 -0.6008
 2508SOL    HW219158   1.662   1.657  15.337  1.1393 -2.1121  0.7122
 2509SOL     OW19159   3.590   2.512  11.459  0.0224 -0.2195  0.1528
 2509SOL    HW119160   3.641   2.588  11.432 -1.6528  0.0687 -2.2090
 2509SOL    HW219161   3.516   2.562  11.494 -0.8513 -0.6310 -1.1282
 2510SOL     OW19162   0.305   2.505   5.278 -0.0584  0.2545  0.2616
 2510SOL    HW119163   0.400   2.514   5.281 -0.0037 -0.8980  2.4006
 2510SOL    HW219164   0.262   2.589   5.295 -0.3715 -0.4202  2.9276
 2511SOL     OW19165   3.495   3.421   8.287 -0.0344  0.3828 -0.3298
 2511SOL    HW119166   3.483   3.349   8.225  0.7416 -0.5540  0.6014
 2511SOL    HW219167   3.499   3.363   8.364  0.2725  1.0013  0.1202
 2512SOL     OW19168   3.392   0.608   5.139  0.5048  0.6379  0.0650
 2512SOL    HW119169   3.368   0.558   5.061 -0.9827  1.8743 -0.2552
 2512SOL    HW219170   3.472   0.564   5.170  0.9374  1.9641  0.8264
 2513SOL     OW19171   1.803   4.054   3.522  0.7375 -0.0091  0.5050
 2513SOL    HW119172   1.834   4.119   3.585 -0.2328 -0.5905  1.6062
 2513SOL    HW219173   1.817   3.972   3.569 -0.2042 -0.4281  0.0621
 2514SOL     OW19174   1.264   1.105   6.475  0.1067  0.2100  0.3136
 2514SOL    HW119175   1.305   1.189   6.495  0.9570 -0.7884  2.6908
 2514SOL    HW219176   1.173   1.134   6.469 -0.4524 -1.2972  1.8312
 2515SOL     OW19177   0.539   2.624   9.181 -0.5081  0.2098 -0.0541
 2515SOL    HW119178   0.450   2.659   9.172 -0.1097  0.6659 -2.2363
 2515SOL    HW219179   0.523   2.565   9.254 -1.0626 -1.4544 -1.5062
 2516SOL     OW19180   4.631   3.202   7.523 -0.0525  0.0394 -0.0466
 2516SOL    HW119181   4.698   3.220   7.589  0.5395 -3.4762  0.3491
 2516SOL    HW219182   4.688   3.201   7.446 -1.4410  0.6152 -1.0958
 2517SOL     OW19183   3.739   1.840   7.603  0.2665  0.1652 -0.2709
 2517SOL    HW119184   3.730   1.753   7.640 -0.0484  1.2950  2.3199
 2517SOL    HW219185   3.790   1.885   7.671 -1.0520  2.0523 -0.5202
 2518SOL     OW19186   0.276   1.810   5.922  0.1436  0.1514  0.2754
 2518SOL    HW119187   0.238   1.736   5.874 -0.5237 -0.3268  1.5320
 2518SOL    HW219188   0.221   1.811   6.001 -3.5514  1.4463 -2.3151
 2519SOL     OW19189   4.439   4.092  12.795  0.0697  0.6204  0.1503
 2519SOL    HW119190   4.507   4.145  12.753 -0.2988  0.2152 -0.9706
 2519SOL    HW219191   4.440   4.005  12.756  0.6920  0.8533 -0.3614
 2520SOL     OW19192   4.184   1.311   2.927 -0.2026  0.1486 -0.4328
 2520SOL    HW119193   4.221   1.299   3.014 -1.3746  1.2551  0.2037
 2520SOL    HW219194   4.252   1.284   2.864  0.3279 -1.2476  0.7353
 2521SOL     OW19195   2.700   4.613   2.662  0.4386  0.6137  0.1799
 2521SOL    HW119196   2.659   4.696   2.686 -1.4933 -0.5337  0.8105
 2521SOL    HW219197   2.746   4.595   2.744 -0.2779 -4.3014 -0.5366
 2522SOL     OW19198   4.320   4.534   2.149  0.7001 -0.1718  0.3306
 2522SOL    HW119199   4.285   4.555   2.236 -2.3318 -1.7567 -0.5065
 2522SOL    HW219200   4.349   4.444   2.163 -0.7192 -0.8213 -0.9188
 2523SOL     OW19201   4.494   3.529   6.304  0.1476 -0.3779  0.2897
 2523SOL    HW119202   4.445   3.485   6.234 -1.6197 -0.4012  1.5404
 2523SOL    HW219203   4.497   3.622   6.280  0.8154 -0.5875 -0.4239
 2524SOL     OW19204   1.904   2.663  15.402 -0.0596 -0.4348 -0.2497
 2524SOL    HW119205   1.954   2.711  15.468  1.3904 -1.2797 -0.7356
 2524SOL    HW219206   1.822   2.663  15.451  0.7479  1.2738  1.0810
 2525SOL     OW19207   1.219   2.132   0.590  0.0884  0.0128 -0.4615
 2525SOL    HW119208   1.289   2.073   0.562  0.2181 -0.8278  1.5890
 2525SOL    HW219209   1.171   2.071   0.646 -0.8110  2.3320  1.2945
 2526SOL     OW19210   1.705   4.099   2.728 -0.1530 -0.2218  0.2951
 2526SOL    HW119211   1.798   4.084   2.709  0.2071  1.6726  0.6217
 2526SOL    HW219212   1.672   4.092   2.638  1.2058 -0.3303 -0.2067
 2527SOL     OW19213   0.456   1.120  11.012  0.5363  0.1650  0.4095
 2527SOL    HW119214   0.477   1.027  11.020 -0.2941 -0.1585 -1.3059
 2527SOL    HW219215   0.529   1.165  11.054  2.5559 -2.2401 -0.5830
 2528SOL     OW19216   0.310   2.666  10.911  0.9259  0.4961  0.5219
 2528SOL    HW119217   0.374   2.686  10.979  1.7647  2.0494 -0.7301
 2528SOL    HW219218   0.270   2.580  10.926  0.1641  1.0312  1.5962
 2529SOL     OW19219   0.240   2.670   1.175  0.2604 -0.6215  0.0731
 2529SOL    HW119220   0.269   2.691   1.086 -2.5894  1.5793 -0.3596
 2529SOL    HW219221   0.249   2.575   1.169  0.8055 -0.6182  0.9487
 2530SOL     OW19222   0.217   0.439   8.805 -0.4793  0.6426  0.7563
 2530SOL    HW119223   0.140   0.386   8.783  0.4945 -0.0381 -1.0037
 2530SOL    HW219224   0.287   0.374   8.804 -0.3544  0.8017 -0.3053
 2531SOL     OW19225   0.875   2.996   9.026 -0.1804 -0.1551  0.1935
 2531SOL    HW119226   0.847   2.923   9.081 -0.8530 -1.5491 -1.9808
 2531SOL    HW219227   0.821   3.071   9.051  0.0944  0.0503  0.1827
 2532SOL     OW19228   1.883   1.057  13.131 -0.4883 -0.3427  1.0413
 2532SOL    HW119229   1.856   1.147  13.144  1.0860  0.1201  1.1449
 2532SOL    HW219230   1.807   1.009  13.165  1.5103 -2.6068  2.3104
 2533SOL     OW19231   1.303   1.862  12.556  0.2674 -0.0231  0.0284
 2533SOL    HW119232   1.223   1.902  12.591  0.4600 -0.1784  0.6511
 2533SOL    HW219233   1.356   1.858  12.636  1.0810 -1.1203 -0.5680
 2534SOL     OW19234   4.051   2.764   9.085 -0.4356 -0.4028  0.0745
 2534SOL    HW119235   3.979   2.715   9.047 -0.4489  0.8595 -1.5397
 2534SOL    HW219236   4.054   2.714   9.166 -2.0638 -1.4415 -0.5152
 2535SOL     OW19237   3.245   3.616   8.186  0.1636 -0.1206 -0.3287
 2535SOL    HW119238   3.219   3.678   8.254  0.4282 -1.5858  1.1113
 2535SOL    HW219239   3.324   3.579   8.224 -0.2921  2.0534  2.7092
 2536SOL     OW19240   2.679   0.121  11.006 -0.3652  0.0591  0.1152
 2536SOL    HW119241   2.745   0.143  11.072 -0.3007  0.3401 -0.0420
 2536SOL    HW219242   2.607   0.103  11.066 -1.8647  0.6474 -1.5220
 2537SOL     OW19243   3.963   1.264   8.255 -0.3216  0.9579 -0.2332
 2537SOL    HW119244   3.882   1.253   8.305  0.8049 -0.5734  1.2515
 2537SOL    HW219245   4.027   1.209   8.300 -1.2635  0.8936  1.0649
 2538SOL     OW19246   4.421   3.510   9.708  0.1563  0.0389  0.4598
 2538SOL    HW119247   4.477   3.436   9.685 -1.0703 -1.8061  3.3649
 2538SOL    HW219248   4.435   3.577   9.642 -1.0509  0.6339  0.7980
 2539SOL     OW19249   4.586   3.849   6.541  0.4994 -0.3643 -0.1881
 2539SOL    HW119250   4.588   3.925   6.599  1.5106  0.5451 -1.4272
 2539SOL    HW219251   4.495   3.820   6.537 -0.1823  1.7947 -0.3479
 2540SOL     OW19252   0.268   4.046   7.548 -0.4675 -0.2088 -0.1351
 2540SOL    HW119253   0.227   4.031   7.462 -0.2393  0.7943 -0.4196
 2540SOL    HW219254   0.290   4.139   7.545 -1.2278  0.0258  1.6794
 2541SOL     OW19255   3.922   3.626  11.581 -0.0215  0.6937  0.2395
 2541SOL    HW119256   3.991   3.669  11.632 -0.1537 -0.8187  1.7127
 2541SOL    HW219257   3.850   3.658  11.636  0.2759 -0.2649  1.1725
 2542SOL     OW19258   3.501   4.162  16.451  0.3432 -0.4680  0.2027
 2542SOL    HW119259   3.524   4.073  16.478 -2.3818 -1.4773 -0.8560
 2542SOL    HW219260   3.547   4.171  16.368 -0.9817 -1.1132 -0.6004
 2543SOL     OW19261   2.709   4.618   2.331  0.1263  0.0950 -0.2350
 2543SOL    HW119262   2.694   4.574   2.415 -1.6750 -0.5237 -0.8888
 2543SOL    HW219263   2.780   4.681   2.346 -0.1446  0.1905  0.6756
 2544SOL     OW19264   0.164   1.671  15.798  0.2857  0.6155 -0.4531
 2544SOL    HW119265   0.104   1.619  15.744 -0.7951  0.3276  1.0479
 2544SOL    HW219266   0.181   1.744  15.738  1.1463 -0.3788 -1.4210
 2545SOL     OW19267   4.510   0.192   2.349  0.1901 -0.7230  0.2666
 2545SOL    HW119268   4.529   0.225   2.261  0.2032 -2.0220 -0.2072
 2545SOL    HW219269   4.589   0.230   2.387  0.1523  1.6295 -1.9302
 2546SOL     OW19270   0.313   4.540   2.303  0.4465  0.5815  0.1513
 2546SOL    HW119271   0.343   4.526   2.214 -3.7798 -2.1350 -0.8749
 2546SOL    HW219272   0.373   4.605   2.339 -0.5599  0.9480  1.1842
 2547SOL     OW19273   3.516   2.296   2.664  0.3098  0.1414  0.0499
 2547SOL    HW119274   3.494   2.206   2.639  2.4270 -1.2167  3.1540
 2547SOL    HW219275   3.508   2.341   2.579  2.9958  3.0903  1.3841
 2548SOL     OW19276   1.228   1.614  13.059 -1.1512  0.2904 -0.5186
 2548SOL    HW119277   1.206   1.536  13.008  2.2474 -0.1471 -1.3263
 2548SOL    HW219278   1.323   1.624  13.064 -1.1773  0.1334  0.3434
 2549SOL     OW19279   2.086   1.318   6.245 -0.1880 -0.1136 -0.2001
 2549SOL    HW119280   2.142   1.326   6.322  0.9467 -0.4916 -0.9834
 2549SOL    HW219281   2.066   1.410   6.230  1.1553  0.2847  0.4639
 2550SOL     OW19282   0.962   3.981   8.448  0.8071 -0.0401 -0.1074
 2550SOL    HW119283   0.881   3.977   8.395  1.4825 -0.5479 -1.1085
 2550SOL    HW219284   1.020   3.935   8.387 -0.2579 -1.1658 -0.2677
 2551SOL     OW19285   0.590   1.314   2.387  0.8066  0.3471 -0.0730
 2551SOL    HW119286   0.667   1.356   2.424  0.3328  1.7938 -0.6952
 2551SOL    HW219287   0.522   1.379   2.407  1.2345  0.8829 -0.3805
 2552SOL     OW19288   2.782   2.369   3.306  0.2246 -0.1976 -0.3828
 2552SOL    HW119289   2.833   2.412   3.375 -0.7752  0.5365 -0.0988
 2552SOL    HW219290   2.853   2.318   3.267  0.1040 -0.1330 -0.6863
 2553SOL     OW19291   1.138   3.350   8.178  0.0635 -0.0039 -0.1377
 2553SOL    HW119292   1.181   3.328   8.261 -1.0742 -1.9225 -0.0750
 2553SOL    HW219293   1.212   3.401   8.146  0.6719 -0.1951  0.9465
 2554SOL     OW19294   1.962   4.576   1.224  0.0754 -0.1708 -0.6297
 2554SOL    HW119295   1.891   4.639   1.210  0.6030  0.2242 -1.5043
 2554SOL    HW219296   1.916   4.501   1.187 -1.6382  0.8236 -0.5304
 2555SOL     OW19297   2.454   4.085   8.418  0.0135 -0.9605 -0.2193
 2555SOL    HW119298   2.515   4.126   8.479  0.9348  1.1083 -2.5324
 2555SOL    HW219299   2.516   4.034   8.366 -1.1867 -3.5321  0.8720
 2556SOL     OW19300   3.755   3.769   3.514  0.0375 -0.2714  0.6460
 2556SOL    HW119301   3.689   3.701   3.529 -1.2532  0.7594 -0.2600
 2556SOL    HW219302   3.832   3.718   3.538 -0.2716 -0.6885  0.7684
 2557SOL     OW19303   3.811   1.152   6.658 -0.1861  0.1704 -0.4334
 2557SOL    HW119304   3.743   1.092   6.629 -0.2044 -0.7107  1.4226
 2557SOL    HW219305   3.842   1.112   6.739  3.6199 -0.9531 -2.4474
 2558SOL     OW19306   2.367   2.499   3.805  0.2946 -0.0198 -0.0028
 2558SOL    HW119307   2.376   2.536   3.718  0.0398 -1.8655 -0.8190
 2558SOL    HW219308   2.272   2.489   3.809 -0.0749  3.8525  1.4069
 2559SOL     OW19309   4.494   1.365   6.988 -0.2651  0.2733  0.0540
 2559SOL    HW119310   4.581   1.340   7.018 -0.0936  2.1330  1.0761
 2559SOL    HW219311   4.510   1.401   6.901 -2.0065  0.9095  0.0008
 2560SOL     OW19312   0.934   3.638  15.909  0.0708  0.1950 -0.1366
 2560SOL    HW119313   0.866   3.678  15.855  1.3673  2.1879 -0.2753
 2560SOL    HW219314   0.999   3.620  15.842  0.4829  1.6089 -0.1159
 2561SOL     OW19315   4.394   3.584   4.532  0.0533 -0.7410 -0.1956
 2561SOL    HW119316   4.302   3.610   4.526  0.4205  0.0776 -2.1852
 2561SOL    HW219317   4.410   3.568   4.625  0.2438  1.1994  0.1034
 2562SOL     OW19318   3.248   0.406   1.728  0.1624 -0.1174  0.2750
 2562SOL    HW119319   3.314   0.365   1.672  0.1849  0.7105 -0.3061
 2562SOL    HW219320   3.221   0.482   1.677  0.1284 -0.7754 -0.6828
 2563SOL     OW19321   3.991   2.697   3.534  0.4605  0.4543 -0.4378
 2563SOL    HW119322   3.959   2.690   3.444  0.5534 -4.0029 -0.1308
 2563SOL    HW219323   4.031   2.783   3.539  1.6820 -0.1783  0.5118
 2564SOL     OW19324   1.073   4.282   6.140 -0.0834  0.0078 -0.1076
 2564SOL    HW119325   1.165   4.300   6.158 -0.2930  3.0707 -2.0550
 2564SOL    HW219326   1.093   4.193   6.114  0.2371  0.4588 -1.3952
 2565SOL     OW19327   2.288   3.011   3.437 -0.1861  0.7100 -0.6143
 2565SOL    HW119328   2.207   3.055   3.413 -1.0609 -1.0322 -0.9116
 2565SOL    HW219329   2.271   2.970   3.523  0.0398  2.9549  0.4937
 2566SOL     OW19330   2.681   0.715  12.814 -0.7535  0.1895 -1.0827
 2566SOL    HW119331   2.706   0.730  12.723  1.7085 -1.2077 -0.6345
 2566SOL    HW219332   2.716   0.800  12.842 -0.3030 -0.1824 -0.4946
 2567SOL     OW19333   3.164   2.757   2.672  0.4889  0.0708  0.2274
 2567SOL    HW119334   3.163   2.799   2.587 -1.6866 -1.0452 -0.3116
 2567SOL    HW219335   3.129   2.672   2.647  0.4077  0.0242  0.4902
 2568SOL     OW19336   1.953   4.682  12.838  0.1152  0.0350 -0.2373
 2568SOL    HW119337   1.859   4.664  12.834  0.3767 -1.2766 -0.5030
 2568SOL    HW219338   1.993   4.636  12.764 -0.5629  2.2986 -2.0208
 2569SOL     OW19339   3.171   0.175   8.650 -0.2261 -0.0832 -0.1329
 2569SOL    HW119340   3.198   0.206   8.737 -1.4134  3.3468 -0.9798
 2569SOL    HW219341   3.247   0.126   8.618 -0.4874 -1.0978  0.8182
 2570SOL     OW19342   2.279   0.570  14.257  0.0979  0.0780 -0.0030
 2570SOL    HW119343   2.258   0.507  14.325  2.4589 -0.4309  0.2552
 2570SOL    HW219344   2.370   0.597  14.264 -0.1092  0.2654  1.9251
 2571SOL     OW19345   0.874   1.319   9.351 -0.5297  0.1185  0.0461
 2571SOL    HW119346   0.869   1.227   9.379  0.2678  1.0244  3.2483
 2571SOL    HW219347   0.894   1.366   9.432 -3.1220  1.5664 -0.1612
 2572SOL     OW19348   3.915   3.884   3.315 -0.3563  0.1374  0.2243
 2572SOL    HW119349   3.895   3.864   3.224  0.0354  3.3528 -0.5631
 2572SOL    HW219350   3.861   3.821   3.363 -0.8056  1.1778  1.0866
 2573SOL     OW19351   3.508   1.678   5.559  0.4477 -0.3079 -0.7999
 2573SOL    HW119352   3.532   1.680   5.652 -1.0418  0.8993 -0.4348
 2573SOL    HW219353   3.542   1.593   5.531 -0.0391 -0.9331  0.4969
 2574SOL     OW19354   3.729   4.075   3.388 -0.0839 -0.4936 -0.6311
 2574SOL    HW119355   3.799   4.014   3.366  0.6896 -0.1322  0.8243
 2574SOL    HW219356   3.735   4.144   3.321  0.4086  0.4351  0.3579
 2575SOL     OW19357   3.124   0.626   0.147 -0.3602  0.1467 -0.1788
 2575SOL    HW119358   3.107   0.582   0.230  2.2484 -0.7244 -0.1049
 2575SOL    HW219359   3.173   0.558   0.101 -0.5869  0.0346 -0.2527
 2576SOL     OW19360   1.329   3.927   4.084 -0.4786 -0.0556 -0.1004
 2576SOL    HW119361   1.368   3.967   4.006 -2.1560 -2.1079 -2.0038
 2576SOL    HW219362   1.357   3.984   4.156  2.5830  0.3649 -1.6179
 2577SOL     OW19363   1.839   1.019   8.791 -0.1466  0.2167  0.1443
 2577SOL    HW119364   1.754   0.994   8.827 -1.1685  1.0553 -1.6825
 2577SOL    HW219365   1.822   1.104   8.750 -2.5500 -0.5428 -0.4344
 2578SOL     OW19366   0.060   4.695   9.343 -0.4622 -0.1150  0.4079
 2578SOL    HW119367   0.034   4.632   9.277 -0.5754  1.7071 -1.2872
 2578SOL    HW219368   0.153   4.676   9.358 -0.4014 -0.9021 -0.9731
 2579SOL     OW19369   0.563   4.592   7.184 -0.3321  0.0832 -0.7411
 2579SOL    HW119370   0.650   4.613   7.151 -0.1047 -2.8320 -2.0077
 2579SOL    HW219371   0.572   4.510   7.232  3.4014  1.5725  1.0623
 2580SOL     OW19372   2.965   3.374   0.100 -0.6655  0.3300 -0.5296
 2580SOL    HW119373   2.925   3.425   0.171 -0.9759  0.5674 -0.8731
 2580SOL    HW219374   2.936   3.285   0.123 -0.3406  0.3699  0.0380
 2581SOL     OW19375   1.760   2.062   6.127 -0.7285 -0.6169 -0.0665
 2581SOL    HW119376   1.758   2.102   6.040  1.3432 -0.7268 -0.1614
 2581SOL    HW219377   1.821   2.116   6.178 -0.7101  0.1247 -0.8700
 2582SOL     OW19378   3.053   3.477   3.462  0.1676  0.2232  0.4746
 2582SOL    HW119379   3.066   3.386   3.436  0.6643  0.3739  0.1971
 2582SOL    HW219380   3.006   3.512   3.387  1.4004  0.1843 -0.3109
 2583SOL     OW19381   0.492   2.252  17.130 -0.4913 -0.6933  0.0887
 2583SOL    HW119382   0.557   2.320  17.147 -1.7256  0.0188  1.9905
 2583SOL    HW219383   0.549   2.174  17.133  0.3374 -0.1004 -0.2022
 2584SOL     OW19384   1.471   0.721   2.099 -0.0006 -0.2412  0.4567
 2584SOL    HW119385   1.558   0.687   2.120 -0.4852 -0.7533  1.6555
 2584SOL    HW219386   1.440   0.680   2.018  0.9392 -1.5368  0.7460
 2585SOL     OW19387   1.712   1.950   3.507 -0.0866  0.9733  0.4191
 2585SOL    HW119388   1.788   1.913   3.462 -1.8848  0.6407 -2.3092
 2585SOL    HW219389   1.662   1.870   3.519  1.1176 -0.4484 -3.9820
 2586SOL     OW19390   0.806   3.251  13.885  0.1845 -0.2911 -0.2197
 2586SOL    HW119391   0.878   3.314  13.882  0.6914 -0.8582  0.0362
 2586SOL    HW219392   0.753   3.292  13.954  1.3462  0.6376  0.1150
 2587SOL     OW19393   2.042   4.246   4.964  0.8421  0.1596  0.6676
 2587SOL    HW119394   2.101   4.183   5.006 -0.8778 -1.1489  1.1566
 2587SOL    HW219395   2.089   4.262   4.882 -1.5799  1.0237 -0.5537
 2588SOL     OW19396   2.521   2.312  16.872 -0.0619  0.2822 -0.1279
 2588SOL    HW119397   2.556   2.359  16.948  0.1528 -0.6764  0.3537
 2588SOL    HW219398   2.468   2.385  16.839 -1.6475 -0.2658  1.2447
 2589SOL     OW19399   1.877   3.140   6.940 -0.5020  0.5027 -0.3821
 2589SOL    HW119400   1.950   3.201   6.928 -1.0102  1.1626 -0.0391
 2589SOL    HW219401   1.902   3.094   7.020 -0.1180 -0.1564 -0.8675
 2590SOL     OW19402   2.429   2.332   9.060  0.4333  0.0252  0.2816
 2590SOL    HW119403   2.383   2.408   9.024 -2.4185 -2.8959 -2.1949
 2590SOL    HW219404   2.365   2.316   9.129 -0.8286  2.0773 -0.4255
 2591SOL     OW19405   0.796   4.665   9.803 -0.0459  0.5300 -0.0633
 2591SOL    HW119406   0.788   4.730   9.733 -0.5823  0.0973 -0.4090
 2591SOL    HW219407   0.808   4.579   9.764  0.7784  0.3488  0.6073
 2592SOL     OW19408   3.246   1.676   5.307 -0.0717 -0.0582  0.2452
 2592SOL    HW119409   3.250   1.582   5.324 -0.7242  0.0194  0.7818
 2592SOL    HW219410   3.221   1.709   5.393 -2.0410  0.7446 -0.6264
 2593SOL     OW19411   3.019   3.642   3.220  0.1851 -0.1200  0.2913
 2593SOL    HW119412   2.983   3.712   3.165 -0.1225 -0.8630 -0.4406
 2593SOL    HW219413   3.074   3.596   3.157 -1.3820 -2.9812  1.0513
 2594SOL     OW19414   4.278   0.237  11.608 -0.8512  0.0409 -0.0052
 2594SOL    HW119415   4.340   0.307  11.626 -0.3555 -0.4949  0.3558
 2594SOL    HW219416   4.322   0.171  11.662 -1.2352 -2.4278 -2.6843
 2595SOL     OW19417   1.298   3.755   2.054 -0.4080  0.7381  0.4672
 2595SOL    HW119418   1.223   3.780   2.109 -1.5978 -0.0520 -0.7853
 2595SOL    HW219419   1.272   3.675   2.007 -3.9745  1.6909  0.8261
 2596SOL     OW19420   0.416   2.181  10.738  0.1056  0.0675  0.2861
 2596SOL    HW119421   0.332   2.224  10.721  0.8021  2.3697  2.6159
 2596SOL    HW219422   0.424   2.181  10.834 -3.3624 -0.6225  0.5896
 2597SOL     OW19423   2.260   1.091  11.046  0.1058  0.7506 -0.0834
 2597SOL    HW119424   2.245   1.076  10.952 -1.8641 -1.9170  0.6472
 2597SOL    HW219425   2.349   1.057  11.055 -0.4640 -0.3174  1.3936
 2598SOL     OW19426   2.077   1.745  10.018 -0.2507 -0.2618  0.2709
 2598SOL    HW119427   2.149   1.765   9.959 -0.3295 -0.3647  0.1414
 2598SOL    HW219428   2.112   1.664  10.055  1.4316  0.1074 -0.5341
 2599SOL     OW19429   3.860   3.574  13.407 -0.7406  0.1606 -0.1515
 2599SOL    HW119430   3.953   3.574  13.383 -0.8410  1.2572 -0.5654
 2599SOL    HW219431   3.827   3.622  13.331 -0.4192 -1.0158 -1.0252
 2600SOL     OW19432   1.747   4.358  10.496 -0.0662 -0.1024  0.3151
 2600SOL    HW119433   1.820   4.359  10.434 -1.2970  0.6144 -1.1368
 2600SOL    HW219434   1.772   4.274  10.535  2.1137  1.2240  1.7777
 2601SOL     OW19435   1.913   2.667   7.087 -0.3937  0.0309  0.3659
 2601SOL    HW119436   1.861   2.592   7.060 -0.9026  1.0318 -1.4250
 2601SOL    HW219437   1.920   2.658   7.182  1.0981  0.1010  0.2649
 2602SOL     OW19438   0.463   0.821  11.044 -0.3923  0.0616 -0.1703
 2602SOL    HW119439   0.497   0.807  10.955 -0.6883  0.0361 -0.2777
 2602SOL    HW219440   0.535   0.789  11.099 -0.9564 -0.9626 -0.0346
 2603SOL     OW19441   2.726   2.425   8.359  0.5418 -0.4959  0.5597
 2603SOL    HW119442   2.696   2.382   8.439 -0.3324 -1.7014 -0.4091
 2603SOL    HW219443   2.666   2.498   8.340  0.5242 -0.4832  0.6641
 2604SOL     OW19444   2.895   4.029   2.415  0.0709  0.4289 -0.3768
 2604SOL    HW119445   2.917   4.039   2.508 -0.4885  1.9779 -0.4176
 2604SOL    HW219446   2.945   3.949   2.399 -0.9643 -0.2280 -0.2737
 2605SOL     OW19447   4.236   2.486   4.517  0.3264 -0.1879 -0.1655
 2605SOL    HW119448   4.279   2.517   4.597 -1.5910 -2.7943  1.8840
 2605SOL    HW219449   4.146   2.507   4.543 -0.7922 -0.3495 -3.9717
 2606SOL     OW19450   1.853   0.545   3.315  0.0708  0.8463  0.0112
 2606SOL    HW119451   1.879   0.516   3.227 -0.2244 -0.4636  0.3554
 2606SOL    HW219452   1.937   0.535   3.359 -0.2491  1.5549  0.7713
 2607SOL     OW19453   1.841   4.195   8.138 -0.1100  0.4390 -0.0205
 2607SOL    HW119454   1.800   4.247   8.068  0.9271  0.8099 -0.3469
 2607SOL    HW219455   1.762   4.152   8.171 -1.1141  1.1680 -1.4331
 2608SOL     OW19456   3.514   1.398   0.213 -0.0227 -0.0903 -0.1210
 2608SOL    HW119457   3.585   1.412   0.151  0.4049  1.9018  0.8017
 2608SOL    HW219458   3.450   1.460   0.177  0.1242  0.8436  1.2084
 2609SOL     OW19459   2.687   2.377   6.029 -0.6033 -0.0365  0.0036
 2609SOL    HW119460   2.676   2.345   5.939 -1.0977 -0.9553  0.3968
 2609SOL    HW219461   2.776   2.410   6.013  1.0243 -3.2999  2.4271
 2610SOL     OW19462   3.670   3.647   7.681  0.3793  0.1527  0.2099
 2610SOL    HW119463   3.694   3.740   7.684 -0.7531  0.4150  1.2328
 2610SOL    HW219464   3.734   3.609   7.741 -0.0487 -0.4199  0.2968
 2611SOL     OW19465   1.287   3.316   9.444  0.7728  0.4114 -0.2224
 2611SOL    HW119466   1.274   3.396   9.495  1.2839  0.3714 -0.0342
 2611SOL    HW219467   1.350   3.270   9.499 -1.3784 -1.4397  0.6804
 2612SOL     OW19468   1.721   4.221   6.522 -0.1255 -0.4417 -0.0288
 2612SOL    HW119469   1.691   4.306   6.489  1.8841  0.2124 -0.1477
 2612SOL    HW219470   1.733   4.223   6.617 -1.9650  3.5459  0.1142
 2613SOL     OW19471   0.635   3.100   3.945 -0.1415  0.1827 -0.6155
 2613SOL    HW119472   0.582   3.037   3.896  0.3580  0.7434 -1.8732
 2613SOL    HW219473   0.645   3.060   4.031 -0.2777  1.8263  0.1758
 2614SOL     OW19474   3.018   3.485   2.263  0.2533 -0.3622 -0.7112
 2614SOL    HW119475   3.026   3.483   2.358 -0.6589 -1.3033 -0.6561
 2614SOL    HW219476   2.998   3.578   2.257  0.9703 -0.0629  1.8844
 2615SOL     OW19477   2.212   1.695   9.641 -0.3714 -0.2542  0.2194
 2615SOL    HW119478   2.116   1.693   9.631 -0.3641 -0.3203  0.1578
 2615SOL    HW219479   2.242   1.642   9.567 -3.3535 -1.1909 -0.3467
 2616SOL     OW19480   4.331   4.386   1.080  0.4320  0.0590  0.9347
 2616SOL    HW119481   4.280   4.466   1.092 -1.1750 -0.2938 -3.5286
 2616SOL    HW219482   4.319   4.371   0.987 -2.4013 -1.9736  1.6395
 2617SOL     OW19483   0.520   3.439   8.966 -0.4430  0.0740  0.2571
 2617SOL    HW119484   0.508   3.532   8.983  1.1256  0.2903  0.1908
 2617SOL    HW219485   0.474   3.403   9.042 -0.2397  0.5248  0.5900
 2618SOL     OW19486   1.839   4.567   4.797 -0.3240  0.4289 -0.4369
 2618SOL    HW119487   1.905   4.580   4.866 -0.5215 -0.0852 -0.1492
 2618SOL    HW219488   1.869   4.637   4.740  0.4937  0.2816 -0.1912
 2619SOL     OW19489   2.204   1.506   5.174  0.1074 -0.5530  0.2188
 2619SOL    HW119490   2.206   1.448   5.250 -0.4965  1.7242  1.9562
 2619SOL    HW219491   2.240   1.451   5.104  0.5735 -1.6032  1.2950
 2620SOL     OW19492   4.585   0.021   7.944 -0.4803 -0.1295 -0.4175
 2620SOL    HW119493   4.562   0.114   7.947 -0.6569 -0.1259 -2.1222
 2620SOL    HW219494   4.677   0.015   7.970 -0.4091 -2.4412 -1.2176
 2621SOL     OW19495   0.762   0.673  12.665  0.5729  0.5862 -0.6100
 2621SOL    HW119496   0.690   0.690  12.603 -1.1990 -1.1858  0.9427
 2621SOL    HW219497   0.730   0.593  12.708 -0.7832  0.7691 -1.2669
 2622SOL     OW19498   2.728   1.509   1.399  0.0090  0.1495  0.3244
 2622SOL    HW119499   2.633   1.502   1.406  0.1682 -0.1575  2.1161
 2622SOL    HW219500   2.758   1.526   1.488  1.2018  0.8076 -0.1977
 2623SOL     OW19501   3.091   3.672  13.336  0.8613 -0.5478  0.1217
 2623SOL    HW119502   3.086   3.604  13.268 -0.9173 -2.9512  2.6378
 2623SOL    HW219503   3.052   3.620  13.406  0.1992 -0.4775 -0.1977
 2624SOL     OW19504   3.153   1.586   6.591 -0.1364 -0.1029 -0.3342
 2624SOL    HW119505   3.160   1.664   6.536  0.0392 -0.2098 -0.4657
 2624SOL    HW219506   3.236   1.580   6.638 -1.3154  0.0858  1.7269
 2625SOL     OW19507   1.741   0.699   1.749  0.2919 -0.1952  0.1845
 2625SOL    HW119508   1.697   0.615   1.733 -1.4807  0.7343  0.2109
 2625SOL    HW219509   1.830   0.665   1.737 -1.1756 -3.6422 -0.9062
 2626SOL     OW19510   0.388   0.099   9.077  0.3368 -0.3368 -0.0064
 2626SOL    HW119511   0.320   0.165   9.065  2.7552  2.0102 -0.9387
 2626SOL    HW219512   0.457   0.162   9.098 -0.0585 -0.3033  1.1816
 2627SOL     OW19513   4.394   0.602   3.508  0.0988  0.4681 -0.1583
 2627SOL    HW119514   4.373   0.626   3.598 -0.1278 -0.6268  0.0806
 2627SOL    HW219515   4.489   0.589   3.518  0.3033  0.5997 -1.8638
 2628SOL     OW19516   1.364   2.890   0.521 -0.0653  0.8267  0.0739
 2628SOL    HW119517   1.359   2.985   0.511 -0.3779  0.9117  1.1385
 2628SOL    HW219518   1.350   2.856   0.432 -0.6059  2.3880 -0.4440
 2629SOL     OW19519   0.452   2.885  10.414 -0.3364  0.2768 -0.3034
 2629SOL    HW119520   0.367   2.888  10.458 -0.4591  1.3345 -0.6065
 2629SOL    HW219521   0.468   2.976  10.386 -0.6189  0.0443 -1.2287
 2630SOL     OW19522   2.021   0.323   2.182 -0.8378  0.0148  0.0045
 2630SOL    HW119523   2.022   0.402   2.127 -2.2153 -1.3295 -1.9683
 2630SOL    HW219524   2.110   0.289   2.170 -1.2955 -0.9030 -0.7553
 2631SOL     OW19525   4.050   2.998   5.154 -0.0468  0.0664  0.1290
 2631SOL    HW119526   4.048   3.094   5.158 -0.3205  0.0878 -0.4824
 2631SOL    HW219527   4.145   2.990   5.160  0.0781  1.0741 -0.4678
 2632SOL     OW19528   2.411   0.266  15.055 -0.2931  0.4370  0.2861
 2632SOL    HW119529   2.410   0.188  15.110 -3.3982  0.1256 -0.1953
 2632SOL    HW219530   2.448   0.231  14.974 -1.4890 -1.9010  0.7479
 2633SOL     OW19531   4.365   0.251   0.286 -0.6273  0.2257  0.1649
 2633SOL    HW119532   4.372   0.157   0.270 -2.7679  0.0949  0.0019
 2633SOL    HW219533   4.432   0.283   0.226 -2.0062  0.6408 -1.1367
 2634SOL     OW19534   0.680   2.703  10.152  0.2329  0.2095 -0.1798
 2634SOL    HW119535   0.750   2.638  10.159  1.8742  1.8317 -1.4893
 2634SOL    HW219536   0.719   2.770  10.095 -0.7174 -0.0429 -1.1230
 2635SOL     OW19537   0.556   4.576   7.878  0.9737 -0.0200  0.0032
 2635SOL    HW119538   0.616   4.504   7.898  0.0767 -0.1700  2.2299
 2635SOL    HW219539   0.613   4.647   7.848  0.1477  1.1413  1.1577
 2636SOL     OW19540   0.438   0.736   5.519 -0.3174  0.6733  0.1917
 2636SOL    HW119541   0.430   0.642   5.538 -0.7540  0.3309 -1.6271
 2636SOL    HW219542   0.360   0.776   5.557 -0.3343  0.4639  0.3795
 2637SOL     OW19543   0.669   4.343   4.323  0.2342 -0.2861  0.2055
 2637SOL    HW119544   0.728   4.331   4.249 -0.0936 -0.1890 -0.0739
 2637SOL    HW219545   0.696   4.268   4.376  0.9374  0.9145  1.5428
 2638SOL     OW19546   0.190   4.536   3.918  0.4525 -0.2965  0.3186
 2638SOL    HW119547   0.271   4.519   3.869  0.0479 -1.2881 -0.0021
 2638SOL    HW219548   0.145   4.452   3.906 -1.9526  0.8800  1.2003
 2639SOL     OW19549   0.350   3.146   2.596 -0.2219 -0.4351  0.0265
 2639SOL    HW119550   0.395   3.216   2.644  0.4893 -1.2701  0.5936
 2639SOL    HW219551   0.398   3.076   2.639 -1.5189 -0.3199  1.6571
 2640SOL     OW19552   0.061   2.501   6.346 -0.2039 -0.2057  0.3617
 2640SOL    HW119553   4.711   2.535   6.367  0.0089  0.8350 -0.4746
 2640SOL    HW219554   0.066   2.496   6.251  1.6532  1.3811  0.3720
 2641SOL     OW19555   3.986   3.165   5.583  0.3217  0.4444 -0.0810
 2641SOL    HW119556   4.017   3.208   5.663  1.0560  0.3416 -0.3030
 2641SOL    HW219557   3.983   3.072   5.605 -0.7159  0.0999 -1.7363
 2642SOL     OW19558   3.436   1.463   8.841  0.2218 -0.7793  0.5194
 2642SOL    HW119559   3.493   1.386   8.843  1.4305  0.0183 -3.3324
 2642SOL    HW219560   3.498   1.519   8.888 -0.1892  1.2774 -1.3854
 2643SOL     OW19561   0.492   4.536   9.447 -0.2949 -0.1737 -0.1823
 2643SOL    HW119562   0.539   4.613   9.417 -1.1821 -0.0414 -1.2164
 2643SOL    HW219563   0.409   4.576   9.472  0.5122  2.1660 -1.2751
 2644SOL     OW19564   4.692   4.478   2.688 -0.2249 -0.0683 -0.1667
 2644SOL    HW119565   0.014   4.523   2.628 -2.2975  1.5745 -0.9629
 2644SOL    HW219566   0.011   4.477   2.766 -2.3041 -1.7759  1.3216
 2645SOL     OW19567   3.638   1.717  14.978 -0.1304  0.0204 -0.0525
 2645SOL    HW119568   3.629   1.679  14.891 -1.3167 -0.5670  0.3220
 2645SOL    HW219569   3.731   1.712  15.000  0.2047  2.3377 -0.9655
 2646SOL     OW19570   3.635   4.600   8.094  0.3556  0.4762 -0.1683
 2646SOL    HW119571   3.690   4.674   8.121 -0.6930  1.5666 -1.0080
 2646SOL    HW219572   3.574   4.599   8.168 -1.1943  3.1618 -1.4108
 2647SOL     OW19573   4.631   3.928   7.830  0.3432  0.4077 -0.3615
 2647SOL    HW119574   4.672   3.918   7.916  0.4941 -0.4524 -0.5383
 2647SOL    HW219575   4.694   3.982   7.782 -0.9585 -0.7119 -3.3259
 2648SOL     OW19576   0.574   4.319   8.462  0.6592 -0.1170  0.6562
 2648SOL    HW119577   0.635   4.350   8.396  0.8233  1.5960  1.6069
 2648SOL    HW219578   0.621   4.352   8.538  0.9847 -0.7711  0.7399
 2649SOL     OW19579   0.663   1.651   4.482  0.0455 -0.2558 -0.2258
 2649SOL    HW119580   0.618   1.608   4.555  0.2596  0.4192  0.3052
 2649SOL    HW219581   0.685   1.733   4.527 -2.3525 -0.2406  0.9391
 2650SOL     OW19582   1.819   4.521   6.782  0.2511 -0.1250 -0.2361
 2650SOL    HW119583   1.895   4.579   6.774 -0.9807  1.3738 -1.1099
 2650SOL    HW219584   1.752   4.589   6.778 -0.4255 -0.8073 -0.4537
 2651SOL     OW19585   3.160   2.618   6.362  0.0015 -0.5867  0.1749
 2651SOL    HW119586   3.064   2.628   6.363 -0.0954 -1.5016  0.0265
 2651SOL    HW219587   3.182   2.650   6.275  2.1597 -3.0145 -0.1516
 2652SOL     OW19588   2.472   0.195   3.116 -0.0612 -0.5736 -0.3022
 2652SOL    HW119589   2.441   0.235   3.035 -0.4293 -0.6641 -0.2088
 2652SOL    HW219590   2.516   0.274   3.146  0.7606 -1.3548  0.5693
 2653SOL     OW19591   0.382   3.457   6.884 -0.5057 -0.0989 -0.0169
 2653SOL    HW119592   0.320   3.384   6.893 -1.6413  0.8053 -0.5118
 2653SOL    HW219593   0.460   3.402   6.879 -0.4145  0.1527 -1.2281
 2654SOL     OW19594   0.908   0.256   3.269  0.1148 -0.0314 -0.3809
 2654SOL    HW119595   0.840   0.213   3.320 -0.8872  1.9424 -0.0471
 2654SOL    HW219596   0.982   0.196   3.264 -0.4330 -0.7021 -0.4113
 2655SOL     OW19597   0.984   1.848  15.999  0.5408  0.3875 -0.1439
 2655SOL    HW119598   0.983   1.824  16.092  2.4987  1.0345  0.0405
 2655SOL    HW219599   1.024   1.931  16.024  1.9251 -1.2663  3.0090
 2656SOL     OW19600   3.967   0.317  11.650  0.1203 -0.0622  0.3126
 2656SOL    HW119601   3.998   0.249  11.590  0.4201 -0.5586  1.0379
 2656SOL    HW219602   4.030   0.318  11.721 -1.1798  4.4109  1.4208
 2657SOL     OW19603   0.776   1.989   9.244  0.4090 -0.2873 -0.0558
 2657SOL    HW119604   0.731   2.071   9.225  0.6488  0.1026  1.0640
 2657SOL    HW219605   0.787   1.943   9.161 -0.1198 -1.6584  0.6367
 2658SOL     OW19606   3.522   3.298  10.894 -0.1737 -0.3702 -0.2385
 2658SOL    HW119607   3.501   3.385  10.929  2.6591  0.4016 -0.4288
 2658SOL    HW219608   3.540   3.252  10.976  0.1237  3.1596  1.6906
 2659SOL     OW19609   0.887   4.205   9.087 -1.0235  0.2353 -0.1868
 2659SOL    HW119610   0.873   4.118   9.049 -0.8088  0.0272  0.2132
 2659SOL    HW219611   0.947   4.179   9.157 -0.4226  0.9725 -0.4350
 2660SOL     OW19612   1.593   3.216   1.990  0.2920 -0.0932 -0.2429
 2660SOL    HW119613   1.508   3.175   2.003  0.5031 -0.0341  1.3048
 2660SOL    HW219614   1.582   3.303   2.027 -0.3410  0.4525 -1.7227
 2661SOL     OW19615   3.210   2.809  10.297 -0.6517  0.2125  0.0732
 2661SOL    HW119616   3.137   2.749  10.312 -0.4383  0.1199  0.7725
 2661SOL    HW219617   3.198   2.880  10.360 -0.9637  0.2995 -0.0869
 2662SOL     OW19618   1.631   1.605   2.790  0.0144 -0.1789  0.3202
 2662SOL    HW119619   1.605   1.659   2.864  0.1725  0.3857 -0.0395
 2662SOL    HW219620   1.585   1.650   2.720 -1.4066 -1.1212  0.6403
 2663SOL     OW19621   1.124   2.332   7.789 -1.0011  0.1364 -0.0406
 2663SOL    HW119622   1.166   2.413   7.818 -1.5721 -0.0300  1.2730
 2663SOL    HW219623   1.052   2.348   7.728 -0.1825 -1.9647 -1.5685
 2664SOL     OW19624   0.781   3.944  11.565  0.3555 -0.3978 -0.3590
 2664SOL    HW119625   0.782   3.857  11.606 -3.4558 -0.1484  0.2145
 2664SOL    HW219626   0.700   3.982  11.598 -0.0625 -0.7476 -0.9868
 2665SOL     OW19627   2.367   0.593   4.529 -0.2266  0.3202 -0.1496
 2665SOL    HW119628   2.416   0.675   4.537  1.6937 -0.7290 -1.1243
 2665SOL    HW219629   2.378   0.572   4.436  1.5827  1.0820 -0.1125
 2666SOL     OW19630   0.525   0.815   4.146  0.1411 -0.1328  0.3057
 2666SOL    HW119631   0.522   0.892   4.089  0.1504 -0.2404  0.1571
 2666SOL    HW219632   0.594   0.835   4.209  0.5411 -0.3948 -0.0460
 2667SOL     OW19633   3.565   0.464  13.207  0.6188  0.2538 -0.7690
 2667SOL    HW119634   3.571   0.484  13.301  1.0689 -0.0010 -0.7429
 2667SOL    HW219635   3.477   0.426  13.200  1.1183 -0.3751 -3.6680
 2668SOL     OW19636   0.501   2.604   2.038 -0.0451  0.3650  0.1332
 2668SOL    HW119637   0.595   2.615   2.019  0.4505 -0.3056  2.2144
 2668SOL    HW219638   0.485   2.678   2.097  3.0077  1.6978 -0.6482
 2669SOL     OW19639   0.599   0.034   6.565  0.3998 -0.1879  0.0600
 2669SOL    HW119640   0.600   0.121   6.525 -0.5523 -0.5717 -0.8135
 2669SOL    HW219641   0.576   0.049   6.656 -0.8593 -0.4981 -0.1986
 2670SOL     OW19642   0.858   1.273  10.232 -0.4530  0.5607  0.2067
 2670SOL    HW119643   0.930   1.238  10.286  0.1170  0.2274 -0.7693
 2670SOL    HW219644   0.916   1.329  10.180  0.0838  0.3740  0.5896
 2671SOL     OW19645   3.255   3.635   2.032  0.5144  0.4223 -0.5311
 2671SOL    HW119646   3.273   3.542   2.024  0.8960  0.4701 -0.2284
 2671SOL    HW219647   3.223   3.630   1.942  0.6129 -2.4781 -0.3971
 2672SOL     OW19648   4.278   1.543   7.743 -0.7380  0.3577  0.2096
 2672SOL    HW119649   4.197   1.493   7.743 -0.4290 -0.1444  0.5708
 2672SOL    HW219650   4.341   1.485   7.701 -0.0006  1.0486  0.3611
 2673SOL     OW19651   3.756   1.607   7.725  0.2503  0.2535 -0.4419
 2673SOL    HW119652   3.754   1.578   7.816  1.3350  1.2278 -0.1005
 2673SOL    HW219653   3.781   1.526   7.680  1.1642 -0.4440  1.3427
 2674SOL     OW19654   3.548   4.006  12.706  0.4152  0.3005 -0.2118
 2674SOL    HW119655   3.467   3.994  12.756 -0.0821  0.8154 -0.8999
 2674SOL    HW219656   3.610   4.028  12.776 -1.3784  3.2245  0.4729
 2675SOL     OW19657   1.789   1.230   7.547 -0.0510  0.0864  0.1208
 2675SOL    HW119658   1.709   1.186   7.519  0.2352  0.7077 -1.6758
 2675SOL    HW219659   1.793   1.215   7.641  0.1872 -1.6512 -0.1669
 2676SOL     OW19660   1.256   4.517   7.798 -0.3034  0.1950 -0.3382
 2676SOL    HW119661   1.308   4.576   7.852  2.4187 -1.7632 -0.8074
 2676SOL    HW219662   1.323   4.453   7.771 -0.7556 -1.2172  1.8829
 2677SOL     OW19663   1.574   3.534   9.760  0.4798  0.1167 -0.0110
 2677SOL    HW119664   1.656   3.523   9.711 -0.0483  0.0566 -0.8827
 2677SOL    HW219665   1.519   3.579   9.696 -0.7887  0.0315  1.0184
 2678SOL     OW19666   2.929   0.783  17.046 -0.1572  0.1544  0.0861
 2678SOL    HW119667   2.882   0.705  17.073 -2.1350  0.4401 -2.4561
 2678SOL    HW219668   2.907   0.844  17.116  2.8759  0.2459  0.9422
 2679SOL     OW19669   3.734   0.153   0.157 -0.3010  0.5121 -0.0730
 2679SOL    HW119670   3.757   0.073   0.205 -0.6490  0.2559 -0.3371
 2679SOL    HW219671   3.706   0.113   0.075 -0.1596  0.3055 -0.0202
 2680SOL     OW19672   1.353   3.473   8.045  0.6949  0.4954  0.7332
 2680SOL    HW119673   1.425   3.441   7.991 -1.3030 -2.3222 -0.2267
 2680SOL    HW219674   1.352   3.560   8.005  1.1229 -0.5083 -1.4546
 2681SOL     OW19675   1.646   2.034   4.404  0.1874 -0.1014  0.0972
 2681SOL    HW119676   1.732   2.015   4.443 -1.5019 -1.0890  3.3731
 2681SOL    HW219677   1.613   1.946   4.386  0.2894 -0.0621 -0.2833
 2682SOL     OW19678   0.949   3.649  11.399 -0.0147  0.0914  0.2001
 2682SOL    HW119679   0.882   3.630  11.464  1.3108 -0.8087  1.2862
 2682SOL    HW219680   0.974   3.565  11.362 -0.0189 -0.0328  0.4838
 2683SOL     OW19681   4.122   2.448   3.329  0.0088 -0.0421 -0.6714
 2683SOL    HW119682   4.032   2.442   3.359 -0.4631  1.9387 -1.6651
 2683SOL    HW219683   4.114   2.459   3.234  1.7755  1.0200 -0.7006
 2684SOL     OW19684   4.479   4.567   2.832 -0.0674  0.5078  0.2966
 2684SOL    HW119685   4.531   4.567   2.752 -0.1819  2.0016  0.2376
 2684SOL    HW219686   4.526   4.622   2.895 -1.4687 -0.8687  2.5836
 2685SOL     OW19687   0.432   2.199   7.200 -0.0321  0.3736 -0.3706
 2685SOL    HW119688   0.451   2.154   7.117  0.7221  0.0939 -0.0453
 2685SOL    HW219689   0.520   2.230   7.222 -0.1484  1.7790 -1.8452
 2686SOL     OW19690   2.669   4.520   5.153  0.0153  0.4685 -0.4058
 2686SOL    HW119691   2.686   4.443   5.208 -0.0748 -0.6483 -1.9586
 2686SOL    HW219692   2.720   4.492   5.077  0.6682 -0.7064  0.4451
 2687SOL     OW19693   2.852   0.247   6.740  0.2359 -0.1360 -0.2428
 2687SOL    HW119694   2.818   0.332   6.713  1.7263  0.3942 -0.4691
 2687SOL    HW219695   2.832   0.241   6.833 -0.9652  0.1543 -0.4780
 2688SOL     OW19696   1.335   1.575   5.334 -0.5616  0.6045 -0.1566
 2688SOL    HW119697   1.275   1.508   5.366  0.5104  0.3111  1.2205
 2688SOL    HW219698   1.335   1.641   5.403 -1.9559  1.3783 -0.9028
 2689SOL     OW19699   3.420   0.331   6.634  0.2497 -0.0110  0.4078
 2689SOL    HW119700   3.372   0.254   6.662  1.2697 -0.0455  2.0413
 2689SOL    HW219701   3.365   0.406   6.657  0.4384  0.3436 -0.2787
 2690SOL     OW19702   4.485   1.026   4.090  0.5840  0.1653 -0.3308
 2690SOL    HW119703   4.494   1.020   4.185 -0.7726 -1.1099 -0.2735
 2690SOL    HW219704   4.482   0.932   4.072  0.4789  0.0659  0.2050
 2691SOL     OW19705   4.056   3.138   6.981  0.1865  0.0236  0.4219
 2691SOL    HW119706   4.012   3.063   6.939 -1.5473 -0.0048  2.2933
 2691SOL    HW219707   4.144   3.102   6.975  0.5807  1.6686 -4.1629
 2692SOL     OW19708   2.396   1.792   3.235  1.0068 -0.4510  0.4240
 2692SOL    HW119709   2.415   1.704   3.204  2.9247  0.2455 -0.4261
 2692SOL    HW219710   2.335   1.815   3.166  1.2299 -0.4561  0.2251
 2693SOL     OW19711   1.473   0.548   7.135  0.1632  0.1664 -0.2218
 2693SOL    HW119712   1.463   0.461   7.172 -0.8031  0.0641 -0.7225
 2693SOL    HW219713   1.391   0.556   7.085  0.1622  0.7451 -0.1357
 2694SOL     OW19714   0.922   0.725   7.766 -0.1770  0.2828 -0.2848
 2694SOL    HW119715   1.008   0.766   7.772  1.0441 -2.6149  2.0842
 2694SOL    HW219716   0.884   0.752   7.682 -0.1440 -1.0545 -0.7327
 2695SOL     OW19717   4.006   0.513   5.364 -0.4329 -0.2990  0.1595
 2695SOL    HW119718   3.923   0.499   5.409 -1.7367 -0.3668 -2.2642
 2695SOL    HW219719   4.070   0.505   5.434  0.2524  1.2045 -0.2934
 2696SOL     OW19720   0.257   4.222  10.617  0.7549  0.4999  0.3809
 2696SOL    HW119721   0.271   4.145  10.671 -1.4611  0.8880  1.4952
 2696SOL    HW219722   0.173   4.258  10.647  0.1740  0.3687 -1.0508
 2697SOL     OW19723   4.227   1.379   5.075 -0.0832  0.0809 -0.4151
 2697SOL    HW119724   4.265   1.452   5.125  1.3818 -1.2131  0.3611
 2697SOL    HW219725   4.136   1.408   5.078  0.5231  1.7083  2.0290
 2698SOL     OW19726   1.299   2.917  13.523  0.1430 -0.3484 -0.0293
 2698SOL    HW119727   1.390   2.897  13.540  0.3960  0.4053 -0.4931
 2698SOL    HW219728   1.300   3.007  13.489  0.3294 -0.3840 -0.1141
 2699SOL     OW19729   0.700   3.717  10.939 -0.1123  0.1800  0.0699
 2699SOL    HW119730   0.790   3.727  10.967  0.3337  0.3382 -1.4028
 2699SOL    HW219731   0.716   3.654  10.869  2.8917  2.8949 -1.6596
 2700SOL     OW19732   4.469   1.311   0.032  0.0322 -0.3004 -0.4894
 2700SOL    HW119733   4.517   1.244  17.729  0.4865 -0.9410  0.8408
 2700SOL    HW219734   4.382   1.302  17.740  0.8564 -1.6165 -2.0784
 2701SOL     OW19735   1.029   2.853  11.158  0.7608 -0.7372  0.8285
 2701SOL    HW119736   1.015   2.943  11.187 -1.7139 -0.2020 -2.0741
 2701SOL    HW219737   1.124   2.846  11.166  0.9010 -0.3390 -0.4249
 2702SOL     OW19738   2.088   2.895   6.585 -0.5447  0.4369  0.5737
 2702SOL    HW119739   2.011   2.918   6.638  0.7191 -1.3627  3.1998
 2702SOL    HW219740   2.046   2.855   6.509 -1.4266  1.5398  0.4830
 2703SOL     OW19741   2.450   3.928  13.115 -0.0003  0.3762 -0.0347
 2703SOL    HW119742   2.374   3.873  13.131  0.3167 -0.0708 -0.0739
 2703SOL    HW219743   2.498   3.868  13.058  0.5539  0.1052  0.7226
 2704SOL     OW19744   3.167   1.158   9.372 -0.7495  0.2453  0.1466
 2704SOL    HW119745   3.157   1.192   9.460 -1.3937  1.3090 -0.3440
 2704SOL    HW219746   3.155   1.243   9.330 -0.2598  0.5320  0.5897
 2705SOL     OW19747   1.025   2.627   1.673 -0.0968  0.2573 -0.2145
 2705SOL    HW119748   0.963   2.673   1.616  1.7473  1.9630 -0.8165
 2705SOL    HW219749   1.006   2.671   1.756 -2.2005  1.8059 -1.5128
 2706SOL     OW19750   3.305   2.681   6.107  0.2048 -0.2326  0.0934
 2706SOL    HW119751   3.325   2.772   6.084  2.2280 -0.9902 -1.2089
 2706SOL    HW219752   3.378   2.658   6.165 -1.0792 -0.8160  1.4817
 2707SOL     OW19753   3.479   1.364   8.158  0.1402  0.5259 -0.0308
 2707SOL    HW119754   3.434   1.383   8.240  2.5422 -1.8630  1.8670
 2707SOL    HW219755   3.531   1.288   8.188  0.5758 -0.3971 -3.0879
 2708SOL     OW19756   1.173   4.426   9.008  0.0472  0.1597 -0.3663
 2708SOL    HW119757   1.246   4.471   8.966  0.3627 -1.3071 -1.3857
 2708SOL    HW219758   1.098   4.478   8.979  1.0176  0.9708 -1.3931
 2709SOL     OW19759   2.852   2.317  12.030  0.3590 -0.5655 -0.4586
 2709SOL    HW119760   2.857   2.249  11.964 -0.4078 -0.9692 -0.1016
 2709SOL    HW219761   2.946   2.336  12.039  0.3388 -1.0547  0.8092
 2710SOL     OW19762   4.529   0.403   1.558  0.9234  0.3634  0.2847
 2710SOL    HW119763   4.465   0.467   1.591  0.9301  0.2787  0.4646
 2710SOL    HW219764   4.614   0.446   1.566  0.6025  0.6335  2.3280
 2711SOL     OW19765   4.057   1.127   6.343 -0.2283  0.3490 -0.2066
 2711SOL    HW119766   4.122   1.146   6.275 -0.0398 -3.0090 -0.9396
 2711SOL    HW219767   4.095   1.063   6.402  0.2426  0.0433 -0.8423
 2712SOL     OW19768   1.337   0.920   5.485  0.2952  0.4241  0.3853
 2712SOL    HW119769   1.385   0.887   5.561 -1.4101 -3.9467 -0.4666
 2712SOL    HW219770   1.405   0.959   5.430  0.2733  0.3946  0.3378
 2713SOL     OW19771   3.977   3.412   6.950  0.1571  0.6249 -0.1602
 2713SOL    HW119772   4.033   3.440   7.023 -2.2960  0.7576  1.6493
 2713SOL    HW219773   4.008   3.325   6.927 -1.3318  0.6896 -2.4053
 2714SOL     OW19774   0.663   1.304   5.834 -0.1426 -0.1931  0.1907
 2714SOL    HW119775   0.720   1.231   5.810 -0.6301 -1.2513  2.2243
 2714SOL    HW219776   0.613   1.260   5.902  1.2881 -1.4592  0.4187
 2715SOL     OW19777   0.837   0.033  10.911  0.1609 -0.3626  0.2590
 2715SOL    HW119778   0.865   0.089  10.983  1.4491  0.1287 -0.6017
 2715SOL    HW219779   0.744   0.030  10.931  0.4568 -2.5386  1.3159
 2716SOL     OW19780   2.418   1.863   6.584  0.3145  0.0017 -0.1658
 2716SOL    HW119781   2.478   1.922   6.538 -0.9729  1.0814 -0.4621
 2716SOL    HW219782   2.377   1.915   6.653 -0.6267  0.0068 -0.7304
 2717SOL     OW19783   3.041   2.355   3.797 -0.0261 -0.0927  0.5457
 2717SOL    HW119784   2.950   2.379   3.815  0.1075 -0.6976  1.9735
 2717SOL    HW219785   3.062   2.312   3.879 -2.5130 -1.1289  0.6168
 2718SOL     OW19786   1.612   2.845   5.542  0.3062 -0.2000 -0.1148
 2718SOL    HW119787   1.598   2.757   5.506 -0.6059  0.2229 -0.7870
 2718SOL    HW219788   1.531   2.889   5.516 -0.7173 -1.2316  1.2728
 2719SOL     OW19789   4.096   4.042   6.446  0.0471  0.3401  0.5343
 2719SOL    HW119790   4.021   3.984   6.460 -0.8874  1.1204 -1.2578
 2719SOL    HW219791   4.059   4.118   6.402 -0.2783 -0.5665 -0.7424
 2720SOL     OW19792   0.633   3.201  11.113  0.0934 -0.3577 -0.6610
 2720SOL    HW119793   0.621   3.296  11.121 -0.4261 -0.5799  1.2470
 2720SOL    HW219794   0.674   3.186  11.199 -2.2428  0.1195  0.5300
 2721SOL     OW19795   0.550   2.688  11.086  0.2160  0.7185 -0.9109
 2721SOL    HW119796   0.616   2.684  11.016 -0.7435  3.3514 -1.9707
 2721SOL    HW219797   0.580   2.769  11.128 -2.6848  0.8438  0.9530
 2722SOL     OW19798   3.894   4.230   2.997  0.1679  0.0344 -0.5175
 2722SOL    HW119799   3.929   4.143   3.016  0.1037 -0.2239 -1.5844
 2722SOL    HW219800   3.960   4.257   2.934  1.0348 -1.4590 -0.2559
 2723SOL     OW19801   4.588   2.550   9.161  0.2880  0.3915  0.0678
 2723SOL    HW119802   4.631   2.630   9.132 -1.9817  1.7817  0.5658
 2723SOL    HW219803   4.627   2.485   9.102  0.8276 -0.4955  1.3729
 2724SOL     OW19804   0.697   1.335   7.247 -0.0409 -0.7919 -0.8761
 2724SOL    HW119805   0.675   1.248   7.213 -3.4812  0.3769 -1.6846
 2724SOL    HW219806   0.736   1.308   7.330  0.0323 -0.6969 -0.8794
 2725SOL     OW19807   1.255   0.626   2.272 -0.2375  1.1798  0.2305
 2725SOL    HW119808   1.314   0.584   2.335 -0.2733  1.9840  0.8015
 2725SOL    HW219809   1.319   0.672   2.218  2.9618 -2.0185  1.3005
 2726SOL     OW19810   3.110   2.300   6.772  0.4234 -0.0168  0.0571
 2726SOL    HW119811   3.051   2.235   6.811 -0.2835 -0.3021 -1.4921
 2726SOL    HW219812   3.180   2.285   6.836 -0.3310 -1.2003  0.6036
 2727SOL     OW19813   1.329   1.999   7.550 -0.0983  0.0755  0.1348
 2727SOL    HW119814   1.263   2.068   7.550  0.5115  0.6735 -1.1625
 2727SOL    HW219815   1.412   2.045   7.564 -1.3041  3.0795 -2.5578
 2728SOL     OW19816   3.418   0.941  10.973 -0.4947 -0.1189  0.0138
 2728SOL    HW119817   3.334   0.986  10.981 -1.1808 -1.6827  1.8239
 2728SOL    HW219818   3.379   0.856  10.951 -1.4596 -0.2504  2.2414
 2729SOL     OW19819   4.175   4.005   8.087 -0.3948  0.4626 -0.0318
 2729SOL    HW119820   4.216   4.092   8.086  1.0921 -0.2279  1.0898
 2729SOL    HW219821   4.177   3.997   7.991  0.1439  1.1513 -0.0787
 2730SOL     OW19822   2.051   3.195   7.312  0.1140  0.2518 -0.7649
 2730SOL    HW119823   1.979   3.185   7.375  1.9912 -1.5793  1.1244
 2730SOL    HW219824   2.026   3.116   7.263 -1.2738 -0.3940  0.9778
 2731SOL     OW19825   0.590   3.593   9.836  0.1527 -0.3941  0.3361
 2731SOL    HW119826   0.526   3.613   9.767 -0.8315 -0.3228  1.2597
 2731SOL    HW219827   0.661   3.590   9.772 -0.0318 -3.6868  0.2867
 2732SOL     OW19828   1.381   1.025   3.097  0.0031 -0.0256 -0.0867
 2732SOL    HW119829   1.339   0.988   3.175  1.7733  1.1739  1.4158
 2732SOL    HW219830   1.300   1.013   3.048 -0.3791  0.4368  0.4354
 2733SOL     OW19831   2.543   1.669   6.733  0.1172  0.5845 -0.3093
 2733SOL    HW119832   2.591   1.614   6.671 -2.3937 -2.6149  0.5900
 2733SOL    HW219833   2.504   1.733   6.673  0.0555  1.8008  1.0320
 2734SOL     OW19834   3.756   2.790   0.460  0.6683 -0.8152 -0.4122
 2734SOL    HW119835   3.779   2.720   0.399  0.1348 -0.5576 -0.9197
 2734SOL    HW219836   3.731   2.863   0.404 -2.6558 -2.3311 -0.9401
 2735SOL     OW19837   3.469   4.474   4.473 -0.1867 -0.2074 -0.5034
 2735SOL    HW119838   3.416   4.510   4.401  1.5561  3.3388 -0.0223
 2735SOL    HW219839   3.541   4.538   4.479  1.1758 -1.7879 -0.1129
 2736SOL     OW19840   4.528   4.149   9.018  0.0004  0.3731  0.0294
 2736SOL    HW119841   4.462   4.102   8.966 -0.0975 -0.1717  0.6464
 2736SOL    HW219842   4.578   4.077   9.057  3.8864  2.0984 -1.7435
 2737SOL     OW19843   1.078   0.862  16.942  0.2936  0.8733  0.5259
 2737SOL    HW119844   1.052   0.928  16.878  1.9372  0.3726 -0.6483
 2737SOL    HW219845   1.164   0.835  16.910 -0.5066 -2.6435  1.2617
 2738SOL     OW19846   4.331   2.443  11.610  0.2013 -0.4763  0.5851
 2738SOL    HW119847   4.247   2.409  11.640 -1.6961  0.1558 -4.0378
 2738SOL    HW219848   4.322   2.493  11.529  0.7239  0.2159  0.9561
 2739SOL     OW19849   3.168   3.199  11.772 -0.0947 -0.5177  0.5323
 2739SOL    HW119850   3.122   3.274  11.734 -0.0023 -0.5992  0.2600
 2739SOL    HW219851   3.251   3.214  11.727 -0.5025  0.9735  0.2494
 2740SOL     OW19852   1.260   0.612   7.407  0.5203 -0.5548  0.4747
 2740SOL    HW119853   1.240   0.535   7.354 -1.6017  0.3263 -0.0391
 2740SOL    HW219854   1.350   0.634   7.382  0.3325 -0.6814 -0.3103
 2741SOL     OW19855   4.593   1.668  14.850  0.0554  0.4089  0.1443
 2741SOL    HW119856   4.661   1.664  14.783  2.3179 -0.3543  2.4876
 2741SOL    HW219857   4.508   1.668  14.806 -0.1117  0.3169  0.4680
 2742SOL     OW19858   3.403   3.426  15.601 -0.0929  0.0656  0.0500
 2742SOL    HW119859   3.414   3.332  15.586 -2.4533 -0.2089  0.1324
 2742SOL    HW219860   3.361   3.433  15.687 -0.8100  0.3021 -0.3289
 2743SOL     OW19861   0.802   2.897   7.988 -0.2673  0.3252 -0.1531
 2743SOL    HW119862   0.792   2.965   8.054  0.5768 -1.6538  2.0180
 2743SOL    HW219863   0.870   2.844   8.028  1.9099  2.4611 -0.9969
 2744SOL     OW19864   2.258   1.559   9.411 -0.6062  0.5125 -0.2042
 2744SOL    HW119865   2.330   1.607   9.369 -0.2632  1.3908  1.3827
 2744SOL    HW219866   2.189   1.552   9.344  0.6448 -4.0683 -1.0026
 2745SOL     OW19867   2.319   4.052   7.846 -0.6152  0.2364 -0.1005
 2745SOL    HW119868   2.235   4.045   7.800 -1.0308  1.0447  0.5225
 2745SOL    HW219869   2.322   4.148   7.851 -1.4058  0.1844  1.5021
 2746SOL     OW19870   1.479   1.319  10.628 -0.6321  0.0610 -0.2844
 2746SOL    HW119871   1.427   1.329  10.707  0.5044 -1.8369  0.6926
 2746SOL    HW219872   1.463   1.402  10.582  1.5319  0.0914 -0.9892
 2747SOL     OW19873   4.163   1.926   5.886  0.0203 -0.0507  0.5303
 2747SOL    HW119874   4.219   1.872   5.829  0.5773  2.5116 -1.3451
 2747SOL    HW219875   4.101   1.858   5.912 -2.4630  3.0407  2.6234
 2748SOL     OW19876   3.992   4.294   2.768  0.2533  0.2694 -0.3133
 2748SOL    HW119877   3.939   4.274   2.691 -2.8636  1.1563  1.6003
 2748SOL    HW219878   3.972   4.388   2.769 -0.7608  0.0672 -2.0446
 2749SOL     OW19879   1.037   4.122  10.248  0.0009  0.1270 -0.0841
 2749SOL    HW119880   1.006   4.087  10.165 -0.4540  0.2642  0.0258
 2749SOL    HW219881   1.060   4.211  10.221 -0.8547  0.7434  1.2135
 2750SOL     OW19882   3.675   4.165   1.997  0.3192  0.0739  0.2111
 2750SOL    HW119883   3.610   4.108   1.956  1.6551  0.1573 -2.0633
 2750SOL    HW219884   3.623   4.231   2.043 -1.2371 -0.4286 -0.8344
 2751SOL     OW19885   4.389   4.325   3.165  0.2382  0.8453  0.4663
 2751SOL    HW119886   4.468   4.375   3.188  1.9675 -1.7594  0.1080
 2751SOL    HW219887   4.325   4.369   3.221  0.4249  1.1014  0.4786
 2752SOL     OW19888   0.287   2.333   7.699  0.0572  0.4566  0.5348
 2752SOL    HW119889   0.251   2.413   7.660  0.4648  1.0106  1.2920
 2752SOL    HW219890   0.313   2.288   7.619 -1.9490 -1.7854  1.1649
 2753SOL     OW19891   4.209   1.185   8.834 -0.1332 -0.3211  0.8068
 2753SOL    HW119892   4.153   1.262   8.842  0.3237 -0.0928  1.8399
 2753SOL    HW219893   4.284   1.218   8.882  0.2059 -0.8742  0.6545
 2754SOL     OW19894   1.772   4.045   6.993  0.7372 -0.5384  0.0026
 2754SOL    HW119895   1.805   4.069   6.906 -1.4119 -2.9747 -1.4930
 2754SOL    HW219896   1.836   3.980   7.022 -1.3865 -2.9014 -0.5898
 2755SOL     OW19897   3.837   0.963   7.131 -0.3263 -0.1114 -0.0328
 2755SOL    HW119898   3.780   1.023   7.180 -0.6916 -0.0535 -0.5317
 2755SOL    HW219899   3.805   0.878   7.161  1.9918 -0.6877  0.7494
 2756SOL     OW19900   3.584   1.144   4.429  0.3049  0.1039 -0.0758
 2756SOL    HW119901   3.581   1.049   4.437 -0.2417  0.2503  1.3649
 2756SOL    HW219902   3.514   1.172   4.488 -0.9708 -0.7464 -1.1865
 2757SOL     OW19903   0.976   3.129  12.849 -0.4349  0.2517 -0.2111
 2757SOL    HW119904   1.030   3.081  12.912 -0.0955 -0.3507 -0.9552
 2757SOL    HW219905   0.890   3.120  12.890 -1.0568  1.5453 -1.2560
 2758SOL     OW19906   2.879   3.138   6.792  0.2770 -0.4487 -0.2639
 2758SOL    HW119907   2.853   3.097   6.710  0.7153 -1.5000  0.1282
 2758SOL    HW219908   2.974   3.127   6.791  0.3727  0.3879 -1.3427
 2759SOL     OW19909   3.802   0.772   6.228  0.1813  0.2009  0.1117
 2759SOL    HW119910   3.875   0.819   6.186  0.9907 -0.5601  0.6720
 2759SOL    HW219911   3.729   0.785   6.168 -0.0223 -0.5924  0.1954
 2760SOL     OW19912   3.975   0.790   3.848  0.0501 -0.0707  0.9507
 2760SOL    HW119913   3.926   0.770   3.927  1.5174 -2.0699  1.3692
 2760SOL    HW219914   4.065   0.766   3.873  1.2341  1.4567 -1.7971
 2761SOL     OW19915   3.567   4.345  11.133  0.7910  0.6402  0.3280
 2761SOL    HW119916   3.615   4.268  11.104 -1.1437 -0.1126 -0.9316
 2761SOL    HW219917   3.606   4.412  11.077  0.6835  0.7560  0.3911
 2762SOL     OW19918   1.954   4.449  16.414 -0.0643 -0.6306  0.4881
 2762SOL    HW119919   1.873   4.499  16.404 -0.3661 -0.6391  2.9241
 2762SOL    HW219920   1.911   4.365  16.429 -0.3720 -0.9538 -2.2087
 2763SOL     OW19921   3.025   3.446  16.736 -0.1392 -0.3799  0.2632
 2763SOL    HW119922   3.039   3.478  16.647  0.7083  1.0317  0.8982
 2763SOL    HW219923   2.985   3.362  16.716 -0.4616  0.0474 -0.8984
 2764SOL     OW19924   1.335   1.937   3.083  0.1132  0.5430 -0.1153
 2764SOL    HW119925   1.317   2.000   3.153 -1.2025 -0.2312  0.2432
 2764SOL    HW219926   1.355   1.994   3.008 -1.6411 -0.0558 -1.0425
 2765SOL     OW19927   1.350   2.374   8.932 -0.1733 -0.5021  0.2405
 2765SOL    HW119928   1.374   2.306   8.995  1.4365  0.2093  0.3792
 2765SOL    HW219929   1.262   2.346   8.906  0.2297  1.1655 -2.8951
 2766SOL     OW19930   0.297   3.012   0.509  0.2039 -0.2892  0.2848
 2766SOL    HW119931   0.378   3.033   0.463  0.3111  0.4134  0.7907
 2766SOL    HW219932   0.258   2.946   0.452  0.5086  0.1707 -0.4550
 2767SOL     OW19933   2.854   2.286   0.740  0.1845 -0.3442  0.2135
 2767SOL    HW119934   2.840   2.204   0.692  0.1665 -0.9552  1.2607
 2767SOL    HW219935   2.898   2.249   0.816 -0.1889 -0.3395  0.4352
 2768SOL     OW19936   2.450   3.441   9.672  0.2952 -0.0188  0.2766
 2768SOL    HW119937   2.479   3.412   9.758  2.6227 -0.1263 -0.5481
 2768SOL    HW219938   2.362   3.403   9.666  0.2596 -0.2032  2.1810
 2769SOL     OW19939   0.325   0.391  13.188 -0.0180  0.1254 -0.6847
 2769SOL    HW119940   0.318   0.429  13.100 -0.5161 -0.0945 -0.7420
 2769SOL    HW219941   0.417   0.412  13.200  0.1442 -0.5724 -0.6903
 2770SOL     OW19942   0.197   2.177   8.663 -0.3303 -0.2122 -0.7885
 2770SOL    HW119943   0.250   2.101   8.685  1.3123  1.2898  0.4841
 2770SOL    HW219944   0.209   2.239   8.735 -2.3423 -0.7135 -0.0185
 2771SOL     OW19945   1.672   1.887  10.962  0.2273  0.0221 -0.2351
 2771SOL    HW119946   1.604   1.910  11.025 -0.0478 -1.9029  0.1505
 2771SOL    HW219947   1.741   1.953  10.969  1.3964 -1.4004  1.6773
 2772SOL     OW19948   4.046   3.713   2.603 -0.2045 -0.1320 -0.5715
 2772SOL    HW119949   4.005   3.632   2.573 -0.0247 -0.8690  1.1878
 2772SOL    HW219950   4.128   3.683   2.642 -0.3878  1.1842  0.8496
 2773SOL     OW19951   3.502   0.324   1.623  0.3441  0.3326  0.2832
 2773SOL    HW119952   3.491   0.229   1.616 -1.1577  0.5367 -0.1355
 2773SOL    HW219953   3.585   0.336   1.578 -0.4821  0.7454 -1.1488
 2774SOL     OW19954   2.189   1.730   3.914  0.0742 -0.1941  0.0180
 2774SOL    HW119955   2.275   1.769   3.900  0.5968 -1.5189 -0.4716
 2774SOL    HW219956   2.152   1.802   3.965 -0.0612 -0.3972  0.2072
 2775SOL     OW19957   3.036   1.848   6.446  0.3383  0.2279  0.0787
 2775SOL    HW119958   3.001   1.936   6.457 -1.4585 -0.3772 -0.7243
 2775SOL    HW219959   2.968   1.806   6.499  0.0252 -0.8060 -1.1457
 2776SOL     OW19960   3.870   0.129   1.843  0.2612 -0.0439  0.6817
 2776SOL    HW119961   3.823   0.054   1.808  0.1555  0.4173 -0.1615
 2776SOL    HW219962   3.952   0.105   1.798  0.0046  2.4066 -1.1190
 2777SOL     OW19963   2.209   0.876   6.237 -0.0557 -0.3886  0.1355
 2777SOL    HW119964   2.139   0.827   6.280 -1.0688  1.2204  0.3126
 2777SOL    HW219965   2.262   0.893   6.314 -0.3889  2.1949 -0.2151
 2778SOL     OW19966   3.396   3.087   2.981  0.0890  0.7416 -0.7152
 2778SOL    HW119967   3.387   3.033   2.902 -0.9188 -0.2628  0.0947
 2778SOL    HW219968   3.450   3.025   3.030  0.9422 -0.2290 -2.8901
 2779SOL     OW19969   2.232   1.958   5.637 -0.5967  0.2788 -0.5697
 2779SOL    HW119970   2.296   1.926   5.701 -0.0724 -0.0561 -1.2538
 2779SOL    HW219971   2.217   2.047   5.669 -2.8646  0.0967 -1.1217
 2780SOL     OW19972   3.638   3.020   8.788 -0.2842  0.1639  0.3286
 2780SOL    HW119973   3.641   3.107   8.827 -0.9113 -0.4658  1.7647
 2780SOL    HW219974   3.598   2.979   8.865  1.6286  2.4333  2.5311
 2781SOL     OW19975   1.084   0.679   4.462  0.0258 -0.2892 -0.2297
 2781SOL    HW119976   1.165   0.671   4.513 -0.7885  0.0446  1.1182
 2781SOL    HW219977   1.106   0.610   4.399 -2.6212 -1.4995  0.1535
 2782SOL     OW19978   2.879   2.647   5.159 -0.3190 -0.3903  0.0523
 2782SOL    HW119979   2.892   2.557   5.130  1.1957 -0.6799  1.6063
 2782SOL    HW219980   2.894   2.644   5.254 -1.5133 -0.6511  0.2414
 2783SOL     OW19981   2.782   0.661   2.591 -0.0168 -0.4073 -0.0982
 2783SOL    HW119982   2.790   0.568   2.570 -0.0986 -0.4935  0.2478
 2783SOL    HW219983   2.797   0.716   2.514  0.7911 -1.5310 -0.7387
 2784SOL     OW19984   1.258   2.470  11.467  0.1991  0.0250 -0.3893
 2784SOL    HW119985   1.165   2.456  11.485 -0.1797  1.9054 -0.8952
 2784SOL    HW219986   1.293   2.470  11.556 -0.6350  2.3279 -0.0704
 2785SOL     OW19987   4.507   0.241   2.080  0.1071  0.4321  0.0254
 2785SOL    HW119988   4.417   0.267   2.099 -0.0302 -1.5474  2.0288
 2785SOL    HW219989   4.548   0.316   2.036 -0.5493  0.7808  0.0196
 2786SOL     OW19990   2.972   2.446  12.483  0.4750 -0.8204 -0.5882
 2786SOL    HW119991   3.010   2.358  12.478  0.3176 -0.8865 -0.6239
 2786SOL    HW219992   2.909   2.443  12.411 -0.9944  5.2325  0.4382
 2787SOL     OW19993   3.495   4.696  11.600  0.1253  0.0918 -0.2779
 2787SOL    HW119994   3.471   4.680  11.509 -1.3821  0.6603  0.0161
 2787SOL    HW219995   3.444   0.036  11.626 -0.3641 -0.3428  0.0315
 2788SOL     OW19996   0.466   1.165   5.314 -0.2143 -0.1121 -0.1331
 2788SOL    HW119997   0.456   1.095   5.379 -1.5933 -0.9409 -1.2422
 2788SOL    HW219998   0.433   1.123   5.235  1.2396  0.2841 -0.9501
 2789SOL     OW19999   4.005   4.524  11.310 -0.1028 -0.0338 -0.5240
 2789SOL    HW120000   4.090   4.494  11.344  0.6299  1.5003 -0.9425
 2789SOL    HW220001   3.988   4.580  11.386 -2.4488  1.2784 -2.0052
 2790SOL     OW20002   1.165   3.545   5.670  0.8296  0.1006  0.2762
 2790SOL    HW120003   1.107   3.591   5.609 -0.3438 -0.9739  0.5827
 2790SOL    HW220004   1.229   3.614   5.686  1.1472 -0.7819  2.8133
 2791SOL     OW20005   2.412   1.491  10.263 -0.0077 -0.6201 -0.0832
 2791SOL    HW120006   2.384   1.580  10.282  0.1908 -0.6568  0.3878
 2791SOL    HW220007   2.500   1.504  10.296  0.0879 -1.4026 -0.0257
 2792SOL     OW20008   2.625   4.416   1.007  0.0601 -0.0386 -0.0363
 2792SOL    HW120009   2.682   4.342   0.986 -1.1068 -0.8232 -0.4318
 2792SOL    HW220010   2.668   4.440   1.089 -0.1313  0.5147 -0.1020
 2793SOL     OW20011   2.603   1.290   2.985  0.0973  0.1604  0.2546
 2793SOL    HW120012   2.668   1.300   2.915  1.2841 -0.6155  1.2571
 2793SOL    HW220013   2.540   1.359   2.964  1.6034  1.5245  0.1308
 2794SOL     OW20014   3.465   3.505   2.567 -0.1472 -0.2157 -0.2526
 2794SOL    HW120015   3.555   3.486   2.540 -0.3642 -0.2235 -0.9744
 2794SOL    HW220016   3.435   3.414   2.572 -0.2696 -0.0494  1.8086
 2795SOL     OW20017   1.785   1.751   8.296  0.2864 -0.0971  0.0891
 2795SOL    HW120018   1.820   1.764   8.384  0.1904 -0.1565  0.1365
 2795SOL    HW220019   1.815   1.828   8.249 -0.9864  0.1181 -0.3919
 2796SOL     OW20020   1.818   0.168   3.446  0.1082 -0.0160  0.1898
 2796SOL    HW120021   1.841   0.168   3.353  0.9137  1.4880  0.4006
 2796SOL    HW220022   1.796   0.076   3.461  0.2515 -0.0786  0.0065
 2797SOL     OW20023   1.760   2.214   0.235  0.0025 -0.0831 -0.2609
 2797SOL    HW120024   1.750   2.218   0.140 -0.8026  0.8549 -0.1471
 2797SOL    HW220025   1.854   2.220   0.246  0.0207 -0.1610 -0.3680
 2798SOL     OW20026   3.243   2.240   8.675 -0.4748 -0.0832  0.0205
 2798SOL    HW120027   3.150   2.221   8.686 -0.7917  0.2797 -2.0340
 2798SOL    HW220028   3.272   2.273   8.760  0.2683  1.4832 -0.8479
 2799SOL     OW20029   3.974   0.603   0.861 -0.0648  0.1616  0.2207
 2799SOL    HW120030   4.010   0.591   0.773  1.1921  0.1458  0.7345
 2799SOL    HW220031   4.054   0.595   0.913 -0.2102 -0.7184  0.3116
 2800SOL     OW20032   3.107   3.163  12.033 -0.4509  0.4882  0.8233
 2800SOL    HW120033   3.051   3.236  12.058  1.6167  1.2966  3.1202
 2800SOL    HW220034   3.117   3.184  11.940 -0.0055  0.1656  0.7990
 2801SOL     OW20035   2.152   4.443  16.872  0.1938 -0.0172  0.1940
 2801SOL    HW120036   2.189   4.433  16.960  0.5049  0.0517  0.0696
 2801SOL    HW220037   2.231   4.425  16.820  0.6264  1.7207  0.2640
 2802SOL     OW20038   4.515   0.999   4.389  0.0457 -0.2633  0.0206
 2802SOL    HW120039   4.522   0.951   4.471  1.1950 -0.8121 -0.3893
 2802SOL    HW220040   4.599   0.981   4.345 -0.3307  1.4313 -1.4168
 2803SOL     OW20041   1.088   3.751   2.598 -0.1436 -0.1420  0.1443
 2803SOL    HW120042   0.993   3.740   2.599 -0.2932  1.0826 -1.1147
 2803SOL    HW220043   1.121   3.758   2.687  1.0301 -0.2181 -0.2806
 2804SOL     OW20044   1.935   1.614   0.671  0.0622  0.4889  0.6270
 2804SOL    HW120045   2.007   1.607   0.608  0.3423 -0.7143  1.0869
 2804SOL    HW220046   1.978   1.596   0.755  0.5808 -0.5623  0.1341
 2805SOL     OW20047   4.283   0.344   6.305 -0.7571  0.5999 -0.0844
 2805SOL    HW120048   4.203   0.341   6.357  0.9652 -1.4404  2.4873
 2805SOL    HW220049   4.277   0.259   6.260  3.3756  0.1276  0.2288
 2806SOL     OW20050   2.614   0.178  13.588 -0.0636 -0.0386  0.2147
 2806SOL    HW120051   2.583   0.098  13.631  2.0068 -2.1578 -2.1671
 2806SOL    HW220052   2.580   0.169  13.499 -0.4148  2.3194  0.1281
 2807SOL     OW20053   2.241   2.234   4.194  0.8141 -0.0379 -0.3282
 2807SOL    HW120054   2.169   2.257   4.135 -0.1122 -0.4457  0.6425
 2807SOL    HW220055   2.310   2.229   4.128  0.3852  0.8092 -0.8407
 2808SOL     OW20056   1.260   2.803   8.407 -0.1364 -0.4190  0.2913
 2808SOL    HW120057   1.222   2.813   8.494  0.7068 -0.0775  0.6202
 2808SOL    HW220058   1.290   2.894   8.400 -0.5008 -0.3523 -0.4194
 2809SOL     OW20059   3.364   3.670   7.681 -0.1210 -0.3830  0.5778
 2809SOL    HW120060   3.331   3.583   7.702  1.3374 -1.1724 -0.4347
 2809SOL    HW220061   3.447   3.657   7.635  0.5163  0.0371  1.5833
 2810SOL     OW20062   0.986   4.349   9.663 -0.1580  0.3209 -0.0301
 2810SOL    HW120063   0.906   4.351   9.715  0.5989  1.9903  1.0631
 2810SOL    HW220064   1.029   4.272   9.700 -0.2621  0.8303  1.1468
 2811SOL     OW20065   4.506   3.085   3.286  0.6725  0.8533 -0.7632
 2811SOL    HW120066   4.496   3.091   3.381  1.4373  0.2208 -0.6421
 2811SOL    HW220067   4.520   2.991   3.276  3.1509  1.4500 -2.7477
 2812SOL     OW20068   2.381   3.367   2.162  0.4625 -0.2176 -0.4044
 2812SOL    HW120069   2.394   3.280   2.124  2.4818  0.1370 -0.5280
 2812SOL    HW220070   2.440   3.371   2.237 -0.7046  0.4331  0.4725
 2813SOL     OW20071   3.106   0.323  13.491 -0.2093  0.2420 -0.1899
 2813SOL    HW120072   3.019   0.311  13.529  0.0030 -0.8964 -0.0613
 2813SOL    HW220073   3.090   0.414  13.467  0.8762 -0.0676 -2.1444
 2814SOL     OW20074   2.416   2.523  17.532 -0.6790  0.7508 -0.2572
 2814SOL    HW120075   2.438   2.524  17.625  1.4895  0.4023 -0.7562
 2814SOL    HW220076   2.450   2.434  17.525  2.1380  1.7815  0.0513
 2815SOL     OW20077   4.033   2.997   2.767  0.3628 -0.3329  0.1060
 2815SOL    HW120078   4.050   3.078   2.815  2.0011 -0.1556 -0.7606
 2815SOL    HW220079   3.957   3.018   2.713  0.0947 -0.9311  0.2491
 2816SOL     OW20080   0.603   4.056   7.533  0.0810  0.5068  0.1803
 2816SOL    HW120081   0.541   4.097   7.593 -1.0958 -0.0443 -0.6497
 2816SOL    HW220082   0.655   4.134   7.511  0.1473  0.1202 -1.0723
 2817SOL     OW20083   1.401   1.506   4.894 -0.2493 -0.5166  0.2846
 2817SOL    HW120084   1.445   1.436   4.943  1.0186 -0.7263 -1.1757
 2817SOL    HW220085   1.437   1.495   4.806  0.2199  1.7613  0.1856
 2818SOL     OW20086   3.149   0.418   5.765 -0.1642 -0.1304 -0.2692
 2818SOL    HW120087   3.125   0.480   5.696 -0.9628 -1.6244 -1.3517
 2818SOL    HW220088   3.066   0.389   5.804  0.3226  0.8862  1.5278
 2819SOL     OW20089   1.128   3.619  15.719  0.4572  0.6451 -0.1168
 2819SOL    HW120090   1.147   3.711  15.735  2.2037  0.4915 -1.4116
 2819SOL    HW220091   1.190   3.603  15.649  1.2310 -0.0031  0.7220
 2820SOL     OW20092   3.858   3.229   3.939  0.3828  0.5879 -0.2099
 2820SOL    HW120093   3.830   3.254   3.851  2.4819 -2.4756 -1.7503
 2820SOL    HW220094   3.870   3.136   3.921 -0.4068  0.1138  1.7301
 2821SOL     OW20095   1.385   2.686   4.197 -0.1802 -0.0149 -0.4836
 2821SOL    HW120096   1.367   2.598   4.230 -3.1798  1.0448  0.6745
 2821SOL    HW220097   1.386   2.673   4.102  0.9357  2.8358 -0.8517
 2822SOL     OW20098   2.511   4.668   9.055 -0.7504 -0.2663  0.5916
 2822SOL    HW120099   2.583   4.718   9.093 -0.7059 -1.2821  1.8378
 2822SOL    HW220100   2.512   4.704   8.967 -4.5266  0.8763  1.0115
 2823SOL     OW20101   3.933   2.219   8.266 -0.3980  0.6746  0.5154
 2823SOL    HW120102   3.933   2.311   8.294  0.0295  0.8077  0.0674
 2823SOL    HW220103   4.006   2.232   8.205 -1.6701  0.1297 -1.1229
 2824SOL     OW20104   3.574   3.430   4.581 -0.2816  0.2412  0.1972
 2824SOL    HW120105   3.572   3.377   4.501 -0.5776  0.3728  0.1188
 2824SOL    HW220106   3.618   3.507   4.545 -0.3457 -0.1743 -0.7771
 2825SOL     OW20107   3.782   3.117   5.193  0.4344  0.2755  0.4772
 2825SOL    HW120108   3.852   3.150   5.137 -1.2780  0.9597 -1.2673
 2825SOL    HW220109   3.736   3.065   5.127  1.2925 -1.5654  1.3461
 2826SOL     OW20110   0.187   0.679   6.885  0.3170 -0.2208 -0.0080
 2826SOL    HW120111   0.246   0.659   6.812 -1.9178 -1.5992 -1.4422
 2826SOL    HW220112   0.208   0.770   6.902  1.0884 -0.5668  0.8775
 2827SOL     OW20113   1.293   1.305   4.158 -0.3494 -0.3456  0.4537
 2827SOL    HW120114   1.360   1.309   4.227  2.6466 -0.7205 -2.4708
 2827SOL    HW220115   1.333   1.361   4.092  0.1099  0.3647  1.3212
 2828SOL     OW20116   3.544   4.214   6.274 -0.4476 -0.5305 -0.1088
 2828SOL    HW120117   3.546   4.297   6.226 -2.7176  0.2813  1.2242
 2828SOL    HW220118   3.455   4.217   6.307 -1.2246  2.8549 -2.5053
 2829SOL     OW20119   1.655   1.117   3.312  0.2424 -0.1320  0.1614
 2829SOL    HW120120   1.718   1.045   3.305  1.2523  0.7074  0.6302
 2829SOL    HW220121   1.615   1.112   3.399 -3.0384  0.6904 -1.2809
 2830SOL     OW20122   1.009   3.526   2.971  0.3437 -0.3651 -0.1803
 2830SOL    HW120123   0.978   3.456   2.913 -1.4165  1.8487 -1.8992
 2830SOL    HW220124   1.102   3.506   2.979  0.3399  0.1626  1.1385
 2831SOL     OW20125   3.416   0.848   4.705  0.2010 -0.0328  0.2669
 2831SOL    HW120126   3.326   0.857   4.675 -0.5041 -4.0411  1.2995
 2831SOL    HW220127   3.420   0.925   4.763  1.2417  0.3948 -0.3617
 2832SOL     OW20128   1.236   0.692   8.915  0.1890 -0.1565  0.1302
 2832SOL    HW120129   1.143   0.684   8.891 -0.0550  1.6894  0.4658
 2832SOL    HW220130   1.245   0.620   8.977 -0.0030  1.5002  2.0841
 2833SOL     OW20131   2.249   0.649   7.610 -0.6158 -0.0538 -0.0145
 2833SOL    HW120132   2.322   0.603   7.653 -0.9830  0.0835  0.7664
 2833SOL    HW220133   2.264   0.655   7.516 -1.3857  1.5872 -0.0265
 2834SOL     OW20134   1.443   1.745   2.641 -0.1789 -0.4523 -0.1367
 2834SOL    HW120135   1.376   1.810   2.662 -0.6912 -1.4901  1.4111
 2834SOL    HW220136   1.517   1.804   2.621 -2.1064  1.5051 -1.5142
 2835SOL     OW20137   0.014   0.501   0.485 -0.2330  0.3855 -0.3415
 2835SOL    HW120138   4.728   0.561   0.414 -1.1655  0.1207 -0.2721
 2835SOL    HW220139   0.088   0.546   0.526 -0.1031 -1.5509  1.5293
 2836SOL     OW20140   2.608   1.851   8.572 -0.7154 -0.1083 -0.5297
 2836SOL    HW120141   2.569   1.785   8.515 -0.1815  1.4340 -2.6980
 2836SOL    HW220142   2.656   1.906   8.510  3.1681 -3.2504 -0.2803
 2837SOL     OW20143   1.368   0.825   4.398 -0.0509 -0.0322  0.6226
 2837SOL    HW120144   1.328   0.790   4.318 -1.4173 -0.7504  1.6354
 2837SOL    HW220145   1.432   0.755   4.410 -0.1849 -0.2259  0.2376
 2838SOL     OW20146   0.954   2.544   8.976  0.3313 -0.4089  0.2945
 2838SOL    HW120147   0.950   2.524   8.882  0.6276 -1.4911  0.5102
 2838SOL    HW220148   0.867   2.581   8.988 -0.4013 -1.5973 -1.3407
 2839SOL     OW20149   1.021   2.630  14.245 -0.1678  0.0488 -0.0238
 2839SOL    HW120150   1.056   2.713  14.215  0.3254 -0.2997 -0.4102
 2839SOL    HW220151   0.934   2.638  14.207 -0.0784 -0.3054 -0.2961
 2840SOL     OW20152   0.628   1.692   5.604 -0.2469  0.0590 -0.3476
 2840SOL    HW120153   0.549   1.666   5.653 -0.1829  2.3790  1.0265
 2840SOL    HW220154   0.692   1.709   5.673 -0.0125  0.0576 -0.5659
 2841SOL     OW20155   0.289   2.711   8.890 -0.9320 -0.3818  0.3062
 2841SOL    HW120156   0.269   2.743   8.802 -1.1085 -1.0048  0.1194
 2841SOL    HW220157   0.376   2.675   8.873 -1.9450 -2.4752 -0.4549
 2842SOL     OW20158   2.130   4.549   4.393 -0.3375 -0.0497  0.4300
 2842SOL    HW120159   2.157   4.580   4.479  0.5707  0.4583 -0.0321
 2842SOL    HW220160   2.046   4.594   4.382 -0.1026  0.6922  1.7426
 2843SOL     OW20161   2.852   4.079  13.843 -0.3810 -0.2961 -0.1824
 2843SOL    HW120162   2.886   4.160  13.881 -1.2282 -0.1323  0.2461
 2843SOL    HW220163   2.823   4.115  13.759  1.5938  0.2825 -0.6078
 2844SOL     OW20164   1.582   3.675   3.702 -0.0560  0.2931  0.7884
 2844SOL    HW120165   1.551   3.661   3.792  1.0396 -2.3950  0.7372
 2844SOL    HW220166   1.642   3.750   3.714 -0.6725  0.7276  1.1520
 2845SOL     OW20167   4.675   3.493  15.093 -0.0508  0.3418  1.0747
 2845SOL    HW120168   4.643   3.536  15.013  1.5395 -0.5010 -0.0021
 2845SOL    HW220169   4.592   3.471  15.135  0.0156  0.9426  1.5274
 2846SOL     OW20170   4.729   2.714  11.673 -0.2227  0.5450  0.0727
 2846SOL    HW120171   4.711   2.806  11.695 -1.9960  0.0935  0.5249
 2846SOL    HW220172   4.690   2.701  11.587  0.6948  0.6111 -0.3571
 2847SOL     OW20173   1.780   0.683   4.189  0.0669  0.1253  0.7008
 2847SOL    HW120174   1.794   0.721   4.276  0.5045  1.2151  0.1487
 2847SOL    HW220175   1.852   0.722   4.140 -1.8345  1.4242 -1.0611
 2848SOL     OW20176   2.672   0.414  13.975  0.3673  0.6475  0.1424
 2848SOL    HW120177   2.621   0.386  14.051 -0.1936  0.3185 -0.3506
 2848SOL    HW220178   2.760   0.388  14.003 -0.0061  0.0244  0.7360
 2849SOL     OW20179   4.570   4.676   7.416  0.2806 -0.1653 -0.3734
 2849SOL    HW120180   4.496   4.700   7.360  1.3801  1.0766 -1.3092
 2849SOL    HW220181   4.563   4.581   7.419 -3.2613  0.0408 -1.8297
 2850SOL     OW20182   3.182   3.874   7.738 -0.4647  0.2646  0.0319
 2850SOL    HW120183   3.236   3.799   7.761 -0.0908  1.0228  1.6626
 2850SOL    HW220184   3.244   3.942   7.710 -0.6824  0.5171  0.1610
 2851SOL     OW20185   4.604   2.765   6.052  0.3981 -0.6069  0.4875
 2851SOL    HW120186   4.643   2.837   6.099 -2.8673 -0.4987  3.0235
 2851SOL    HW220187   4.548   2.818   5.995  1.0524 -0.3822  0.0533
 2852SOL     OW20188   2.125   3.605   9.290  0.0714  0.0399 -0.1324
 2852SOL    HW120189   2.039   3.605   9.331  1.1925 -1.6211  2.2297
 2852SOL    HW220190   2.145   3.697   9.276 -0.7698  0.3469  0.6504
 2853SOL     OW20191   4.302   1.797   7.498  0.6758  0.0965  0.0712
 2853SOL    HW120192   4.264   1.848   7.427 -0.9056 -0.4630  0.5083
 2853SOL    HW220193   4.222   1.790   7.550  0.4163 -1.6999 -0.5770
 2854SOL     OW20194   3.748   0.654   0.461 -0.2761 -0.0062 -0.4325
 2854SOL    HW120195   3.657   0.676   0.478  0.8992  0.5972  5.1751
 2854SOL    HW220196   3.743   0.598   0.383 -2.1444  0.3344 -0.5433
 2855SOL     OW20197   2.107   2.481   2.535  0.5645 -0.4687 -0.4333
 2855SOL    HW120198   2.106   2.455   2.627 -0.6614  2.8738  0.5122
 2855SOL    HW220199   2.021   2.522   2.524 -0.4103 -2.6137 -0.8323
 2856SOL     OW20200   1.158   2.231  10.721 -0.1233  0.0862  0.2810
 2856SOL    HW120201   1.153   2.302  10.657 -1.9524 -0.1523  0.1608
 2856SOL    HW220202   1.083   2.182  10.689  1.0969 -1.8940  0.4794
 2857SOL     OW20203   3.390   2.501  17.154  0.0294  0.3039 -0.1347
 2857SOL    HW120204   3.398   2.556  17.077  0.4707  0.7412  0.2245
 2857SOL    HW220205   3.477   2.463  17.169 -0.0691  1.1104  2.5894
 2858SOL     OW20206   3.690   3.184  17.410  0.5500  0.0385 -0.4251
 2858SOL    HW120207   3.636   3.126  17.464  2.2075  0.0786  1.2655
 2858SOL    HW220208   3.689   3.265  17.460  0.7625  0.5957 -1.3308
 2859SOL     OW20209   0.657   3.668  11.270  0.2619  0.4553 -0.0729
 2859SOL    HW120210   0.674   3.674  11.364 -1.4873  1.1766  0.1944
 2859SOL    HW220211   0.716   3.738  11.240 -0.5013  0.2617 -2.0217
 2860SOL     OW20212   3.572   2.298   5.670  0.7979  0.6031  0.0498
 2860SOL    HW120213   3.529   2.224   5.627  0.2632  1.3026 -0.6379
 2860SOL    HW220214   3.649   2.310   5.615  0.6027  2.3480  0.1497
 2861SOL     OW20215   1.387   2.374  11.703  0.2679  0.3760 -0.5494
 2861SOL    HW120216   1.342   2.380  11.787 -1.0066  0.9168 -1.2657
 2861SOL    HW220217   1.474   2.344  11.731  1.0067  0.3507 -2.8259
 2862SOL     OW20218   3.551   3.406   1.912 -0.2696  0.0842  0.2490
 2862SOL    HW120219   3.560   3.499   1.932 -1.6206  0.5995 -1.5523
 2862SOL    HW220220   3.546   3.394   1.817 -0.9892 -0.9806  0.4247
 2863SOL     OW20221   1.617   3.995   8.133 -0.1307 -0.7805  0.0363
 2863SOL    HW120222   1.677   3.925   8.159 -0.7991 -2.0407 -1.8668
 2863SOL    HW220223   1.638   4.009   8.041 -0.6673 -3.4529 -0.4861
 2864SOL     OW20224   3.800   3.699   5.778 -0.3481  0.0422  0.4740
 2864SOL    HW120225   3.715   3.659   5.798 -0.9701  1.0545 -0.1545
 2864SOL    HW220226   3.857   3.622   5.776 -0.6765 -0.1607 -1.1986
 2865SOL     OW20227   3.961   4.532   8.847  0.5823  0.3272  0.2898
 2865SOL    HW120228   3.997   4.609   8.890  0.4981  0.0521  0.8452
 2865SOL    HW220229   3.951   4.470   8.919  1.2074 -1.1536 -0.8907
 2866SOL     OW20230   0.289   1.044  15.930  0.0474 -0.3508 -0.0269
 2866SOL    HW120231   0.223   1.037  15.860 -1.9639 -0.2068  1.8432
 2866SOL    HW220232   0.324   1.133  15.925 -2.8819  0.7094 -1.8270
 2867SOL     OW20233   1.295   0.888   8.403  0.5346  0.2775  0.6078
 2867SOL    HW120234   1.200   0.895   8.395  0.2918 -2.1943  1.2683
 2867SOL    HW220235   1.321   0.975   8.372 -1.5152  1.4850  2.3247
 2868SOL     OW20236   2.450   0.651   5.461  0.3922  0.0441  0.5816
 2868SOL    HW120237   2.544   0.642   5.476  0.8377  1.9869 -1.1729
 2868SOL    HW220238   2.455   0.677   5.369 -1.3284  0.5868  0.6432
 2869SOL     OW20239   4.148   0.982   0.820 -0.2569 -0.1533 -0.4528
 2869SOL    HW120240   4.158   0.973   0.915 -0.4680  1.5920 -0.2723
 2869SOL    HW220241   4.055   0.963   0.826 -0.3970  1.5411  2.8759
 2870SOL     OW20242   4.371   0.017  11.796  0.6018  0.0908  0.2879
 2870SOL    HW120243   4.428   0.037  11.870  1.8121  1.0429 -0.9017
 2870SOL    HW220244   4.400   4.665  11.775  0.5776  0.1382  0.0544
 2871SOL     OW20245   3.386   0.531  16.049 -0.4322 -0.2395 -0.3395
 2871SOL    HW120246   3.340   0.615  16.044 -0.8467 -0.3591  1.4658
 2871SOL    HW220247   3.473   0.568  16.039 -0.7459  0.4449 -0.5606
 2872SOL     OW20248   2.092   4.088  12.214 -0.2209  0.6662  0.2613
 2872SOL    HW120249   2.008   4.133  12.213 -0.5968 -0.0463 -0.0308
 2872SOL    HW220250   2.075   4.024  12.283  0.7984 -1.1333 -1.1478
 2873SOL     OW20251   2.352   4.241   6.497  0.2614  0.1463 -0.6076
 2873SOL    HW120252   2.399   4.257   6.579  0.7192 -2.9757 -0.2603
 2873SOL    HW220253   2.419   4.259   6.431  1.2059  0.7304  0.4985
 2874SOL     OW20254   2.054   2.638   6.828 -0.1114  0.1006 -0.0798
 2874SOL    HW120255   2.121   2.706   6.832 -0.7592  0.5406  2.9942
 2874SOL    HW220256   2.083   2.582   6.900 -2.8100 -1.3026 -0.0994
 2875SOL     OW20257   4.538   3.635   6.882 -0.0233 -0.5273 -0.1354
 2875SOL    HW120258   4.553   3.708   6.942  1.6223 -1.1654  0.2333
 2875SOL    HW220259   4.625   3.619   6.844  1.1047  1.7216  1.5173
 2876SOL     OW20260   3.283   0.286   2.572  0.5187  0.0914 -0.1664
 2876SOL    HW120261   3.264   0.239   2.654 -0.3297  1.0502  0.1782
 2876SOL    HW220262   3.354   0.229   2.542 -1.6727 -2.5202 -0.4079
 2877SOL     OW20263   0.020   1.787   9.048  0.1522 -0.1278  0.8875
 2877SOL    HW120264   4.682   1.728   9.050  0.0371 -0.0341 -0.3604
 2877SOL    HW220265   4.711   1.870   9.031 -3.4943 -2.0692  1.3919
 2878SOL     OW20266   2.131   0.386   6.789  0.3160  0.5009  0.3683
 2878SOL    HW120267   2.062   0.450   6.805 -1.5489 -1.9785  2.1599
 2878SOL    HW220268   2.169   0.388   6.877 -2.7381  1.1365  1.6645
 2879SOL     OW20269   1.423   1.990   6.663 -0.2241  0.6800 -0.1139
 2879SOL    HW120270   1.476   2.031   6.595 -0.2971 -0.3533 -0.7995
 2879SOL    HW220271   1.361   2.062   6.672 -0.5950  0.3636 -0.1625
 2880SOL     OW20272   2.001   0.546   1.785 -0.7505 -0.3658  0.0378
 2880SOL    HW120273   1.993   0.484   1.713 -2.0490 -2.0094  1.5719
 2880SOL    HW220274   2.053   0.501   1.853  1.0095 -1.8492 -2.2674
 2881SOL     OW20275   4.217   3.607  13.997  0.3271  0.5056  0.4481
 2881SOL    HW120276   4.238   3.532  13.941 -0.7661  1.6045 -1.4454
 2881SOL    HW220277   4.299   3.626  14.041 -0.3563  1.1347  1.4321
 2882SOL     OW20278   3.857   1.747   5.418  0.6132  0.2196 -0.4432
 2882SOL    HW120279   3.894   1.680   5.475  1.1426  0.9615  0.0901
 2882SOL    HW220280   3.921   1.760   5.348  0.2846  0.1088 -0.7647
 2883SOL     OW20281   0.683   4.354  11.980 -0.3131 -0.3803 -0.0686
 2883SOL    HW120282   0.676   4.449  11.979  1.3363 -0.2502 -0.2677
 2883SOL    HW220283   0.641   4.345  12.066  0.5823  2.1883  0.6419
 2884SOL     OW20284   4.144   3.673   4.396  0.0585  0.2758 -0.0133
 2884SOL    HW120285   4.102   3.608   4.453 -1.1297  2.5727  1.7308
 2884SOL    HW220286   4.105   3.663   4.310  1.3460  2.3661 -0.8367
 2885SOL     OW20287   4.446   0.043  17.124 -0.0523  0.1096 -0.2505
 2885SOL    HW120288   4.529   0.084  17.145  0.1985 -0.2974 -0.4492
 2885SOL    HW220289   4.466   4.692  17.155  0.8256  1.0861  1.8770
 2886SOL     OW20290   4.124   4.078   3.359 -0.1838  0.0050 -0.3725
 2886SOL    HW120291   4.069   4.016   3.311 -1.4728  1.8797 -1.2919
 2886SOL    HW220292   4.172   4.100   3.279 -1.4764  1.7209 -0.6786
 2887SOL     OW20293   0.973   3.637   4.897 -0.0074 -0.0876 -0.2683
 2887SOL    HW120294   1.041   3.647   4.965 -0.9709 -2.4353  1.0192
 2887SOL    HW220295   1.015   3.701   4.839 -0.0048 -0.4609 -0.6703
 2888SOL     OW20296   2.422   1.971  13.520 -0.5218 -0.1264 -0.3918
 2888SOL    HW120297   2.496   2.033  13.519  0.7028 -1.4946  3.5520
 2888SOL    HW220298   2.367   2.000  13.593  1.1359 -0.1765  0.8722
 2889SOL     OW20299   0.281   4.299   2.500 -0.3825  0.2638  0.1446
 2889SOL    HW120300   0.362   4.277   2.455  0.4177 -0.8195  2.1187
 2889SOL    HW220301   0.216   4.281   2.432 -1.7238 -1.6926  1.9581
 2890SOL     OW20302   2.294   0.312  16.101 -0.1481  0.1881  0.5988
 2890SOL    HW120303   2.285   0.381  16.166 -2.1818 -0.5961  1.1308
 2890SOL    HW220304   2.291   0.234  16.156 -2.1399 -0.6131 -0.6743
 2891SOL     OW20305   0.308   0.479   5.518  0.1731  0.2499  0.4986
 2891SOL    HW120306   0.372   0.482   5.447 -1.7521 -1.0752 -1.3033
 2891SOL    HW220307   0.331   0.409   5.579 -0.2644  0.1834  0.5885
 2892SOL     OW20308   1.315   2.071   9.364  0.5034 -0.3411  0.1670
 2892SOL    HW120309   1.236   2.081   9.416  0.2112 -2.9779  0.2528
 2892SOL    HW220310   1.315   1.976   9.352  1.2109 -0.1712 -1.1333
 2893SOL     OW20311   3.314   3.437  16.423  0.3754  0.3136 -0.1147
 2893SOL    HW120312   3.284   3.476  16.341 -0.2604  2.4055  1.0979
 2893SOL    HW220313   3.339   3.519  16.466  0.5648 -0.8570  2.0162
 2894SOL     OW20314   1.516   1.044   8.218 -0.4553  0.2673  0.8645
 2894SOL    HW120315   1.528   1.104   8.291 -0.8830  1.0147  0.3207
 2894SOL    HW220316   1.578   0.974   8.239  0.3264 -0.0907 -2.5788
 2895SOL     OW20317   4.686   0.047   1.435  0.2808  0.0323  0.1378
 2895SOL    HW120318   4.661   0.066   1.345  0.8388 -2.6493 -0.5769
 2895SOL    HW220319   0.026   0.105   1.435 -0.8610  1.5497 -1.4922
 2896SOL     OW20320   3.009   0.133  15.288  0.2505  0.3692 -0.1720
 2896SOL    HW120321   3.027   0.049  15.245 -0.7343 -0.3246  0.7681
 2896SOL    HW220322   2.987   0.176  15.205  1.4778  1.1247 -0.1112
 2897SOL     OW20323   1.836   1.116   3.690  0.1190 -0.1493  0.4761
 2897SOL    HW120324   1.895   1.057   3.644  0.0552  0.0762  0.1099
 2897SOL    HW220325   1.750   1.118   3.648  0.9086 -1.7590 -1.1990
 2898SOL     OW20326   3.485   2.077  13.456 -0.0162 -0.7634 -0.0004
 2898SOL    HW120327   3.535   2.057  13.534 -1.9112 -1.9982  0.9138
 2898SOL    HW220328   3.558   2.079  13.394  0.5246  2.1836  0.7601
 2899SOL     OW20329   0.824   0.830  12.891  0.1839 -0.0627 -0.3698
 2899SOL    HW120330   0.830   0.925  12.891  2.8148 -0.2437 -0.5504
 2899SOL    HW220331   0.796   0.806  12.802 -1.3197 -0.8370  0.3013
 2900SOL     OW20332   3.878   0.572  12.370  0.1735 -1.1860 -0.0628
 2900SOL    HW120333   3.798   0.620  12.349  0.7057 -1.3357 -2.4109
 2900SOL    HW220334   3.840   0.488  12.395 -0.5681 -1.2537 -1.4140
 2901SOL     OW20335   1.335   3.625   7.151  0.0333 -0.8203  0.0543
 2901SOL    HW120336   1.372   3.541   7.124  0.6762 -0.3581 -0.4941
 2901SOL    HW220337   1.398   3.683   7.109 -0.9182 -0.6960 -1.2136
 2902SOL     OW20338   1.340   1.501  12.760 -0.2146  0.2240  0.6389
 2902SOL    HW120339   1.391   1.421  12.744 -0.6485 -0.0053  0.4165
 2902SOL    HW220340   1.357   1.554  12.682 -0.8296  0.1646  0.4670
 2903SOL     OW20341   1.516   3.540   7.644 -0.0904  0.4547  0.0872
 2903SOL    HW120342   1.443   3.593   7.677  0.8374  1.3562  0.6722
 2903SOL    HW220343   1.587   3.600   7.622  0.4143 -1.0506 -2.2876
 2904SOL     OW20344   4.480   1.774   4.626 -0.1580  0.2689  0.2022
 2904SOL    HW120345   4.503   1.774   4.719 -0.4320 -2.5385  0.2734
 2904SOL    HW220346   4.469   1.868   4.615  0.9496  0.3369 -0.2776
 2905SOL     OW20347   3.740   4.438   7.319 -0.6492  0.2146  0.2151
 2905SOL    HW120348   3.708   4.514   7.270 -0.1510 -2.4690 -4.2911
 2905SOL    HW220349   3.693   4.454   7.401 -0.5232  0.6223  0.2094
 2906SOL     OW20350   3.236   4.000   0.825 -0.3893 -0.3302  0.3741
 2906SOL    HW120351   3.213   4.022   0.915  1.3074  1.7915  0.2962
 2906SOL    HW220352   3.325   4.035   0.829 -1.2661  2.0577 -0.9960
 2907SOL     OW20353   4.699   0.872   2.002 -0.3659 -0.2368  0.0194
 2907SOL    HW120354   0.025   0.851   2.071 -0.5252  0.3355  0.3471
 2907SOL    HW220355   4.699   0.783   1.966 -0.1654  0.3206 -1.3652
 2908SOL     OW20356   2.484   2.437   7.494 -0.6070 -0.6721  0.1666
 2908SOL    HW120357   2.558   2.475   7.447  0.5368 -0.1668  2.3588
 2908SOL    HW220358   2.460   2.378   7.423  1.5408 -1.6667  0.2790
 2909SOL     OW20359   4.110   3.459  13.064 -0.2935  0.2566 -0.0883
 2909SOL    HW120360   4.072   3.436  13.149 -1.0318 -0.9259 -0.7348
 2909SOL    HW220361   4.148   3.376  13.036 -2.3003 -0.8319  0.3821
 2910SOL     OW20362   1.226   1.700   4.311 -0.2010  0.2733 -0.1432
 2910SOL    HW120363   1.266   1.661   4.389  0.3141 -2.3443 -1.7251
 2910SOL    HW220364   1.287   1.688   4.238 -0.6184 -0.4491 -0.3690
 2911SOL     OW20365   2.102   1.185  10.250 -0.2212  0.7795  0.4062
 2911SOL    HW120366   2.046   1.143  10.315 -2.3258  2.9371 -0.0048
 2911SOL    HW220367   2.175   1.203  10.308  0.4761 -1.1308  0.1233
 2912SOL     OW20368   1.597   3.792   7.576 -0.0258  0.2155  0.0473
 2912SOL    HW120369   1.525   3.854   7.578 -1.1721 -1.1033 -0.4947
 2912SOL    HW220370   1.621   3.802   7.483  2.1142  0.2543  0.5940
 2913SOL     OW20371   3.547   2.082   7.645  0.4451 -0.3765  0.7740
 2913SOL    HW120372   3.618   2.145   7.656  1.8521 -1.8120 -0.0878
 2913SOL    HW220373   3.592   1.999   7.630 -0.2675 -1.1152  2.8073
 2914SOL     OW20374   3.034   2.287   4.312  0.1008 -0.5236  0.2596
 2914SOL    HW120375   2.964   2.239   4.354  1.2267 -1.4924  0.9983
 2914SOL    HW220376   3.093   2.313   4.382  0.9529  0.9776 -0.9891
 2915SOL     OW20377   0.088   3.354  14.718 -0.0440  0.1517  0.2482
 2915SOL    HW120378   0.145   3.338  14.643  0.0618  1.5647  0.0268
 2915SOL    HW220379   0.148   3.335  14.791  0.8060  2.1336  0.0765
 2916SOL     OW20380   0.756   2.221   0.464  0.0505 -0.3176  0.0232
 2916SOL    HW120381   0.772   2.282   0.536  2.2183 -1.7060  0.7412
 2916SOL    HW220382   0.726   2.141   0.507 -1.8463 -0.5377 -1.7167
 2917SOL     OW20383   3.258   4.647  13.933  0.6214  0.2955  0.8002
 2917SOL    HW120384   3.307   4.676  13.856  3.0831  0.5551  2.4682
 2917SOL    HW220385   3.330   4.606  13.981 -0.0535 -1.2002  0.5302
 2918SOL     OW20386   0.571   0.941   6.779  0.0078  0.2874 -0.3380
 2918SOL    HW120387   0.516   1.014   6.751 -1.8447 -0.8923  0.2360
 2918SOL    HW220388   0.535   0.930   6.867  1.4306  0.0753  0.2202
 2919SOL     OW20389   1.344   3.734   5.748  0.0401 -0.1926 -0.3339
 2919SOL    HW120390   1.373   3.791   5.819  0.6542  2.1799 -2.4958
 2919SOL    HW220391   1.416   3.692   5.701  0.3687 -0.4331  0.3770
 2920SOL     OW20392   4.624   2.128   6.444  0.1426 -0.4000  0.0606
 2920SOL    HW120393   4.574   2.131   6.362  0.1071  0.5786  0.1183
 2920SOL    HW220394   4.711   2.161   6.420  0.1888 -0.9478 -0.5366
 2921SOL     OW20395   3.276   1.819   5.541  0.0913 -0.0873  0.4766
 2921SOL    HW120396   3.363   1.784   5.521 -0.3639 -1.2591  0.5699
 2921SOL    HW220397   3.278   1.831   5.636  1.5481  1.9068  0.1919
 2922SOL     OW20398   0.097   2.956   4.312 -0.7840 -0.1873 -0.0614
 2922SOL    HW120399   0.119   2.902   4.388 -0.5163 -0.4250 -0.3049
 2922SOL    HW220400   0.161   2.916   4.253 -0.1538 -1.6142  1.5865
 2923SOL     OW20401   0.640   4.322   9.512 -0.1598  0.8310 -0.6538
 2923SOL    HW120402   0.607   4.242   9.470 -0.1867  1.4668 -1.8448
 2923SOL    HW220403   0.577   4.390   9.488 -0.5442  1.0556  0.9853
 2924SOL     OW20404   2.287   3.488   6.369  0.1939 -0.0583 -0.4962
 2924SOL    HW120405   2.220   3.442   6.420  2.2962 -0.1022  2.2436
 2924SOL    HW220406   2.245   3.483   6.283  1.5097 -0.6326 -1.1039
 2925SOL     OW20407   4.392   2.162   7.686 -0.0189  0.1368  0.2005
 2925SOL    HW120408   4.389   2.190   7.594  4.8336  0.0511  0.0440
 2925SOL    HW220409   4.303   2.128   7.692  0.6336 -1.4529  0.7564
 2926SOL     OW20410   0.410   3.259   5.636  0.0518 -1.1357 -0.8594
 2926SOL    HW120411   0.333   3.285   5.584 -0.4187 -2.7371 -0.9652
 2926SOL    HW220412   0.362   3.218   5.708  1.6102  2.4122  2.1380
 2927SOL     OW20413   3.800   1.069  12.496 -0.0664 -0.5310  0.6057
 2927SOL    HW120414   3.797   1.003  12.426 -1.1395 -1.8144  1.8546
 2927SOL    HW220415   3.714   1.051  12.535 -1.2265  0.7173 -1.3461
 2928SOL     OW20416   1.524   2.429   6.731 -0.3924 -0.1042  0.2105
 2928SOL    HW120417   1.538   2.351   6.784 -1.8509 -0.5116 -0.0245
 2928SOL    HW220418   1.596   2.483   6.764  0.8217 -0.0147 -2.5576
 2929SOL     OW20419   2.206   3.521   9.823 -0.1949  0.0657 -0.2626
 2929SOL    HW120420   2.151   3.443   9.816 -1.6584  0.9105  1.7378
 2929SOL    HW220421   2.147   3.577   9.873  1.5353  0.4712  1.3508
 2930SOL     OW20422   4.124   0.210   0.777 -0.3422  0.0728  0.2921
 2930SOL    HW120423   4.189   0.279   0.763 -0.2405  0.1952  1.4269
 2930SOL    HW220424   4.165   0.153   0.842 -0.8778  2.4114  2.6818
 2931SOL     OW20425   3.875   0.553  14.007 -0.0779  0.3112  0.3345
 2931SOL    HW120426   3.868   0.494  14.082  0.9119 -0.5483 -0.2510
 2931SOL    HW220427   3.821   0.505  13.945 -0.7724  0.6180  0.6998
 2932SOL     OW20428   2.978   4.011   3.978  0.0163 -0.8205  0.1877
 2932SOL    HW120429   2.910   3.944   3.978 -0.8742  0.0918  2.2173
 2932SOL    HW220430   2.946   4.072   4.045  3.1005  0.8620  0.1079
 2933SOL     OW20431   4.719   0.767   7.091 -0.2465  0.1998  0.0643
 2933SOL    HW120432   0.039   0.757   7.014  0.7874 -1.1927  1.0079
 2933SOL    HW220433   4.668   0.847   7.075 -0.6974 -0.2952 -0.9528
 2934SOL     OW20434   0.973   2.330   6.603 -0.3092 -0.0777  0.0527
 2934SOL    HW120435   0.892   2.378   6.620 -0.9035 -1.5920  1.4684
 2934SOL    HW220436   0.982   2.275   6.680 -2.1245  0.3660  0.5639
 2935SOL     OW20437   1.895   1.168   4.914  0.0622  0.0743  0.0447
 2935SOL    HW120438   1.937   1.249   4.885 -0.2317 -0.5076 -2.0165
 2935SOL    HW220439   1.953   1.143   4.986 -0.6360 -3.3615 -0.5682
 2936SOL     OW20440   2.962   3.176  16.647  0.1434  0.6124  0.6960
 2936SOL    HW120441   2.999   3.093  16.676 -1.3017 -0.4873 -0.5924
 2936SOL    HW220442   2.914   3.140  16.572  0.7976 -2.5319  1.7850
 2937SOL     OW20443   2.536   1.082   5.146  0.0724 -0.1034  0.7606
 2937SOL    HW120444   2.623   1.103   5.113  0.6182  0.9335  2.8149
 2937SOL    HW220445   2.532   1.162   5.199  1.3556  1.4005 -1.4262
 2938SOL     OW20446   4.319   1.409   5.801  0.1423  0.1698 -0.2102
 2938SOL    HW120447   4.242   1.363   5.835  0.2924 -1.1080 -1.5864
 2938SOL    HW220448   4.373   1.336   5.769  0.5639  0.7913 -0.9058
 2939SOL     OW20449   1.741   0.694  15.977 -0.0820 -0.7771 -0.4556
 2939SOL    HW120450   1.666   0.651  16.017  0.5897  0.4190  2.0685
 2939SOL    HW220451   1.708   0.718  15.890 -2.5994 -2.8215 -0.0492
 2940SOL     OW20452   3.969   1.722   4.263  0.6841 -0.3944 -0.2607
 2940SOL    HW120453   3.993   1.709   4.171 -0.1445 -1.4645 -0.3353
 2940SOL    HW220454   3.983   1.637   4.307  1.4949  1.3036  2.7666
 2941SOL     OW20455   4.226   1.617  15.380 -0.2306  0.6609 -0.3904
 2941SOL    HW120456   4.151   1.651  15.331 -1.8376 -0.2328  1.4426
 2941SOL    HW220457   4.243   1.691  15.438  3.6669 -0.9309  0.5082
 2942SOL     OW20458   1.642   3.732   6.560  0.7538 -0.0526 -0.3156
 2942SOL    HW120459   1.679   3.810   6.520 -0.9208  1.0542  0.3057
 2942SOL    HW220460   1.712   3.677   6.523 -0.4491 -1.2404 -0.8505
 2943SOL     OW20461   0.430   4.538   3.767  0.6360 -0.1801 -0.2249
 2943SOL    HW120462   0.406   4.491   3.687 -0.9294 -1.1357  0.8215
 2943SOL    HW220463   0.505   4.586   3.731 -0.0150  1.5087  0.7180
 2944SOL     OW20464   2.181   1.554  11.714 -0.0680 -0.1340 -0.0838
 2944SOL    HW120465   2.261   1.598  11.685 -0.0507  0.3386  0.7104
 2944SOL    HW220466   2.148   1.521  11.630 -0.1407 -0.8644  0.2313
 2945SOL     OW20467   1.164   0.293   7.628 -0.0836 -0.1460 -0.2964
 2945SOL    HW120468   1.097   0.317   7.565  0.7952  0.4173 -1.0178
 2945SOL    HW220469   1.222   0.235   7.579 -0.0727 -0.3977  0.0138
 2946SOL     OW20470   1.426   2.386  15.612  0.2491 -0.5516 -0.3246
 2946SOL    HW120471   1.425   2.475  15.577  0.3298 -1.4429 -2.6074
 2946SOL    HW220472   1.513   2.354  15.586 -0.2694 -1.9577 -0.3230
 2947SOL     OW20473   4.357   3.107  12.211 -0.0698 -0.6921 -0.2911
 2947SOL    HW120474   4.329   3.026  12.254  1.8420 -1.1046  0.1652
 2947SOL    HW220475   4.295   3.105  12.138 -0.1724  0.0222 -0.2251
 2948SOL     OW20476   4.079   1.855  15.755  0.1635  0.0467 -0.2688
 2948SOL    HW120477   3.996   1.817  15.726 -1.0157 -0.4194  3.7283
 2948SOL    HW220478   4.061   1.853  15.849 -0.4749  1.7314 -0.3580
 2949SOL     OW20479   2.771   3.102   8.633 -0.2929  0.0501  0.3026
 2949SOL    HW120480   2.748   3.189   8.665  1.2426  0.1002  1.2686
 2949SOL    HW220481   2.753   3.047   8.710 -1.5275  1.6494  1.1489
 2950SOL     OW20482   3.797   1.236   4.605  0.2192 -0.3425  0.0572
 2950SOL    HW120483   3.795   1.282   4.690  0.2102  0.9482 -0.6341
 2950SOL    HW220484   3.709   1.239   4.568  0.7267  0.4902 -1.0995
 2951SOL     OW20485   1.274   2.820   4.564  0.2041  0.1266 -0.1358
 2951SOL    HW120486   1.354   2.801   4.514 -0.8054 -1.5099 -1.1169
 2951SOL    HW220487   1.269   2.745   4.622  1.7445  1.1216  1.2761
 2952SOL     OW20488   0.578   2.189   4.344 -0.4368 -0.1494 -0.4695
 2952SOL    HW120489   0.490   2.195   4.382  0.2966  0.7809  1.0651
 2952SOL    HW220490   0.580   2.107   4.295  1.0607 -0.6211  0.3952
 2953SOL     OW20491   3.702   1.613   4.469  0.2987 -0.8641 -0.1887
 2953SOL    HW120492   3.636   1.623   4.401  0.7297  0.8590 -0.3670
 2953SOL    HW220493   3.643   1.650   4.534  1.2262  0.5407 -0.1260
 2954SOL     OW20494   0.567   2.187   3.499 -0.4567  0.0092 -0.8652
 2954SOL    HW120495   0.535   2.115   3.554 -2.6706  1.0573 -0.7494
 2954SOL    HW220496   0.541   2.161   3.411  1.4348 -0.8689 -1.1518
 2955SOL     OW20497   2.419   0.132   4.363  0.2334  0.2477  0.0262
 2955SOL    HW120498   2.441   0.165   4.450 -0.2284 -1.1296  0.6759
 2955SOL    HW220499   2.414   0.038   4.381  1.0507 -0.2403 -2.2375
 2956SOL     OW20500   2.536   3.063  15.412 -0.7169 -0.2768 -0.1518
 2956SOL    HW120501   2.473   3.093  15.346 -1.4625 -0.9887  0.2334
 2956SOL    HW220502   2.601   3.019  15.357 -2.3349  0.4366 -2.5994
 2957SOL     OW20503   4.565   2.698  11.460  0.2369  0.1617 -0.2767
 2957SOL    HW120504   4.473   2.677  11.443 -0.2415  2.5844 -0.7102
 2957SOL    HW220505   4.580   2.764  11.393 -0.0433  2.2195  1.7026
 2958SOL     OW20506   3.625   2.739   4.411 -0.4484 -0.2046 -0.2760
 2958SOL    HW120507   3.667   2.735   4.326 -2.4429  3.0215 -1.4120
 2958SOL    HW220508   3.550   2.793   4.386  0.7489  1.1337 -0.9775
 2959SOL     OW20509   1.765   4.598   7.221  0.1036  0.0290 -0.5967
 2959SOL    HW120510   1.811   4.650   7.287  1.2621  1.2254 -2.3575
 2959SOL    HW220511   1.794   4.645   7.143  0.3152 -0.7738 -0.9997
 2960SOL     OW20512   1.539   3.275  12.859  0.0491  0.2416 -0.2580
 2960SOL    HW120513   1.487   3.205  12.897  0.2734  1.0512  1.5266
 2960SOL    HW220514   1.470   3.334  12.831  0.8971  1.3041 -0.1367
 2961SOL     OW20515   3.624   3.970   4.612  0.0431 -0.4230  1.1132
 2961SOL    HW120516   3.653   3.901   4.670 -0.0850 -2.6613 -1.4808
 2961SOL    HW220517   3.551   3.933   4.561 -1.1362  2.5405  0.6224
 2962SOL     OW20518   0.905   3.314   5.544 -0.0814 -0.1412 -0.8028
 2962SOL    HW120519   0.884   3.279   5.458  2.0725 -0.4102 -1.2187
 2962SOL    HW220520   0.959   3.242   5.580 -1.0017 -0.0570  0.7590
 2963SOL     OW20521   0.185   4.680   2.839  0.1410 -0.0457  0.1072
 2963SOL    HW120522   0.231   0.014   2.794 -1.1153  1.3810  1.0205
 2963SOL    HW220523   0.225   4.605   2.796  0.4828 -0.4320  1.0949
 2964SOL     OW20524   4.572   2.905   6.333 -0.4814  0.2883 -0.9022
 2964SOL    HW120525   4.667   2.911   6.339 -0.5226 -0.2069  0.1855
 2964SOL    HW220526   4.553   2.836   6.396  0.1227  2.1640  1.3457
 2965SOL     OW20527   4.451   4.623  10.835  0.2592  0.3660 -0.3697
 2965SOL    HW120528   4.391   4.663  10.772  2.2208 -0.2815 -2.6292
 2965SOL    HW220529   4.494   4.699  10.874  1.4945 -0.5858  0.1289
 2966SOL     OW20530   3.271   0.557   4.881  0.3225 -0.1783  0.2198
 2966SOL    HW120531   3.291   0.650   4.886  1.4369 -0.3238 -1.5803
 2966SOL    HW220532   3.230   0.547   4.795  0.2678  0.6530  0.1503
 2967SOL     OW20533   0.740   0.922  16.019 -0.2571  0.2291  0.4367
 2967SOL    HW120534   0.724   0.970  16.099  1.2941 -3.5803  3.0371
 2967SOL    HW220535   0.732   0.991  15.953 -0.7402  0.6859  0.9820
 2968SOL     OW20536   2.636   2.320   1.156 -0.1688 -0.0678  0.1500
 2968SOL    HW120537   2.604   2.410   1.156 -1.1883 -0.4436  1.7755
 2968SOL    HW220538   2.572   2.276   1.099  1.8583 -1.5557 -0.9542
 2969SOL     OW20539   1.660   3.113   0.700  0.2964  0.6154  0.4547
 2969SOL    HW120540   1.715   3.167   0.644  0.6919 -1.2776 -1.0028
 2969SOL    HW220541   1.600   3.179   0.733 -0.2890  0.8212 -1.0242
 2970SOL     OW20542   0.140   3.942   3.976 -0.2708  0.5685 -0.2230
 2970SOL    HW120543   0.073   3.881   4.008 -0.6042  1.0125 -0.0653
 2970SOL    HW220544   0.126   3.947   3.882 -1.3570 -0.2941 -0.1107
 2971SOL     OW20545   4.427   2.682  13.221 -0.4883  0.1712 -0.3001
 2971SOL    HW120546   4.474   2.636  13.151 -2.7711 -1.2927 -0.8710
 2971SOL    HW220547   4.502   2.712  13.272 -0.3240 -0.6927 -0.0274
 2972SOL     OW20548   0.142   4.106   5.978  0.1400 -0.3153 -0.4590
 2972SOL    HW120549   0.049   4.080   5.981 -0.5903  2.4783  1.2209
 2972SOL    HW220550   0.177   4.036   6.033  0.1249 -1.9949 -2.5955
 2973SOL     OW20551   3.703   1.051   0.442  0.5329 -0.3686  0.4758
 2973SOL    HW120552   3.645   1.016   0.374  0.9066 -2.6212  1.3272
 2973SOL    HW220553   3.780   1.065   0.387  0.7379 -0.5786  0.7143
 2974SOL     OW20554   2.657   3.978   1.801 -0.7973 -0.2068  0.2987
 2974SOL    HW120555   2.678   3.959   1.892  0.8255  0.2413  0.0011
 2974SOL    HW220556   2.658   3.889   1.765 -1.9362  0.1501 -0.6062
 2975SOL     OW20557   3.825   2.937   2.541  0.2293 -0.0035  0.0878
 2975SOL    HW120558   3.735   2.932   2.508  0.3781  1.0357 -0.4630
 2975SOL    HW220559   3.887   2.908   2.474  1.2516  3.9204 -0.6200
 2976SOL     OW20560   3.801   0.270   8.746 -0.0438  0.8305 -0.1086
 2976SOL    HW120561   3.831   0.181   8.727 -0.6059  0.6064  0.0431
 2976SOL    HW220562   3.712   0.267   8.709 -0.2533 -0.3971  0.5097
 2977SOL     OW20563   2.286   4.646   4.995  0.0624 -0.0099  0.3176
 2977SOL    HW120564   2.191   4.642   4.997  0.0416 -0.2225 -0.8658
 2977SOL    HW220565   2.313   4.557   4.971 -0.9983 -0.6045  1.3516
 2978SOL     OW20566   1.788   1.879   2.151 -0.0460  0.0779 -0.1470
 2978SOL    HW120567   1.858   1.816   2.137 -0.9699 -0.6786 -1.2949
 2978SOL    HW220568   1.830   1.966   2.151 -0.2781  0.1915 -2.4074
 2979SOL     OW20569   2.546   1.185   8.822 -0.0925 -0.2506 -0.2117
 2979SOL    HW120570   2.572   1.162   8.912  1.5072  0.3856 -0.5175
 2979SOL    HW220571   2.463   1.229   8.840 -0.9717 -0.7858 -2.9248
 2980SOL     OW20572   0.342   1.578   4.446 -0.0608  0.1339 -0.3833
 2980SOL    HW120573   0.366   1.489   4.470 -1.2976 -0.5059 -1.5659
 2980SOL    HW220574   0.424   1.613   4.410 -0.1021  0.7798  0.1299
 2981SOL     OW20575   1.260   0.945   2.456  0.4288 -0.2437  0.3956
 2981SOL    HW120576   1.355   0.952   2.446  0.1308  1.8159 -0.9974
 2981SOL    HW220577   1.247   0.944   2.551  1.2511  2.2966  0.5617
 2982SOL     OW20578   1.073   1.937   3.631  0.2351 -0.2745 -0.1339
 2982SOL    HW120579   1.147   1.996   3.647 -0.1076  0.3178 -0.7411
 2982SOL    HW220580   1.083   1.873   3.702  0.2842 -0.4449 -0.2953
 2983SOL     OW20581   2.069   1.597  11.141 -0.7256  0.1746  0.0779
 2983SOL    HW120582   2.051   1.580  11.233  1.0694 -0.4224  0.3222
 2983SOL    HW220583   1.988   1.634  11.108  0.1506  0.6800 -1.5094
 2984SOL     OW20584   1.295   3.993  11.844 -0.0923 -0.5142  0.0371
 2984SOL    HW120585   1.269   3.902  11.836 -0.6191 -0.4683  1.2332
 2984SOL    HW220586   1.209   4.030  11.863 -0.4244 -1.3529  0.1648
 2985SOL     OW20587   2.499   4.473  16.756  0.5244  0.0302  0.1651
 2985SOL    HW120588   2.529   4.420  16.682 -1.5500  0.1305 -0.7431
 2985SOL    HW220589   2.534   4.558  16.731 -0.6127 -0.3430 -2.6556
 2986SOL     OW20590   2.332   4.028   6.321  0.3487 -0.4768 -0.3974
 2986SOL    HW120591   2.298   4.093   6.383  0.1712 -1.1499  0.2005
 2986SOL    HW220592   2.375   3.974   6.386 -0.7460 -1.4530 -0.4840
 2987SOL     OW20593   4.496   2.257   1.112  0.2533  0.6612  0.6082
 2987SOL    HW120594   4.462   2.213   1.034  0.9645 -1.0652  1.2695
 2987SOL    HW220595   4.419   2.255   1.169 -0.2166 -1.1053 -0.0884
 2988SOL     OW20596   2.097   1.527   9.194  0.2899  0.0181 -0.5762
 2988SOL    HW120597   2.117   1.437   9.169 -0.4024  0.0303 -1.1756
 2988SOL    HW220598   2.005   1.535   9.170  0.3229 -2.4522 -1.4688
 2989SOL     OW20599   1.255   3.337  14.127 -0.2594 -0.4577 -0.2547
 2989SOL    HW120600   1.227   3.411  14.182 -1.0678 -0.2257 -0.9838
 2989SOL    HW220601   1.210   3.266  14.173  1.3346  0.3797  2.6215
 2990SOL     OW20602   4.444   2.676  12.171  0.7573  0.3245  0.3965
 2990SOL    HW120603   4.408   2.713  12.091 -0.3042  0.1900  0.8080
 2990SOL    HW220604   4.484   2.751  12.215  0.1539  0.2076  1.1561
 2991SOL     OW20605   3.855   0.522   5.091  0.2544 -0.2922 -0.0082
 2991SOL    HW120606   3.925   0.513   5.156  1.5434  0.2375 -1.3193
 2991SOL    HW220607   3.898   0.501   5.008  0.1944 -0.7142  0.0693
 2992SOL     OW20608   4.603   3.432   1.825  0.8440 -0.4786  0.0915
 2992SOL    HW120609   4.559   3.462   1.904 -0.8061 -1.8724 -0.3142
 2992SOL    HW220610   4.634   3.517   1.794 -0.7401  0.3312  0.7254
 2993SOL     OW20611   4.223   2.920   8.224  0.1776 -0.1173 -0.1428
 2993SOL    HW120612   4.143   2.904   8.275  0.5880 -4.4926 -0.8954
 2993SOL    HW220613   4.278   2.976   8.278 -3.0011  0.4440  2.5496
 2994SOL     OW20614   1.664   1.186  10.469 -1.1926  0.1715 -0.0638
 2994SOL    HW120615   1.591   1.142  10.426 -1.8827  2.2080 -0.9764
 2994SOL    HW220616   1.612   1.245  10.524 -1.0973 -0.2087  0.4224
 2995SOL     OW20617   4.650   1.881  11.318 -0.3789 -0.1539 -0.4800
 2995SOL    HW120618   4.567   1.847  11.284 -0.2549 -0.4637 -0.4736
 2995SOL    HW220619   4.656   1.840  11.405 -1.6444  0.7754  0.0334
 2996SOL     OW20620   0.865   3.205   9.670 -0.3110  0.1258 -0.5325
 2996SOL    HW120621   0.808   3.196   9.747  0.1457 -0.7099 -0.2922
 2996SOL    HW220622   0.919   3.278   9.701  1.0554  0.1221 -2.9124
 2997SOL     OW20623   2.826   3.131   2.302  0.5807 -0.0923  0.1086
 2997SOL    HW120624   2.800   3.206   2.248 -1.0600 -0.1723  0.8090
 2997SOL    HW220625   2.742   3.102   2.338  0.2416 -1.2802 -1.6415
 2998SOL     OW20626   2.655   1.204   7.479 -0.0891  0.4179 -0.0856
 2998SOL    HW120627   2.629   1.193   7.387  1.7214  1.2254 -0.6781
 2998SOL    HW220628   2.571   1.209   7.525  0.3623  1.9935  0.5618
 2999SOL     OW20629   0.078   1.606   5.104  0.0485  0.3583 -0.5892
 2999SOL    HW120630   0.078   1.594   5.009 -0.8105  1.8425 -0.7696
 2999SOL    HW220631   0.159   1.655   5.118 -1.5579  2.6810  0.5995
 3000SOL     OW20632   4.254   2.159   3.142 -0.0510  0.1385 -0.3681
 3000SOL    HW120633   4.258   2.170   3.237  0.4430 -0.4056 -0.3186
 3000SOL    HW220634   4.229   2.245   3.110 -1.5237  0.1277  0.7260
 3001SOL     OW20635   0.518   2.450  13.387 -0.0644  0.6795 -0.4413
 3001SOL    HW120636   0.530   2.456  13.292  0.3989  0.9278 -0.3636
 3001SOL    HW220637   0.537   2.541  13.409  3.3396  0.2215 -1.5452
 3002SOL     OW20638   4.343   4.475   7.669  0.5932 -0.4959 -0.1894
 3002SOL    HW120639   4.346   4.555   7.721  2.5702 -0.8440  0.2365
 3002SOL    HW220640   4.285   4.427   7.728  2.5039 -0.4406  1.7321
 3003SOL     OW20641   0.556   1.033   1.054  0.3512  0.4147  0.0735
 3003SOL    HW120642   0.529   1.076   1.136  0.6606  1.9930 -0.6533
 3003SOL    HW220643   0.643   1.072   1.053  0.8895 -0.8046 -0.0719
 3004SOL     OW20644   2.968   3.329  17.563  0.4986  0.6688  0.0402
 3004SOL    HW120645   3.042   3.385  17.538  1.4442 -0.3223  0.6442
 3004SOL    HW220646   2.977   3.336  17.658  1.2142  0.5826 -0.0214
 3005SOL     OW20647   0.196   2.553  13.873 -0.0413  0.1726 -0.4060
 3005SOL    HW120648   0.203   2.615  13.946 -0.2116 -1.0941  0.6841
 3005SOL    HW220649   0.268   2.493  13.888  1.3992  2.5349  2.0618
 3006SOL     OW20650   0.068   3.306   6.166  0.1135  0.2883 -0.3033
 3006SOL    HW120651   0.162   3.310   6.183  0.2510  1.4808 -1.3282
 3006SOL    HW220652   0.054   3.382   6.110  1.6752  1.7443  1.2930
 3007SOL     OW20653   3.682   3.287   3.366 -0.0002 -0.0364 -0.8134
 3007SOL    HW120654   3.725   3.361   3.323  0.1349 -1.7590 -3.5997
 3007SOL    HW220655   3.658   3.329   3.449 -2.5163 -2.1011 -0.5004
 3008SOL     OW20656   0.438   4.147  12.195 -0.3832 -0.2393  0.2833
 3008SOL    HW120657   0.505   4.081  12.212 -1.1279 -0.5460  2.0347
 3008SOL    HW220658   0.485   4.227  12.219 -0.8629 -0.1949  1.0784
 3009SOL     OW20659   3.679   1.224  12.745  0.6727 -0.0981  0.0240
 3009SOL    HW120660   3.732   1.300  12.769  1.0550 -0.5480  0.6235
 3009SOL    HW220661   3.604   1.231  12.804  0.9533  0.1244  0.3613
 3010SOL     OW20662   1.654   3.010  14.918  0.9042  0.1977 -0.9095
 3010SOL    HW120663   1.647   3.069  14.994  1.2795  0.8447 -1.3820
 3010SOL    HW220664   1.595   2.940  14.947 -0.9063  1.8258 -0.6311
 3011SOL     OW20665   0.108   3.104   6.371 -0.4212  0.1969  0.0131
 3011SOL    HW120666   0.081   3.183   6.325 -0.2227  0.3236  0.1166
 3011SOL    HW220667   0.146   3.057   6.297  1.4804 -0.1742  1.2232
 3012SOL     OW20668   3.357   4.632   7.207  0.1473  0.8982 -0.2936
 3012SOL    HW120669   3.395   4.544   7.204 -1.1388  0.3484 -0.6099
 3012SOL    HW220670   3.399   4.673   7.131 -1.1992  2.7664 -0.0358
 3013SOL     OW20671   3.038   4.616   7.983  0.3853  0.1721  0.0636
 3013SOL    HW120672   3.106   4.610   7.916  1.0147 -0.4172  0.7514
 3013SOL    HW220673   2.958   4.596   7.935  0.5439  3.2016 -1.4603
 3014SOL     OW20674   4.690   3.964   4.399  0.8187  0.0225 -0.0449
 3014SOL    HW120675   0.026   3.902   4.399  0.4865 -0.3592 -2.0639
 3014SOL    HW220676   4.664   3.954   4.490  1.1614  0.5290  0.1121
 3015SOL     OW20677   4.107   0.172  16.503 -0.0495  0.3544  0.4704
 3015SOL    HW120678   4.183   0.151  16.557  0.9347 -0.4162 -1.1900
 3015SOL    HW220679   4.034   0.136  16.554 -0.0839 -2.3448 -1.4308
 3016SOL     OW20680   2.978   4.506  14.606  0.1824 -0.7292 -0.0192
 3016SOL    HW120681   2.967   4.500  14.701  1.0258 -0.3215  0.1021
 3016SOL    HW220682   3.042   4.444  14.571  0.0055 -0.1463 -1.3682
 3017SOL     OW20683   0.484   0.649   6.742 -0.3162 -0.1890  0.5261
 3017SOL    HW120684   0.563   0.609   6.778  0.2653 -1.3246 -1.9938
 3017SOL    HW220685   0.502   0.742   6.755 -0.3392 -0.0293 -0.5848
 3018SOL     OW20686   1.308   3.471   4.241  0.4003 -0.7196 -0.3535
 3018SOL    HW120687   1.327   3.519   4.160 -1.7285 -1.2437 -1.1654
 3018SOL    HW220688   1.339   3.528   4.311  0.1069 -1.5280  0.4351
 3019SOL     OW20689   0.205   1.937   5.352  0.1950  0.1362 -0.8399
 3019SOL    HW120690   0.187   1.941   5.258 -1.1033  0.9878 -0.5541
 3019SOL    HW220691   0.265   1.863   5.366  0.1033  0.5978  2.0439
 3020SOL     OW20692   1.105   2.057  16.193 -0.0921  0.7473  0.3101
 3020SOL    HW120693   1.126   2.117  16.265  0.7930 -3.9265  3.9061
 3020SOL    HW220694   1.148   2.100  16.120  0.1808 -0.7274 -0.3888
 3021SOL     OW20695   2.067   4.535   7.974 -0.3820 -0.8050  0.0795
 3021SOL    HW120696   1.987   4.553   8.022  0.8343 -0.7151  2.0591
 3021SOL    HW220697   2.119   4.615   7.984 -0.2515 -0.8146 -0.4830
 3022SOL     OW20698   4.636   1.636   6.216 -0.1529  0.1497  0.3485
 3022SOL    HW120699   4.706   1.658   6.154 -1.0233 -1.1605 -1.1093
 3022SOL    HW220700   4.575   1.590   6.158  1.0699 -0.9902 -0.0233
 3023SOL     OW20701   2.681   0.748   0.835  0.1771  0.2772  0.1292
 3023SOL    HW120702   2.759   0.800   0.857  1.5779 -1.9444  0.4111
 3023SOL    HW220703   2.714   0.714   0.751  0.6864  3.6674 -1.0580
 3024SOL     OW20704   2.091   0.033   7.645 -0.5603  0.0154 -0.3405
 3024SOL    HW120705   2.177   0.035   7.604 -0.2504 -1.1630  0.2735
 3024SOL    HW220706   2.107   0.079   7.728  2.2168  1.0629 -1.4780
 3025SOL     OW20707   2.566   0.943   8.059 -0.0751  0.5617 -0.2376
 3025SOL    HW120708   2.647   0.947   8.008 -1.0480  3.4336 -1.5763
 3025SOL    HW220709   2.602   0.979   8.140  2.5087  0.2993 -1.2719
 3026SOL     OW20710   2.463   1.910  17.181 -0.3073 -0.8792 -0.6375
 3026SOL    HW120711   2.503   1.882  17.099  2.2379  0.1835  0.2292
 3026SOL    HW220712   2.448   2.002  17.159 -1.3699 -1.1071 -0.8617
 3027SOL     OW20713   2.764   4.680   8.260  0.0296  0.3544 -0.7893
 3027SOL    HW120714   2.857   4.672   8.284 -0.3447  0.9313  0.8530
 3027SOL    HW220715   2.775   4.662   8.167 -2.1166  2.9841 -1.5419
 3028SOL     OW20716   3.195   1.899  13.291 -0.4171 -0.4246 -0.5605
 3028SOL    HW120717   3.111   1.917  13.249 -0.1312  0.8473 -0.5714
 3028SOL    HW220718   3.201   1.973  13.351 -3.4861 -0.1050 -0.6199
 3029SOL     OW20719   3.556   4.403   1.480  0.0546  0.4033  0.6443
 3029SOL    HW120720   3.604   4.384   1.561  1.5073  1.3007 -0.0015
 3029SOL    HW220721   3.618   4.455   1.430 -0.6682  0.7890  0.1651
 3030SOL     OW20722   3.012   3.866   8.861 -0.0186 -0.1769 -0.6100
 3030SOL    HW120723   2.949   3.798   8.886  0.2049 -1.0014 -2.2527
 3030SOL    HW220724   3.017   3.862   8.765  0.2246  0.0023 -0.6052
 3031SOL     OW20725   3.223   0.002   3.570  0.0877 -0.0223  0.3526
 3031SOL    HW120726   3.134   4.714   3.594 -0.0853  0.0608 -0.2043
 3031SOL    HW220727   3.266   4.667   3.615  1.1570  0.5450  0.2335
 3032SOL     OW20728   1.069   1.423  12.226  0.5426  0.4446  0.2703
 3032SOL    HW120729   1.096   1.375  12.148 -2.0910  2.5841 -1.9628
 3032SOL    HW220730   0.989   1.383  12.259 -0.8705  2.8287 -0.2047
 3033SOL     OW20731   1.511   3.915   2.908 -0.1131 -0.4604 -0.7313
 3033SOL    HW120732   1.558   3.965   2.841  2.6733 -2.0939 -0.0175
 3033SOL    HW220733   1.589   3.905   2.963 -0.8138 -0.4189  0.2604
 3034SOL     OW20734   0.731   4.279   5.552 -0.3966 -0.0434  0.0719
 3034SOL    HW120735   0.730   4.363   5.506  1.1522 -0.0044  0.1191
 3034SOL    HW220736   0.815   4.244   5.522 -0.6872 -1.5459  1.0130
 3035SOL     OW20737   2.088   4.061   7.710 -0.1283 -0.5426 -0.6357
 3035SOL    HW120738   2.085   4.090   7.618 -2.2476  1.1701 -0.0325
 3035SOL    HW220739   2.011   4.104   7.747  2.0332  0.8690  2.2479
 3036SOL     OW20740   0.267   1.587   8.737 -0.0798  0.7872 -0.0703
 3036SOL    HW120741   0.290   1.649   8.807  1.0888  1.3200 -0.9277
 3036SOL    HW220742   0.350   1.554   8.701 -0.2125  0.7848 -0.3750
 3037SOL     OW20743   4.553   0.104   6.451  0.6876 -0.8063  0.4746
 3037SOL    HW120744   4.545   0.113   6.355 -0.2440 -1.0315  0.5250
 3037SOL    HW220745   4.473   0.059   6.479  0.2646 -2.6084 -3.5464
 3038SOL     OW20746   3.194   0.376   2.240  0.1251  0.4563 -0.0170
 3038SOL    HW120747   3.276   0.421   2.257  1.7852 -1.8216 -2.0954
 3038SOL    HW220748   3.198   0.354   2.147  0.0831 -0.2985  0.1612
 3039SOL     OW20749   4.549   2.243   9.515  0.1776 -0.7269  0.2701
 3039SOL    HW120750   4.602   2.187   9.458  0.8091 -1.0906  1.2133
 3039SOL    HW220751   4.580   2.330   9.489  0.1103 -0.7805  0.0097
 3040SOL     OW20752   4.519   1.619  17.419 -0.2679 -0.3776  0.0056
 3040SOL    HW120753   4.541   1.547  17.477  0.4100  0.2981  0.5978
 3040SOL    HW220754   4.587   1.608  17.352  0.8780  2.3177  0.6974
 3041SOL     OW20755   2.198   2.580   1.136 -0.2952  0.2931 -0.6457
 3041SOL    HW120756   2.224   2.653   1.079 -1.2976 -0.5055 -2.1112
 3041SOL    HW220757   2.187   2.517   1.065 -0.0958 -1.0276  0.4880
 3042SOL     OW20758   0.241   4.595   3.245 -0.3669 -0.9361  0.4093
 3042SOL    HW120759   0.224   4.589   3.151 -0.3841 -0.9159  0.4111
 3042SOL    HW220760   0.278   4.508   3.263  1.5659 -0.2264 -0.1859
 3043SOL     OW20761   3.704   2.247   5.939 -0.1202 -0.3304  0.0853
 3043SOL    HW120762   3.780   2.281   5.892 -0.3998  1.9964  1.3009
 3043SOL    HW220763   3.641   2.233   5.868  0.2426 -1.4686 -0.0047
 3044SOL     OW20764   1.686   0.426   3.547 -0.6512  0.3688  0.1400
 3044SOL    HW120765   1.771   0.444   3.506 -0.1448  2.0597  1.9541
 3044SOL    HW220766   1.706   0.333   3.562  1.6042  0.1630 -4.2461
 3045SOL     OW20767   3.286   4.208   6.978 -0.6660 -0.1446  0.3259
 3045SOL    HW120768   3.244   4.124   6.958 -1.2231  0.3191 -0.4179
 3045SOL    HW220769   3.208   4.260   6.996 -0.7431 -1.0509  2.6454
 3046SOL     OW20770   2.634   4.219  10.492  0.3293 -0.3324  0.6654
 3046SOL    HW120771   2.569   4.232  10.423  0.3923 -1.3592  0.4125
 3046SOL    HW220772   2.573   4.193  10.561 -0.3034  0.4681  0.4174
 3047SOL     OW20773   2.507   4.561   6.597  0.2677 -0.0155  0.1022
 3047SOL    HW120774   2.491   4.477   6.639  2.6717  0.2045  1.4914
 3047SOL    HW220775   2.420   4.595   6.577  0.8342  1.9240  0.9075
 3048SOL     OW20776   3.800   4.235   8.637  0.2774  0.1189 -0.3314
 3048SOL    HW120777   3.826   4.147   8.612  0.5351  0.2240 -0.4364
 3048SOL    HW220778   3.884   4.269   8.669 -0.4343 -0.7503  2.4627
 3049SOL     OW20779   4.129   3.643   7.934 -0.4090 -0.1898 -0.8717
 3049SOL    HW120780   4.207   3.588   7.939 -1.1360 -1.0919  0.5801
 3049SOL    HW220781   4.129   3.657   8.029 -1.8422  0.8509 -1.0268
 3050SOL     OW20782   1.525   2.922   6.028  0.2900 -0.0409 -0.5458
 3050SOL    HW120783   1.546   2.984   5.958 -0.9853  0.4333 -0.5084
 3050SOL    HW220784   1.515   2.839   5.982 -1.8209 -0.0086 -0.1844
 3051SOL     OW20785   1.453   1.977   0.536  0.1317  0.1589 -0.5618
 3051SOL    HW120786   1.506   1.948   0.462 -0.2587 -1.3062 -0.2509
 3051SOL    HW220787   1.506   2.047   0.574  1.3769  0.7020 -3.2698
 3052SOL     OW20788   0.674   3.316   1.934  0.3299 -0.0456 -0.2742
 3052SOL    HW120789   0.763   3.281   1.930 -0.0089 -1.2723  2.9856
 3052SOL    HW220790   0.626   3.257   1.876  1.1312  0.4570 -1.4445
 3053SOL     OW20791   1.237   1.573   0.689 -0.0788  0.3882  0.1306
 3053SOL    HW120792   1.272   1.629   0.758 -2.8962  0.4712  1.4700
 3053SOL    HW220793   1.166   1.630   0.658 -1.9557 -1.9615  0.1227
 3054SOL     OW20794   1.711   1.303   2.412  0.3567 -0.5449  0.0655
 3054SOL    HW120795   1.667   1.239   2.357 -0.1712  1.0774 -1.4126
 3054SOL    HW220796   1.695   1.262   2.497  0.9900  1.1998  1.0336
 3055SOL     OW20797   3.980   4.298  12.469 -0.1201 -0.6166  0.8662
 3055SOL    HW120798   3.969   4.360  12.541 -1.6380  0.1086  0.0176
 3055SOL    HW220799   3.909   4.321  12.409 -0.2462 -1.4600  0.6887
 3056SOL     OW20800   3.169   1.351   7.705 -0.7718 -0.7068  0.1166
 3056SOL    HW120801   3.134   1.297   7.776 -0.3805 -2.0706 -0.7078
 3056SOL    HW220802   3.095   1.398   7.666  1.0970  1.0425 -1.2624
 3057SOL     OW20803   1.989   2.785   8.438 -0.0023 -0.1633 -0.3423
 3057SOL    HW120804   2.034   2.700   8.439 -0.6077 -0.4778  0.7730
 3057SOL    HW220805   1.899   2.766   8.410 -0.9438  0.0175  2.5367
 3058SOL     OW20806   0.115   4.038   9.027  0.4215  0.0787  0.8525
 3058SOL    HW120807   0.168   4.118   9.030 -0.7039  0.9140 -1.8154
 3058SOL    HW220808   0.132   4.012   9.118  2.9745 -2.2359 -0.3030
 3059SOL     OW20809   3.623   3.393  13.438  0.0636 -0.0713 -0.1334
 3059SOL    HW120810   3.691   3.456  13.461 -2.7764  2.5279  1.0991
 3059SOL    HW220811   3.615   3.417  13.346  0.5564  4.5794  1.0439
 3060SOL     OW20812   4.067   3.019   4.191 -0.5142 -0.1898 -1.3624
 3060SOL    HW120813   4.160   2.998   4.205 -0.7471 -0.9505 -0.9874
 3060SOL    HW220814   4.067   3.115   4.197  0.6152 -0.3562  1.4395
 3061SOL     OW20815   1.260   0.511   0.910 -0.3540 -0.3563  0.1610
 3061SOL    HW120816   1.211   0.568   0.970 -1.2123  0.7670 -1.6302
 3061SOL    HW220817   1.240   0.432   0.961 -0.3638 -0.3580  0.1547
 3062SOL     OW20818   0.593   1.017   1.862 -0.1836 -0.1501  0.2664
 3062SOL    HW120819   0.526   1.055   1.919 -1.0460 -1.7949  0.3581
 3062SOL    HW220820   0.633   1.090   1.813  1.5348 -2.1565 -1.3346
 3063SOL     OW20821   3.506   3.893   6.059  0.4677 -0.2772  0.5988
 3063SOL    HW120822   3.592   3.895   6.017  0.9706  1.0354  1.7026
 3063SOL    HW220823   3.522   3.831   6.130 -0.1843 -0.6530  0.4220
 3064SOL     OW20824   3.009   3.965   7.146 -0.1783 -0.5165 -0.2330
 3064SOL    HW120825   3.101   3.961   7.122 -0.3579 -0.6511 -0.9023
 3064SOL    HW220826   2.984   3.879   7.113  1.2811  0.1033 -2.9916
 3065SOL     OW20827   3.912   0.404   7.408  0.5712  0.7976  1.0900
 3065SOL    HW120828   3.833   0.446   7.440  0.0284  0.2882  0.4383
 3065SOL    HW220829   3.944   0.378   7.494  0.8949  1.2360  1.1003
 3066SOL     OW20830   1.118   2.158   7.531 -0.0701  0.3958 -0.2410
 3066SOL    HW120831   1.121   2.248   7.562  1.2588 -0.5947  2.5033
 3066SOL    HW220832   1.048   2.128   7.589  1.9905 -2.7539  0.5943
 3067SOL     OW20833   2.396   3.873   5.116 -0.1398  0.2768  0.3120
 3067SOL    HW120834   2.405   3.804   5.181 -1.4001  1.7982  2.1299
 3067SOL    HW220835   2.483   3.874   5.076 -0.1961 -1.1739  0.1571
 3068SOL     OW20836   0.177   2.857   6.072 -0.1288  0.1090 -0.7267
 3068SOL    HW120837   0.128   2.938   6.060  0.6517  0.4707 -1.4769
 3068SOL    HW220838   0.267   2.890   6.076 -0.4622  1.0647 -1.0170
 3069SOL     OW20839   0.607   2.216  14.342  0.3807 -0.2588 -0.4755
 3069SOL    HW120840   0.600   2.228  14.247 -1.4936 -0.7430 -0.4049
 3069SOL    HW220841   0.519   2.180  14.355 -0.6893  2.2487 -0.6145
 3070SOL     OW20842   0.520   3.067   2.797  0.2801  0.3956 -0.7948
 3070SOL    HW120843   0.556   2.982   2.772  3.7949  1.3938  0.9107
 3070SOL    HW220844   0.596   3.102   2.844  0.0201  1.3849 -1.1191
 3071SOL     OW20845   0.712   3.581   1.956  0.4307 -0.3285  0.6803
 3071SOL    HW120846   0.684   3.491   1.939 -2.5793  0.3477  2.0793
 3071SOL    HW220847   0.711   3.616   1.867 -0.7822 -1.2380  0.3386
 3072SOL     OW20848   1.779   2.870   5.781 -0.5646 -0.2855 -0.0200
 3072SOL    HW120849   1.752   2.961   5.771 -1.1797 -0.4038  0.5356
 3072SOL    HW220850   1.794   2.852   5.688  1.5587  0.7007  0.1248
 3073SOL     OW20851   3.862   3.912   4.385 -0.3403  0.1390 -0.1838
 3073SOL    HW120852   3.793   3.964   4.426 -0.9587 -0.3443 -0.6113
 3073SOL    HW220853   3.809   3.850   4.335 -0.3544 -1.1360  1.4143
 3074SOL     OW20854   2.066   0.842   4.853 -0.3608 -0.2299  0.3204
 3074SOL    HW120855   2.014   0.915   4.816  0.7976 -0.1943 -1.2169
 3074SOL    HW220856   2.008   0.771   4.826  0.2906 -1.4389  2.1035
 3075SOL     OW20857   0.627   2.674  13.512  0.2009  0.3399  0.4478
 3075SOL    HW120858   0.626   2.763  13.476 -2.8749 -0.6525 -1.9666
 3075SOL    HW220859   0.597   2.695  13.601 -0.5885 -2.0371  0.7468
 3076SOL     OW20860   1.275   0.697   2.656 -0.0922 -0.0545  0.2810
 3076SOL    HW120861   1.322   0.627   2.611 -0.4143 -0.2885  0.3079
 3076SOL    HW220862   1.344   0.762   2.668 -0.2860  0.1078  0.5230
 3077SOL     OW20863   3.582   2.743   8.478 -0.2918 -0.0235 -0.3341
 3077SOL    HW120864   3.627   2.827   8.488  2.0056 -1.0932 -1.6423
 3077SOL    HW220865   3.506   2.758   8.534 -0.7132  0.5267 -1.0374
 3078SOL     OW20866   1.085   2.287   9.088  0.0348  0.0991  0.1886
 3078SOL    HW120867   1.012   2.270   9.148  1.2349  1.4814  2.0618
 3078SOL    HW220868   1.033   2.343   9.029 -0.3011 -1.0948 -0.6349
 3079SOL     OW20869   2.869   3.308   8.414  0.4005 -0.5818 -0.2005
 3079SOL    HW120870   2.854   3.243   8.483  0.3886  2.0824  2.2922
 3079SOL    HW220871   2.937   3.363   8.451 -1.3018 -0.2408  2.3821
 3080SOL     OW20872   2.805   4.480   9.096  0.1455  0.0499  0.5833
 3080SOL    HW120873   2.847   4.528   9.166 -0.7299  1.8014 -0.0916
 3080SOL    HW220874   2.743   4.425   9.145  0.6644 -1.9416 -0.9917
 3081SOL     OW20875   1.573   1.757   3.009 -0.2247  0.3415  0.5134
 3081SOL    HW120876   1.491   1.802   3.026 -0.0517  0.5099  0.9027
 3081SOL    HW220877   1.556   1.684   3.069 -0.6018  0.1354  0.1573
 3082SOL     OW20878   3.730   4.629   2.441 -0.3598  0.3564 -0.3847
 3082SOL    HW120879   3.730   4.558   2.376 -0.2861 -0.4924  0.5385
 3082SOL    HW220880   3.773   4.700   2.395 -1.7394  1.3228 -0.1970
 3083SOL     OW20881   0.259   4.341   6.490  0.2600  0.3510 -0.4004
 3083SOL    HW120882   0.216   4.399   6.427 -0.1744  0.6871  0.1988
 3083SOL    HW220883   0.336   4.397   6.504  1.8281 -1.7586 -0.5860
 3084SOL     OW20884   1.017   1.363   4.164 -0.1905  0.2987 -0.2734
 3084SOL    HW120885   1.101   1.319   4.179 -1.0643 -0.4364  2.5361
 3084SOL    HW220886   1.008   1.408   4.248  2.0689 -0.5521  0.4412
 3085SOL     OW20887   3.200   2.838   2.399  0.1858  0.0898 -0.4216
 3085SOL    HW120888   3.179   2.929   2.379  3.3539  0.8212 -0.2996
 3085SOL    HW220889   3.155   2.794   2.326  0.9395 -3.5250  1.2947
 3086SOL     OW20890   4.139   2.184   2.247  0.1553 -0.2328 -0.5120
 3086SOL    HW120891   4.157   2.272   2.278 -2.0484 -0.4815  1.4773
 3086SOL    HW220892   4.059   2.166   2.297  1.5822 -1.6039  1.2791
 3087SOL     OW20893   1.925   2.550   0.929  0.3612  0.1465 -0.1001
 3087SOL    HW120894   1.941   2.635   0.970  0.1810  1.2779 -2.3750
 3087SOL    HW220895   2.012   2.514   0.909  0.5953 -1.8499  4.6355
 3088SOL     OW20896   3.894   4.388   1.330  0.2779 -0.3741  0.1513
 3088SOL    HW120897   3.870   4.450   1.261 -3.4781 -0.8410  1.0371
 3088SOL    HW220898   3.877   4.317   1.268 -0.9498 -0.6429  0.7881
 3089SOL     OW20899   2.705   4.412   4.548  0.8592 -0.4917  0.2613
 3089SOL    HW120900   2.798   4.435   4.542  0.6770  0.8630  2.5806
 3089SOL    HW220901   2.664   4.498   4.548 -1.7267 -1.7265 -2.5242
 3090SOL     OW20902   2.121   3.138   3.036  0.4198 -0.3053  0.0151
 3090SOL    HW120903   2.201   3.170   2.994  0.5002  1.2958  1.3742
 3090SOL    HW220904   2.075   3.221   3.049 -2.6060 -1.7885 -1.1832
 3091SOL     OW20905   4.016   4.468   5.538  0.0276  0.6469 -0.3071
 3091SOL    HW120906   4.088   4.442   5.596 -0.3768 -2.2338 -1.0937
 3091SOL    HW220907   3.965   4.390   5.517 -0.1411  0.6739  0.0133
 3092SOL     OW20908   0.458   2.363   8.665  0.2646 -0.3709 -0.5150
 3092SOL    HW120909   0.384   2.392   8.611  1.6533  0.7746 -1.8149
 3092SOL    HW220910   0.503   2.300   8.609  0.1791 -0.2649 -0.7032
 3093SOL     OW20911   4.516   3.306  17.406 -0.1669  0.0140  0.2764
 3093SOL    HW120912   4.552   3.227  17.366  1.1689  0.6053  0.3076
 3093SOL    HW220913   4.466   3.347  17.335  1.8810  2.4123  0.2218
 3094SOL     OW20914   1.023   0.239   7.047 -0.3024 -0.2792  0.6700
 3094SOL    HW120915   1.022   0.314   6.987  0.1336 -2.5534 -2.1861
 3094SOL    HW220916   0.946   0.195   7.009 -0.7047  2.0340 -1.1789
 3095SOL     OW20917   0.030   4.074   2.312 -0.2970  0.1558 -0.6707
 3095SOL    HW120918   0.032   4.170   2.307  0.2118  0.1079 -1.2949
 3095SOL    HW220919   0.089   4.044   2.381 -1.6165  0.9706  0.8027
 3096SOL     OW20920   4.113   3.026   6.156 -0.4263 -0.4831  0.4357
 3096SOL    HW120921   4.098   3.087   6.229  0.4269  1.1877 -0.7843
 3096SOL    HW220922   4.194   2.987   6.191  0.7663  3.0760  1.6812
 3097SOL     OW20923   2.707   3.662   8.005  0.1168 -0.5415 -0.6474
 3097SOL    HW120924   2.653   3.740   7.993  0.9905  0.1558 -0.0639
 3097SOL    HW220925   2.680   3.628   8.090  1.2148 -0.8271 -0.4069
 3098SOL     OW20926   2.755   1.823   8.773  0.1064  0.2050 -0.3856
 3098SOL    HW120927   2.697   1.859   8.706  2.0068  2.0073 -1.0618
 3098SOL    HW220928   2.700   1.807   8.849  0.8209 -3.3709 -0.6223
 3099SOL     OW20929   0.571   1.027   5.107 -0.2888 -0.3892 -0.2519
 3099SOL    HW120930   0.554   0.989   5.193 -0.6473 -2.0842 -1.0844
 3099SOL    HW220931   0.576   0.948   5.055 -0.7723  0.4059 -1.4968
 3100SOL     OW20932   2.150   4.165   5.898 -0.1304 -0.1564 -1.1101
 3100SOL    HW120933   2.101   4.127   5.971  0.7154 -1.1305 -1.0447
 3100SOL    HW220934   2.090   4.139   5.828  0.4273 -1.5311 -1.0722
 3101SOL     OW20935   3.984   1.124   5.291 -0.0271 -0.0349 -0.3031
 3101SOL    HW120936   3.933   1.045   5.274  2.4872 -2.0006  1.1473
 3101SOL    HW220937   4.051   1.092   5.352 -0.5880 -0.3130  0.1601
 3102SOL     OW20938   3.744   4.173   0.741 -0.7860  0.5326 -0.3420
 3102SOL    HW120939   3.796   4.189   0.820 -2.7243 -2.5220  1.5341
 3102SOL    HW220940   3.752   4.256   0.694 -2.1334  0.7027 -0.2766
 3103SOL     OW20941   1.542   4.714   3.661  0.1809 -0.6193  0.1528
 3103SOL    HW120942   1.636   4.706   3.646 -0.1879  0.0788 -2.6891
 3103SOL    HW220943   1.508   4.706   3.571 -2.2576  1.6530  0.8546
 3104SOL     OW20944   2.511   2.716   1.440  0.5410 -0.2401 -0.3110
 3104SOL    HW120945   2.474   2.733   1.354  0.3551  0.0495 -0.1745
 3104SOL    HW220946   2.459   2.638   1.461  0.4167  0.0649  0.5288
 3105SOL     OW20947   0.358   2.465   6.330 -0.2754  0.4617  0.0011
 3105SOL    HW120948   0.382   2.449   6.239 -2.0806 -0.4972 -0.2961
 3105SOL    HW220949   0.264   2.449   6.325 -0.0433 -0.4467 -1.5542
 3106SOL     OW20950   4.062   1.977   3.876  0.1980  0.0651 -0.3783
 3106SOL    HW120951   3.973   1.947   3.857  0.2366  1.5425 -2.8991
 3106SOL    HW220952   4.102   1.909   3.930 -2.2461 -0.7023  0.4508
 3107SOL     OW20953   3.668   2.085  16.424 -0.5146 -0.2434  0.3753
 3107SOL    HW120954   3.706   2.113  16.508  0.9106  3.0705 -1.3625
 3107SOL    HW220955   3.576   2.073  16.448 -1.0909 -3.6641 -3.6891
 3108SOL     OW20956   1.100   0.804   5.083  0.3741  0.4051  0.2290
 3108SOL    HW120957   1.139   0.718   5.099 -1.2232 -0.6714 -1.5910
 3108SOL    HW220958   1.122   0.855   5.161 -0.8235 -1.6372  1.8911
 3109SOL     OW20959   1.697   1.493   0.618 -0.3188  0.0390 -0.4339
 3109SOL    HW120960   1.714   1.412   0.667  0.1977  0.1906 -0.3667
 3109SOL    HW220961   1.787   1.525   0.622 -0.7058  1.2281 -1.5103
 3110SOL     OW20962   2.140   3.304  14.590  0.0269  0.2037 -0.1414
 3110SOL    HW120963   2.140   3.227  14.533 -0.1148  1.0217 -1.2314
 3110SOL    HW220964   2.173   3.372  14.532  1.9913  0.8347  1.7168
 3111SOL     OW20965   0.656   0.107   7.782  0.3529 -0.3561  0.4264
 3111SOL    HW120966   0.578   0.127   7.730  1.2877 -1.7816 -1.5533
 3111SOL    HW220967   0.725   0.105   7.715 -1.0864  0.9507 -1.0843
 3112SOL     OW20968   1.953   3.476   5.592  0.1132  0.6272 -0.5512
 3112SOL    HW120969   1.999   3.559   5.587 -1.3185  1.3708 -1.2853
 3112SOL    HW220970   1.898   3.478   5.513  1.1030 -0.8652 -1.2792
 3113SOL     OW20971   1.295   0.076   8.359  0.2240  0.3074  0.7510
 3113SOL    HW120972   1.202   0.056   8.344  0.9533 -2.8490  0.3665
 3113SOL    HW220973   1.314   0.005   8.419 -2.1063 -0.2796  0.8063
 3114SOL     OW20974   0.793   3.798   1.398  0.4139  0.1554 -0.2092
 3114SOL    HW120975   0.703   3.812   1.428  0.0562 -0.8490 -0.8103
 3114SOL    HW220976   0.815   3.876   1.347  0.8510 -0.1513 -0.4910
 3115SOL     OW20977   2.054   0.799   4.109 -0.1331  0.3331  0.3420
 3115SOL    HW120978   2.082   0.712   4.083  0.5711  0.7788 -0.3768
 3115SOL    HW220979   2.074   0.837   4.023  0.5264 -1.4842 -0.2927
 3116SOL     OW20980   1.584   3.626  16.027  0.2725  0.2514  0.6689
 3116SOL    HW120981   1.488   3.632  16.033  0.3943 -0.3676  3.2856
 3116SOL    HW220982   1.596   3.662  15.939  3.5814  0.8206  1.3661
 3117SOL     OW20983   2.573   0.763   2.158  0.1951 -0.0650  0.5107
 3117SOL    HW120984   2.618   0.848   2.155 -2.6854  1.3773 -2.2255
 3117SOL    HW220985   2.487   0.801   2.173 -0.0805 -0.9269  1.0617
 3118SOL     OW20986   2.538   4.247  17.224 -0.4472 -0.1040  0.4684
 3118SOL    HW120987   2.513   4.242  17.131  2.0063 -2.1384 -0.0725
 3118SOL    HW220988   2.571   4.337  17.230  0.6521 -0.3222 -2.0186
 3119SOL     OW20989   1.429   3.725   7.965 -0.2951  0.2266  0.2548
 3119SOL    HW120990   1.507   3.780   7.954  0.0900 -0.0776  1.4157
 3119SOL    HW220991   1.382   3.784   8.023 -0.5683  0.4505 -0.2047
 3120SOL     OW20992   2.419   4.132  16.644  0.3878 -0.2721 -0.4670
 3120SOL    HW120993   2.460   4.054  16.680  1.7602  0.1625 -1.0966
 3120SOL    HW220994   2.339   4.148  16.694  1.7612 -0.5536  1.8116
 3121SOL     OW20995   4.672   0.825   5.576 -0.5596  0.0496 -0.6516
 3121SOL    HW120996   4.668   0.730   5.575  0.4647  0.0013 -0.6416
 3121SOL    HW220997   4.619   0.835   5.497  0.6791  4.1306 -1.0053
 3122SOL     OW20998   2.672   4.373   0.467  0.3263 -0.4525 -0.1039
 3122SOL    HW120999   2.631   4.390   0.382  0.5739  0.1871 -0.0944
 3122SOL    HW221000   2.601   4.385   0.529  1.1804  1.2984  0.5403
 3123SOL     OW21001   3.606   2.480   8.593 -0.1115 -0.2486  0.3637
 3123SOL    HW121002   3.698   2.487   8.621 -0.4181  2.7960  0.6115
 3123SOL    HW221003   3.579   2.571   8.582 -1.0877 -0.5231  0.4786
 3124SOL     OW21004   3.756   0.187   7.568  0.0016  0.0237 -0.2392
 3124SOL    HW121005   3.735   0.205   7.476 -0.9368 -0.6849 -0.1613
 3124SOL    HW221006   3.794   0.100   7.562  2.3674  1.0151  0.4779
 3125SOL     OW21007   2.882   3.423   9.588 -0.3949 -0.6008  0.5545
 3125SOL    HW121008   2.791   3.430   9.560  0.2155  1.6122 -0.8845
 3125SOL    HW221009   2.906   3.360   9.521  0.7522 -1.8101  2.1000
 3126SOL     OW21010   1.681   3.249   8.238  0.1262  0.2307  0.0493
 3126SOL    HW121011   1.759   3.252   8.182 -0.3964 -0.0367 -0.6852
 3126SOL    HW221012   1.683   3.165   8.284 -0.1203 -0.0551 -0.4690
 3127SOL     OW21013   3.283   0.584   8.127  0.4902  0.0337 -0.6658
 3127SOL    HW121014   3.254   0.635   8.051 -1.4600 -0.6784 -0.3857
 3127SOL    HW221015   3.305   0.651   8.191 -2.7939  0.0047  0.4792
 3128SOL     OW21016   3.419   2.188   7.410 -0.1733 -0.1252 -0.1302
 3128SOL    HW121017   3.376   2.254   7.464 -2.4921 -3.6161  2.2960
 3128SOL    HW221018   3.475   2.143   7.474  0.8543  0.9028 -0.3051
 3129SOL     OW21019   2.497   3.043   1.375 -0.1767  0.3987 -0.1116
 3129SOL    HW121020   2.523   2.954   1.398 -2.3621  0.0405  0.9541
 3129SOL    HW221021   2.423   3.062   1.432 -0.0230 -1.1216  0.5784
 3130SOL     OW21022   3.970   2.215   4.017 -0.3241 -0.1026 -0.1208
 3130SOL    HW121023   3.965   2.123   3.990  2.0262 -0.5044  0.7235
 3130SOL    HW221024   3.887   2.225   4.062  0.4394 -1.9345  1.7277
 3131SOL     OW21025   3.220   3.830   9.448 -0.7275 -0.4275 -0.5165
 3131SOL    HW121026   3.152   3.833   9.516 -0.4955 -3.7642 -0.1240
 3131SOL    HW221027   3.157   3.856   9.380  0.8447  1.9765 -1.0175
 3132SOL     OW21028   1.393   3.561   6.700  0.4791  0.1543  0.0301
 3132SOL    HW121029   1.439   3.541   6.782  0.4180 -1.0757 -0.2372
 3132SOL    HW221030   1.460   3.590   6.639  1.0233  2.3497  1.6507
 3133SOL     OW21031   2.878   0.449   2.440  0.1670 -0.3796  0.0980
 3133SOL    HW121032   2.967   0.437   2.474  0.2012 -1.2607 -0.2845
 3133SOL    HW221033   2.867   0.383   2.371  3.4340  0.7344 -1.4941
 3134SOL     OW21034   3.658   0.045  12.161  0.3211 -0.4330 -0.3184
 3134SOL    HW121035   3.641   0.074  12.072  2.5070  1.6682 -0.0646
 3134SOL    HW221036   3.579   0.088  12.195  1.8606  1.1606  1.2429
 3135SOL     OW21037   1.410   2.588   1.361  0.3925  0.3729 -0.0516
 3135SOL    HW121038   1.380   2.535   1.434  1.1361  2.5865  1.8542
 3135SOL    HW221039   1.334   2.571   1.305  0.8266 -2.9288  0.3763
 3136SOL     OW21040   2.654   1.691   6.384  0.8718 -0.3896  0.1584
 3136SOL    HW121041   2.681   1.783   6.388  0.2668 -0.3521  2.9154
 3136SOL    HW221042   2.703   1.667   6.462  1.0811 -0.7801 -0.0935
 3137SOL     OW21043   4.251   2.815   0.486 -0.4061  0.1939  0.3124
 3137SOL    HW121044   4.229   2.906   0.502 -1.1336 -0.3543  2.4447
 3137SOL    HW221045   4.168   2.773   0.509 -0.9609  1.1150 -0.0159
 3138SOL     OW21046   1.448   0.928   2.683  0.4042 -0.2889 -0.3106
 3138SOL    HW121047   1.472   0.950   2.593  1.5629  1.8325  0.5066
 3138SOL    HW221048   1.532   0.952   2.722 -0.8177  0.8608  1.6241
 3139SOL     OW21049   3.703   4.642   1.729 -0.1441  0.1021 -0.2637
 3139SOL    HW121050   3.609   4.655   1.744  0.0425  0.0066  1.0301
 3139SOL    HW221051   3.714   4.556   1.769  3.5896  1.1912  1.1076
 3140SOL     OW21052   2.292   0.002   1.645  0.4214 -0.1147  0.2184
 3140SOL    HW121053   2.219   0.041   1.598 -0.9675 -1.8791  0.9130
 3140SOL    HW221054   2.348   4.712   1.572  0.7618 -1.2002  0.8648
 3141SOL     OW21055   2.256   1.866   6.150  0.0018  0.0281 -0.5290
 3141SOL    HW121056   2.302   1.901   6.226  1.5078  0.2902 -1.5643
 3141SOL    HW221057   2.307   1.787   6.129 -0.6168 -1.0119  1.8728
 3142SOL     OW21058   0.105   0.727   3.005 -0.1795 -0.0714 -0.4268
 3142SOL    HW121059   0.188   0.770   2.985 -0.1438 -1.0261 -2.2799
 3142SOL    HW221060   0.140   0.639   3.018 -1.9656 -0.7903 -0.4222
 3143SOL     OW21061   2.397   0.905   8.717 -0.3309  0.0131  0.0112
 3143SOL    HW121062   2.355   0.920   8.632 -0.4330  1.8766  0.4008
 3143SOL    HW221063   2.490   0.900   8.694 -1.3161 -0.1140 -3.9096
 3144SOL     OW21064   4.256   0.855   4.337 -0.4961 -0.2503 -0.5514
 3144SOL    HW121065   4.339   0.885   4.374 -0.9663 -0.1355  0.4121
 3144SOL    HW221066   4.259   0.771   4.382 -0.3483 -0.2295 -0.5232
 3145SOL     OW21067   0.859   0.051   8.982 -0.2058 -0.4484  0.1979
 3145SOL    HW121068   0.809   4.706   8.975  1.1307 -1.1803 -0.7725
 3145SOL    HW221069   0.830   0.100   8.906 -0.1080 -0.5108  0.1205
 3146SOL     OW21070   2.589   1.814  12.806 -0.3707  0.2030  0.1859
 3146SOL    HW121071   2.629   1.901  12.813  2.2157 -0.8462 -1.5837
 3146SOL    HW221072   2.663   1.761  12.778 -0.8423  0.4430 -1.4895
 3147SOL     OW21073   0.280   0.158   4.022  0.9470 -0.1364  0.0649
 3147SOL    HW121074   0.357   0.211   4.045  0.2128  1.7792 -1.9217
 3147SOL    HW221075   0.273   0.107   4.104  2.7480 -1.4456 -0.5865
 3148SOL     OW21076   1.446   3.668  15.733 -0.2923  0.5407 -0.0017
 3148SOL    HW121077   1.455   3.755  15.695  1.7573  0.5099  0.4188
 3148SOL    HW221078   1.395   3.616  15.671 -0.6453  1.1567 -0.2200
 3149SOL     OW21079   0.475   0.811  15.969  0.1078  0.0502  0.2135
 3149SOL    HW121080   0.411   0.881  15.982  1.1982  1.3271 -1.2574
 3149SOL    HW221081   0.508   0.795  16.057  3.2251  0.1922 -0.9282
 3150SOL     OW21082   0.061   4.212  16.098 -0.0569 -0.1861  0.6705
 3150SOL    HW121083   0.043   4.299  16.063  2.0364  0.1276  0.3811
 3150SOL    HW221084   4.733   4.156  16.056 -0.0984 -0.4612  1.0947
 3151SOL     OW21085   4.191   2.958   5.711 -0.1055  0.5030  0.2642
 3151SOL    HW121086   4.162   3.024   5.774 -3.7050 -1.6569  0.8386
 3151SOL    HW221087   4.121   2.894   5.720  0.6350 -0.2379  0.7393
 3152SOL     OW21088   2.845   1.764   6.632 -0.4277 -0.5662  0.2624
 3152SOL    HW121089   2.827   1.676   6.662 -2.7645 -0.7809 -1.7549
 3152SOL    HW221090   2.895   1.802   6.704  1.8523 -1.7143 -0.7300
 3153SOL     OW21091   4.040   4.542   7.512  0.4019  0.6391  0.5155
 3153SOL    HW121092   4.075   4.531   7.424  1.0192 -0.3117  0.8802
 3153SOL    HW221093   4.042   4.452   7.544 -0.9793  0.3423 -0.2208
 3154SOL     OW21094   4.735   1.292  11.676  0.1810 -0.0363  0.1356
 3154SOL    HW121095   0.005   1.375  11.631  1.5947  0.6167  1.5221
 3154SOL    HW221096   0.070   1.249  11.630  0.1206  0.6128 -0.5478
 3155SOL     OW21097   4.428   0.553  16.297  0.1779  0.1624 -0.5834
 3155SOL    HW121098   4.344   0.584  16.262 -0.4580 -0.9128 -0.0249
 3155SOL    HW221099   4.395   0.493  16.364  0.5305  2.1181  1.3138
 3156SOL     OW21100   1.516   2.024   1.101 -0.0402  0.1471 -0.0300
 3156SOL    HW121101   1.583   2.009   1.034 -0.3035  0.1710 -0.2992
 3156SOL    HW221102   1.468   2.091   1.051  1.1093  2.0504  1.4446
 3157SOL     OW21103   1.630   4.488   1.863 -0.0996  0.2905  0.3679
 3157SOL    HW121104   1.704   4.537   1.828 -0.5985  1.7302  1.3224
 3157SOL    HW221105   1.640   4.484   1.958 -1.1931  1.5451  0.5294
 3158SOL     OW21106   1.467   3.290   1.564 -0.6406 -0.1095 -0.1182
 3158SOL    HW121107   1.463   3.347   1.487  0.6101  0.4906  0.2488
 3158SOL    HW221108   1.539   3.326   1.616  0.5536 -1.8613 -0.5330
 3159SOL     OW21109   1.652   3.946   7.851  0.3415 -0.1081 -0.0699
 3159SOL    HW121110   1.745   3.961   7.839  0.6290 -1.5978  0.3132
 3159SOL    HW221111   1.625   3.908   7.767  2.0049 -2.0759  0.2970
 3160SOL     OW21112   3.413   2.580   1.481 -0.1045 -0.1223 -0.1132
 3160SOL    HW121113   3.331   2.623   1.457 -0.2279 -0.5296 -0.4261
 3160SOL    HW221114   3.455   2.587   1.396 -0.5784  1.4224 -0.2198
 3161SOL     OW21115   3.446   1.440   5.883  0.3075  0.4349 -0.7055
 3161SOL    HW121116   3.454   1.532   5.909  1.4045 -0.4199  1.9717
 3161SOL    HW221117   3.473   1.395   5.963  0.3586  3.7014  1.1236
 3162SOL     OW21118   0.868   0.998  14.174  0.6274  0.1526 -0.3314
 3162SOL    HW121119   0.833   1.082  14.203  1.0607  0.0500  0.5060
 3162SOL    HW221120   0.814   0.977  14.098  2.5423  0.2276 -1.6868
 3163SOL     OW21121   0.758   2.760   6.134 -0.1681 -0.1651  0.2667
 3163SOL    HW121122   0.816   2.759   6.058 -0.8865  2.4012 -0.2903
 3163SOL    HW221123   0.816   2.779   6.208  0.7428 -1.0056 -0.2205
 3164SOL     OW21124   4.001   1.148   7.238 -0.5632 -0.6701  0.0312
 3164SOL    HW121125   3.959   1.068   7.207 -0.4913 -0.5418 -0.3906
 3164SOL    HW221126   4.024   1.123   7.328 -0.2831  1.1455  0.4736
 3165SOL     OW21127   3.505   0.607   2.912  0.1671 -0.3143  0.2254
 3165SOL    HW121128   3.593   0.616   2.948  1.2540  0.6830 -2.7181
 3165SOL    HW221129   3.494   0.513   2.901  0.3694 -0.2681 -0.3683
 3166SOL     OW21130   3.278   0.595   6.596  0.7511 -0.0081 -0.4171
 3166SOL    HW121131   3.232   0.679   6.598 -0.3109 -0.5367 -2.4075
 3166SOL    HW221132   3.218   0.545   6.540 -0.1128  0.3670  0.1760
 3167SOL     OW21133   1.618   2.633   7.999 -0.1836  0.2996  0.4281
 3167SOL    HW121134   1.591   2.561   8.055  3.6914 -1.4094  0.1106
 3167SOL    HW221135   1.578   2.606   7.917  0.5421 -0.1007  0.2047
 3168SOL     OW21136   3.968   0.813  15.378 -0.0818  0.4269  0.1765
 3168SOL    HW121137   4.006   0.881  15.323 -3.6637  1.2997 -1.2669
 3168SOL    HW221138   4.014   0.816  15.462  1.0051  2.2623 -0.4730
 3169SOL     OW21139   4.568   3.975   9.322  0.0051 -0.3727  0.1094
 3169SOL    HW121140   4.653   3.932   9.325 -1.5418 -3.4792 -0.2017
 3169SOL    HW221141   4.557   4.019   9.407  1.1282 -1.0837  0.6205
 3170SOL     OW21142   2.895   0.013   3.083  0.3888  0.4353 -0.4248
 3170SOL    HW121143   2.814   4.701   3.090  0.7109 -0.5330 -3.6979
 3170SOL    HW221144   2.965   4.686   3.069 -1.9168 -1.7527 -1.7721
 3171SOL     OW21145   4.315   2.874   2.633 -0.2511  0.1655  0.1932
 3171SOL    HW121146   4.246   2.855   2.697 -0.6310 -0.4527 -0.4022
 3171SOL    HW221147   4.382   2.812   2.661  3.0066  2.8359 -1.6579
 3172SOL     OW21148   1.611   1.526  13.570  0.5690 -0.1567 -0.1480
 3172SOL    HW121149   1.676   1.538  13.501  0.6803 -0.9553 -0.1857
 3172SOL    HW221150   1.538   1.491  13.520  0.4415  0.6028 -0.4904
 3173SOL     OW21151   2.226   3.876  12.039 -0.6500  0.4804  0.6047
 3173SOL    HW121152   2.173   3.942  12.083  0.1024 -0.4835  2.9506
 3173SOL    HW221153   2.183   3.886  11.954 -0.5118  1.5764  0.6655
 3174SOL     OW21154   1.071   4.432   0.930  0.0524 -0.2104  0.3703
 3174SOL    HW121155   1.154   4.453   0.889  0.1181 -0.1415  0.5362
 3174SOL    HW221156   1.042   4.359   0.876 -0.0405  0.0525  0.0677
 3175SOL     OW21157   3.554   2.480   4.041 -0.6974  0.4837  0.4253
 3175SOL    HW121158   3.634   2.515   4.002 -1.5342  0.1456 -1.5547
 3175SOL    HW221159   3.500   2.559   4.041 -0.7561  0.4464  1.2251
 3176SOL     OW21160   3.147   2.714  15.786  0.1404 -0.5994 -0.3212
 3176SOL    HW121161   3.160   2.632  15.834 -3.1872 -0.1948  1.2688
 3176SOL    HW221162   3.177   2.776  15.853  0.1279  0.8476 -1.6560
 3177SOL     OW21163   2.973   2.121   8.628  0.2570 -0.6638  0.2111
 3177SOL    HW121164   3.018   2.051   8.580  0.0643 -0.4637 -0.2684
 3177SOL    HW221165   2.979   2.101   8.721  2.8545 -1.0989 -0.0413
 3178SOL     OW21166   3.303   3.969   2.334 -0.0638 -0.0806 -0.3625
 3178SOL    HW121167   3.255   4.051   2.341 -0.2771 -0.2149 -0.2499
 3178SOL    HW221168   3.234   3.910   2.303  0.7047 -0.2229 -1.8270
 3179SOL     OW21169   2.923   0.326  10.949  0.4072 -0.3273 -0.1102
 3179SOL    HW121170   2.887   0.246  10.910  0.0521 -1.8563  3.3766
 3179SOL    HW221171   2.901   0.387  10.878 -0.1878  0.8746  1.1109
 3180SOL     OW21172   4.628   3.481   6.020 -0.1360 -0.5862 -0.3787
 3180SOL    HW121173   4.592   3.569   6.007  0.9188  0.0942  1.3742
 3180SOL    HW221174   4.565   3.437   6.078  0.6918  1.2869  1.9573
 3181SOL     OW21175   4.446   0.522   6.815  0.0547  0.2070 -0.0982
 3181SOL    HW121176   4.481   0.488   6.897 -1.8895  0.1799  0.7245
 3181SOL    HW221177   4.357   0.535   6.846 -0.2631 -1.9234 -0.1064
 3182SOL     OW21178   1.335   3.111  11.487 -0.0486  0.9591  0.5055
 3182SOL    HW121179   1.340   3.145  11.398  2.6900 -2.3604 -0.6169
 3182SOL    HW221180   1.288   3.180  11.534 -0.8063  0.4819  0.4456
 3183SOL     OW21181   1.421   1.166   9.662  0.0606 -0.2467  0.1360
 3183SOL    HW121182   1.456   1.171   9.751  2.2929 -1.6579 -0.6748
 3183SOL    HW221183   1.502   1.192   9.619 -0.2235 -1.4221 -1.1216
 3184SOL     OW21184   2.838   2.652  15.572 -0.3565  0.5366  0.2908
 3184SOL    HW121185   2.761   2.608  15.538 -1.2422  1.2815  1.3217
 3184SOL    HW221186   2.910   2.600  15.536 -1.0296 -1.7898  2.3610
 3185SOL     OW21187   0.137   4.174   3.542 -0.3369 -0.3895  0.3618
 3185SOL    HW121188   0.217   4.170   3.490  0.5652  1.2785  1.6039
 3185SOL    HW221189   0.062   4.153   3.486  0.5020 -0.6211 -0.6658
 3186SOL     OW21190   2.975   2.846   1.492  0.0443  0.2989 -0.1682
 3186SOL    HW121191   2.953   2.935   1.464 -1.7342  0.1386  0.6747
 3186SOL    HW221192   3.013   2.876   1.574  0.8536  1.3327 -0.9221
 3187SOL     OW21193   0.675   2.086   7.905 -0.4843  0.0998  0.4052
 3187SOL    HW121194   0.663   2.170   7.861  1.7318 -0.2775 -0.8951
 3187SOL    HW221195   0.658   2.110   7.996  3.1239  1.4102  0.7188
 3188SOL     OW21196   0.183   4.308   5.791 -0.3790 -0.4851  0.1656
 3188SOL    HW121197   0.184   4.260   5.874 -0.6291 -1.0808 -0.1757
 3188SOL    HW221198   0.234   4.387   5.804 -0.7377 -0.3618  0.8020
 3189SOL     OW21199   1.914   2.308   4.327 -0.3243 -0.3796  0.0040
 3189SOL    HW121200   1.965   2.231   4.349  0.6483  0.3943  0.4587
 3189SOL    HW221201   1.958   2.328   4.245 -0.8767 -1.3450 -0.5216
 3190SOL     OW21202   3.562   3.575   5.884 -0.4880 -0.8244  0.1994
 3190SOL    HW121203   3.506   3.531   5.820 -1.0118  0.6171 -0.3272
 3190SOL    HW221204   3.513   3.577   5.966  2.3921  1.9266  1.8444
 3191SOL     OW21205   1.933   3.420   4.903 -0.5242 -0.0049 -0.2710
 3191SOL    HW121206   1.853   3.428   4.852 -0.2045 -1.5808 -1.0107
 3191SOL    HW221207   2.010   3.434   4.846 -1.0746 -2.3568 -1.5854
 3192SOL     OW21208   3.829   3.563   1.819  0.1293 -0.0216 -0.0177
 3192SOL    HW121209   3.809   3.481   1.863  0.9455 -0.1124  0.1811
 3192SOL    HW221210   3.844   3.618   1.896  1.2383 -0.7943  0.3095
 3193SOL     OW21211   0.742   2.277   5.154 -0.8127  0.3714  0.1793
 3193SOL    HW121212   0.794   2.203   5.123 -1.7377  0.4218 -1.4861
 3193SOL    HW221213   0.778   2.287   5.242 -1.5417  0.8670  0.4191
 3194SOL     OW21214   2.771   3.783   4.601  0.3914  0.4335  0.1910
 3194SOL    HW121215   2.860   3.794   4.634 -0.1177  0.2465  1.6309
 3194SOL    HW221216   2.780   3.783   4.505 -2.2631 -2.0258 -0.0710
 3195SOL     OW21217   3.776   0.220   4.049  0.1581 -0.1230  0.1989
 3195SOL    HW121218   3.684   0.246   4.042  0.3081  0.8658  1.7005
 3195SOL    HW221219   3.753   0.128   4.065 -0.6215  0.1705  0.7889
 3196SOL     OW21220   0.886   3.946   9.016  0.3464 -0.8216 -0.4034
 3196SOL    HW121221   0.940   3.891   8.959 -1.1094 -0.4763 -2.1492
 3196SOL    HW221222   0.911   3.918   9.104  1.4008  0.1625 -0.3969
 3197SOL     OW21223   2.455   0.749   3.673 -0.4125  0.1395  0.2865
 3197SOL    HW121224   2.480   0.769   3.763  0.1691  0.8543 -0.0374
 3197SOL    HW221225   2.463   0.654   3.665 -1.7375 -0.0130  0.8728
 3198SOL     OW21226   1.295   1.648   6.815 -0.4942 -0.1480  0.2248
 3198SOL    HW121227   1.337   1.572   6.856  3.1044  1.2621 -0.9007
 3198SOL    HW221228   1.320   1.719   6.875  2.3114 -1.6471  0.8029
 3199SOL     OW21229   3.358   0.734  11.633 -0.9005  0.3496  0.0397
 3199SOL    HW121230   3.411   0.658  11.610 -1.0915 -0.1843  1.3267
 3199SOL    HW221231   3.351   0.787  11.555  1.3362 -2.1443 -1.8574
 3200SOL     OW21232   2.389   0.723   5.163  0.2118 -0.1308 -0.0570
 3200SOL    HW121233   2.309   0.773   5.153  0.6995  0.6269 -0.1826
 3200SOL    HW221234   2.447   0.775   5.107 -1.8269  0.6353 -1.4509
 3201SOL     OW21235   4.492   3.632   3.424  0.0280 -0.3869  0.5206
 3201SOL    HW121236   4.489   3.610   3.331 -1.6830  2.8188 -0.1687
 3201SOL    HW221237   4.435   3.709   3.420  0.2886 -0.1556  1.2033
 3202SOL     OW21238   3.481   3.298  17.570 -0.2060  0.2090  0.2805
 3202SOL    HW121239   3.393   3.327  17.595 -0.0343  0.5844  0.4283
 3202SOL    HW221240   3.481   3.323  17.477 -1.5816  1.3645  0.6049
 3203SOL     OW21241   4.155   3.098  16.109  0.2873  0.3385  0.0886
 3203SOL    HW121242   4.221   3.040  16.071 -0.0552  0.7440 -1.1102
 3203SOL    HW221243   4.130   3.150  16.033 -2.0603 -0.3868  0.3497
 3204SOL     OW21244   2.381   2.123   2.861  0.0105 -0.1561  0.0376
 3204SOL    HW121245   2.441   2.094   2.792  0.7404  0.0587  0.5833
 3204SOL    HW221246   2.441   2.182   2.907  0.9860  0.0172 -1.4594
 3205SOL     OW21247   0.792   4.359   0.883  0.0530 -0.4873 -0.0972
 3205SOL    HW121248   0.753   4.408   0.955 -0.1948 -1.5081  0.4693
 3205SOL    HW221249   0.762   4.411   0.809  0.2571 -0.3733 -0.0992
 3206SOL     OW21250   4.618   4.383   2.286 -0.1845  0.3059  0.1136
 3206SOL    HW121251   4.710   4.359   2.300 -0.4592 -0.2986  0.9121
 3206SOL    HW221252   4.638   4.473   2.259  0.0900  1.1209  3.0078
 3207SOL     OW21253   1.308   2.448  13.183  0.5808 -0.0811 -0.0118
 3207SOL    HW121254   1.315   2.360  13.220  1.3633  0.3394  0.8214
 3207SOL    HW221255   1.219   2.468  13.213  0.5762  2.3558 -1.6002
 3208SOL     OW21256   2.532   4.298   6.715  0.3315 -0.2002  0.2641
 3208SOL    HW121257   2.518   4.291   6.809 -0.6530  0.2026  0.1416
 3208SOL    HW221258   2.622   4.268   6.704  1.1803  2.1450  0.7454
 3209SOL     OW21259   2.980   3.049   7.515  0.1221  1.2347 -0.0086
 3209SOL    HW121260   2.954   3.026   7.426 -0.3819  1.9972 -0.0656
 3209SOL    HW221261   2.934   3.133   7.510 -0.3421  1.0153  0.4878
 3210SOL     OW21262   0.464   4.509   4.641  0.4690  0.1297  0.2348
 3210SOL    HW121263   0.513   4.429   4.657 -1.2537 -1.2888 -1.7093
 3210SOL    HW221264   0.392   4.473   4.590  1.1078 -0.7952 -0.0053
 3211SOL     OW21265   0.493   3.169   0.407 -0.6940 -0.6818 -0.3679
 3211SOL    HW121266   0.564   3.134   0.353  0.8632  2.5601 -0.4172
 3211SOL    HW221267   0.534   3.167   0.494  0.6998  0.3126 -1.0122
 3212SOL     OW21268   2.456   3.403   5.616  0.6132 -0.1067  0.1780
 3212SOL    HW121269   2.448   3.426   5.523  0.5216 -2.2165 -0.3244
 3212SOL    HW221270   2.431   3.311   5.611 -2.2927  0.8540 -2.3824
 3213SOL     OW21271   0.552   1.979  15.422  0.0752 -0.2710 -0.5970
 3213SOL    HW121272   0.612   1.961  15.494 -0.0371  0.8055 -0.2415
 3213SOL    HW221273   0.467   1.966  15.463  1.1074 -3.5777  0.5007
 3214SOL     OW21274   2.663   3.231  15.578  0.0736 -0.2173 -0.6960
 3214SOL    HW121275   2.620   3.165  15.523 -0.1219  0.9859 -1.9971
 3214SOL    HW221276   2.733   3.252  15.515 -0.8863  1.2331 -1.2867
 3215SOL     OW21277   4.058   4.653  11.609  0.3942  0.2707 -0.1808
 3215SOL    HW121278   4.086   4.718  11.545 -2.4938  0.7986 -0.9231
 3215SOL    HW221279   4.097   4.669  11.695  1.2226  0.4742 -0.5973
 3216SOL     OW21280   1.100   4.718   7.974 -0.2737 -0.5905 -0.5655
 3216SOL    HW121281   1.023   4.669   8.004  1.3975 -2.3269  0.8887
 3216SOL    HW221282   1.144   4.645   7.930  2.2650  0.2504  0.6169
 3217SOL     OW21283   0.483   3.709   8.670  0.4572  0.6228 -0.0467
 3217SOL    HW121284   0.482   3.767   8.746 -0.2793  0.8777 -0.2579
 3217SOL    HW221285   0.576   3.685   8.666  0.6789  1.5822 -0.6505
 3218SOL     OW21286   4.381   1.794   8.294 -0.0294  0.0447  0.2170
 3218SOL    HW121287   4.455   1.770   8.350 -1.1839 -3.0180  0.4023
 3218SOL    HW221288   4.329   1.715   8.306  0.8992 -1.0457 -2.8822
 3219SOL     OW21289   4.030   0.113   5.170 -0.3595  0.2240 -0.1053
 3219SOL    HW121290   4.037   0.106   5.075 -0.1209 -1.4095  0.0197
 3219SOL    HW221291   4.036   0.020   5.195  0.0937  0.3491  0.2291
 3220SOL     OW21292   3.001   4.371   5.121  0.0659 -0.8939  0.4992
 3220SOL    HW121293   3.016   4.277   5.119 -2.1546 -1.1786 -2.7314
 3220SOL    HW221294   2.955   4.377   5.205 -1.0535 -0.0031 -0.1639
 3221SOL     OW21295   0.433   3.950   5.493 -0.3209  0.3691  0.3523
 3221SOL    HW121296   0.382   3.871   5.477  0.6617  0.2682 -2.3139
 3221SOL    HW221297   0.382   3.986   5.565 -2.3138 -1.9441  0.0983
 3222SOL     OW21298   0.815   1.010   7.295  0.4934  0.1729  0.6857
 3222SOL    HW121299   0.843   0.920   7.311  0.7436 -0.1884 -1.8644
 3222SOL    HW221300   0.890   1.056   7.257 -0.7699  2.2578  0.6581
 3223SOL     OW21301   2.664   0.541  11.608  1.1562  0.0979  0.0174
 3223SOL    HW121302   2.678   0.452  11.638 -0.2565 -0.6057 -1.4092
 3223SOL    HW221303   2.576   0.535  11.573  0.2591  1.8233  1.9667
 3224SOL     OW21304   0.781   3.504  11.870  0.0624  0.3716 -1.1949
 3224SOL    HW121305   0.711   3.478  11.930  1.2075  0.0626  0.0121
 3224SOL    HW221306   0.782   3.430  11.809  2.7533  0.4518 -1.2327
 3225SOL     OW21307   0.230   0.101  15.980 -0.0033 -0.0248 -0.1748
 3225SOL    HW121308   0.316   0.139  16.001  0.4159 -1.6430  1.0417
 3225SOL    HW221309   0.228   0.114  15.885  2.4137 -3.2381 -0.7055
 3226SOL     OW21310   2.305   0.962  12.247  0.3938  0.3655 -0.1204
 3226SOL    HW121311   2.277   1.031  12.308  2.0447  2.0013 -1.2066
 3226SOL    HW221312   2.390   1.000  12.224 -1.4141  4.0233 -0.7020
 3227SOL     OW21313   4.555   0.036   5.613 -0.4822 -0.0690  0.7881
 3227SOL    HW121314   4.598   4.688   5.602 -1.4942 -0.4632 -0.2248
 3227SOL    HW221315   4.494   0.024   5.540  1.7758 -0.8731 -0.9435
 3228SOL     OW21316   2.578   1.268   2.564 -0.0725  0.6203  0.1443
 3228SOL    HW121317   2.517   1.339   2.584  1.1840  2.0396 -1.0617
 3228SOL    HW221318   2.657   1.297   2.609  1.1761 -1.0959 -0.9571
 3229SOL     OW21319   2.922   2.472   5.938  0.3184 -0.4738 -0.9164
 3229SOL    HW121320   3.009   2.512   5.932  1.4548 -2.2654  3.2774
 3229SOL    HW221321   2.953   2.385   5.913 -0.4611 -0.0756 -3.2682
 3230SOL     OW21322   3.371   1.613  11.411  0.4489  0.3359 -0.5558
 3230SOL    HW121323   3.333   1.525  11.420  2.7603 -0.9488 -3.4163
 3230SOL    HW221324   3.427   1.623  11.488  0.6830  1.8263 -0.9227
 3231SOL     OW21325   3.432   2.459  14.432  0.0609 -0.4245  0.5232
 3231SOL    HW121326   3.462   2.516  14.361 -0.0299 -0.3732  0.5257
 3231SOL    HW221327   3.433   2.532  14.494  2.0178  1.5418 -1.8201
 3232SOL     OW21328   0.654   0.746  11.325  0.3484 -0.4112  0.1788
 3232SOL    HW121329   0.693   0.663  11.298 -0.8573 -1.1767  0.8246
 3232SOL    HW221330   0.729   0.806  11.320  0.4862 -0.5332  0.6993
 3233SOL     OW21331   0.503   4.656  15.003 -0.0446  0.0659  0.0766
 3233SOL    HW121332   0.467   4.657  14.914  2.4170  0.3783 -0.9224
 3233SOL    HW221333   0.595   4.663  14.979  0.4201 -1.5083  1.3943
 3234SOL     OW21334   1.023   1.257  17.403  0.8818 -0.2157  0.0553
 3234SOL    HW121335   1.001   1.165  17.388 -0.1101 -0.3102  2.0094
 3234SOL    HW221336   1.112   1.249  17.436  1.3585  0.7804 -1.0219
 3235SOL     OW21337   3.854   1.373   4.887  0.0095 -0.1693  0.1083
 3235SOL    HW121338   3.886   1.436   4.951 -0.7325 -0.0477  0.3629
 3235SOL    HW221339   3.904   1.298   4.918 -1.0704 -0.6822  0.6193
 3236SOL     OW21340   2.440   4.646   5.221  0.6350 -0.0651 -0.2147
 3236SOL    HW121341   2.510   4.585   5.202  0.3650  0.0002 -1.4526
 3236SOL    HW221342   2.400   4.664   5.136  0.3659  0.3728  0.0038
 3237SOL     OW21343   0.104   3.573  15.478  0.0013  0.1612 -0.0770
 3237SOL    HW121344   0.025   3.550  15.528 -0.6986  0.4505 -1.0558
 3237SOL    HW221345   0.097   3.492  15.427 -0.4324  0.0597  0.1415
 3238SOL     OW21346   3.337   3.210  15.957  0.3503 -0.4725  0.0703
 3238SOL    HW121347   3.304   3.220  15.868  1.6955 -1.3732 -0.5373
 3238SOL    HW221348   3.307   3.120  15.973  0.7771 -0.1957  2.5470
 3239SOL     OW21349   0.241   4.580   8.406  0.3362 -0.6691 -0.0317
 3239SOL    HW121350   0.304   4.509   8.421  0.2796 -0.3173  1.9547
 3239SOL    HW221351   0.291   4.662   8.407 -0.2811 -0.2734 -2.8592
 3240SOL     OW21352   1.455   3.413   3.180  0.2897 -0.6946 -0.0786
 3240SOL    HW121353   1.510   3.378   3.250 -2.9812 -1.9129  1.8249
 3240SOL    HW221354   1.371   3.371   3.196 -0.1198 -0.5714 -1.8649
 3241SOL     OW21355   2.047   1.812   4.896 -0.0009  0.0579  0.0326
 3241SOL    HW121356   2.108   1.875   4.933 -0.6460 -0.6684  2.3703
 3241SOL    HW221357   1.996   1.763   4.961  0.0084 -0.4173 -0.3129
 3242SOL     OW21358   1.324   3.592  15.503 -0.4228  0.4081 -0.0021
 3242SOL    HW121359   1.280   3.520  15.458  0.2283 -0.8013  1.2826
 3242SOL    HW221360   1.392   3.619  15.442  2.7845 -2.8618  2.0782
 3243SOL     OW21361   3.543   2.587  16.475  0.4367 -1.0586  0.4970
 3243SOL    HW121362   3.511   2.521  16.413 -2.1540  0.2839  0.3828
 3243SOL    HW221363   3.635   2.596  16.453  0.3790 -1.1539  0.2228
 3244SOL     OW21364   0.806   2.724  12.991  0.2617  0.0286 -0.9075
 3244SOL    HW121365   0.844   2.767  13.068  1.6501 -0.2026 -1.4495
 3244SOL    HW221366   0.808   2.630  13.004  0.4467  0.1969  0.2799
 3245SOL     OW21367   0.993   4.597   0.163  0.0247 -0.3264 -0.0142
 3245SOL    HW121368   0.934   4.568   0.232  0.5567 -1.5101 -0.0590
 3245SOL    HW221369   0.937   4.585   0.087 -1.2445  2.1653  0.5306
 3246SOL     OW21370   3.753   3.652   8.029  0.0723 -0.2324 -0.0097
 3246SOL    HW121371   3.667   3.688   8.005 -0.0184 -0.8448 -0.6161
 3246SOL    HW221372   3.807   3.724   7.996  0.9080 -1.1865 -0.6890
 3247SOL     OW21373   0.282   0.126   2.633  0.0156  0.4256 -0.2786
 3247SOL    HW121374   0.369   0.152   2.603  0.2817 -0.6774 -0.4551
 3247SOL    HW221375   0.234   0.208   2.645 -2.0085 -0.8179 -0.0352
 3248SOL     OW21376   1.089   0.824   6.201 -0.0383 -0.2286  0.2276
 3248SOL    HW121377   1.022   0.847   6.136  0.3337 -0.0715 -0.1012
 3248SOL    HW221378   1.136   0.748   6.166  0.8462  0.7014 -0.5934
 3249SOL     OW21379   1.232   0.200  11.148  0.2517 -0.1804 -0.0449
 3249SOL    HW121380   1.235   0.279  11.094  1.8935 -0.3075 -0.1398
 3249SOL    HW221381   1.142   0.168  11.141  0.0249 -0.2023  2.8548
 3250SOL     OW21382   3.954   1.374   1.273  0.3952  0.0896  0.3018
 3250SOL    HW121383   3.948   1.319   1.195 -1.0244 -0.3641  0.7344
 3250SOL    HW221384   3.863   1.402   1.275  0.9196  1.7466  1.9155
 3251SOL     OW21385   3.328   3.591   3.371  0.3957  0.3150 -0.5378
 3251SOL    HW121386   3.273   3.635   3.435  1.5623 -1.2550  1.5272
 3251SOL    HW221387   3.267   3.530   3.329  2.3010 -2.7234  1.1175
 3252SOL     OW21388   4.676   3.929  12.903  0.5583 -0.6019  0.1143
 3252SOL    HW121389   4.681   4.022  12.879  2.3914 -0.4980  0.8999
 3252SOL    HW221390   0.029   3.908  12.927  0.1531 -1.3225  0.9867
 3253SOL     OW21391   2.994   3.092   4.482 -0.3667 -0.3264  0.4803
 3253SOL    HW121392   2.998   3.172   4.534 -0.4585 -1.4460  2.2174
 3253SOL    HW221393   3.066   3.038   4.513  1.0276  1.1149 -0.2563
 3254SOL     OW21394   0.501   1.286   3.359 -0.2742 -0.2559  0.0046
 3254SOL    HW121395   0.441   1.355   3.331 -1.9146 -2.7104 -2.4507
 3254SOL    HW221396   0.438   1.231   3.405 -1.5733  1.9402  0.8341
 3255SOL     OW21397   4.251   4.150   2.045  0.3805  0.1197 -0.1322
 3255SOL    HW121398   4.271   4.137   1.953 -1.6351  1.1209 -0.7134
 3255SOL    HW221399   4.327   4.206   2.062  1.0233 -0.5661 -0.7683
 3256SOL     OW21400   4.706   2.852   2.201 -0.0976  0.3165 -0.1380
 3256SOL    HW121401   0.025   2.904   2.144  0.9708  3.3986  3.7605
 3256SOL    HW221402   4.639   2.832   2.134  0.7075 -0.1609 -0.8040
 3257SOL     OW21403   4.064   1.952   5.331 -0.3599 -0.0832  0.4738
 3257SOL    HW121404   4.061   1.988   5.419 -0.5241 -4.3148  2.2103
 3257SOL    HW221405   4.121   2.015   5.286 -0.2837 -1.1934 -0.9953
 3258SOL     OW21406   4.326   1.731   2.405 -0.5726 -0.7360 -0.6232
 3258SOL    HW121407   4.331   1.806   2.346 -0.9878 -0.5396 -0.4149
 3258SOL    HW221408   4.326   1.667   2.335  0.8660  0.7224 -1.9518
 3259SOL     OW21409   1.955   1.087   6.343 -0.5008 -0.0321  0.4202
 3259SOL    HW121410   1.950   1.038   6.261 -0.2361 -0.3810  0.6101
 3259SOL    HW221411   1.998   1.168   6.313  0.7153 -0.2140  1.6550
 3260SOL     OW21412   2.602   2.584   0.530  0.1653 -0.0824 -0.3190
 3260SOL    HW121413   2.575   2.611   0.442  0.1713 -0.4163 -0.4233
 3260SOL    HW221414   2.695   2.588   0.512 -0.3950  0.9170 -3.0052
 3261SOL     OW21415   2.600   1.234   5.987  0.0251  0.0503 -0.3578
 3261SOL    HW121416   2.526   1.240   6.047  0.8314  0.4027  0.6000
 3261SOL    HW221417   2.619   1.326   5.969  0.5012  0.2792  1.3947
 3262SOL     OW21418   1.791   2.806   6.830 -0.2569 -0.6577  0.4358
 3262SOL    HW121419   1.718   2.800   6.891 -0.8381 -0.3239 -0.2249
 3262SOL    HW221420   1.858   2.752   6.872  0.3028 -1.2088 -1.1800
 3263SOL     OW21421   1.634   1.668   7.383 -0.1707 -0.2432 -0.3455
 3263SOL    HW121422   1.564   1.722   7.420 -0.2390 -0.5209 -0.0704
 3263SOL    HW221423   1.581   1.591   7.361  0.1896  0.4248 -3.6087
 3264SOL     OW21424   0.262   0.855   6.434 -0.0912  0.1645  0.0573
 3264SOL    HW121425   0.222   0.778   6.474 -1.9663  0.2315 -1.6765
 3264SOL    HW221426   0.209   0.924   6.474  0.1388  0.5340 -0.2697
 3265SOL     OW21427   0.150   2.204  11.061 -0.0262  0.3379  0.0668
 3265SOL    HW121428   0.224   2.161  11.104  0.2014 -1.4431 -2.0661
 3265SOL    HW221429   0.083   2.188  11.128  0.0684  0.4033  0.1760
 3266SOL     OW21430   0.691   4.382   8.003 -0.3077  0.4731 -0.7251
 3266SOL    HW121431   0.666   4.369   8.095  1.2734 -0.6755 -0.4629
 3266SOL    HW221432   0.740   4.303   7.982  0.7300  0.6486  1.0173
 3267SOL     OW21433   0.011   0.546  14.926 -0.5441 -0.2364  0.1205
 3267SOL    HW121434   4.657   0.558  14.954  0.0108  1.1671  1.2863
 3267SOL    HW221435   4.731   0.530  14.833 -0.6549  1.2603 -0.1151
 3268SOL     OW21436   4.385   3.597   1.648 -0.3430  0.1214  0.1702
 3268SOL    HW121437   4.366   3.689   1.632 -1.1136 -0.2581 -1.0736
 3268SOL    HW221438   4.302   3.557   1.675  0.2594 -0.9068  0.5071
 3269SOL     OW21439   3.579   0.192   7.347  0.7293  0.4094 -0.7669
 3269SOL    HW121440   3.553   0.262   7.288  0.3429 -1.3796 -2.7131
 3269SOL    HW221441   3.497   0.149   7.368  1.5495 -1.3784 -1.1882
 3270SOL     OW21442   0.629   2.045   5.436 -0.4012  0.4700  0.3390
 3270SOL    HW121443   0.540   2.030   5.466 -0.1027 -1.4025  0.2974
 3270SOL    HW221444   0.628   2.136   5.406  2.3063 -0.1342 -1.6220
 3271SOL     OW21445   3.411   3.735   7.223  0.3103 -0.0624  0.0894
 3271SOL    HW121446   3.450   3.684   7.294  1.7986 -1.4539 -1.7035
 3271SOL    HW221447   3.334   3.767   7.269  0.9222 -1.2186  1.9232
 3272SOL     OW21448   3.866   2.670  12.970 -0.1528  0.0217  0.3171
 3272SOL    HW121449   3.950   2.703  12.940 -0.0784 -1.7772 -1.4086
 3272SOL    HW221450   3.843   2.742  13.029 -2.0038 -0.5176  0.2683
 3273SOL     OW21451   1.266   3.294  11.018 -0.3771  0.0955 -0.0704
 3273SOL    HW121452   1.198   3.270  10.955  0.6642 -1.3020 -0.6699
 3273SOL    HW221453   1.343   3.295  10.961 -0.8828 -0.7716 -0.7849
 3274SOL     OW21454   3.896   4.299   2.461 -0.1331 -0.4599 -0.0816
 3274SOL    HW121455   3.815   4.284   2.412 -0.1697 -2.8467  0.7306
 3274SOL    HW221456   3.962   4.282   2.394  0.7648  1.0726  0.4382
 3275SOL     OW21457   1.580   3.562   0.210 -0.7162  0.3560 -0.5248
 3275SOL    HW121458   1.673   3.575   0.189 -0.0082 -3.2142  0.2705
 3275SOL    HW221459   1.578   3.600   0.298 -0.5739 -0.3766 -0.1972
 3276SOL     OW21460   0.256   2.808   4.494 -1.0296 -0.1693  0.0811
 3276SOL    HW121461   0.279   2.767   4.578  1.2999  1.6461  0.3308
 3276SOL    HW221462   0.333   2.793   4.440 -1.7773  0.1055 -1.0607
 3277SOL     OW21463   2.062   3.122  11.196  0.2286 -0.7934  0.5024
 3277SOL    HW121464   2.022   3.196  11.149  0.4788 -1.4640 -0.7717
 3277SOL    HW221465   2.131   3.171  11.240  0.8417 -0.3391 -0.9759
 3278SOL     OW21466   2.397   0.576   6.083  0.1220  0.4369 -0.0937
 3278SOL    HW121467   2.389   0.522   6.161 -0.0996  2.4868  1.2876
 3278SOL    HW221468   2.475   0.532   6.048 -0.7333  0.4449 -2.0499
 3279SOL     OW21469   0.732   3.601  10.276  0.1788 -0.4538  0.4443
 3279SOL    HW121470   0.763   3.547  10.349 -1.3858 -1.6870  0.2003
 3279SOL    HW221471   0.672   3.540  10.232  1.0932 -0.8755 -0.2052
 3280SOL     OW21472   0.303   0.020   5.426 -0.1259  0.2921  0.4940
 3280SOL    HW121473   0.267   0.016   5.337  0.8329  1.1685  0.0741
 3280SOL    HW221474   0.392   0.045   5.402  1.1527 -1.9066  2.9681
 3281SOL     OW21475   1.267   3.541  13.855 -0.2577  0.0545  0.0682
 3281SOL    HW121476   1.330   3.596  13.809  1.4503 -1.8993  0.0730
 3281SOL    HW221477   1.324   3.516  13.928 -1.7897  2.2993  2.0318
 3282SOL     OW21478   4.689   3.453   2.700  0.0975  0.4930 -0.1669
 3282SOL    HW121479   0.029   3.489   2.745  1.0056  0.3647 -1.6206
 3282SOL    HW221480   4.728   3.365   2.700 -1.6314 -0.2832  1.0088
 3283SOL     OW21481   0.640   3.696  12.242  0.5909  0.1157 -0.1182
 3283SOL    HW121482   0.728   3.669  12.218  1.1896  1.9848  0.0329
 3283SOL    HW221483   0.654   3.778  12.288 -0.3682 -0.5648  1.4056
 3284SOL     OW21484   1.158   0.923  13.994  0.2203 -0.0991  0.1004
 3284SOL    HW121485   1.142   1.012  14.025  3.4535  1.0731 -1.5742
 3284SOL    HW221486   1.227   0.897  14.056  1.1031  0.0512 -0.8099
 3285SOL     OW21487   4.173   1.446   9.099  0.2558 -0.8222  0.5170
 3285SOL    HW121488   4.100   1.417   9.043 -0.5988 -0.5958  1.5222
 3285SOL    HW221489   4.244   1.405   9.049  1.3625  2.1500 -0.3262
 3286SOL     OW21490   2.974   0.358   5.048  0.1705 -0.2452 -0.2243
 3286SOL    HW121491   3.007   0.379   5.135  0.3908  1.0382 -0.6239
 3286SOL    HW221492   2.933   0.274   5.067 -0.2882  0.1474  0.4844
 3287SOL     OW21493   0.552   0.713  12.501 -0.4998  0.3349 -0.2397
 3287SOL    HW121494   0.491   0.653  12.458 -0.1258  1.1734 -1.9012
 3287SOL    HW221495   0.575   0.778  12.435  2.6063  0.1819  0.6869
 3288SOL     OW21496   0.324   0.687   1.717  0.2265  0.0339 -0.1436
 3288SOL    HW121497   0.360   0.709   1.631 -2.7410 -1.4990 -1.7802
 3288SOL    HW221498   0.295   0.773   1.747 -1.1404 -0.4007 -0.2292
 3289SOL     OW21499   3.293   1.017   2.304 -0.0462  0.1960 -0.0624
 3289SOL    HW121500   3.341   1.097   2.324 -1.6407  0.4789  2.5209
 3289SOL    HW221501   3.363   0.955   2.281  0.6796  1.1545 -0.4291
 3290SOL     OW21502   1.074   4.130   1.423  0.4504  0.0251  0.3882
 3290SOL    HW121503   1.077   4.077   1.502 -0.8817  0.9932  1.0920
 3290SOL    HW221504   1.162   4.169   1.427 -0.3575  1.6344  2.6726
 3291SOL     OW21505   3.629   1.290   0.987 -0.5123 -0.3705  0.4999
 3291SOL    HW121506   3.674   1.229   1.044  0.1590  3.3536  3.9718
 3291SOL    HW221507   3.599   1.227   0.921  0.6288 -0.8427  0.4498
 3292SOL     OW21508   0.211   3.469   2.237  0.0397 -0.2793 -0.0875
 3292SOL    HW121509   0.177   3.404   2.176  0.2202  0.7620 -1.2981
 3292SOL    HW221510   0.275   3.426   2.292 -0.3657  2.1863  2.3091
 3293SOL     OW21511   0.625   0.019  14.045 -0.3651 -0.8239 -0.2418
 3293SOL    HW121512   0.687   0.029  14.117  0.0762  1.3243 -0.9235
 3293SOL    HW221513   0.682   0.003  13.970  2.6674  2.1198  1.4463
 3294SOL     OW21514   0.700   2.643   8.958 -0.1408 -0.2821  0.3135
 3294SOL    HW121515   0.647   2.627   8.880  0.5318 -1.5407  0.1132
 3294SOL    HW221516   0.639   2.637   9.031  0.0115  0.3734  0.4988
 3295SOL     OW21517   1.476   3.534   4.910 -0.0044  0.4843 -0.5279
 3295SOL    HW121518   1.554   3.499   4.866 -0.4609 -0.9601 -0.1652
 3295SOL    HW221519   1.413   3.467   4.884  1.0646 -0.7915  0.1365
 3296SOL     OW21520   2.404   0.571   5.720 -0.4551 -0.2934 -0.3412
 3296SOL    HW121521   2.351   0.498   5.750 -1.5407  0.8103  0.4430
 3296SOL    HW221522   2.381   0.562   5.627 -0.2187  2.1213 -0.6440
 3297SOL     OW21523   0.458   2.816   2.207 -1.1118  0.0512 -0.3617
 3297SOL    HW121524   0.466   2.884   2.140 -0.8537 -1.0549 -1.4320
 3297SOL    HW221525   0.540   2.831   2.253 -1.4650  1.2117 -0.1057
 3298SOL     OW21526   0.363   4.577   7.430 -0.5459  0.0884  0.9568
 3298SOL    HW121527   0.315   4.635   7.371  0.4426  0.8639  0.9155
 3298SOL    HW221528   0.423   4.642   7.466 -0.8351  0.9414 -0.1156
 3299SOL     OW21529   1.270   1.259  14.883 -0.3296  0.4739  0.5767
 3299SOL    HW121530   1.221   1.180  14.906  0.4875 -0.1902  0.0832
 3299SOL    HW221531   1.194   1.314  14.865  0.0375  2.0360  3.6717
 3300SOL     OW21532   3.356   0.905   2.712  0.3884 -0.1977 -0.4523
 3300SOL    HW121533   3.450   0.896   2.730  0.3607  0.2559 -0.0782
 3300SOL    HW221534   3.350   0.961   2.635  0.5287  1.3665  0.6800
 3301SOL     OW21535   1.674   1.288  13.759 -0.6574 -0.5244 -0.0118
 3301SOL    HW121536   1.616   1.314  13.830  0.2556  0.2985  0.4269
 3301SOL    HW221537   1.667   1.364  13.702 -0.7111 -1.3269 -1.0807
 3302SOL     OW21538   3.407   4.179   2.049  0.3378  0.2775 -0.6484
 3302SOL    HW121539   3.367   4.265   2.031 -2.0997 -0.7435 -0.2011
 3302SOL    HW221540   3.376   4.146   2.133  0.3999  2.7183  0.3589
 3303SOL     OW21541   1.982   3.694  17.563  0.1896  0.6489 -0.1303
 3303SOL    HW121542   1.937   3.775  17.587 -1.1241  0.0486 -0.5860
 3303SOL    HW221543   1.959   3.686  17.471 -1.1649 -0.4309  0.2858
 3304SOL     OW21544   0.172   2.630   3.935  0.4135  0.1417 -0.3729
 3304SOL    HW121545   0.139   2.609   4.022  0.1060 -1.2396 -0.8146
 3304SOL    HW221546   0.253   2.671   3.964  0.5017  0.0541 -0.4929
 3305SOL     OW21547   1.935   2.489   1.278 -0.3163 -0.1776  0.2733
 3305SOL    HW121548   1.979   2.405   1.290 -2.5911 -1.1629  1.6282
 3305SOL    HW221549   1.996   2.554   1.313 -0.7923 -1.1032  2.7663
 3306SOL     OW21550   2.120   1.178   4.335  0.2173  0.6910  0.0403
 3306SOL    HW121551   2.078   1.203   4.417 -1.5391 -1.7611 -0.1411
 3306SOL    HW221552   2.071   1.108   4.292  1.7393 -0.5670  0.3561
 3307SOL     OW21553   2.834   0.250   3.883  0.5152  0.2422  0.3213
 3307SOL    HW121554   2.786   0.318   3.836 -0.9410 -0.2917  1.0492
 3307SOL    HW221555   2.823   0.279   3.973  0.1327 -0.1657  0.4044
 3308SOL     OW21556   0.256   1.982   1.078 -0.3747  0.2001  0.1340
 3308SOL    HW121557   0.255   1.889   1.098  0.6144  0.3329  0.8302
 3308SOL    HW221558   0.314   2.025   1.141  1.9313 -1.3454 -0.9448
 3309SOL     OW21559   0.893   2.909  13.755 -0.1022 -0.3821  0.5401
 3309SOL    HW121560   0.832   2.835  13.748  0.1577 -0.5708  0.2495
 3309SOL    HW221561   0.976   2.862  13.761  1.5735  2.3975 -1.1863
 3310SOL     OW21562   2.839   1.561   2.940  0.2154 -0.1714 -0.4147
 3310SOL    HW121563   2.841   1.568   3.036  1.9294 -1.2884 -0.3685
 3310SOL    HW221564   2.930   1.583   2.919 -0.0616  2.2842  1.0047
 3311SOL     OW21565   3.863   1.015   7.713  0.3240 -0.1471 -0.7558
 3311SOL    HW121566   3.939   1.017   7.771 -0.7707  0.7078  0.6594
 3311SOL    HW221567   3.800   0.953   7.750 -0.9824 -0.4776 -3.5183
 3312SOL     OW21568   4.456   0.645  12.659 -0.6717 -0.4033 -0.5213
 3312SOL    HW121569   4.408   0.718  12.698 -0.6635 -0.9326  0.4984
 3312SOL    HW221570   4.438   0.577  12.725 -0.6689  0.5907  0.5126
 3313SOL     OW21571   1.558   3.790  13.969 -0.1363 -0.2613  0.5618
 3313SOL    HW121572   1.511   3.871  13.988 -0.0572 -0.3744  1.2278
 3313SOL    HW221573   1.550   3.744  14.052 -0.0584  0.7873  1.1457
 3314SOL     OW21574   1.315   1.392   9.404 -0.1966  0.2029 -0.0510
 3314SOL    HW121575   1.326   1.299   9.426 -1.7243  0.1685  0.5765
 3314SOL    HW221576   1.253   1.381   9.331 -0.2051  0.7422 -0.1209
 3315SOL     OW21577   3.605   3.478  13.885 -0.4025  0.2377 -0.4895
 3315SOL    HW121578   3.664   3.484  13.809 -0.1960 -0.9313 -0.4267
 3315SOL    HW221579   3.587   3.570  13.902 -2.0041  0.0201 -1.1047
 3316SOL     OW21580   2.726   1.162   6.617 -0.0500  0.4638  0.1064
 3316SOL    HW121581   2.699   1.071   6.631  0.3314  0.5163  1.2338
 3316SOL    HW221582   2.744   1.153   6.524 -1.0580  1.1903 -0.1568
 3317SOL     OW21583   4.545   2.153   8.643 -0.5297 -0.6311 -0.1287
 3317SOL    HW121584   4.506   2.195   8.566  0.1500 -0.7129 -0.5100
 3317SOL    HW221585   4.500   2.070   8.654  1.3552 -1.5721  0.3995
 3318SOL     OW21586   4.226   3.266  12.443 -0.1728  0.5293  0.2158
 3318SOL    HW121587   4.317   3.291  12.459  0.0518  0.1359 -0.4691
 3318SOL    HW221588   4.223   3.293  12.352 -3.1501  0.0401  0.1601
 3319SOL     OW21589   1.904   3.880   7.384 -0.0415  0.0896 -0.2509
 3319SOL    HW121590   1.822   3.860   7.339 -0.5548 -0.2400  0.8454
 3319SOL    HW221591   1.879   3.829   7.461  0.3649  1.1837  0.6000
 3320SOL     OW21592   0.605   0.931   0.568 -0.1438  0.7384  0.4720
 3320SOL    HW121593   0.626   0.913   0.659  0.2683 -0.5977  0.1186
 3320SOL    HW221594   0.636   1.021   0.558 -0.9582  0.8701 -0.9790
 3321SOL     OW21595   4.005   3.253   5.114  0.1976  0.8134 -0.8678
 3321SOL    HW121596   4.043   3.299   5.189 -1.1399 -1.5386  1.2711
 3321SOL    HW221597   4.023   3.295   5.030  2.0994  0.5660 -0.5802
 3322SOL     OW21598   0.958   3.045   3.801  0.1296 -0.7951  0.3806
 3322SOL    HW121599   1.003   2.961   3.792  1.1877 -0.4045  1.9333
 3322SOL    HW221600   0.906   3.053   3.721 -0.7614 -0.2850  1.0210
 3323SOL     OW21601   4.538   2.848  12.522 -0.0403 -0.1745 -0.3605
 3323SOL    HW121602   4.564   2.759  12.544 -3.1292 -1.4244 -1.8779
 3323SOL    HW221603   4.618   2.895  12.545 -0.5495  0.1549  0.7250
 3324SOL     OW21604   2.056   1.737   8.694 -0.2859  0.6538 -0.4086
 3324SOL    HW121605   1.968   1.775   8.701 -0.8209 -0.5373 -0.7297
 3324SOL    HW221606   2.041   1.642   8.692 -2.0279  0.8753  1.6432
 3325SOL     OW21607   0.646   2.189   2.924  0.7229 -0.1375  0.3563
 3325SOL    HW121608   0.657   2.220   2.834 -1.0271 -2.6353 -0.7320
 3325SOL    HW221609   0.681   2.100   2.918 -1.5206 -0.9398 -0.6885
 3326SOL     OW21610   2.811   0.569   5.150  0.4424 -0.7491 -0.3933
 3326SOL    HW121611   2.862   0.546   5.073 -0.2419 -0.9403 -0.7927
 3326SOL    HW221612   2.872   0.627   5.196  0.1796 -0.3509 -0.5468
 3327SOL     OW21613   4.267   1.410  15.161 -0.3029 -0.4491  0.0325
 3327SOL    HW121614   4.280   1.432  15.069  0.7065 -0.9687  0.0517
 3327SOL    HW221615   4.299   1.490  15.202 -1.8432  0.4383 -0.5190
 3328SOL     OW21616   3.203   0.298   1.973  0.0204 -0.1134 -0.5160
 3328SOL    HW121617   3.291   0.262   1.959 -0.3786 -1.1822 -0.2330
 3328SOL    HW221618   3.186   0.297   1.879 -0.3928  1.7982 -0.4577
 3329SOL     OW21619   4.725   4.587  10.799  0.3180 -0.9369 -0.4287
 3329SOL    HW121620   4.630   4.603  10.792  0.1962 -0.9990  1.1022
 3329SOL    HW221621   0.009   4.509  10.749 -1.4585  0.6923 -3.7394
 3330SOL     OW21622   4.298   1.755   7.008 -0.0070  0.0309  0.3188
 3330SOL    HW121623   4.284   1.846   6.981  1.6787  0.3288  0.4520
 3330SOL    HW221624   4.248   1.711   6.939 -0.4079 -0.0992  0.6954
 3331SOL     OW21625   2.689   0.590   8.264  0.1947  0.1988 -0.3127
 3331SOL    HW121626   2.772   0.568   8.308 -0.5045 -0.4029  0.7101
 3331SOL    HW221627   2.723   0.638   8.189  2.4064 -0.4830  0.2341
 3332SOL     OW21628   3.075   1.633  16.041 -0.2592  0.0346  0.1130
 3332SOL    HW121629   3.083   1.726  16.059  2.3966  0.0481 -1.0561
 3332SOL    HW221630   3.165   1.601  16.032  0.1166  1.6955 -2.0503
 3333SOL     OW21631   3.580   4.435   3.407 -0.1739 -0.1478 -0.0713
 3333SOL    HW121632   3.644   4.427   3.336 -0.2793  3.2354 -0.5346
 3333SOL    HW221633   3.581   4.349   3.449  0.8545  1.1196  2.4939
 3334SOL     OW21634   2.533   4.604   8.364  0.2869  0.4651  0.3670
 3334SOL    HW121635   2.623   4.627   8.343 -0.0428 -0.6563 -2.2957
 3334SOL    HW221636   2.527   4.509   8.354  0.0568  0.5325 -0.1670
 3335SOL     OW21637   1.017   1.629  12.574 -0.2091 -0.6363  0.3869
 3335SOL    HW121638   1.005   1.718  12.609 -0.1248 -0.3153 -0.4027
 3335SOL    HW221639   1.043   1.659  12.487 -0.9691 -0.6677  0.1446
 3336SOL     OW21640   2.857   1.250   6.837 -0.3399  0.0773 -1.1076
 3336SOL    HW121641   2.920   1.284   6.774  0.2666 -2.2145 -1.7342
 3336SOL    HW221642   2.799   1.202   6.778 -0.8872  0.4914 -0.9133
 3337SOL     OW21643   0.782   3.512   8.996  0.2399  0.2333  0.1245
 3337SOL    HW121644   0.702   3.459   8.989  1.8509 -2.0312 -1.0783
 3337SOL    HW221645   0.751   3.573   9.062 -2.1731  2.7968 -3.3446
 3338SOL     OW21646   2.428   0.997   7.044  0.3465 -0.1754 -0.0586
 3338SOL    HW121647   2.344   0.979   7.001  1.5050 -3.1569 -1.0664
 3338SOL    HW221648   2.475   0.914   7.038  0.9536  0.1813 -0.1987
 3339SOL     OW21649   3.313   4.035   5.267 -0.0596  0.7055  0.3841
 3339SOL    HW121650   3.369   4.020   5.343  3.1248 -1.7615 -2.4264
 3339SOL    HW221651   3.339   4.124   5.241 -0.8847  0.4162 -1.4086
 3340SOL     OW21652   3.511   1.043   3.056 -0.6734  0.0520 -0.0215
 3340SOL    HW121653   3.558   0.975   3.007 -0.3452 -0.4207  0.9496
 3340SOL    HW221654   3.432   0.993   3.078 -0.6735 -0.1130 -0.4049
 3341SOL     OW21655   2.058   0.886   2.892  0.1075 -0.2205  0.2210
 3341SOL    HW121656   2.144   0.847   2.875  0.1876  0.5119 -1.0550
 3341SOL    HW221657   2.008   0.836   2.827  0.8856 -2.2978  1.2323
 3342SOL     OW21658   1.153   0.949   5.294 -0.1208 -0.7035 -0.8010
 3342SOL    HW121659   1.218   0.927   5.360 -1.4711 -0.3383  0.6628
 3342SOL    HW221660   1.078   0.987   5.340  1.1883  0.3840  0.4213
 3343SOL     OW21661   0.828   0.227   8.765  0.9554 -0.4967 -0.2337
 3343SOL    HW121662   0.860   0.310   8.800  0.9365  0.0873 -1.5906
 3343SOL    HW221663   0.837   0.233   8.670 -0.8904  2.3611 -0.2151
 3344SOL     OW21664   3.475   3.180  13.556  0.4028 -0.3228 -0.2160
 3344SOL    HW121665   3.535   3.232  13.503 -1.7078  3.0840  0.7367
 3344SOL    HW221666   3.536   3.127  13.606 -0.7163  0.9082  2.4457
 3345SOL     OW21667   4.086   1.210   6.673 -0.1610  0.1142  0.7412
 3345SOL    HW121668   4.000   1.171   6.658 -1.0816  2.0001  1.0937
 3345SOL    HW221669   4.092   1.188   6.766 -3.6495  0.6080  1.0786
 3346SOL     OW21670   0.418   0.833  12.057  0.2507  0.5160 -0.1055
 3346SOL    HW121671   0.508   0.866  12.064  0.6360 -0.1597 -1.5542
 3346SOL    HW221672   0.440   0.746  12.021  0.4475 -0.8580  3.3903
 3347SOL     OW21673   2.584   3.323   8.395  0.1170 -0.6455  0.1597
 3347SOL    HW121674   2.658   3.369   8.355 -0.0472 -0.9836 -0.5359
 3347SOL    HW221675   2.594   3.233   8.365 -0.9420 -1.0474  1.0116
 3348SOL     OW21676   4.181   4.612   1.087 -0.4328  0.1264  0.8023
 3348SOL    HW121677   4.208   4.694   1.044 -0.5245 -0.1105  0.2853
 3348SOL    HW221678   4.123   4.649   1.152 -1.9053  0.4680 -0.7025
 3349SOL     OW21679   2.363   4.165   3.781  0.2289  0.0472 -0.0509
 3349SOL    HW121680   2.328   4.081   3.752 -0.5842  0.7965 -1.2358
 3349SOL    HW221681   2.443   4.142   3.828  0.3438 -0.4825 -0.5173
 3350SOL     OW21682   1.472   1.825   9.219 -0.3925  0.1067 -0.2142
 3350SOL    HW121683   1.498   1.885   9.149 -2.1038  0.8878 -0.1766
 3350SOL    HW221684   1.390   1.794   9.180 -0.4158  1.6381 -1.3720
 3351SOL     OW21685   3.814   2.441   6.708  0.2208 -0.2017  0.3201
 3351SOL    HW121686   3.815   2.519   6.653 -0.0502 -1.2984 -1.2202
 3351SOL    HW221687   3.843   2.486   6.788 -1.0683  0.5368  0.3746
 3352SOL     OW21688   1.622   1.232   6.522 -0.1677  0.3438 -0.0933
 3352SOL    HW121689   1.649   1.318   6.555  1.5574 -0.2829  0.1160
 3352SOL    HW221690   1.529   1.253   6.512 -0.0970  0.3666 -0.7384
 3353SOL     OW21691   4.555   0.976   8.073  0.2096  0.3246  0.1781
 3353SOL    HW121692   4.510   1.000   7.992  1.1039  0.5464 -0.2607
 3353SOL    HW221693   4.625   1.042   8.069  0.6524 -0.2195 -0.8705
 3354SOL     OW21694   2.344   4.229   9.306  0.1235  0.2689 -0.0109
 3354SOL    HW121695   2.393   4.190   9.233 -0.0436 -0.0249  0.0347
 3354SOL    HW221696   2.352   4.324   9.298  0.5679  0.1190 -1.3847
 3355SOL     OW21697   4.017   4.615  11.029  0.6026  0.5919  0.5394
 3355SOL    HW121698   3.994   4.523  11.027  0.2047  0.7450 -1.4506
 3355SOL    HW221699   4.022   4.619  11.125 -2.2780  1.0477  0.6588
 3356SOL     OW21700   3.621   1.470   2.372  0.1808 -0.3280 -0.1308
 3356SOL    HW121701   3.588   1.499   2.457  1.4145 -0.6287  0.4503
 3356SOL    HW221702   3.695   1.412   2.389  1.0577 -0.0155 -2.8861
 3357SOL     OW21703   0.606   0.889   5.359  0.1250  0.3531  0.1746
 3357SOL    HW121704   0.556   0.834   5.420  0.4044 -0.1859 -0.0762
 3357SOL    HW221705   0.669   0.832   5.314 -1.5822  0.3586 -2.1729
 3358SOL     OW21706   2.323   3.884   2.059 -1.3413  0.4305 -0.0668
 3358SOL    HW121707   2.370   3.911   2.137 -2.3909 -1.3092  1.1632
 3358SOL    HW221708   2.322   3.788   2.056  0.8885  0.3429  2.6731
 3359SOL     OW21709   3.145   0.589   3.114  0.3323 -0.1032 -0.1098
 3359SOL    HW121710   3.155   0.601   3.020  0.3620  2.6125  0.2345
 3359SOL    HW221711   3.155   0.494   3.117 -1.0154 -0.2602 -0.5845
 3360SOL     OW21712   2.880   4.596   7.770 -0.1105  0.0635 -1.0350
 3360SOL    HW121713   2.896   4.689   7.761 -0.8018  0.0612 -2.2659
 3360SOL    HW221714   2.927   4.571   7.690  1.3904  0.1017 -0.1647
 3361SOL     OW21715   0.037   2.749   2.439  0.0895  0.3701  0.3723
 3361SOL    HW121716   0.025   2.844   2.449  2.0245  0.7579 -1.0213
 3361SOL    HW221717   0.031   2.755   2.344 -2.0243 -0.5609  0.4365
 3362SOL     OW21718   0.881   0.105   7.605  0.2427 -0.5569  0.5766
 3362SOL    HW121719   0.866   0.085   7.512  1.4316 -4.4938  1.2146
 3362SOL    HW221720   0.970   0.073   7.620  0.2766 -1.2579 -1.1299
 3363SOL     OW21721   2.590   4.211   5.017  0.5359 -0.2420  0.1867
 3363SOL    HW121722   2.640   4.133   5.041 -0.2610 -1.0967 -0.9398
 3363SOL    HW221723   2.650   4.275   4.980 -0.5457  1.6726  1.7752
 3364SOL     OW21724   3.739   0.026   6.946  0.1667  0.2226 -0.0157
 3364SOL    HW121725   3.694   4.679   6.937 -2.1308  1.7357 -2.6536
 3364SOL    HW221726   3.807   0.016   6.879  0.6773 -1.1942  0.7224
 3365SOL     OW21727   1.287   2.389   3.609 -0.4945  0.2484 -0.1279
 3365SOL    HW121728   1.375   2.397   3.644 -0.3439  1.7473 -0.8493
 3365SOL    HW221729   1.296   2.423   3.519  1.8553  0.0306  0.0388
 3366SOL     OW21730   3.119   1.496   9.771 -0.3782  0.4220 -0.3534
 3366SOL    HW121731   3.121   1.420   9.713 -0.8623 -0.1248  0.3547
 3366SOL    HW221732   3.025   1.510   9.777 -0.4866  0.5342 -2.1758
 3367SOL     OW21733   1.724   0.032   6.620 -0.3298 -0.4797 -0.1939
 3367SOL    HW121734   1.759   0.113   6.658  1.1912 -1.6991  1.0077
 3367SOL    HW221735   1.631   0.045   6.636  0.2619 -1.0360  3.5866
 3368SOL     OW21736   4.192   1.541   8.405  0.1174 -0.3313  0.1065
 3368SOL    HW121737   4.169   1.478   8.337 -0.1689 -0.1721  0.0552
 3368SOL    HW221738   4.164   1.497   8.485 -1.9668 -2.3218 -1.7144
 3369SOL     OW21739   0.961   0.361   2.263  0.5987 -0.2618 -0.1149
 3369SOL    HW121740   0.972   0.440   2.317 -2.5060  0.1612 -0.1142
 3369SOL    HW221741   1.047   0.338   2.227  1.3824  1.6105  0.5928
 3370SOL     OW21742   2.256   0.112  16.296 -0.0029 -0.4165 -0.1345
 3370SOL    HW121743   2.163   0.088  16.289  1.1831 -3.9191 -3.4407
 3370SOL    HW221744   2.270   0.126  16.390  1.0823 -0.3007 -0.3230
 3371SOL     OW21745   0.540   1.026  12.785  0.0947  0.4607 -0.6326
 3371SOL    HW121746   0.622   1.010  12.738  0.2258  1.5012 -0.7635
 3371SOL    HW221747   0.487   1.076  12.722 -0.9138  0.5249  0.2748
 3372SOL     OW21748   2.078   0.477  14.122  0.1444 -0.4457 -0.2395
 3372SOL    HW121749   2.155   0.508  14.169 -0.4833 -1.9338  1.7823
 3372SOL    HW221750   2.074   0.552  14.062  0.3647  0.7578  1.2313
 3373SOL     OW21751   3.072   0.404  12.784  0.3954 -0.2658  0.8001
 3373SOL    HW121752   2.991   0.437  12.746  0.3856  0.0235  1.0706
 3373SOL    HW221753   3.037   0.324  12.822 -1.8736 -0.1716 -1.1061
 3374SOL     OW21754   4.414   0.395   7.455  0.4846  0.2795 -0.0065
 3374SOL    HW121755   4.432   0.449   7.532  3.9449 -1.8937  0.7354
 3374SOL    HW221756   4.379   0.458   7.392 -1.6856  0.8977  1.8281
 3375SOL     OW21757   0.131   3.325  16.938 -0.5231  0.1546  0.1341
 3375SOL    HW121758   0.120   3.420  16.933 -0.7210  0.2067  1.5855
 3375SOL    HW221759   0.081   3.298  17.015 -0.6962  0.8257  0.2577
 3376SOL     OW21760   4.657   0.837   0.904  0.2476 -0.2125 -0.1150
 3376SOL    HW121761   4.638   0.769   0.969 -0.1251  1.1879  1.2384
 3376SOL    HW221762   4.574   0.883   0.893  0.6961  1.2596  2.6096
 3377SOL     OW21763   3.583   0.374   7.656 -0.6304 -0.0708 -0.1490
 3377SOL    HW121764   3.650   0.310   7.631 -0.2102 -0.7493  2.7027
 3377SOL    HW221765   3.594   0.427   7.577 -4.1116  0.1706 -0.4571
 3378SOL     OW21766   0.896   2.831   8.780 -0.4210 -0.2628 -0.2334
 3378SOL    HW121767   0.876   2.863   8.868 -1.0776 -0.1632 -0.4201
 3378SOL    HW221768   0.817   2.777   8.772 -0.4290 -0.1365 -1.0424
 3379SOL     OW21769   0.909   1.901  10.307 -0.4750  0.2214 -0.0151
 3379SOL    HW121770   0.965   1.824  10.295 -0.1492  0.7953 -2.2226
 3379SOL    HW221771   0.830   1.866  10.349  1.8265 -1.2961  3.0794
 3380SOL     OW21772   2.679   0.611   7.776  0.0313  0.3390  0.0256
 3380SOL    HW121773   2.715   0.541   7.721 -0.7901 -0.6415  0.7415
 3380SOL    HW221774   2.588   0.582   7.778  0.6123 -1.6867 -3.3940
 3381SOL     OW21775   2.364   1.297  11.189  0.1451 -0.5613  0.0463
 3381SOL    HW121776   2.311   1.225  11.155  1.0400 -0.2837 -1.9387
 3381SOL    HW221777   2.406   1.257  11.265 -1.2188 -0.7457  0.7050
 3382SOL     OW21778   4.028   2.105  14.626  0.8057 -0.0004 -0.0394
 3382SOL    HW121779   3.996   2.135  14.541  0.2438  1.1497  0.5762
 3382SOL    HW221780   3.968   2.030  14.629  1.5545 -0.6908 -2.0348
 3383SOL     OW21781   3.150   0.503   2.536 -0.0874 -0.1383  0.2317
 3383SOL    HW121782   3.226   0.560   2.549 -0.3426  0.4874 -1.0656
 3383SOL    HW221783   3.197   0.421   2.554 -0.5121 -0.5175 -0.3790
 3384SOL     OW21784   3.143   4.477   4.476 -0.2021  0.0142 -0.3829
 3384SOL    HW121785   3.160   4.526   4.396 -0.7367  0.5804 -0.1460
 3384SOL    HW221786   3.075   4.539   4.502 -0.7452 -0.7214 -0.0358
 3385SOL     OW21787   0.850   0.033   7.334 -0.3455 -0.0161  0.2602
 3385SOL    HW121788   0.789   0.084   7.283 -1.1287 -1.0739  0.1383
 3385SOL    HW221789   0.926   0.045   7.277 -1.2298 -1.1849 -1.1688
 3386SOL     OW21790   4.166   4.562  12.677 -0.3764  0.3635  0.3228
 3386SOL    HW121791   4.080   4.520  12.677 -0.5115  0.6358  1.2570
 3386SOL    HW221792   4.217   4.500  12.625 -0.4557 -1.9709  3.0183
 3387SOL     OW21793   3.357   3.327  13.015 -0.1517  0.1025 -0.3087
 3387SOL    HW121794   3.366   3.377  12.934  2.0205 -1.2204 -0.8805
 3387SOL    HW221795   3.271   3.291  13.033  0.8942 -2.7883 -1.0697
 3388SOL     OW21796   3.041   4.221   4.340  0.2111  0.5055 -0.2827
 3388SOL    HW121797   3.131   4.225   4.373 -0.2645  1.5559  0.8978
 3388SOL    HW221798   3.008   4.305   4.370 -0.0917 -0.1867  1.2907
 3389SOL     OW21799   0.460   2.989   8.304 -0.2114  0.0288 -0.3739
 3389SOL    HW121800   0.425   2.984   8.393  0.6349 -1.6627 -0.1236
 3389SOL    HW221801   0.396   2.945   8.247 -0.3734 -0.9319  0.5508
 3390SOL     OW21802   2.686   1.177   8.597 -0.3005  0.2515  0.0372
 3390SOL    HW121803   2.775   1.187   8.629 -0.1006 -2.6956  0.3926
 3390SOL    HW221804   2.636   1.193   8.677 -0.8909 -1.3651 -0.0168
 3391SOL     OW21805   0.315   3.971  15.857 -0.5943 -0.3733 -0.0546
 3391SOL    HW121806   0.238   4.009  15.816 -0.0064 -0.4137 -1.1828
 3391SOL    HW221807   0.339   4.030  15.929  0.9885 -1.5083  0.3474
 3392SOL     OW21808   2.369   3.065   7.051  0.1813 -0.1466 -0.3849
 3392SOL    HW121809   2.454   3.059   7.007  1.3649  1.3845  1.7398
 3392SOL    HW221810   2.395   3.026   7.134  0.0141  0.3535 -0.0989
 3393SOL     OW21811   1.994   2.314   6.545 -0.5764 -0.0689 -0.1448
 3393SOL    HW121812   2.055   2.277   6.608  0.9296  0.7360 -1.1336
 3393SOL    HW221813   2.043   2.378   6.492  0.8314 -2.3435 -1.5791
 3394SOL     OW21814   3.314   3.074   3.636  1.2947  0.3675 -0.1187
 3394SOL    HW121815   3.304   2.982   3.659 -1.2526  0.6930  0.0532
 3394SOL    HW221816   3.231   3.098   3.594  0.6985 -2.2988 -0.4169
 3395SOL     OW21817   0.601   2.315  11.202  0.3880  0.1239 -0.5511
 3395SOL    HW121818   0.547   2.393  11.215 -2.0086 -1.3598 -1.4356
 3395SOL    HW221819   0.632   2.297  11.291 -0.5328  0.9795 -0.0542
 3396SOL     OW21820   1.255   2.597  13.674  0.0331  0.1294 -0.0633
 3396SOL    HW121821   1.255   2.527  13.739  1.3869  1.7220  1.6550
 3396SOL    HW221822   1.341   2.636  13.690 -0.2953  2.1340 -3.2738
 3397SOL     OW21823   3.642   4.599  15.665 -0.2275 -0.6567 -0.5658
 3397SOL    HW121824   3.653   4.508  15.693  1.3696  0.5802  2.8695
 3397SOL    HW221825   3.732   4.626  15.680 -0.6398  0.0051  0.8064
 3398SOL     OW21826   4.268   3.254   6.799 -0.1135 -0.1552 -0.3256
 3398SOL    HW121827   4.297   3.196   6.869  1.2104 -0.3177 -1.0164
 3398SOL    HW221828   4.286   3.339   6.840 -1.4937 -1.1623  2.4002
 3399SOL     OW21829   4.296   2.436  10.311  0.1741 -0.3575 -0.5471
 3399SOL    HW121830   4.271   2.344  10.311 -0.2142 -0.2835  3.7262
 3399SOL    HW221831   4.387   2.424  10.340 -1.0410 -1.1818  2.9717
 3400SOL     OW21832   0.092   0.752  12.465  0.6987  0.5106 -0.1820
 3400SOL    HW121833   0.006   0.712  12.451  1.3989 -1.7200  1.8458
 3400SOL    HW221834   0.136   0.708  12.392 -1.9915 -0.9558 -0.9484
 3401SOL     OW21835   3.923   2.068   3.456  0.5513 -0.4428  0.0201
 3401SOL    HW121836   4.014   2.071   3.428  0.4747 -0.9601 -0.2859
 3401SOL    HW221837   3.911   2.004   3.525  0.6201 -0.5983 -0.1125
 3402SOL     OW21838   2.711   4.026   3.414  0.2816  0.1884  0.5808
 3402SOL    HW121839   2.690   4.119   3.416 -0.6406  0.0176 -1.1461
 3402SOL    HW221840   2.746   4.027   3.326  0.1804 -3.9766  0.4906
 3403SOL     OW21841   4.042   0.600   0.566 -0.0355 -0.1065  0.5466
 3403SOL    HW121842   3.964   0.571   0.519  0.4434 -1.6131  0.6758
 3403SOL    HW221843   4.101   0.532   0.531 -0.1645  0.9751 -1.7765
 3404SOL     OW21844   0.524   2.867   4.334 -0.0780 -0.3087  0.5549
 3404SOL    HW121845   0.562   2.938   4.283  0.6858 -2.2070 -1.5086
 3404SOL    HW221846   0.529   2.794   4.272  0.5787  1.0282 -0.9733
 3405SOL     OW21847   1.111   0.038  13.300 -0.1403  0.7204  0.6781
 3405SOL    HW121848   1.206   0.036  13.287 -0.3911  1.3063 -1.3254
 3405SOL    HW221849   1.084   4.683  13.302  0.5794  0.5309  1.6779
 3406SOL     OW21850   4.550   2.666   3.583 -0.1795  0.0126 -0.5728
 3406SOL    HW121851   4.532   2.733   3.649  2.4320  2.5593 -2.4397
 3406SOL    HW221852   4.519   2.586   3.625  0.3502  0.1008 -0.0007
 3407SOL     OW21853   4.498   4.351  17.075  0.0857  0.0364  0.3644
 3407SOL    HW121854   4.519   4.432  17.121 -0.2968 -0.2338  1.0131
 3407SOL    HW221855   4.404   4.364  17.063  0.4892 -0.6513 -3.5073
 3408SOL     OW21856   1.034   0.127   1.202  1.5546  0.3413  0.0994
 3408SOL    HW121857   1.014   0.044   1.246  2.6177  0.4872  0.8599
 3408SOL    HW221858   0.946   0.164   1.201  1.5458  0.2251 -2.7499
 3409SOL     OW21859   1.444   3.429   2.240  0.1838  0.2759  0.0444
 3409SOL    HW121860   1.500   3.351   2.244  1.1061  0.9664  0.6307
 3409SOL    HW221861   1.357   3.392   2.255  0.1390 -1.0874 -3.6143
 3410SOL     OW21862   4.519   2.066   4.900  0.0602  0.2189  0.2450
 3410SOL    HW121863   4.568   2.141   4.866 -0.6271  0.7172  0.3531
 3410SOL    HW221864   4.537   2.079   4.993  0.6699  0.1613  0.1322
 3411SOL     OW21865   0.829   3.213   4.377  0.5279 -0.0274  0.0585
 3411SOL    HW121866   0.922   3.226   4.393  0.9034  0.8238 -2.7310
 3411SOL    HW221867   0.802   3.145   4.439  1.0263 -1.7695 -1.6071
 3412SOL     OW21868   0.999   1.700   5.125 -0.0979  0.4631 -0.2041
 3412SOL    HW121869   0.958   1.659   5.048 -1.1875 -0.7948  1.0544
 3412SOL    HW221870   0.994   1.626   5.185  0.1149  0.5015 -0.1407
 3413SOL     OW21871   4.367   0.668   8.093  0.4234  0.0655 -0.3846
 3413SOL    HW121872   4.308   0.743   8.092 -1.9715 -1.8306 -1.6296
 3413SOL    HW221873   4.324   0.601   8.039 -2.7701 -0.0606  2.3556
 3414SOL     OW21874   0.453   4.482  16.216  0.4162 -0.1753 -0.1241
 3414SOL    HW121875   0.362   4.468  16.241 -0.1453  2.6052 -0.5335
 3414SOL    HW221876   0.467   4.429  16.138 -2.3298 -1.2275  0.1168
 3415SOL     OW21877   3.505   0.833   9.228  0.5860  0.0728  0.2667
 3415SOL    HW121878   3.588   0.794   9.256 -0.0101 -2.2860 -1.2472
 3415SOL    HW221879   3.535   0.923   9.217 -0.6420  0.4719  0.1239
 3416SOL     OW21880   3.932   4.721  14.531 -0.2135 -0.5960 -0.1202
 3416SOL    HW121881   3.925   4.632  14.495  0.7157 -1.6158  2.2673
 3416SOL    HW221882   3.893   0.026  14.454 -0.8344 -2.9755 -1.1063
 3417SOL     OW21883   2.297   2.002   7.285  0.5230 -0.6353  0.2822
 3417SOL    HW121884   2.208   2.023   7.313  1.2015  0.6399  1.4805
 3417SOL    HW221885   2.290   1.907   7.274 -0.5706 -0.5014 -0.2161
 3418SOL     OW21886   3.549   3.602   7.424  0.3122  0.6276  0.2285
 3418SOL    HW121887   3.601   3.527   7.396  1.5410  2.6493 -2.8515
 3418SOL    HW221888   3.619   3.648   7.470 -0.6470  1.8518  0.4410
 3419SOL     OW21889   1.062   2.245   4.737  0.3829  0.2649  0.2005
 3419SOL    HW121890   1.020   2.188   4.672  0.1889  0.2978  0.2978
 3419SOL    HW221891   1.152   2.213   4.746  0.9269  1.9486  0.8608
 3420SOL     OW21892   1.758   1.262   4.607  0.4019  0.0461 -0.6075
 3420SOL    HW121893   1.767   1.217   4.524  0.6377 -0.1427 -0.4794
 3420SOL    HW221894   1.849   1.273   4.635 -0.3242 -1.0663  2.2432
 3421SOL     OW21895   2.920   3.961   4.392  0.0031  0.0948  0.0030
 3421SOL    HW121896   2.929   4.039   4.338  1.5875  0.3653  0.6645
 3421SOL    HW221897   2.903   3.997   4.479 -1.4942  0.8674 -0.6281
 3422SOL     OW21898   1.197   4.458  12.618 -0.0966 -0.1424 -0.2052
 3422SOL    HW121899   1.162   4.530  12.672  0.3126  1.4563 -2.0792
 3422SOL    HW221900   1.118   4.405  12.609  1.1299 -1.8035 -1.0720
 3423SOL     OW21901   4.172   1.212   2.327  0.0139  0.8517  0.0149
 3423SOL    HW121902   4.089   1.183   2.364 -0.5337  2.5224  0.1106
 3423SOL    HW221903   4.141   1.254   2.247 -0.9249 -2.6207 -1.4454
 3424SOL     OW21904   1.886   2.018   4.170  0.1865  0.3191  0.7354
 3424SOL    HW121905   1.821   1.948   4.176 -0.1848  0.3837 -2.6840
 3424SOL    HW221906   1.830   2.095   4.169 -1.3203 -0.8008 -1.0812
 3425SOL     OW21907   3.680   4.300   1.713 -0.5256  0.0591  0.7703
 3425SOL    HW121908   3.706   4.342   1.795 -1.0982  0.2536  0.8523
 3425SOL    HW221909   3.672   4.207   1.731  3.0029 -0.2413  0.8527
 3426SOL     OW21910   3.286   0.322   6.106  0.0613  0.0262 -0.1094
 3426SOL    HW121911   3.261   0.278   6.187  0.0780  1.9222  0.9297
 3426SOL    HW221912   3.240   0.406   6.107  1.1061  0.5978  0.9751
 3427SOL     OW21913   3.957   1.482   3.304 -0.6592 -0.0563  0.3509
 3427SOL    HW121914   3.938   1.560   3.252  0.1856 -1.2585 -1.7582
 3427SOL    HW221915   3.961   1.417   3.234 -1.7953 -0.4129  0.6170
 3428SOL     OW21916   2.697   3.959   7.554  0.3115  0.3735  0.2821
 3428SOL    HW121917   2.611   3.941   7.518  1.1815 -1.6567 -0.8146
 3428SOL    HW221918   2.749   3.915   7.487 -0.6531 -0.7587  0.2803
 3429SOL     OW21919   2.066   1.507   0.881 -0.4283 -0.2448  0.0592
 3429SOL    HW121920   2.109   1.427   0.851  1.2123  1.1083 -1.2276
 3429SOL    HW221921   2.116   1.522   0.961  1.8660 -1.4895 -1.1553
 3430SOL     OW21922   0.461   1.620  15.381 -0.2360  0.3356 -0.6388
 3430SOL    HW121923   0.367   1.639  15.376 -0.3578 -0.7377 -2.6044
 3430SOL    HW221924   0.489   1.673  15.455  2.1299  0.3122 -1.5306
 3431SOL     OW21925   3.746   2.247   0.337  0.3309 -0.2051 -0.6512
 3431SOL    HW121926   3.816   2.200   0.383 -0.2285  0.6277  1.0419
 3431SOL    HW221927   3.796   2.245   0.256 -0.3675 -0.7112 -1.0703
 3432SOL     OW21928   1.008   0.015   8.366 -0.0899 -0.3736  0.5755
 3432SOL    HW121929   0.976   0.016   8.457  0.3869 -1.6012  0.7443
 3432SOL    HW221930   0.919   0.007   8.331  0.7140  1.2141 -1.8052
 3433SOL     OW21931   1.370   3.638   2.528  0.5985 -0.5192  0.3138
 3433SOL    HW121932   1.277   3.646   2.506  0.1336  1.4175  3.0275
 3433SOL    HW221933   1.395   3.553   2.491 -1.9304 -1.3015  0.3703
 3434SOL     OW21934   2.786   3.041  10.971  0.3821  0.9625 -0.3111
 3434SOL    HW121935   2.854   2.974  10.975 -0.0258  0.4758 -1.4497
 3434SOL    HW221936   2.715   2.977  10.959 -0.0667  1.0173  2.1221
 3435SOL     OW21937   2.072   1.460   8.622  0.0319 -0.2103  0.0087
 3435SOL    HW121938   2.148   1.403   8.632  0.2568 -0.1154 -1.2321
 3435SOL    HW221939   2.058   1.448   8.528 -1.5877 -0.8944  0.3314
 3436SOL     OW21940   3.990   2.632   9.315  0.1660  0.1857 -0.7035
 3436SOL    HW121941   3.995   2.633   9.410 -2.8924 -1.5998 -0.5351
 3436SOL    HW221942   3.895   2.638   9.307  0.0642 -1.2244 -0.4163
 3437SOL     OW21943   1.130   0.460   4.282 -0.2423  0.1524 -0.1592
 3437SOL    HW121944   1.216   0.423   4.258 -0.4456 -0.7111  0.4417
 3437SOL    HW221945   1.112   0.403   4.357  3.5541  1.6075  1.8775
 3438SOL     OW21946   3.661   0.912  11.142 -0.5713  0.2257  0.7057
 3438SOL    HW121947   3.640   0.963  11.220 -1.9018 -0.7591  0.9752
 3438SOL    HW221948   3.581   0.919  11.091 -1.7998 -1.0610  2.4909
 3439SOL     OW21949   0.589   1.187  13.286  0.0383 -0.3531  0.2697
 3439SOL    HW121950   0.681   1.161  13.294  0.6867  1.6326 -0.7260
 3439SOL    HW221951   0.550   1.118  13.233 -1.4134 -1.5720  2.9110
 3440SOL     OW21952   3.718   3.191   5.854 -0.0509 -0.0634  0.2288
 3440SOL    HW121953   3.723   3.246   5.775 -1.0167 -0.9036 -0.4199
 3440SOL    HW221954   3.623   3.182   5.866 -0.0686 -0.4346 -0.2076
 3441SOL     OW21955   3.727   3.741  15.149  0.4931  0.4477 -0.4565
 3441SOL    HW121956   3.658   3.678  15.126  0.3976  0.0946  0.7372
 3441SOL    HW221957   3.700   3.758  15.240  1.8294  1.5487 -0.2818
 3442SOL     OW21958   2.297   2.452  15.216 -0.2547 -0.3200 -0.1624
 3442SOL    HW121959   2.368   2.402  15.256  1.1239  1.6960 -0.0678
 3442SOL    HW221960   2.222   2.404  15.251  0.2803 -1.6652 -0.8822
 3443SOL     OW21961   1.415   2.750   4.912 -0.0654 -0.2758  0.5959
 3443SOL    HW121962   1.430   2.666   4.868  1.0300  0.5763 -0.6760
 3443SOL    HW221963   1.320   2.757   4.920 -0.0715  3.1617 -2.3732
 3444SOL     OW21964   2.962   0.855   2.965 -0.1297  0.6312  0.0125
 3444SOL    HW121965   3.038   0.910   2.987  0.6100 -1.2706  2.2439
 3444SOL    HW221966   2.999   0.822   2.884 -1.5045  0.7402 -0.6487
 3445SOL     OW21967   0.775   2.621  15.549  0.2532 -0.0442 -0.3627
 3445SOL    HW121968   0.742   2.598  15.462 -0.1765  1.1103 -0.5059
 3445SOL    HW221969   0.719   2.567  15.604 -1.0001  0.3085 -1.2800
 3446SOL     OW21970   3.747   2.977  16.147  0.1519 -0.2848  0.6586
 3446SOL    HW121971   3.671   2.930  16.180  0.5724  1.4005  4.0269
 3446SOL    HW221972   3.728   3.067  16.173  3.7024  0.6677  0.0098
 3447SOL     OW21973   2.638   1.875   1.252  0.5437 -0.7860  0.1715
 3447SOL    HW121974   2.733   1.866   1.249  0.7631  1.4353  0.8375
 3447SOL    HW221975   2.611   1.888   1.343  1.1322  1.6073  0.0013
 3448SOL     OW21976   1.356   3.568   1.614  0.0305 -0.7865  0.1944
 3448SOL    HW121977   1.282   3.544   1.557  0.4669  0.6015 -0.9466
 3448SOL    HW221978   1.331   3.528   1.698 -0.8908  2.8414  1.6371
 3449SOL     OW21979   3.630   3.313   7.048 -0.2280  0.2924  0.3234
 3449SOL    HW121980   3.619   3.276   6.961  0.5374  0.4088  0.1816
 3449SOL    HW221981   3.674   3.394   7.023 -0.8431  0.3294 -0.6333
 3450SOL     OW21982   3.638   3.631   8.332 -0.0541 -0.6713  0.8351
 3450SOL    HW121983   3.677   3.627   8.245  1.3726 -1.7761  1.5352
 3450SOL    HW221984   3.577   3.558   8.321 -0.2400 -0.0969 -1.9230
 3451SOL     OW21985   0.121   0.881   5.866 -0.1539 -0.2236  0.4462
 3451SOL    HW121986   0.180   0.870   5.940  0.6470 -0.8095 -0.2760
 3451SOL    HW221987   0.062   0.807   5.874 -1.8008  1.2104  1.5067
 3452SOL     OW21988   3.461   3.513   5.627  0.0705 -0.3051 -0.0408
 3452SOL    HW121989   3.375   3.532   5.665  0.8005  0.5136  1.2332
 3452SOL    HW221990   3.432   3.465   5.550  2.1325  0.6902 -1.4272
 3453SOL     OW21991   4.458   3.792   9.140  0.1858 -0.0601  0.4063
 3453SOL    HW121992   4.461   3.719   9.202  1.9704 -0.0933  0.2731
 3453SOL    HW221993   4.487   3.870   9.186  2.4914  0.6983 -2.3073
 3454SOL     OW21994   2.669   0.084  16.159 -0.5352 -0.2206  0.2175
 3454SOL    HW121995   2.642   0.168  16.124  0.4684  0.4327  1.0040
 3454SOL    HW221996   2.741   0.066  16.098 -0.4421 -0.5977  0.4322
 3455SOL     OW21997   4.029   3.548   5.065  0.0467  0.1686  0.2654
 3455SOL    HW121998   3.952   3.555   5.121 -0.4821 -2.5069 -0.1104
 3455SOL    HW221999   4.053   3.639   5.046 -1.0223  0.0562 -1.6482
 3456SOL     OW22000   3.839   2.538   6.969  0.5549  0.1065 -0.0446
 3456SOL    HW122001   3.821   2.517   7.060  3.3350 -2.5667 -0.1221
 3456SOL    HW222002   3.812   2.630   6.970  0.7133  0.1555 -0.4627
 3457SOL     OW22003   0.952   0.170  13.544 -0.2847 -0.2326 -0.2671
 3457SOL    HW122004   0.870   0.203  13.507  1.0370  1.5087 -1.6294
 3457SOL    HW222005   1.008   0.141  13.472  0.8137 -0.0976  0.5366
 3458SOL     OW22006   2.664   2.077   7.062 -0.4935 -0.0078  0.8656
 3458SOL    HW122007   2.648   2.018   6.988 -1.9266 -0.8114  1.8126
 3458SOL    HW222008   2.635   2.019   7.132  1.1568  1.1156  2.4798
 3459SOL     OW22009   3.449   0.346   4.852 -0.0090  0.4055 -0.5877
 3459SOL    HW122010   3.379   0.411   4.852 -0.3920 -0.0070 -1.6559
 3459SOL    HW222011   3.513   0.387   4.910  1.1165 -2.6204  0.3170
 3460SOL     OW22012   1.833   2.622   9.324 -0.2012  0.2458 -0.2472
 3460SOL    HW122013   1.882   2.543   9.348  2.9825  3.4964  3.8414
 3460SOL    HW222014   1.786   2.629   9.407  0.0268 -0.0639 -0.0904
 3461SOL     OW22015   1.245   2.152  11.604  0.4176  0.1653  0.2011
 3461SOL    HW122016   1.301   2.226  11.628  0.3172  1.1736 -2.6974
 3461SOL    HW222017   1.161   2.181  11.639  0.2792 -2.0285  1.6876
 3462SOL     OW22018   0.736   2.072   4.756  0.5063 -0.1461 -0.7950
 3462SOL    HW122019   0.798   2.118   4.700 -0.1807 -0.6782 -2.0009
 3462SOL    HW222020   0.728   1.988   4.710 -0.7189 -0.6414  0.3267
 3463SOL     OW22021   3.527   0.181   3.326  0.7317  0.2104  0.4644
 3463SOL    HW122022   3.528   0.242   3.252  0.8557  0.5408  0.7366
 3463SOL    HW222023   3.468   0.234   3.380  1.7416  1.9122 -0.0820
 3464SOL     OW22024   2.625   4.535  15.108  0.2432  0.4588 -0.4484
 3464SOL    HW122025   2.705   4.497  15.144 -0.3428 -0.2910  0.0366
 3464SOL    HW222026   2.563   4.517  15.178  0.6084  1.1617  0.0498
 3465SOL     OW22027   4.144   4.572   9.403  0.6340  0.5985  0.2862
 3465SOL    HW122028   4.095   4.522   9.468 -0.6398 -0.8484 -1.7773
 3465SOL    HW222029   4.220   4.595   9.456  1.3966 -0.6046 -0.2980
 3466SOL     OW22030   4.163   3.530   7.253 -0.6186  0.1207  0.0600
 3466SOL    HW122031   4.234   3.510   7.314  0.9167 -0.7701 -2.0210
 3466SOL    HW222032   4.134   3.439   7.253 -2.1605  0.6156  1.1393
 3467SOL     OW22033   0.678   1.475   6.947  0.4162  0.2270  0.1783
 3467SOL    HW122034   0.745   1.522   6.996 -0.7650  1.8827  0.1750
 3467SOL    HW222035   0.686   1.384   6.978 -2.3510 -0.3252 -0.7235
 3468SOL     OW22036   0.634   1.978   3.736 -0.0389  0.4943  0.1308
 3468SOL    HW122037   0.544   2.008   3.754  0.3111 -0.0454  2.8387
 3468SOL    HW222038   0.620   1.911   3.670 -2.3370  0.4254  0.6774
 3469SOL     OW22039   2.554   1.372   3.496  0.3690 -0.6050  0.0506
 3469SOL    HW122040   2.578   1.288   3.456  1.1594 -1.6763  2.8100
 3469SOL    HW222041   2.459   1.377   3.506  0.5884 -0.0872  1.7845
 3470SOL     OW22042   2.531   1.011   3.007  0.0501 -0.4958 -0.1459
 3470SOL    HW122043   2.503   1.101   3.028  0.1116 -0.4912 -0.0846
 3470SOL    HW222044   2.519   1.021   2.912 -1.7703 -1.8370 -0.0469
 3471SOL     OW22045   3.399   2.014   8.632  0.0015 -0.0638  0.0858
 3471SOL    HW122046   3.339   2.086   8.648  2.5366  2.4885 -1.8798
 3471SOL    HW222047   3.483   2.061   8.632 -0.1092  0.1791  3.5020
 3472SOL     OW22048   1.044   3.270   8.850 -0.5234 -0.5314  0.4790
 3472SOL    HW122049   0.963   3.236   8.811  0.4564 -1.4356 -0.7670
 3472SOL    HW222050   1.053   3.220   8.931 -2.0173  0.5122  1.2851
 3473SOL     OW22051   1.230   3.694  11.504 -0.1766 -0.2574  0.0794
 3473SOL    HW122052   1.141   3.722  11.479 -0.3125 -1.7540 -1.0971
 3473SOL    HW222053   1.257   3.641  11.429  0.7348  0.7985 -0.3375
 3474SOL     OW22054   2.855   1.377   7.307  0.1409 -0.0731 -0.7540
 3474SOL    HW122055   2.834   1.310   7.372  1.7568 -1.3208 -1.5222
 3474SOL    HW222056   2.881   1.317   7.237  0.7350 -0.0082 -0.5820
 3475SOL     OW22057   1.305   4.365  13.803 -0.2727 -0.0185  0.0656
 3475SOL    HW122058   1.243   4.436  13.786 -0.1917 -0.5621 -2.5484
 3475SOL    HW222059   1.278   4.351  13.894 -1.2488  2.5755  0.1763
 3476SOL     OW22060   4.473   2.485   5.053  0.3303  0.4536  0.4117
 3476SOL    HW122061   4.494   2.398   5.087  0.4618 -0.1841 -1.2738
 3476SOL    HW222062   4.546   2.530   5.094  0.0970  1.8214 -0.6595
 3477SOL     OW22063   1.699   0.335   7.406  0.3330  0.2640 -0.0444
 3477SOL    HW122064   1.694   0.298   7.494 -0.0353  0.5846  0.0683
 3477SOL    HW222065   1.793   0.325   7.394  0.3458 -0.1592  0.4091
 3478SOL     OW22066   3.313   0.190   7.229  0.1963  0.1477 -0.1030
 3478SOL    HW122067   3.325   0.236   7.146  3.1206  1.4629  1.0706
 3478SOL    HW222068   3.311   0.102   7.191  2.9954  0.8422 -1.7996
 3479SOL     OW22069   3.786   4.615   0.902  0.1168  0.0936  0.2445
 3479SOL    HW122070   3.752   4.699   0.932  1.5775  0.5372  0.6885
 3479SOL    HW222071   3.808   4.582   0.990  1.9603 -1.4951 -0.7893
 3480SOL     OW22072   0.633   0.280   4.802 -0.1712  0.1744 -0.0383
 3480SOL    HW122073   0.726   0.263   4.787 -0.2554 -1.2658  1.1774
 3480SOL    HW222074   0.600   0.254   4.716 -0.5288  1.1887 -0.2147
 3481SOL     OW22075   1.679   2.722   3.537 -0.4994 -0.4132 -0.0562
 3481SOL    HW122076   1.769   2.693   3.546 -0.6007 -1.6380 -3.1022
 3481SOL    HW222077   1.687   2.763   3.451  3.0735  1.4504  1.1566
 3482SOL     OW22078   3.195   1.917   5.157  0.7594  0.4526  0.0675
 3482SOL    HW122079   3.151   1.963   5.084  1.1444  0.4230 -0.1815
 3482SOL    HW222080   3.286   1.923   5.130  0.1554 -1.0998 -2.3767
 3483SOL     OW22081   2.369   0.770   3.040 -0.7404  0.1766 -0.0913
 3483SOL    HW122082   2.458   0.803   3.030 -0.2320 -1.7852 -1.9864
 3483SOL    HW222083   2.324   0.849   3.010  0.5358  1.7727  2.2421
 3484SOL     OW22084   4.546   3.503   3.850  0.4155  0.3689 -0.0431
 3484SOL    HW122085   4.543   3.597   3.869  1.0361  0.3220  0.3027
 3484SOL    HW222086   4.475   3.504   3.786  1.1757 -0.6846 -0.9028
 3485SOL     OW22087   3.543   2.304   3.014  0.3208  0.3513 -0.2229
 3485SOL    HW122088   3.454   2.312   2.979 -0.9763 -0.6486  2.8285
 3485SOL    HW222089   3.593   2.270   2.939  1.6230  0.0907  0.7627
 3486SOL     OW22090   2.889   2.298  11.134  0.2023 -0.2098  0.1649
 3486SOL    HW122091   2.929   2.233  11.192  1.5805  1.6525  1.3288
 3486SOL    HW222092   2.929   2.378  11.170 -1.6397  0.6908  0.2115
 3487SOL     OW22093   0.191   0.387   0.061  0.3567  0.0034 -0.3229
 3487SOL    HW122094   0.263   0.325   0.067  1.4153  1.2728  0.2749
 3487SOL    HW222095   0.204   0.412  17.716 -2.2482  3.1186  0.1121
 3488SOL     OW22096   0.305   1.826   7.056  0.0148  0.9437  0.9303
 3488SOL    HW122097   0.293   1.792   7.145  0.5258 -0.8579  0.3162
 3488SOL    HW222098   0.358   1.903   7.076  2.9499 -0.8410 -0.0191
 3489SOL     OW22099   1.726   2.762   8.302 -0.0915  0.0614 -0.3615
 3489SOL    HW122100   1.684   2.686   8.340 -0.2936 -0.4030 -1.5077
 3489SOL    HW222101   1.655   2.798   8.248 -0.2593 -1.7367 -1.3259
 3490SOL     OW22102   3.044   1.018  13.629 -0.8421 -0.6423 -0.2256
 3490SOL    HW122103   3.019   0.950  13.692 -0.5531 -1.8629 -1.4291
 3490SOL    HW222104   3.121   0.981  13.585  0.5305 -0.2828  1.8923
 3491SOL     OW22105   1.876   0.983   7.036  0.1835 -0.2089  0.6374
 3491SOL    HW122106   1.809   0.930   7.078 -0.7595  0.8000  0.3954
 3491SOL    HW222107   1.835   1.069   7.033  2.5980  0.9908  1.7126
 3492SOL     OW22108   0.447   2.080   6.943 -0.0585  0.4721 -0.1098
 3492SOL    HW122109   0.538   2.079   6.913  0.7898 -0.7807  2.5382
 3492SOL    HW222110   0.404   2.129   6.873 -0.4255  0.6832  0.2644
 3493SOL     OW22111   0.263   0.610  12.683  0.5137  0.0300 -0.3191
 3493SOL    HW122112   0.319   0.553  12.631  1.2295 -2.0691  2.7587
 3493SOL    HW222113   0.212   0.654  12.615  0.1615 -1.2822 -0.9039
 3494SOL     OW22114   0.778   4.534  17.603  0.0119 -0.1656 -0.4779
 3494SOL    HW122115   0.719   4.492  17.665  2.0683  0.5827  1.9797
 3494SOL    HW222116   0.740   4.622  17.607  1.8325  0.5319  1.4770
 3495SOL     OW22117   0.109   0.153   4.753  0.0110  0.0503 -0.0088
 3495SOL    HW122118   0.020   0.140   4.786 -0.7064  0.4158 -1.7813
 3495SOL    HW222119   0.152   0.071   4.775 -1.6408 -0.1200  2.5081
 3496SOL     OW22120   1.112   4.099   4.218  0.4204 -0.4217  0.0504
 3496SOL    HW122121   1.198   4.124   4.251  0.9087 -3.8771  1.3410
 3496SOL    HW222122   1.132   4.071   4.129  0.7445  2.7011 -0.8666
 3497SOL     OW22123   0.851   3.793   6.630 -0.0878 -0.3345  0.1562
 3497SOL    HW122124   0.867   3.772   6.722  0.6207  0.7865  0.2878
 3497SOL    HW222125   0.904   3.722   6.593  0.2250 -0.8232  1.5457
 3498SOL     OW22126   0.113   3.031   4.616  0.1374  0.3115 -0.0014
 3498SOL    HW122127   0.157   2.953   4.651 -2.1856 -0.7448  0.5735
 3498SOL    HW222128   0.111   3.082   4.696 -0.1505  1.1429 -0.5429
 3499SOL     OW22129   3.567   4.039   2.381 -0.1357 -0.3315  0.0198
 3499SOL    HW122130   3.472   4.039   2.372 -0.0839 -0.8089 -0.5715
 3499SOL    HW222131   3.588   4.067   2.470 -1.4885  0.0896  0.1994
 3500SOL     OW22132   2.969   3.258   3.864 -0.5328 -0.0823  0.4547
 3500SOL    HW122133   3.052   3.293   3.896  0.1808  0.3661 -1.9362
 3500SOL    HW222134   2.965   3.169   3.900  0.1133  1.0234  3.3095
 3501SOL     OW22135   1.276   1.992   5.322 -0.0037 -0.0892 -0.0995
 3501SOL    HW122136   1.296   1.929   5.253 -1.7911 -1.1592  0.3822
 3501SOL    HW222137   1.368   2.015   5.340 -0.6773  1.4463  1.4786
 3502SOL     OW22138   2.691   0.181   8.066 -0.0697  0.0603  0.1734
 3502SOL    HW122139   2.620   0.201   8.127  1.1999  0.0321  1.6673
 3502SOL    HW222140   2.768   0.201   8.120 -1.9019  0.6654  2.5487
 3503SOL     OW22141   2.165   4.530  16.212 -0.3232  0.0969 -0.5984
 3503SOL    HW122142   2.092   4.537  16.274  0.3645 -1.3904  0.3590
 3503SOL    HW222143   2.191   4.439  16.219  2.3937  0.9140 -0.1011
 3504SOL     OW22144   4.279   0.525   8.985 -0.2468  0.0507 -0.0649
 3504SOL    HW122145   4.224   0.474   9.044  1.6102 -2.9714 -0.9288
 3504SOL    HW222146   4.224   0.526   8.907 -0.0760 -0.4577 -0.1928
 3505SOL     OW22147   3.498   4.090   0.831  0.3662  0.0056 -0.1462
 3505SOL    HW122148   3.576   4.138   0.802 -0.6189  1.8863  0.2791
 3505SOL    HW222149   3.535   4.002   0.838  1.6960  0.5201 -0.8288
 3506SOL     OW22150   0.757   1.298   9.069 -0.7350 -0.3615 -0.0720
 3506SOL    HW122151   0.748   1.210   9.031  0.6246 -0.1418 -0.9106
 3506SOL    HW222152   0.736   1.283   9.161  0.7737  1.0092  0.4971
 3507SOL     OW22153   1.454   1.082   8.612 -0.0157  0.0111 -0.5962
 3507SOL    HW122154   1.388   1.014   8.625  2.1068 -2.3153 -1.8753
 3507SOL    HW222155   1.399   1.159   8.624 -0.0628 -0.0707 -0.2885
 3508SOL     OW22156   2.539   3.655   4.175 -0.0009  0.7813  0.2131
 3508SOL    HW122157   2.594   3.654   4.253  0.2846 -1.0933 -0.0304
 3508SOL    HW222158   2.486   3.578   4.195  0.0887  0.1664 -1.9032
 3509SOL     OW22159   3.989   2.469   6.247  0.1509  0.2025 -0.0023
 3509SOL    HW122160   3.924   2.522   6.294 -0.0064 -0.7289  0.8437
 3509SOL    HW222161   3.977   2.384   6.290  1.9607  0.4698  1.0031
 3510SOL     OW22162   4.698   3.282   6.862  0.0363 -0.7356  0.1000
 3510SOL    HW122163   4.614   3.266   6.905  0.3780 -1.3751  0.5418
 3510SOL    HW222164   4.686   3.242   6.776  1.2483 -0.9632  0.0337
 3511SOL     OW22165   2.091   0.457   5.605 -0.4177 -0.0634 -0.5317
 3511SOL    HW122166   2.040   0.538   5.610 -0.2779  0.1857 -2.7512
 3511SOL    HW222167   2.036   0.405   5.547  0.6035 -0.5994 -1.0207
 3512SOL     OW22168   1.588   2.248   5.420  0.5522 -0.2554  0.0981
 3512SOL    HW122169   1.570   2.154   5.426 -0.7186  0.0101  0.4085
 3512SOL    HW222170   1.620   2.263   5.331  2.0778 -0.1457  0.6668
 3513SOL     OW22171   4.290   4.561   4.935 -0.2823 -0.5384 -0.0425
 3513SOL    HW122172   4.282   4.650   4.968 -0.2651  0.0728 -1.7002
 3513SOL    HW222173   4.318   4.570   4.844  2.0796 -1.2591  0.6185
 3514SOL     OW22174   2.236   2.967   6.161 -0.0732 -0.3442  0.1979
 3514SOL    HW122175   2.217   2.988   6.069 -0.8740 -1.0825  0.1992
 3514SOL    HW222176   2.157   2.928   6.198  0.4998 -0.0262  1.7276
 3515SOL     OW22177   3.456   1.615   6.694 -0.1750  0.3669  0.4995
 3515SOL    HW122178   3.523   1.546   6.688  1.1516  1.4904  2.3925
 3515SOL    HW222179   3.488   1.658   6.773  1.5175  0.2877 -0.1208
 3516SOL     OW22180   1.357   4.212   3.125 -0.1330  0.3415 -0.8258
 3516SOL    HW122181   1.386   4.122   3.143  0.0192  0.9818  2.0567
 3516SOL    HW222182   1.422   4.241   3.062  0.8275  1.1935  0.5775
 3517SOL     OW22183   1.132   4.364  11.334 -0.1498 -0.0906  0.0273
 3517SOL    HW122184   1.101   4.284  11.291  0.4821 -1.0583  1.3644
 3517SOL    HW222185   1.161   4.325  11.417 -0.9147  1.9479  1.2520
 3518SOL     OW22186   0.090   0.530   7.216  0.2449 -0.1080  0.3803
 3518SOL    HW122187   0.175   0.572   7.226  0.7499 -1.0488  0.0032
 3518SOL    HW222188   0.052   0.614   7.192 -1.0597 -0.5352  0.9485
 3519SOL     OW22189   1.506   2.779  11.441  0.4676 -0.4311  0.8065
 3519SOL    HW122190   1.571   2.765  11.372  0.2517  2.0303  0.1219
 3519SOL    HW222191   1.539   2.723  11.511 -1.4529 -1.9318  0.5352
 3520SOL     OW22192   2.111   3.522   8.591 -0.4222 -0.5025  0.0863
 3520SOL    HW122193   2.178   3.510   8.658  1.1688  1.9574 -1.0706
 3520SOL    HW222194   2.084   3.430   8.586 -1.1017 -0.2116 -1.5778
 3521SOL     OW22195   3.884   1.710   1.843  0.0019  0.2675  0.4227
 3521SOL    HW122196   3.887   1.744   1.932  1.4129  0.4229  0.3165
 3521SOL    HW222197   3.960   1.758   1.811  0.6383  0.5573  2.3713
 3522SOL     OW22198   1.951   0.052   4.713 -0.0523 -0.2153 -0.1147
 3522SOL    HW122199   1.942   0.102   4.795 -0.8150 -0.0743 -0.2766
 3522SOL    HW222200   1.877   0.087   4.662 -0.0948  2.4534  1.7475
 3523SOL     OW22201   4.365   0.239   5.970  0.0411  0.1721  0.4430
 3523SOL    HW122202   4.448   0.245   5.923 -1.4206 -1.4254 -2.2962
 3523SOL    HW222203   4.368   0.156   6.018 -0.1885  1.0134  1.9155
 3524SOL     OW22204   0.171   2.143   4.881 -0.1478 -0.1125 -0.2930
 3524SOL    HW122205   0.099   2.191   4.841 -0.5445 -0.4760 -0.0113
 3524SOL    HW222206   0.195   2.204   4.951  0.4218 -0.8366  0.1422
 3525SOL     OW22207   0.515   3.584   3.785  0.2898  0.8692 -0.0245
 3525SOL    HW122208   0.475   3.559   3.702 -0.8712 -2.8167  1.6364
 3525SOL    HW222209   0.516   3.495   3.820 -0.3312  0.4051 -1.2025
 3526SOL     OW22210   0.265   2.331   5.067  0.2136 -0.5546  0.4438
 3526SOL    HW122211   0.360   2.340   5.061  0.0880  0.6385  0.3404
 3526SOL    HW222212   0.242   2.388   5.140  1.7594 -0.4248  0.8416
 3527SOL     OW22213   0.905   1.654   6.775  0.1564  0.1231 -0.1886
 3527SOL    HW122214   0.972   1.604   6.728  0.4069 -0.5135  0.8185
 3527SOL    HW222215   0.828   1.623   6.727  1.7416 -0.4527 -2.3721
 3528SOL     OW22216   2.082   3.571   6.563 -0.2766  0.7390  0.0752
 3528SOL    HW122217   2.082   3.476   6.546 -0.7574  0.9655 -1.2104
 3528SOL    HW222218   1.997   3.584   6.522 -0.3704  0.7440  0.2737
 3529SOL     OW22219   0.804   2.680   2.194 -0.2968 -0.4778  0.3202
 3529SOL    HW122220   0.839   2.641   2.274  0.5286  1.6235  0.9805
 3529SOL    HW222221   0.778   2.768   2.223  0.0616  1.2965 -4.8505
 3530SOL     OW22222   4.159   3.270   8.604 -0.5291 -0.2126  0.0800
 3530SOL    HW122223   4.169   3.340   8.670  0.0694 -0.2334  0.0106
 3530SOL    HW222224   4.230   3.209   8.621 -0.0514  0.4197  0.3665
 3531SOL     OW22225   4.668   3.174   6.618  0.1577  0.1692  0.3154
 3531SOL    HW122226   4.723   3.146   6.545  3.1913  1.3833  2.1439
 3531SOL    HW222227   4.610   3.231   6.568  0.9568  1.0098  0.3457
 3532SOL     OW22228   4.059   1.937  16.938 -0.4245 -0.6369 -0.0921
 3532SOL    HW122229   4.145   1.967  16.966 -1.3640  2.2832 -0.2815
 3532SOL    HW222230   4.004   1.991  16.995 -1.7544  0.0440 -2.0037
 3533SOL     OW22231   2.584   3.498   9.216 -0.1277 -0.3286 -0.2441
 3533SOL    HW122232   2.633   3.444   9.279  3.1148  1.2155 -1.4348
 3533SOL    HW222233   2.505   3.501   9.269 -0.5342 -1.7603 -0.7703
 3534SOL     OW22234   0.753   3.361   7.068  0.2284 -0.0507  0.2067
 3534SOL    HW122235   0.756   3.363   7.163 -2.1391 -0.2285  0.2687
 3534SOL    HW222236   0.840   3.326   7.047  0.1844  0.0782 -0.2006
 3535SOL     OW22237   2.466   3.857   3.727 -0.3440 -0.5019 -0.0271
 3535SOL    HW122238   2.453   3.866   3.633 -0.6466 -0.4239  0.0231
 3535SOL    HW222239   2.562   3.860   3.722 -0.3702 -2.0064 -1.3065
 3536SOL     OW22240   4.381   3.497   1.155  0.1125  0.1800 -0.0887
 3536SOL    HW122241   4.375   3.484   1.249 -2.1443 -2.3811 -0.5987
 3536SOL    HW222242   4.299   3.545   1.145  0.6979  1.7051  2.5250
 3537SOL     OW22243   1.815   3.811   5.444 -0.2746 -0.1458  0.0193
 3537SOL    HW122244   1.761   3.734   5.463 -0.0647 -0.5690 -1.1036
 3537SOL    HW222245   1.746   3.874   5.425  0.6867  0.0180 -2.8492
 3538SOL     OW22246   4.252   2.018   6.874 -0.0418  0.0675  0.2576
 3538SOL    HW122247   4.283   2.098   6.917 -1.1552 -0.5133  2.1809
 3538SOL    HW222248   4.164   2.019   6.913 -0.7019  0.9825 -1.2762
 3539SOL     OW22249   4.009   0.317   2.906  0.5087 -0.1716 -0.2954
 3539SOL    HW122250   4.013   0.412   2.897  0.2262 -0.0691  0.6701
 3539SOL    HW222251   4.022   0.307   3.000  1.8442  1.8105 -0.2716
 3540SOL     OW22252   1.336   0.153   1.234 -0.4877 -0.1922 -0.0554
 3540SOL    HW122253   1.405   0.192   1.181  1.4058 -1.8959  1.1379
 3540SOL    HW222254   1.257   0.161   1.179 -1.8056 -1.1221  1.6946
 3541SOL     OW22255   2.561   4.112   2.262 -0.4600 -0.3206 -0.4227
 3541SOL    HW122256   2.628   4.181   2.267 -0.8432  0.1199 -1.4001
 3541SOL    HW222257   2.481   4.155   2.233 -0.1691 -0.0263 -0.7919
 3542SOL     OW22258   1.009   0.655   4.146  0.5846 -0.4253 -0.5192
 3542SOL    HW122259   1.053   0.579   4.183  0.1946 -1.0404 -1.3075
 3542SOL    HW222260   0.929   0.627   4.101  1.5322  1.6372 -3.4942
 3543SOL     OW22261   1.981   0.810   8.421 -0.5944  0.4034  0.0433
 3543SOL    HW122262   2.000   0.788   8.513  0.3816 -2.5433 -0.8755
 3543SOL    HW222263   2.027   0.893   8.413 -0.6908  0.4608  0.0770
 3544SOL     OW22264   1.840   3.485   6.472 -0.1544 -0.1490 -0.0959
 3544SOL    HW122265   1.836   3.471   6.377 -2.4295  1.0940 -0.1786
 3544SOL    HW222266   1.770   3.436   6.515  0.9977  0.0547  1.9621
 3545SOL     OW22267   3.071   2.281   6.334  0.3129 -0.6584 -0.3320
 3545SOL    HW122268   3.106   2.267   6.245  2.7060  0.4263  0.4337
 3545SOL    HW222269   3.130   2.343   6.376  0.0792  1.1435 -2.6312
 3546SOL     OW22270   0.531   1.806  13.331  0.2579 -0.5571  0.0650
 3546SOL    HW122271   0.578   1.866  13.390 -3.7434 -0.3791  3.0917
 3546SOL    HW222272   0.440   1.827  13.353 -0.2343 -0.6581 -1.9254
 3547SOL     OW22273   1.561   1.805  13.638  0.2042 -0.4227 -0.0246
 3547SOL    HW122274   1.504   1.750  13.585  0.2200  0.0206 -0.5133
 3547SOL    HW222275   1.630   1.742  13.658  3.0305  2.2934 -1.2011
 3548SOL     OW22276   1.688   3.142   4.839 -0.2410  0.6337  0.0348
 3548SOL    HW122277   1.636   3.120   4.917 -1.2202 -0.6648 -0.9982
 3548SOL    HW222278   1.652   3.073   4.783 -0.6148  0.6318  0.2726
 3549SOL     OW22279   1.028   4.030  11.919 -0.5525  0.8885  0.3004
 3549SOL    HW122280   0.997   4.108  11.965 -3.4054 -0.2262  0.2680
 3549SOL    HW222281   0.951   3.975  11.933  0.3781 -1.1430 -2.5006
 3550SOL     OW22282   3.899   2.790  13.250 -0.2635 -0.2713 -0.5530
 3550SOL    HW122283   3.884   2.702  13.286  1.2392 -0.2972 -0.0046
 3550SOL    HW222284   3.994   2.795  13.241 -0.3499  0.2148 -1.1652
 3551SOL     OW22285   4.300   3.471   6.959 -0.7982 -0.1213 -0.6237
 3551SOL    HW122286   4.285   3.477   7.053  1.2734 -1.2857 -0.2356
 3551SOL    HW222287   4.372   3.533   6.950  0.4558 -1.3026  1.4746
 3552SOL     OW22288   1.610   2.022  11.779 -0.0544 -0.5335 -0.1514
 3552SOL    HW122289   1.539   1.964  11.804 -1.6276  1.5444  0.1827
 3552SOL    HW222290   1.688   1.967  11.776  0.4813  0.2016  0.1647
 3553SOL     OW22291   3.922   0.854   5.790 -0.5232 -0.2768  0.2012
 3553SOL    HW122292   3.920   0.924   5.724 -1.7010 -1.1912 -0.7303
 3553SOL    HW222293   3.943   0.907   5.867 -3.1102  2.5461 -1.0248
 3554SOL     OW22294   3.331   3.088  14.726 -0.0328 -0.5957 -0.3538
 3554SOL    HW122295   3.319   3.052  14.639  0.0656  0.5506 -0.8485
 3554SOL    HW222296   3.273   3.032  14.777 -0.3001  0.3980  0.4441
 3555SOL     OW22297   3.712   0.835  17.354 -0.0486  0.7056 -0.7157
 3555SOL    HW122298   3.715   0.837  17.450 -1.5907  0.9676 -0.6843
 3555SOL    HW222299   3.684   0.745  17.336 -0.2928  0.4857  0.7854
 3556SOL     OW22300   4.293   0.614   3.777  0.7400 -0.0198  0.0893
 3556SOL    HW122301   4.206   0.614   3.819 -0.2904  1.0055 -2.0550
 3556SOL    HW222302   4.328   0.701   3.791  0.5474 -0.2511  2.1279
 3557SOL     OW22303   2.846   3.679   5.216 -0.1774  0.0398 -0.0819
 3557SOL    HW122304   2.936   3.712   5.210 -0.5444  1.0282 -0.1225
 3557SOL    HW222305   2.858   3.596   5.170 -0.9574 -0.8748  1.3644
 3558SOL     OW22306   2.109   0.154   7.887  0.2434  0.5949  0.2453
 3558SOL    HW122307   2.020   0.180   7.861  0.5033 -0.4747 -1.6836
 3558SOL    HW222308   2.102   0.143   7.982  2.6889  3.0670  0.7074
 3559SOL     OW22309   0.442   0.257   3.028  0.4212  0.3262 -0.1435
 3559SOL    HW122310   0.471   0.166   3.021 -2.3884 -0.5398 -0.6792
 3559SOL    HW222311   0.528   0.292   3.049 -0.2412  0.6862  1.9698
 3560SOL     OW22312   0.895   3.319   7.351  0.3728 -0.6762  0.7344
 3560SOL    HW122313   0.898   3.411   7.328 -1.0720 -0.7993  0.0404
 3560SOL    HW222314   0.836   3.299   7.424 -1.6512  1.8808 -0.2144
 3561SOL     OW22315   2.183   4.323   8.122  0.1468  0.0518  0.0194
 3561SOL    HW122316   2.144   4.360   8.043  0.2698 -2.9206 -1.4573
 3561SOL    HW222317   2.183   4.390   8.191  2.6686  0.6706 -0.5886
 3562SOL     OW22318   1.336   4.375   9.667  0.5978  0.5794  0.5842
 3562SOL    HW122319   1.426   4.363   9.636 -0.5415  1.2567 -2.9756
 3562SOL    HW222320   1.337   4.469   9.679  0.7965  0.7149 -0.4262
 3563SOL     OW22321   3.015   4.621   9.341 -0.0623  0.2282 -0.8981
 3563SOL    HW122322   2.973   4.577   9.414  2.3831  1.4044  1.2126
 3563SOL    HW222323   3.006   4.715   9.357  0.3285 -0.0714  1.0740
 3564SOL     OW22324   0.326   3.789  10.138  0.1154  0.0711 -0.1720
 3564SOL    HW122325   0.411   3.790  10.183  0.8749 -2.4617 -1.5318
 3564SOL    HW222326   0.267   3.764  10.209 -0.7661  1.9883 -0.2563
 3565SOL     OW22327   3.795   4.131   6.222  0.2843 -0.5355  0.0687
 3565SOL    HW122328   3.707   4.166   6.240  1.0702  1.1793  0.5615
 3565SOL    HW222329   3.770   4.079   6.146 -0.0213  0.2997 -0.3991
 3566SOL     OW22330   3.809   1.310   7.685 -0.0474  0.4748  0.5587
 3566SOL    HW122331   3.833   1.226   7.646 -0.6718  0.2409  0.6707
 3566SOL    HW222332   3.714   1.299   7.681  0.0863 -0.9741  1.4233
 3567SOL     OW22333   4.707   3.103  12.755  0.4275  0.3765 -0.1214
 3567SOL    HW122334   4.614   3.079  12.759  0.6842 -0.6526 -0.2366
 3567SOL    HW222335   0.005   3.067  12.837 -1.2513  1.5362  1.0937
 3568SOL     OW22336   4.366   2.909  15.110 -0.7356  0.4198  0.4732
 3568SOL    HW122337   4.271   2.900  15.103 -0.8542  0.8000  1.5408
 3568SOL    HW222338   4.369   3.005  15.119  0.0936  0.4997 -0.6909
 3569SOL     OW22339   2.353   1.026   9.108 -0.2644 -0.1115 -0.6582
 3569SOL    HW122340   2.332   0.933   9.098 -0.9648 -0.5350  4.7826
 3569SOL    HW222341   2.288   1.067   9.051  1.4768  2.5215 -0.7462
 3570SOL     OW22342   1.468   0.766  13.275  0.2122  0.0209 -0.0291
 3570SOL    HW122343   1.525   0.698  13.239 -1.1992 -1.3659  0.3059
 3570SOL    HW222344   1.533   0.827  13.310 -0.7077  1.6258 -1.1575
 3571SOL     OW22345   3.477   0.584   3.553  0.2224 -0.5206 -0.4139
 3571SOL    HW122346   3.448   0.656   3.498 -0.3828 -1.5672 -1.4591
 3571SOL    HW222347   3.464   0.618   3.641 -1.7820 -1.1836 -0.4660
 3572SOL     OW22348   2.125   0.898   7.125  0.4022  0.0668  0.7080
 3572SOL    HW122349   2.135   0.867   7.035  3.7656 -0.0198  1.1116
 3572SOL    HW222350   2.038   0.936   7.132  0.4331  0.8146 -3.2623
 3573SOL     OW22351   0.722   3.960   8.308 -0.7156  0.4567  0.0994
 3573SOL    HW122352   0.647   3.973   8.367 -1.2203 -1.7075 -0.0791
 3573SOL    HW222353   0.685   3.972   8.221 -1.1627 -1.6578 -0.0121
 3574SOL     OW22354   2.911   2.594  16.750  0.0237 -0.2935  0.1085
 3574SOL    HW122355   2.994   2.605  16.704  0.7323 -0.0532  1.4353
 3574SOL    HW222356   2.936   2.507  16.780  0.5611  0.6724  2.4345
 3575SOL     OW22357   0.095   4.126   6.407 -0.2250 -0.0732  0.1201
 3575SOL    HW122358   0.026   4.176   6.363  0.0737  2.0575  2.0840
 3575SOL    HW222359   0.155   4.196   6.432 -0.1332 -0.8943  2.1427
 3576SOL     OW22360   3.963   3.859   8.135 -0.5760  0.4476  0.0902
 3576SOL    HW122361   4.025   3.931   8.146  2.3928 -2.5789  3.3950
 3576SOL    HW222362   3.879   3.894   8.165 -0.6561 -1.0848  1.6806
 3577SOL     OW22363   2.315   0.345   2.176 -0.8980  0.4836 -0.0543
 3577SOL    HW122364   2.288   0.427   2.217 -1.7492  0.4935 -0.6462
 3577SOL    HW222365   2.327   0.374   2.086 -0.4503 -1.8595 -0.7274
 3578SOL     OW22366   0.549   1.312   4.496 -0.5767 -0.6145 -0.1546
 3578SOL    HW122367   0.606   1.247   4.535 -0.3712 -0.7029 -0.5986
 3578SOL    HW222368   0.472   1.312   4.553 -1.5343 -2.5859 -1.4507
 3579SOL     OW22369   4.268   1.609   7.237  0.4088 -0.4740  0.0597
 3579SOL    HW122370   4.309   1.652   7.162 -0.9941  1.8058  0.6038
 3579SOL    HW222371   4.192   1.665   7.254  0.9028  0.7440 -1.7127
 3580SOL     OW22372   1.508   1.551   3.198 -0.3964  0.2639  0.4897
 3580SOL    HW122373   1.504   1.461   3.165  1.7340  0.5576 -0.4966
 3580SOL    HW222374   1.481   1.541   3.290 -2.0368 -1.9368 -0.2279
 3581SOL     OW22375   2.423   1.770   4.190 -0.1403 -0.0345 -0.2242
 3581SOL    HW122376   2.507   1.725   4.177 -0.1160 -0.6535  2.1668
 3581SOL    HW222377   2.414   1.820   4.109  2.3321  3.2148  1.4708
 3582SOL     OW22378   4.291   1.089   5.454 -0.3662 -0.4508  0.4002
 3582SOL    HW122379   4.352   1.163   5.465 -0.0051 -0.7316  0.2775
 3582SOL    HW222380   4.329   1.062   5.370 -3.2088 -0.6502 -0.7992
 3583SOL     OW22381   2.216   0.069   9.130 -0.0583  0.4482  0.0531
 3583SOL    HW122382   2.241   0.094   9.041 -2.7009  2.5276 -0.1105
 3583SOL    HW222383   2.190   4.715   9.114  2.3127 -0.3578  0.7830
 3584SOL     OW22384   4.729   1.451  15.387 -0.4640  0.1146 -0.3742
 3584SOL    HW122385   4.664   1.514  15.356 -0.6360 -0.2601 -0.7684
 3584SOL    HW222386   4.677   1.371  15.377  1.5408 -0.9658 -2.0301
 3585SOL     OW22387   0.958   1.983   7.930 -0.2053  0.1186  0.0929
 3585SOL    HW122388   0.919   2.062   7.966 -0.3650  0.2256 -0.3098
 3585SOL    HW222389   0.883   1.925   7.947 -1.3675  1.5884  0.0000
 3586SOL     OW22390   0.563   3.073   0.776 -0.2330  0.4223  0.1754
 3586SOL    HW122391   0.606   3.079   0.861 -0.9718  0.6959  0.5301
 3586SOL    HW222392   0.595   3.158   0.743  0.4292 -0.8548 -2.4650
 3587SOL     OW22393   2.350   2.694   8.747  0.0367  0.0544  0.1832
 3587SOL    HW122394   2.348   2.664   8.656  1.8352 -1.5884  0.6586
 3587SOL    HW222395   2.296   2.772   8.743  1.2383  0.8270 -1.0217
 3588SOL     OW22396   4.412   0.148  11.016 -0.3957  0.1865  0.6713
 3588SOL    HW122397   4.343   0.206  10.985 -0.4436 -0.2893 -0.1344
 3588SOL    HW222398   4.482   0.206  11.046  0.5674 -0.3265 -0.5488
 3589SOL     OW22399   2.337   0.329  12.051  0.2053 -0.9528 -0.2064
 3589SOL    HW122400   2.359   0.421  12.034 -0.9557 -0.8051 -0.8485
 3589SOL    HW222401   2.382   0.316  12.135 -0.5120 -1.8920  0.0373
 3590SOL     OW22402   2.666   4.268  16.611  0.2991 -0.1509  0.4940
 3590SOL    HW122403   2.714   4.206  16.666  3.0642  1.7062  0.1224
 3590SOL    HW222404   2.587   4.215  16.600  0.9351 -1.1274  0.5791
 3591SOL     OW22405   2.317   3.109   1.592 -0.1393 -0.1194  0.4309
 3591SOL    HW122406   2.289   3.025   1.627 -1.4877 -0.4757 -1.5092
 3591SOL    HW222407   2.282   3.167   1.660  0.2325  0.1998  0.3529
 3592SOL     OW22408   1.877   3.210   2.186  0.3482 -0.4982 -0.7203
 3592SOL    HW122409   1.824   3.290   2.177  0.7437 -0.2140 -0.5502
 3592SOL    HW222410   1.874   3.179   2.095  1.1587 -0.5610 -0.7248
 3593SOL     OW22411   0.685   4.480   2.417 -0.8082 -0.3706 -0.3634
 3593SOL    HW122412   0.775   4.451   2.432 -0.3172  1.5693  0.4764
 3593SOL    HW222413   0.633   4.400   2.407 -0.1758 -0.9124  0.6893
 3594SOL     OW22414   2.028   1.396  14.347 -0.6491  0.5078 -0.3307
 3594SOL    HW122415   2.091   1.369  14.414 -0.7485 -0.4371 -0.6280
 3594SOL    HW222416   1.977   1.317  14.332  0.7780 -0.7867  1.5591
 3595SOL     OW22417   2.899   3.721   6.247  0.0456  0.1173 -0.0771
 3595SOL    HW122418   2.847   3.681   6.178 -0.7836 -0.1135  0.6862
 3595SOL    HW222419   2.878   3.670   6.325 -0.9077  2.0561  0.9326
 3596SOL     OW22420   0.280   2.869   8.157 -0.0991 -0.0944 -0.7562
 3596SOL    HW122421   0.304   2.863   8.065  0.1614 -1.0697 -0.6257
 3596SOL    HW222422   0.200   2.818   8.168 -0.4640  0.2825 -1.6417
 3597SOL     OW22423   3.795   0.907   5.217 -0.4689 -0.4455 -0.0588
 3597SOL    HW122424   3.786   0.842   5.287 -1.0425 -3.1409 -2.6575
 3597SOL    HW222425   3.706   0.945   5.215 -0.6306 -0.7127  1.8351
 3598SOL     OW22426   3.212   2.609  17.617 -0.0315  0.6452 -0.5465
 3598SOL    HW122427   3.189   2.636  17.528 -0.5549 -2.8144 -1.4476
 3598SOL    HW222428   3.215   2.515  17.603 -3.3709  0.4535  0.0043
 3599SOL     OW22429   1.197   4.074   7.414 -0.2277  0.5906 -0.1621
 3599SOL    HW122430   1.138   4.110   7.347 -0.3588 -0.4068 -0.5926
 3599SOL    HW222431   1.276   4.128   7.415  0.0996  0.1018 -0.0174
 3600SOL     OW22432   0.732   0.457  11.064 -0.3391  0.2753 -0.0854
 3600SOL    HW122433   0.732   0.463  11.159  2.0791  0.2306 -0.0840
 3600SOL    HW222434   0.698   0.541  11.031  1.5207  1.4397  0.9891
 3601SOL     OW22435   4.271   1.886   8.866 -0.7598  0.7667  0.5191
 3601SOL    HW122436   4.323   1.901   8.787  0.9139  1.5345  1.7710
 3601SOL    HW222437   4.283   1.966   8.917  0.9986 -1.0865  3.0443
 3602SOL     OW22438   1.677   2.505   7.278 -0.3738 -0.2924  0.1063
 3602SOL    HW122439   1.664   2.439   7.346 -0.8247 -1.7047 -1.3762
 3602SOL    HW222440   1.726   2.461   7.208 -0.1227 -1.3293  0.9298
 3603SOL     OW22441   2.432   1.657   6.129  0.2986 -0.1597 -0.5401
 3603SOL    HW122442   2.378   1.596   6.079 -0.6937 -0.0575  0.4084
 3603SOL    HW222443   2.517   1.627   6.097 -0.1735 -0.3142 -1.6455
 3604SOL     OW22444   4.200   0.530  15.020 -0.4751  0.5642  0.2786
 3604SOL    HW122445   4.195   0.573  14.934  0.0711  0.7851  0.3540
 3604SOL    HW222446   4.135   0.580  15.068 -0.3136  0.5760  0.4861
 3605SOL     OW22447   2.612   0.460  14.488 -0.0786 -0.9226 -0.6412
 3605SOL    HW122448   2.690   0.432  14.536  0.6843  2.7503  0.2567
 3605SOL    HW222449   2.662   0.515  14.428 -0.9982 -0.1638 -0.7056
 3606SOL     OW22450   4.214   4.510   2.879  0.6496 -0.0196  0.5706
 3606SOL    HW122451   4.186   4.572   2.811  0.0875  0.5240  1.2989
 3606SOL    HW222452   4.308   4.525   2.887  0.8658 -1.2486  0.3120
 3607SOL     OW22453   1.392   3.609  14.656  0.0255 -0.2170  0.5179
 3607SOL    HW122454   1.407   3.514  14.664 -0.0650 -0.4576 -2.0070
 3607SOL    HW222455   1.349   3.610  14.570 -0.3218  1.1072  0.7215
 3608SOL     OW22456   2.906   2.704   6.368  0.1292 -0.2918  0.0137
 3608SOL    HW122457   2.821   2.741   6.391  1.2314  1.6761  0.9351
 3608SOL    HW222458   2.888   2.690   6.275 -0.2207 -0.2780  0.0797
 3609SOL     OW22459   3.897   3.548   3.824 -0.2487  0.2560  0.0395
 3609SOL    HW122460   3.974   3.604   3.830 -0.5105  0.6112  0.0955
 3609SOL    HW222461   3.834   3.586   3.886 -0.5726 -2.0640  1.1253
 3610SOL     OW22462   4.043   1.060   7.912  0.1995  0.6529  0.0321
 3610SOL    HW122463   4.102   1.136   7.918 -0.4875  1.1756  0.1381
 3610SOL    HW222464   4.010   1.060   8.002 -0.3688 -1.1638 -0.1891
 3611SOL     OW22465   2.301   2.701  15.143  0.5168  0.3515 -0.6105
 3611SOL    HW122466   2.205   2.703  15.147  0.3689 -1.3480 -3.4339
 3611SOL    HW222467   2.311   2.607  15.161  1.9544  0.8134  1.0021
 3612SOL     OW22468   0.143   2.290   6.522 -0.0024  0.3805 -0.4406
 3612SOL    HW122469   0.123   2.370   6.473 -2.2214  0.5116  0.6631
 3612SOL    HW222470   0.088   2.289   6.601  0.2140  0.8677 -0.2837
 3613SOL     OW22471   3.892   0.504  14.654  0.3256 -0.1249  0.5647
 3613SOL    HW122472   3.956   0.575  14.651 -1.5800  1.5464 -0.0003
 3613SOL    HW222473   3.919   0.430  14.599 -1.2057  0.1509 -0.5574
 3614SOL     OW22474   3.578   2.565   8.000  0.0824  0.1148 -0.3953
 3614SOL    HW122475   3.581   2.560   8.096  0.4635  0.2788 -0.3980
 3614SOL    HW222476   3.518   2.639   7.994 -0.8039 -0.7332 -1.9129
 3615SOL     OW22477   3.131   0.316   7.390 -0.0412  0.7440  0.1458
 3615SOL    HW122478   3.175   0.271   7.318 -0.2033 -0.8570  1.0361
 3615SOL    HW222479   3.176   0.292   7.472 -1.1081 -0.4768  0.3674
 3616SOL     OW22480   2.706   2.521   4.614 -0.5736 -0.1948 -0.2307
 3616SOL    HW122481   2.746   2.536   4.699  2.6630 -1.2224 -1.5705
 3616SOL    HW222482   2.626   2.569   4.634 -0.4517  1.4021 -3.5919
 3617SOL     OW22483   2.144   3.735   6.346 -0.2985  0.4558 -0.5459
 3617SOL    HW122484   2.140   3.699   6.435 -1.6704  1.5585 -0.1616
 3617SOL    HW222485   2.199   3.675   6.295 -0.0586  0.1375  0.0897
 3618SOL     OW22486   1.202   2.288   1.678 -0.3490  0.4489  0.2817
 3618SOL    HW122487   1.255   2.212   1.653 -2.4990 -0.6274 -0.9467
 3618SOL    HW222488   1.194   2.341   1.599 -2.7149 -1.1322 -0.5249
 3619SOL     OW22489   3.486   3.073   4.208  0.3994  0.2469  0.1054
 3619SOL    HW122490   3.431   3.055   4.132 -1.0341  1.3312  0.9030
 3619SOL    HW222491   3.454   3.013   4.275  0.2176  1.1736  0.8449
 3620SOL     OW22492   4.609   3.046   8.707 -0.4221  0.6327  0.0168
 3620SOL    HW122493   4.654   2.980   8.759  1.0348  1.6108 -0.0121
 3620SOL    HW222494   4.676   3.067   8.642  1.0438 -0.2911  1.2301
 3621SOL     OW22495   3.924   3.961   2.583 -0.4644  0.4816 -0.2876
 3621SOL    HW122496   3.947   3.869   2.594 -1.6840  0.3936  1.4681
 3621SOL    HW222497   3.853   3.975   2.645  1.7781  1.6985  2.0395
 3622SOL     OW22498   3.202   4.387   1.853  0.0324 -0.4281  0.1365
 3622SOL    HW122499   3.144   4.350   1.786 -1.8229  2.1900  0.3327
 3622SOL    HW222500   3.212   4.309   1.908 -0.6288 -0.4791  0.1764
 3623SOL     OW22501   2.048   1.734   5.174  0.4136 -0.3418  0.2527
 3623SOL    HW122502   2.105   1.802   5.137 -1.7160  0.1009 -2.2028
 3623SOL    HW222503   2.113   1.670   5.200  1.2511  0.6295  0.5468
 3624SOL     OW22504   2.054   4.652   6.768 -0.1187  0.1868  0.4608
 3624SOL    HW122505   2.069   0.001   6.728  1.0955 -0.2834 -0.0989
 3624SOL    HW222506   2.127   4.654   6.830 -0.2062  0.9623  0.5394
 3625SOL     OW22507   3.257   2.633   8.774 -0.3242 -0.1865  0.1135
 3625SOL    HW122508   3.314   2.570   8.818  4.4618  3.4862 -0.9116
 3625SOL    HW222509   3.170   2.592   8.781  0.1551 -1.1923  0.1611
 3626SOL     OW22510   2.214   3.368  12.259 -0.3243  0.0166 -0.1449
 3626SOL    HW122511   2.171   3.294  12.217  0.2920  0.7061 -2.0138
 3626SOL    HW222512   2.231   3.330  12.345  3.2926 -0.8455 -1.2394
 3627SOL     OW22513   0.774   3.196   7.572 -0.0790 -0.1303 -0.1608
 3627SOL    HW122514   0.785   3.104   7.549 -0.1374  0.4629 -2.4712
 3627SOL    HW222515   0.835   3.209   7.645 -0.7991 -1.7353  0.7318
 3628SOL     OW22516   1.721   4.130   3.949 -0.0646 -0.4321 -0.1696
 3628SOL    HW122517   1.660   4.121   4.022 -0.5565  0.3490 -0.4879
 3628SOL    HW222518   1.806   4.121   3.993 -0.4863 -1.2053  0.4894
 3629SOL     OW22519   2.232   1.315   5.421 -0.1419 -0.3702 -0.3602
 3629SOL    HW122520   2.208   1.244   5.481 -3.2210 -0.4887 -1.7501
 3629SOL    HW222521   2.290   1.356   5.486 -1.2983  0.7245 -0.0201
 3630SOL     OW22522   3.737   4.680   4.100  0.5946  0.2204 -0.3853
 3630SOL    HW122523   3.832   4.666   4.102  0.7300  1.2621  1.5592
 3630SOL    HW222524   3.706   4.603   4.054 -0.8916  1.0045 -0.6929
 3631SOL     OW22525   3.130   2.790   4.283 -0.8848 -0.0602 -1.2785
 3631SOL    HW122526   3.079   2.842   4.222 -1.1250 -0.2349 -1.2254
 3631SOL    HW222527   3.106   2.701   4.258  0.5038 -0.9018  0.3694
 3632SOL     OW22528   0.521   0.798   9.221 -0.5781 -0.2234  0.2548
 3632SOL    HW122529   0.510   0.824   9.129  1.2761  3.3360  1.0261
 3632SOL    HW222530   0.567   0.880   9.240 -3.0465  1.0815  0.6991
 3633SOL     OW22531   0.723   3.640  11.558  0.8721  0.3277 -0.0482
 3633SOL    HW122532   0.667   3.688  11.619  0.5876 -1.2045  0.8881
 3633SOL    HW222533   0.707   3.551  11.588  0.6305 -0.2075 -1.7211
 3634SOL     OW22534   2.653   4.393   8.815  0.2283 -0.1278 -0.3566
 3634SOL    HW122535   2.715   4.416   8.885 -0.4857  0.7187 -0.0081
 3634SOL    HW222536   2.680   4.439   8.736 -1.3345  0.9335 -0.2520
 3635SOL     OW22537   4.064   1.264  12.169 -0.1323 -0.4326  0.2759
 3635SOL    HW122538   4.053   1.294  12.078 -0.4567  0.2372  0.5354
 3635SOL    HW222539   4.158   1.258  12.181 -0.1103 -3.5486 -1.3437
 3636SOL     OW22540   1.654   2.417  13.717 -0.4320 -0.2008 -0.1306
 3636SOL    HW122541   1.735   2.416  13.666  0.3181 -0.0163  1.0699
 3636SOL    HW222542   1.590   2.423  13.646  0.2204 -0.1493 -0.7193
 3637SOL     OW22543   3.841   2.256  11.193 -0.2669 -0.2382  0.0079
 3637SOL    HW122544   3.784   2.269  11.117  2.0997  2.7442 -1.2823
 3637SOL    HW222545   3.779   2.271  11.265 -1.5035 -1.8756 -0.7232
 3638SOL     OW22546   0.313   2.599   6.950 -0.1609 -0.0672 -0.3922
 3638SOL    HW122547   0.340   2.640   7.032 -2.3695  2.2578 -0.8182
 3638SOL    HW222548   0.399   2.558   6.937 -1.6364 -2.7632 -1.6943
 3639SOL     OW22549   1.659   0.056   9.341 -0.0624  0.2004 -0.1353
 3639SOL    HW122550   1.605   0.102   9.277  1.5969  0.4468 -1.3636
 3639SOL    HW222551   1.655   0.110   9.420 -0.3287 -1.5387  1.0532
 3640SOL     OW22552   1.268   3.305   5.418  1.0266  0.2745 -0.8531
 3640SOL    HW122553   1.346   3.261   5.452  1.0660  0.9958 -0.0029
 3640SOL    HW222554   1.229   3.235   5.366 -1.3496  0.2852  0.9363
 3641SOL     OW22555   3.776   2.795   7.024  0.6592 -0.2992 -0.1711
 3641SOL    HW122556   3.762   2.738   7.100  0.4243  0.2691  0.2092
 3641SOL    HW222557   3.764   2.883   7.059 -2.5289 -0.8008 -0.0152
 3642SOL     OW22558   3.948   4.170  12.853  0.1750 -0.0376 -0.1923
 3642SOL    HW122559   3.955   4.082  12.890 -2.6396 -0.1158  0.1770
 3642SOL    HW222560   4.037   4.203  12.865  0.0536  1.2201 -2.7952
 3643SOL     OW22561   0.505   3.909   4.276  0.1714 -0.0892  0.0903
 3643SOL    HW122562   0.577   3.864   4.320  1.0181 -0.6499 -1.8751
 3643SOL    HW222563   0.453   3.831   4.258  1.7516 -1.0373 -0.3543
 3644SOL     OW22564   1.374   0.634   0.143  0.0505 -0.3026  0.5542
 3644SOL    HW122565   1.397   0.555   0.093  1.9605  0.6349 -0.0596
 3644SOL    HW222566   1.379   0.599   0.232 -1.6293 -1.9715 -0.0151
 3645SOL     OW22567   2.454   1.438   1.439  0.7254  0.0386 -0.1510
 3645SOL    HW122568   2.427   1.377   1.371 -0.8016  2.3106 -1.5762
 3645SOL    HW222569   2.406   1.517   1.414 -0.9823 -0.5968  1.0979
 3646SOL     OW22570   4.066   1.693  12.079  0.0722 -0.1507  0.5090
 3646SOL    HW122571   4.150   1.652  12.061  0.3803  0.7058  0.0006
 3646SOL    HW222572   4.071   1.690  12.175  2.4868  0.5260  0.3961
 3647SOL     OW22573   4.535   4.052   0.965  0.1898 -0.0760 -0.4175
 3647SOL    HW122574   4.465   4.034   1.027  0.6307  2.9277  0.9337
 3647SOL    HW222575   4.606   4.011   1.015  0.5430 -0.2313 -1.0389
 3648SOL     OW22576   1.340   1.938  11.739 -0.3648  0.2027  0.6128
 3648SOL    HW122577   1.313   1.987  11.661 -0.7577 -1.6860 -0.4311
 3648SOL    HW222578   1.350   2.012  11.800 -3.9968  2.1200 -1.1022
 3649SOL     OW22579   2.005   4.119   2.441 -0.2225  0.4487 -0.1631
 3649SOL    HW122580   1.948   4.047   2.416  2.0435 -2.3015  2.5197
 3649SOL    HW222581   2.030   4.142   2.352  1.0179  0.8522  0.2875
 3650SOL     OW22582   0.033   3.655   3.208 -0.0223 -0.1294 -0.7645
 3650SOL    HW122583   0.118   3.662   3.165  0.4314 -1.0488  0.0039
 3650SOL    HW222584   4.729   3.590   3.151 -1.3946  0.0945 -0.0484
 3651SOL     OW22585   2.169   0.173   1.445  0.3248  0.1411  0.6728
 3651SOL    HW122586   2.075   0.168   1.426 -0.0664  0.8976  2.3694
 3651SOL    HW222587   2.206   0.154   1.359  1.9508 -0.6695  1.5530
 3652SOL     OW22588   4.097   0.353  11.916  0.2259 -0.5158  0.2193
 3652SOL    HW122589   4.072   0.286  11.980  2.2098 -2.6741 -1.2430
 3652SOL    HW222590   4.165   0.398  11.966  0.4495 -1.2120  0.5470
 3653SOL     OW22591   4.054   3.935  11.097 -0.4131 -0.0421 -0.4870
 3653SOL    HW122592   4.046   4.006  11.033  2.0607 -0.7522 -1.6083
 3653SOL    HW222593   3.961   3.922  11.116  0.6189 -4.1283  1.8462
 3654SOL     OW22594   1.580   2.955   5.010 -0.1422 -0.2433  0.4406
 3654SOL    HW122595   1.596   2.882   5.069  1.9133 -0.9304 -0.9708
 3654SOL    HW222596   1.507   2.919   4.960  0.5282 -0.9683 -0.0250
 3655SOL     OW22597   1.317   3.170  16.651  0.2191  0.4647 -0.0526
 3655SOL    HW122598   1.399   3.186  16.604  0.6095 -1.9822 -0.2051
 3655SOL    HW222599   1.351   3.109  16.716  1.1239 -0.2068 -1.1527
 3656SOL     OW22600   1.882   2.773   2.691 -0.9336 -0.6800 -0.3746
 3656SOL    HW122601   1.955   2.751   2.748 -0.6158  2.0225  0.2694
 3656SOL    HW222602   1.905   2.720   2.615  1.4231  0.1826 -0.2876
 3657SOL     OW22603   4.420   4.119   6.626  0.4709  0.0780 -0.4062
 3657SOL    HW122604   4.507   4.126   6.666 -0.0844 -0.3583  0.8635
 3657SOL    HW222605   4.366   4.055   6.671  2.0381 -0.2808  0.9248
 3658SOL     OW22606   3.230   0.690  17.158 -0.5499 -0.3179  0.3212
 3658SOL    HW122607   3.167   0.737  17.103 -0.6312 -0.5800  0.1930
 3658SOL    HW222608   3.243   0.606  17.115  0.8433 -0.8902  1.8728
 3659SOL     OW22609   3.883   0.022   5.522  0.1277 -0.0724 -0.1084
 3659SOL    HW122610   3.892   4.670   5.556  0.9153 -0.7331 -2.0000
 3659SOL    HW222611   3.913   0.004   5.433  1.3239 -0.5852  0.4020
 3660SOL     OW22612   0.305   2.571   9.736  0.0031  0.4385 -0.1962
 3660SOL    HW122613   0.228   2.548   9.684 -0.1083  0.7824 -0.1858
 3660SOL    HW222614   0.300   2.510   9.809 -0.3330  0.5085 -0.1596
 3661SOL     OW22615   2.277   2.330   6.787 -0.5180  0.3135  0.1384
 3661SOL    HW122616   2.318   2.305   6.705 -0.2087  1.2719 -0.0018
 3661SOL    HW222617   2.286   2.425   6.779  2.7716 -0.0294 -0.0545
 3662SOL     OW22618   0.229   0.049   3.775 -0.2675 -0.5565  0.2173
 3662SOL    HW122619   0.244   0.079   3.865 -1.5616 -2.0418  0.9201
 3662SOL    HW222620   0.241   4.692   3.786  0.5362 -0.5733 -0.7267
 3663SOL     OW22621   3.475   0.245   5.275 -0.5827 -0.1773  0.1053
 3663SOL    HW122622   3.543   0.185   5.303 -0.1681 -0.4508 -1.4727
 3663SOL    HW222623   3.425   0.200   5.207  0.8320  0.0191 -1.0631
 3664SOL     OW22624   1.326   0.800   9.996 -0.2740 -0.2182 -0.1789
 3664SOL    HW122625   1.301   0.708  10.003 -0.8689  0.0331  0.9768
 3664SOL    HW222626   1.302   0.816   9.905 -0.2103 -2.6545 -0.6044
 3665SOL     OW22627   2.010   1.802  11.465  0.3438 -0.1743  0.1455
 3665SOL    HW122628   2.101   1.812  11.437 -0.0171  2.2648 -0.1267
 3665SOL    HW222629   1.968   1.886  11.449  2.6974  1.1801  1.1085
 3666SOL     OW22630   4.184   2.057   8.013  0.5164 -0.1350  0.1790
 3666SOL    HW122631   4.137   2.081   7.933 -0.3128  1.5330  1.1695
 3666SOL    HW222632   4.249   1.997   7.978  0.4299  0.0535 -0.2998
 3667SOL     OW22633   1.241   2.605   4.731  0.0302 -0.2134 -0.0231
 3667SOL    HW122634   1.261   2.527   4.680 -1.3317 -0.7907  0.3121
 3667SOL    HW222635   1.161   2.578   4.778 -0.0933  2.8521  1.5078
 3668SOL     OW22636   1.212   1.457  11.762 -0.0674  0.3832  0.1009
 3668SOL    HW122637   1.235   1.538  11.807  0.4553  1.1402 -1.5068
 3668SOL    HW222638   1.206   1.494  11.673 -1.5217  0.0351  0.0637
 3669SOL     OW22639   1.730   2.979   7.411 -0.2770 -0.2184 -0.0699
 3669SOL    HW122640   1.781   3.055   7.441 -1.7928  0.6513  0.3444
 3669SOL    HW222641   1.642   3.009   7.432 -0.2583 -1.1925  1.3920
 3670SOL     OW22642   3.353   3.161  15.636  0.4783 -0.5766  0.5204
 3670SOL    HW122643   3.268   3.119  15.622  0.7097 -2.1977  4.1617
 3670SOL    HW222644   3.413   3.088  15.621  0.5742 -0.0450 -1.6588
 3671SOL     OW22645   1.191   0.346   3.317 -0.1080  0.3257 -0.2179
 3671SOL    HW122646   1.266   0.383   3.365 -0.3405 -1.0448  1.2178
 3671SOL    HW222647   1.218   0.255   3.329 -0.2299  0.2717 -0.3551
 3672SOL     OW22648   4.409   1.806   5.068  0.2769  0.2303  0.2413
 3672SOL    HW122649   4.472   1.847   5.009  1.3330  0.6008  1.6319
 3672SOL    HW222650   4.451   1.834   5.150 -0.2072 -0.1830  0.6309
 3673SOL     OW22651   3.339   2.061   4.516 -0.0486 -0.1611  0.2732
 3673SOL    HW122652   3.352   1.996   4.447  2.5129 -1.5417  2.0437
 3673SOL    HW222653   3.431   2.058   4.544  0.1671 -1.2417 -0.5643
 3674SOL     OW22654   4.104   4.630   3.084  0.0955  0.2872 -0.0318
 3674SOL    HW122655   4.137   4.710   3.044  1.2015  0.0061  0.3242
 3674SOL    HW222656   4.149   4.562   3.034  0.1235  0.2904 -0.0108
 3675SOL     OW22657   3.601   3.568   1.682  0.1780  0.1637  0.1566
 3675SOL    HW122658   3.673   3.599   1.738  1.0018 -1.3085 -0.0871
 3675SOL    HW222659   3.633   3.590   1.594  0.2386  0.7703  0.3288
 3676SOL     OW22660   0.438   3.052   9.343  0.3044 -0.7130  0.2260
 3676SOL    HW122661   0.523   3.025   9.378  0.7279  0.4643  0.1296
 3676SOL    HW222662   0.390   2.970   9.345  0.3141 -0.7362 -0.3134
 3677SOL     OW22663   2.888   0.293   3.117 -0.2445 -0.6399  0.6735
 3677SOL    HW122664   2.880   0.198   3.108  0.2027 -0.8414  2.3957
 3677SOL    HW222665   2.815   0.311   3.176 -1.1122  0.2442 -0.6674
 3678SOL     OW22666   2.090   1.054   0.798 -0.1548  0.2545 -0.7874
 3678SOL    HW122667   2.116   1.051   0.890  0.5524  0.1702 -0.9846
 3678SOL    HW222668   2.056   0.965   0.787 -1.0592  0.2861  1.7217
 3679SOL     OW22669   2.471   2.775   2.146 -0.5131 -0.0540  0.7631
 3679SOL    HW122670   2.410   2.702   2.152 -1.6887  0.8340 -0.3537
 3679SOL    HW222671   2.466   2.786   2.051 -1.3096  2.0375  1.0521
 3680SOL     OW22672   2.195   4.681   4.651 -1.1726 -0.7172 -0.0916
 3680SOL    HW122673   2.254   0.020   4.648 -2.5087  0.3379  0.1722
 3680SOL    HW222674   2.119   4.728   4.685 -2.8177 -1.4366 -2.8919
 3681SOL     OW22675   3.011   1.560  16.884 -0.0605 -0.1529 -0.1715
 3681SOL    HW122676   3.088   1.526  16.929  0.9321  0.5442 -1.3262
 3681SOL    HW222677   2.969   1.477  16.859 -1.2332  0.1488  0.7911
 3682SOL     OW22678   4.284   3.901   8.307  0.6924  0.3185 -0.3212
 3682SOL    HW122679   4.258   3.928   8.219  1.0519 -1.3188 -0.9372
 3682SOL    HW222680   4.225   3.827   8.314  1.7640 -0.6823 -1.7617
 3683SOL     OW22681   1.424   1.024   2.171  0.0348 -0.1675  0.0287
 3683SOL    HW122682   1.352   1.047   2.113 -0.1156  1.4940  0.8864
 3683SOL    HW222683   1.424   0.932   2.146  1.2455 -0.2837  0.4329
 3684SOL     OW22684   1.190   2.316  10.967  0.3301 -0.0707 -0.2498
 3684SOL    HW122685   1.158   2.289  10.881 -1.3065  1.1761 -0.0492
 3684SOL    HW222686   1.167   2.239  11.018 -1.7900  0.9851  0.3945
 3685SOL     OW22687   1.759   2.854   7.928 -0.0258 -0.0351  0.1263
 3685SOL    HW122688   1.816   2.887   7.997 -0.2259 -2.1010  1.2810
 3685SOL    HW222689   1.700   2.789   7.966  0.9965 -0.9475  0.1526
 3686SOL     OW22690   1.248   0.372   3.687  0.2416 -0.0405 -0.1208
 3686SOL    HW122691   1.225   0.465   3.695  1.0391  0.1978 -0.5803
 3686SOL    HW222692   1.278   0.367   3.596  0.5848 -2.6769  0.1313
 3687SOL     OW22693   0.275   1.795   8.970  0.0504  0.2855 -0.3854
 3687SOL    HW122694   0.191   1.770   9.009 -0.4690  0.8671 -1.1201
 3687SOL    HW222695   0.333   1.805   9.045  0.0006 -1.7671 -0.0705
 3688SOL     OW22696   4.583   1.067  11.619 -0.3670  0.1096 -0.0351
 3688SOL    HW122697   4.609   1.005  11.687 -1.7752  0.1515  0.5180
 3688SOL    HW222698   4.641   1.143  11.627 -2.6963  1.9755 -0.7693
 3689SOL     OW22699   3.930   2.892   6.318 -0.1308  0.0418 -0.0353
 3689SOL    HW122700   3.951   2.941   6.238  0.4084 -0.9254 -0.4802
 3689SOL    HW222701   3.856   2.948   6.342 -0.4201  0.4183 -1.8264
 3690SOL     OW22702   4.392   4.148   4.615 -0.3038 -0.0571 -0.0573
 3690SOL    HW122703   4.487   4.143   4.627 -0.4661 -3.6201 -0.2289
 3690SOL    HW222704   4.392   4.156   4.520  0.3551  4.0038  0.3000
 3691SOL     OW22705   0.045   0.200   3.694 -0.4323  0.1281  0.0746
 3691SOL    HW122706   0.118   0.143   3.716 -0.2297 -0.0388 -1.0242
 3691SOL    HW222707   0.057   0.228   3.603  2.5028  1.9462  1.0095
 3692SOL     OW22708   4.322   2.755   9.021  0.1389 -0.2331  0.3794
 3692SOL    HW122709   4.229   2.761   9.043 -0.1754 -0.4056 -0.8870
 3692SOL    HW222710   4.325   2.684   8.957  3.8131 -1.0057  1.3983
 3693SOL     OW22711   3.539   2.222  10.435  0.3701  0.0833  0.1615
 3693SOL    HW122712   3.520   2.283  10.364 -0.3324 -0.2403  0.0772
 3693SOL    HW222713   3.635   2.224  10.426  0.5498  0.0758  2.0079
 3694SOL     OW22714   0.258   4.583   9.021  0.0421  0.0306  0.0324
 3694SOL    HW122715   0.260   4.580   8.926  0.5658  2.7484 -0.0617
 3694SOL    HW222716   0.275   4.677   9.032 -0.8000  0.1017  0.7800
 3695SOL     OW22717   1.851   3.207   7.490 -0.4612 -0.1804  1.0892
 3695SOL    HW122718   1.771   3.252   7.461  0.5948 -0.1040 -1.6871
 3695SOL    HW222719   1.825   3.186   7.579 -1.5300 -0.5935  0.6916
 3696SOL     OW22720   3.918   2.641   4.625 -0.3039  0.3275  0.1530
 3696SOL    HW122721   3.984   2.584   4.665 -0.7756 -0.7662 -0.6138
 3696SOL    HW222722   3.938   2.630   4.532 -0.7646 -0.7464  0.1810
 3697SOL     OW22723   2.246   0.454   7.047  0.0741  0.0533  0.6249
 3697SOL    HW122724   2.281   0.375   7.088 -0.7605 -1.2514 -1.1750
 3697SOL    HW222725   2.185   0.483   7.115 -1.1034 -0.1466 -0.3533
 3698SOL     OW22726   1.869   1.967   5.508 -0.2969 -0.6366  0.2736
 3698SOL    HW122727   1.932   2.039   5.503 -0.0097 -0.8153  1.2803
 3698SOL    HW222728   1.859   1.923   5.423  1.7383  0.5078 -0.5496
 3699SOL     OW22729   3.613   1.828  11.541  0.2828  0.3614 -0.3252
 3699SOL    HW122730   3.581   1.739  11.557 -2.0598  0.8101 -2.5671
 3699SOL    HW222731   3.592   1.868  11.625  0.3592 -0.0248 -0.1194
 3700SOL     OW22732   1.589   2.054   8.332 -0.5603 -0.2252  0.5922
 3700SOL    HW122733   1.608   2.146   8.317  2.7560 -1.1644 -1.1677
 3700SOL    HW222734   1.504   2.041   8.291 -0.7257 -1.0889  1.1875
 3701SOL     OW22735   1.297   2.535   8.328 -0.3611 -0.6494  0.1792
 3701SOL    HW122736   1.284   2.630   8.332  1.6735 -0.2611 -2.3882
 3701SOL    HW222737   1.243   2.514   8.405  0.9514  1.2002  1.6060
 3702SOL     OW22738   4.175   3.108   3.871  0.0973  0.4645 -0.5914
 3702SOL    HW122739   4.119   3.032   3.854 -0.4786  0.5008  1.0646
 3702SOL    HW222740   4.235   3.065   3.932 -1.6397  0.1966  0.9387
 3703SOL     OW22741   0.501   2.511   4.344 -0.0454 -0.2473  0.1237
 3703SOL    HW122742   0.582   2.545   4.304 -0.0623 -1.1564 -0.6854
 3703SOL    HW222743   0.543   2.472   4.420  2.8070 -0.4491 -1.5410
 3704SOL     OW22744   0.298   0.671  17.644  0.0313  0.1342  0.0067
 3704SOL    HW122745   0.260   0.740  17.699 -1.4004 -1.7453  1.3634
 3704SOL    HW222746   0.382   0.646  17.683  0.3164  2.2023  0.7097
 3705SOL     OW22747   3.153   4.664   6.354  0.1769  0.3652 -0.7564
 3705SOL    HW122748   3.126   4.633   6.440  0.5227 -0.3942 -0.9174
 3705SOL    HW222749   3.069   4.693   6.321 -0.0559 -0.1286 -0.5947
 3706SOL     OW22750   0.667   0.319   0.288  0.2367  0.0490 -0.1197
 3706SOL    HW122751   0.624   0.341   0.371 -1.3009 -0.3984 -0.7899
 3706SOL    HW222752   0.587   0.326   0.236 -1.5846  0.5907  2.7392
 3707SOL     OW22753   3.036   4.684   8.267 -0.1139 -0.1963  0.3080
 3707SOL    HW122754   3.111   0.005   8.263  0.0452 -0.4591 -0.3867
 3707SOL    HW222755   3.061   4.619   8.202 -0.1866  0.2331 -0.1428
 3708SOL     OW22756   2.850   2.701   6.086  0.5556 -0.7751 -0.7575
 3708SOL    HW122757   2.919   2.759   6.053 -0.6077  0.4623 -0.9780
 3708SOL    HW222758   2.872   2.614   6.051  0.4652 -1.3660  0.6350
 3709SOL     OW22759   2.623   0.246  11.604  0.3042  0.6591 -0.0996
 3709SOL    HW122760   2.538   0.225  11.566 -0.6525  1.1988  1.7093
 3709SOL    HW222761   2.679   0.229  11.529 -0.3782  1.7679 -0.8677
 3710SOL     OW22762   3.689   0.903   7.900  0.1142  0.2756  0.6510
 3710SOL    HW122763   3.596   0.923   7.912  0.1474  1.6577 -1.3539
 3710SOL    HW222764   3.690   0.808   7.909  0.1067  0.0185 -2.0391
 3711SOL     OW22765   1.811   3.826  17.321  0.0603  0.7597 -0.3051
 3711SOL    HW122766   1.850   3.913  17.316 -0.0171  1.0165  3.7247
 3711SOL    HW222767   1.848   3.793  17.239  1.9690 -1.5818  1.4858
 3712SOL     OW22768   3.583   1.177   8.665 -0.7708  0.0369 -0.4297
 3712SOL    HW122769   3.580   1.214   8.577  1.5716  1.4954  0.0747
 3712SOL    HW222770   3.544   1.091   8.650 -1.0275 -0.4109  2.7211
 3713SOL     OW22771   2.420   4.638  16.417 -0.9533 -0.3363  0.3865
 3713SOL    HW122772   2.344   4.619  16.471 -1.3103  0.2830  0.0957
 3713SOL    HW222773   2.363   4.667  16.347 -1.3521 -1.3334  0.3038
 3714SOL     OW22774   2.569   3.725   4.774  0.3164  0.0091  0.0493
 3714SOL    HW122775   2.639   3.725   4.709  1.7518  2.1911  1.5582
 3714SOL    HW222776   2.547   3.817   4.793 -3.2496 -0.6569 -0.7997
 3715SOL     OW22777   4.409   1.161   1.858  0.8476  0.4272 -0.0215
 3715SOL    HW122778   4.462   1.113   1.923  1.4607  0.7284 -0.2984
 3715SOL    HW222779   4.329   1.109   1.862  0.8005  0.5042  0.0340
 3716SOL     OW22780   1.245   4.613   2.378 -0.7076 -0.4223  0.1010
 3716SOL    HW122781   1.211   4.531   2.343  1.8220 -1.0997 -0.8230
 3716SOL    HW222782   1.171   4.672   2.364  0.1755  0.0547 -2.7830
 3717SOL     OW22783   4.686   1.473  10.938 -0.1705 -0.9746  0.3127
 3717SOL    HW122784   4.647   1.551  10.977 -3.5814 -2.0997 -0.8698
 3717SOL    HW222785   4.618   1.449  10.875  1.0162  0.5415 -1.5642
 3718SOL     OW22786   3.438   0.730  17.319  0.0982  0.3058  0.0273
 3718SOL    HW122787   3.378   0.705  17.248  0.9226 -0.2607 -0.4631
 3718SOL    HW222788   3.399   0.814  17.343 -3.9961 -1.4147 -0.4934
 3719SOL     OW22789   1.630   4.140   0.751  0.9246  0.6251 -0.2808
 3719SOL    HW122790   1.682   4.218   0.770 -0.9285  2.1588 -1.4934
 3719SOL    HW222791   1.624   4.108   0.841  2.1104  1.0601 -0.0363
 3720SOL     OW22792   1.599   4.113   0.474 -0.3901  0.2001  0.5942
 3720SOL    HW122793   1.541   4.182   0.443  1.3918  1.7380  0.6671
 3720SOL    HW222794   1.600   4.126   0.569 -1.3455  0.5911  0.5438
 3721SOL     OW22795   3.211   1.879   7.468  0.4322 -0.3988 -0.2118
 3721SOL    HW122796   3.236   1.933   7.544  1.6314  0.8292 -1.4757
 3721SOL    HW222797   3.140   1.934   7.435  0.2061 -1.0184 -0.7520
 3722SOL     OW22798   2.775   0.762   6.900 -0.4211  0.3698 -0.8957
 3722SOL    HW122799   2.686   0.744   6.931 -0.5372 -0.1916 -1.5421
 3722SOL    HW222800   2.831   0.755   6.976 -0.2713  1.1883 -0.9268
 3723SOL     OW22801   1.185   3.793   4.293  0.9285 -0.4047 -0.1710
 3723SOL    HW122802   1.258   3.815   4.235 -0.4761  2.7527 -0.7575
 3723SOL    HW222803   1.110   3.787   4.234  0.4031 -2.7080  0.7114
 3724SOL     OW22804   1.498   2.154   7.161 -0.5787  0.3509 -0.6129
 3724SOL    HW122805   1.518   2.078   7.216 -0.5319  0.4083 -0.5502
 3724SOL    HW222806   1.491   2.216   7.234 -0.7961 -0.1856 -0.1792
 3725SOL     OW22807   2.451   4.562  11.088  0.5540 -0.6148 -0.3018
 3725SOL    HW122808   2.459   4.644  11.136  0.0404 -0.4335 -0.5331
 3725SOL    HW222809   2.383   4.521  11.142 -1.1075  1.4282 -0.8708
 3726SOL     OW22810   2.268   2.649   7.455  0.2661 -0.1358 -0.0511
 3726SOL    HW122811   2.227   2.579   7.403  1.6886  0.6135 -2.1625
 3726SOL    HW222812   2.346   2.599   7.478 -0.1348 -1.1684 -0.9306
 3727SOL     OW22813   2.977   1.287  10.464 -0.0103 -0.3357  0.3226
 3727SOL    HW122814   3.005   1.373  10.434  1.5528 -0.6868  0.7531
 3727SOL    HW222815   2.887   1.296  10.433  0.9836  1.4369 -2.0343
 3728SOL     OW22816   4.242   1.668   4.499  0.2131  0.4593  0.3967
 3728SOL    HW122817   4.278   1.612   4.430  0.0838  2.0409 -0.9465
 3728SOL    HW222818   4.319   1.696   4.548  1.3806 -0.6188 -0.8282
 3729SOL     OW22819   3.687   1.389   7.210 -0.6301 -0.0842  0.0066
 3729SOL    HW122820   3.776   1.384   7.245 -0.2571 -0.6395 -1.0145
 3729SOL    HW222821   3.650   1.463   7.258  0.9865 -0.1390  1.3145
 3730SOL     OW22822   2.120   3.136   2.651 -0.2520 -0.1434 -0.1985
 3730SOL    HW122823   2.119   3.177   2.738 -1.3996  0.9455 -0.7225
 3730SOL    HW222824   2.086   3.196   2.585 -1.7001  0.6408  1.2576
 3731SOL     OW22825   1.639   3.647  14.470 -0.2140  0.2619 -0.0146
 3731SOL    HW122826   1.624   3.697  14.551  2.8849 -0.3827  0.9395
 3731SOL    HW222827   1.582   3.571  14.482 -1.6576  1.2915 -0.3732
 3732SOL     OW22828   3.334   0.459   0.111 -0.4310  0.0999  0.2663
 3732SOL    HW122829   3.400   0.391   0.093  0.1245  0.5017  0.7618
 3732SOL    HW222830   3.385   0.530   0.072 -0.9748  0.4167  0.1358
 3733SOL     OW22831   4.612   3.465   7.194 -0.5978 -0.0676  0.1155
 3733SOL    HW122832   4.616   3.370   7.183 -1.0535 -0.0047 -0.6540
 3733SOL    HW222833   4.695   3.492   7.153 -0.8014 -1.8230 -1.4531
 3734SOL     OW22834   3.748   3.129   4.721 -0.3669 -1.0389 -0.3745
 3734SOL    HW122835   3.756   3.093   4.633  0.0138 -1.4237 -0.1825
 3734SOL    HW222836   3.653   3.131   4.726 -0.4406 -0.2953 -2.0833
 3735SOL     OW22837   1.007   0.211  13.124 -0.6727  0.1798  0.1200
 3735SOL    HW122838   0.957   0.151  13.069  1.8737 -0.9135 -0.9441
 3735SOL    HW222839   1.050   0.140  13.173 -1.5985 -1.2859 -1.1926
 3736SOL     OW22840   3.207   4.275  15.352 -0.5236 -0.3209 -0.3711
 3736SOL    HW122841   3.187   4.200  15.408 -0.6465 -0.7685 -1.0120
 3736SOL    HW222842   3.228   4.240  15.265  1.8536  0.4755 -0.1188
 3737SOL     OW22843   1.009   3.875   0.970  0.0726  0.2585 -0.6385
 3737SOL    HW122844   1.089   3.896   0.922  2.8731 -1.5339  3.1863
 3737SOL    HW222845   0.960   3.956   0.961 -2.9350 -1.2165  2.3193
 3738SOL     OW22846   3.631   3.382   7.306 -0.3149 -0.2003  0.5475
 3738SOL    HW122847   3.649   3.297   7.345 -1.7042 -0.2998  0.9683
 3738SOL    HW222848   3.653   3.365   7.215  0.0939 -0.8594  0.7690
 3739SOL     OW22849   4.480   1.473   2.809 -0.1912  0.7440  0.4642
 3739SOL    HW122850   4.490   1.512   2.896  2.4047  2.7892 -0.7555
 3739SOL    HW222851   4.573   1.475   2.789 -0.0710 -1.1992  0.7958
 3740SOL     OW22852   1.429   4.425  12.472  0.4488  0.6496 -0.0806
 3740SOL    HW122853   1.441   4.334  12.445  0.7026  1.1474 -1.6158
 3740SOL    HW222854   1.343   4.417  12.513  0.5968 -0.2896  0.0585
 3741SOL     OW22855   2.116   1.291   9.876  0.1716 -0.0147  0.3717
 3741SOL    HW122856   2.050   1.235   9.919  0.2733  1.3371  2.2620
 3741SOL    HW222857   2.066   1.354   9.824  3.7701  1.2153 -1.5800
 3742SOL     OW22858   1.645   2.100   4.864 -0.3279  0.3896  0.5801
 3742SOL    HW122859   1.732   2.101   4.904 -0.1849  1.0937  0.2608
 3742SOL    HW222860   1.641   2.187   4.824 -0.3391 -0.0557 -0.3911
 3743SOL     OW22861   2.681   2.553  14.668  0.1759 -0.3637 -0.0527
 3743SOL    HW122862   2.738   2.491  14.714  1.1974 -0.2340 -1.1595
 3743SOL    HW222863   2.742   2.625  14.653  0.2321 -0.5569 -0.7307
 3744SOL     OW22864   2.007   1.552   4.479 -0.7006  0.5284  0.7464
 3744SOL    HW122865   2.009   1.601   4.397  0.9947  0.2216  0.6040
 3744SOL    HW222866   1.941   1.598   4.531 -2.2445  1.0088 -1.6679
 3745SOL     OW22867   4.518   3.768   1.306  0.5582 -0.0665  0.0503
 3745SOL    HW122868   4.529   3.680   1.343  1.1417  1.2389  2.9609
 3745SOL    HW222869   4.425   3.768   1.285  0.4149  1.2690  0.6858
 3746SOL     OW22870   4.064   0.144  11.440  0.1010  0.4927 -0.1368
 3746SOL    HW122871   4.085   0.137  11.347  0.9553  0.0520  0.1006
 3746SOL    HW222872   4.145   0.170  11.484  0.0056 -0.7044  0.7405
 3747SOL     OW22873   4.473   0.302   6.629  0.1817  0.2532 -0.7748
 3747SOL    HW122874   4.453   0.396   6.631  1.6665  0.5608 -0.5402
 3747SOL    HW222875   4.494   0.286   6.537  2.8466  2.0196 -0.4884
 3748SOL     OW22876   0.814   0.598   9.292 -0.0105  0.0264 -0.3297
 3748SOL    HW122877   0.753   0.596   9.219  0.3390 -3.4341 -0.5141
 3748SOL    HW222878   0.880   0.541   9.254  0.3606  0.6689 -0.6443
 3749SOL     OW22879   2.150   1.473  11.408  0.1679  0.4689 -0.0663
 3749SOL    HW122880   2.224   1.533  11.397  2.4858 -2.1546  1.1799
 3749SOL    HW222881   2.180   1.383  11.399 -0.3971  0.1866  0.9228
 3750SOL     OW22882   3.190   4.333  11.887 -0.4546 -0.2301  0.1785
 3750SOL    HW122883   3.158   4.265  11.946 -0.9093 -0.0205  0.1707
 3750SOL    HW222884   3.252   4.380  11.943  0.8440 -3.2526  1.2781
 3751SOL     OW22885   0.970   1.597  13.566 -0.0003 -0.2823  0.1656
 3751SOL    HW122886   0.945   1.670  13.622 -1.3834  0.6365 -1.6325
 3751SOL    HW222887   0.965   1.640  13.481  0.1478  1.0058  0.8050
 3752SOL     OW22888   2.629   3.451   2.909 -0.2695  0.7843 -0.0456
 3752SOL    HW122889   2.670   3.520   2.857  0.6212  0.4597  0.2111
 3752SOL    HW222890   2.631   3.375   2.850 -0.4031  0.1847  0.7222
 3753SOL     OW22891   0.075   4.564  11.719 -0.1683 -0.2465 -0.0499
 3753SOL    HW122892   0.009   4.496  11.709 -1.5326  0.9798  0.7003
 3753SOL    HW222893   0.157   4.517  11.732 -1.2540 -1.2644  3.0594
 3754SOL     OW22894   0.389   4.305   7.540 -0.2471 -0.0230  0.5623
 3754SOL    HW122895   0.401   4.388   7.493 -0.7826 -0.2197  0.0829
 3754SOL    HW222896   0.389   4.328   7.633 -1.6569 -1.5981  0.9709
 3755SOL     OW22897   4.521   1.816   3.211  0.4393  0.0799  0.0100
 3755SOL    HW122898   4.476   1.880   3.157 -1.3449  0.2159  1.6730
 3755SOL    HW222899   4.603   1.858   3.238  1.0909  0.2723 -2.2433
 3756SOL     OW22900   3.207   2.716   1.391 -0.7682  0.1724 -0.1134
 3756SOL    HW122901   3.127   2.667   1.371 -0.0392 -0.7571 -0.7163
 3756SOL    HW222902   3.176   2.800   1.425  2.7495  1.1568  0.6197
 3757SOL     OW22903   1.747   0.934   9.185 -0.1663  0.1980 -0.0019
 3757SOL    HW122904   1.752   0.871   9.113  0.9701 -0.2236  0.4444
 3757SOL    HW222905   1.702   1.008   9.144  1.2235  1.1527  0.2108
 3758SOL     OW22906   3.071   3.261   7.767  0.5940 -0.4443 -0.8936
 3758SOL    HW122907   2.997   3.202   7.756  0.0283 -0.2067  1.5543
 3758SOL    HW222908   3.137   3.193   7.755  2.9438  1.4338  1.2917
 3759SOL     OW22909   3.668   2.470   4.592  0.2831  0.4440  0.5138
 3759SOL    HW122910   3.726   2.544   4.572  0.0892 -0.0898 -1.9511
 3759SOL    HW222911   3.709   2.404   4.536 -0.8496 -0.3223  0.5828
 3760SOL     OW22912   1.013   4.122  11.224  0.2140  0.8215 -0.0421
 3760SOL    HW122913   1.020   4.093  11.133 -0.8133  0.3147  0.0342
 3760SOL    HW222914   0.966   4.053  11.270  0.1002  0.5972 -0.5075
 3761SOL     OW22915   4.414   4.084   7.771 -0.2021  0.2717 -0.2833
 3761SOL    HW122916   4.466   4.015   7.811  1.8861  1.4893 -0.8911
 3761SOL    HW222917   4.444   4.162   7.818 -0.9590  0.7564 -0.5909
 3762SOL     OW22918   1.280   1.754   7.423  0.3417  0.6626 -0.0395
 3762SOL    HW122919   1.294   1.701   7.502 -3.2443  0.8417  0.7214
 3762SOL    HW222920   1.308   1.842   7.449 -0.4419  0.2192  2.3769
 3763SOL     OW22921   2.835   4.112   2.714  0.3883  0.4624 -0.3863
 3763SOL    HW122922   2.882   4.032   2.690  0.9777  0.5449  0.5019
 3763SOL    HW222923   2.907   4.173   2.732 -1.6357  2.6349  0.3918
 3764SOL     OW22924   1.117   1.377   9.218 -0.4726  0.0450 -0.8445
 3764SOL    HW122925   1.024   1.375   9.241 -0.2540  0.2848  0.0652
 3764SOL    HW222926   1.121   1.290   9.177 -2.0377 -1.7057  2.7427
 3765SOL     OW22927   3.388   1.626  15.654 -0.0624 -0.0804 -0.0335
 3765SOL    HW122928   3.352   1.554  15.603 -0.6139 -1.2969  2.0681
 3765SOL    HW222929   3.466   1.660  15.610  1.2675 -3.3284 -0.1956
 3766SOL     OW22930   3.537   4.489   5.559 -0.4481 -0.2781 -0.0964
 3766SOL    HW122931   3.585   4.452   5.485 -3.1610  0.6177 -2.2697
 3766SOL    HW222932   3.487   4.555   5.511 -1.1147 -0.5794  0.1895
 3767SOL     OW22933   1.009   3.079   8.289  0.0469  0.4566 -0.1637
 3767SOL    HW122934   1.004   3.059   8.382 -2.4182 -0.1698 -0.4422
 3767SOL    HW222935   0.919   3.098   8.264 -0.2530 -2.5350 -1.4177
 3768SOL     OW22936   0.883   3.520   2.363 -0.1441  0.0961 -0.1095
 3768SOL    HW122937   0.813   3.467   2.325 -0.3538 -0.9579  1.7587
 3768SOL    HW222938   0.895   3.481   2.450 -0.9187  0.6851  0.2632
 3769SOL     OW22939   1.851   3.376   1.860  0.1896  0.3766 -0.3152
 3769SOL    HW122940   1.778   3.318   1.878 -0.3946  2.6652  4.6337
 3769SOL    HW222941   1.835   3.412   1.773  1.2385 -0.7971 -0.9982
 3770SOL     OW22942   0.728   1.090   5.525  0.1348  0.1674  0.1208
 3770SOL    HW122943   0.805   1.099   5.469 -0.3159  0.6155 -0.4424
 3770SOL    HW222944   0.682   1.027   5.469  0.2456 -0.0157  0.2369
 3771SOL     OW22945   2.432   0.528   1.950  0.6535 -0.4307  0.2909
 3771SOL    HW122946   2.472   0.576   2.023  1.2252  1.7782 -1.4701
 3771SOL    HW222947   2.388   0.602   1.907  0.5405 -0.0232  1.1143
 3772SOL     OW22948   4.465   1.878   6.744  0.4128  0.1388 -0.3159
 3772SOL    HW122949   4.422   1.840   6.667  1.4757 -2.0664  0.1860
 3772SOL    HW222950   4.386   1.914   6.785 -1.1169 -1.7473 -1.5615
 3773SOL     OW22951   3.828   0.051   2.260  0.0846 -0.0257 -0.1724
 3773SOL    HW122952   3.907   0.043   2.206  0.0860 -0.5405 -0.0962
 3773SOL    HW222953   3.819   0.145   2.273 -1.1476  0.1200 -1.9821
 3774SOL     OW22954   3.963   4.427  10.784 -0.1937 -0.0032  0.3200
 3774SOL    HW122955   3.965   4.393  10.874  0.1786  0.7313  0.5865
 3774SOL    HW222956   3.872   4.457  10.777 -0.3837 -0.9489 -1.2435
 3775SOL     OW22957   3.420   1.493   1.416 -0.5487  0.1503  0.6069
 3775SOL    HW122958   3.347   1.466   1.361  0.7149 -1.6235 -0.1761
 3775SOL    HW222959   3.392   1.461   1.502  0.3021 -0.2943  0.7207
 3776SOL     OW22960   1.862   0.726  17.277  0.5395 -0.4432 -0.1895
 3776SOL    HW122961   1.831   0.709  17.188 -0.4461 -0.9269  0.2477
 3776SOL    HW222962   1.811   0.801  17.309  2.0771 -0.5637  2.5430
 3777SOL     OW22963   0.400   0.542   2.636 -0.1006  0.4158  0.1793
 3777SOL    HW122964   0.458   0.602   2.684 -1.4093  0.5170  1.6445
 3777SOL    HW222965   0.466   0.487   2.595  0.4995  0.5195  0.9956
 3778SOL     OW22966   0.441   1.671   6.352 -0.4289  0.1304 -0.7881
 3778SOL    HW122967   0.461   1.655   6.260 -2.8797  0.1074 -1.3193
 3778SOL    HW222968   0.466   1.591   6.398 -0.5790  0.9192  0.6873
 3779SOL     OW22969   2.726   0.157   4.825  0.7822  0.2535  0.1902
 3779SOL    HW122970   2.764   0.221   4.764 -1.1606  2.1077  0.9085
 3779SOL    HW222971   2.802   0.102   4.838  0.5208 -0.0362  0.4916
 3780SOL     OW22972   2.677   2.413  17.051  0.2849  0.0409 -0.1142
 3780SOL    HW122973   2.650   2.456  17.131  0.6892 -0.8727  0.5161
 3780SOL    HW222974   2.718   2.334  17.087 -1.3906 -0.5327  0.5169
 3781SOL     OW22975   0.787   4.433   6.708  0.3835  0.3550  0.1579
 3781SOL    HW122976   0.845   4.358   6.725 -0.9019 -0.7234 -0.2835
 3781SOL    HW222977   0.726   4.393   6.647  0.3913  1.3385 -0.4807
 3782SOL     OW22978   3.114   4.393   3.534  1.1794 -0.1556  1.1230
 3782SOL    HW122979   3.119   4.406   3.629 -0.2262 -1.0915  1.3361
 3782SOL    HW222980   3.131   4.298   3.539  0.7263 -0.2741  0.4225
 3783SOL     OW22981   1.660   0.676   5.041  0.0466 -0.4377 -0.2644
 3783SOL    HW122982   1.623   0.663   5.128 -1.1577  0.4363 -0.6393
 3783SOL    HW222983   1.669   0.771   5.048  2.3854 -0.8462  2.0048
 3784SOL     OW22984   3.122   2.734  14.641 -0.5358  0.2128  0.6164
 3784SOL    HW122985   3.213   2.709  14.625 -0.6806  0.5583 -0.6985
 3784SOL    HW222986   3.069   2.654  14.641 -1.1490  0.6135  0.8448
 3785SOL     OW22987   4.510   1.349   4.839  0.6557  0.3067  0.6523
 3785SOL    HW122988   4.531   1.267   4.796 -1.4277 -0.1488  0.4813
 3785SOL    HW222989   4.415   1.350   4.826  0.7868  1.8919 -0.1513
 3786SOL     OW22990   2.864   1.331   8.328 -0.0178  0.3286 -0.6403
 3786SOL    HW122991   2.897   1.379   8.404 -0.4314 -0.2598 -0.0890
 3786SOL    HW222992   2.769   1.345   8.330 -0.1595 -0.7465  0.1044
 3787SOL     OW22993   3.560   1.640   8.602  0.1450 -0.0992 -0.2009
 3787SOL    HW122994   3.637   1.687   8.569  2.6252 -2.6442  1.9372
 3787SOL    HW222995   3.546   1.675   8.690  1.5214 -0.8493  0.3203
 3788SOL     OW22996   3.166   0.211   4.915  0.2040 -0.1290 -0.2589
 3788SOL    HW122997   3.244   0.255   4.946  0.9421 -1.6377  0.0423
 3788SOL    HW222998   3.102   0.259   4.968  1.6020  1.3588  0.0548
 3789SOL     OW22999   1.491   3.607  16.929 -0.4414 -0.5869 -0.0250
 3789SOL    HW123000   1.454   3.521  16.911 -0.0038 -1.1841  2.0050
 3789SOL    HW223001   1.492   3.614  17.024 -2.0046  1.0595 -0.1393
 3790SOL     OW23002   1.707   1.791   9.350 -0.5194  0.0186 -0.1050
 3790SOL    HW123003   1.643   1.765   9.283 -0.4905 -1.6440  0.5055
 3790SOL    HW223004   1.640   1.850   9.384 -0.6188 -0.5026  0.6034
 3791SOL     OW23005   3.472   1.663   4.322  0.0803  0.3891 -0.5028
 3791SOL    HW123006   3.481   1.695   4.232 -0.6777 -1.1659 -1.1189
 3791SOL    HW223007   3.419   1.734   4.359 -1.6410 -1.3720  0.4328
 3792SOL     OW23008   3.040   4.305   9.143  0.3647  0.5277  0.2418
 3792SOL    HW123009   2.993   4.226   9.118 -0.6827  1.4495 -0.7561
 3792SOL    HW223010   2.973   4.370   9.119  2.3743  2.1887 -0.9175
 3793SOL     OW23011   2.306   3.092  12.228  0.3211  0.5134  0.1069
 3793SOL    HW123012   2.261   3.025  12.280 -0.3102 -0.0606 -1.1819
 3793SOL    HW223013   2.399   3.091  12.251  0.4023  1.1400 -0.1883
 3794SOL     OW23014   0.834   3.644   7.824  0.0391 -0.0665 -0.6189
 3794SOL    HW123015   0.804   3.554   7.835 -0.2529  0.0269 -0.6564
 3794SOL    HW223016   0.765   3.676   7.766 -3.1816 -2.2498  2.0080
 3795SOL     OW23017   2.442   1.874   8.119 -0.2913  0.0315 -0.2347
 3795SOL    HW123018   2.395   1.940   8.067  1.9855  1.0118 -1.0644
 3795SOL    HW223019   2.532   1.877   8.086  0.0753  1.1995  0.8376
 3796SOL     OW23020   4.132   2.075   7.710 -0.0639 -0.0526  0.6566
 3796SOL    HW123021   4.064   2.065   7.644  0.5359  0.3901 -0.0408
 3796SOL    HW223022   4.148   1.981   7.716  0.9829  0.0880  0.1940
 3797SOL     OW23023   3.940   1.637   3.832  0.3827 -0.3458  0.4053
 3797SOL    HW123024   3.966   1.596   3.914 -2.0697 -0.1435  1.2544
 3797SOL    HW223025   3.970   1.578   3.762 -0.1035  0.1643 -0.2376
 3798SOL     OW23026   1.964   4.655  14.146 -0.3828  0.4887  0.1549
 3798SOL    HW123027   2.021   4.720  14.188 -0.0265  0.7987 -0.8093
 3798SOL    HW223028   2.030   4.586  14.131 -0.6813 -0.2795  2.3921
 3799SOL     OW23029   3.515   3.946  14.965 -0.4578  0.2349 -0.3464
 3799SOL    HW123030   3.469   3.881  15.017  2.0541 -0.8673  0.5277
 3799SOL    HW223031   3.456   3.949  14.890 -0.1867  1.0808 -0.5268
 3800SOL     OW23032   0.041   1.604   9.832  0.3237  0.3022  0.7339
 3800SOL    HW123033   0.086   1.550   9.897  1.7568  1.7754  0.9827
 3800SOL    HW223034   4.702   1.547   9.823  1.0525 -0.5560  0.0991
 3801SOL     OW23035   2.963   1.903   2.545 -0.6453 -1.1869 -0.4784
 3801SOL    HW123036   2.896   1.899   2.476  0.8115 -2.3389 -1.8206
 3801SOL    HW223037   3.040   1.904   2.489 -0.2449  0.4588  0.0981
 3802SOL     OW23038   3.285   4.686   2.603 -0.1060  0.3406  0.4860
 3802SOL    HW123039   3.204   4.680   2.653  0.8938 -0.2611  2.0689
 3802SOL    HW223040   3.341   4.668   2.679 -2.3851  1.6311  2.4546
 3803SOL     OW23041   1.983   4.612   2.738 -0.1790 -0.0059 -0.1726
 3803SOL    HW123042   2.001   4.524   2.704  1.7043  0.2004  0.2685
 3803SOL    HW223043   1.888   4.611   2.747 -0.2106  1.3287 -0.3459
 3804SOL     OW23044   1.187   0.453  12.988 -0.5138  0.4940  0.3345
 3804SOL    HW123045   1.131   0.400  13.045 -1.0242 -0.7504 -1.3329
 3804SOL    HW223046   1.120   0.514  12.958  0.3963  0.9073 -0.8643
 3805SOL     OW23047   0.070   1.049  15.751 -0.0117  0.3598  0.3117
 3805SOL    HW123048   0.072   0.956  15.728  1.6816  0.7291 -1.0174
 3805SOL    HW223049   4.717   1.071  15.724 -0.3849  0.5782  1.7559
 3806SOL     OW23050   4.261   1.856  11.415  0.3821  0.4857  0.3846
 3806SOL    HW123051   4.254   1.795  11.489  2.6971  0.5734  0.6845
 3806SOL    HW223052   4.207   1.927  11.448  0.2732 -0.0314  1.3444
 3807SOL     OW23053   0.319   2.681   4.733  0.5309 -0.4963 -0.3520
 3807SOL    HW123054   0.375   2.652   4.805  0.8229 -1.7874 -1.0933
 3807SOL    HW223055   0.235   2.709   4.770  0.3701 -0.9684 -0.3549
 3808SOL     OW23056   3.551   0.817   5.641  0.2382 -0.4538  0.2637
 3808SOL    HW123057   3.595   0.873   5.705 -0.5437  2.0780 -1.4095
 3808SOL    HW223058   3.471   0.870   5.629 -0.1654 -0.8338  1.3179
 3809SOL     OW23059   2.324   3.335  17.016  0.3358  0.3841 -0.8049
 3809SOL    HW123060   2.397   3.391  16.989 -1.1937  2.8691  0.2007
 3809SOL    HW223061   2.269   3.339  16.938 -1.5642  1.7555  0.6200
 3810SOL     OW23062   1.661   1.758   7.785  0.1378 -0.4736  0.2515
 3810SOL    HW123063   1.743   1.804   7.765  0.2097 -0.3119  0.9294
 3810SOL    HW223064   1.598   1.830   7.790  2.4007  1.1947  4.8196
 3811SOL     OW23065   2.439   2.474   4.876  0.0456  0.5015 -0.2186
 3811SOL    HW123066   2.530   2.449   4.890 -0.1867 -0.2905 -0.1650
 3811SOL    HW223067   2.447   2.534   4.802  1.2580  1.6056  0.7975
 3812SOL     OW23068   1.658   0.654   6.727  0.3190 -0.2855 -0.4261
 3812SOL    HW123069   1.615   0.637   6.643  0.5139  0.2158 -0.6295
 3812SOL    HW223070   1.635   0.746   6.741  0.7871 -0.0126 -1.4093
 3813SOL     OW23071   4.182   0.192   7.747  0.3089 -0.4720  0.1221
 3813SOL    HW123072   4.267   0.151   7.729  0.3381  0.2806 -1.4710
 3813SOL    HW223073   4.140   0.187   7.661 -0.3541 -0.9070  0.4764
 3814SOL     OW23074   1.442   1.222  12.931  0.0054  0.1610  0.0812
 3814SOL    HW123075   1.361   1.231  12.980  0.8725 -0.7555  1.6543
 3814SOL    HW223076   1.506   1.222  13.002 -0.5500  3.3010  0.6105
 3815SOL     OW23077   3.623   4.620  12.611 -0.0468 -0.1293  0.3070
 3815SOL    HW123078   3.652   4.578  12.530 -1.2218 -0.3140 -0.0127
 3815SOL    HW223079   3.624   4.709  12.577  0.2159 -0.2752 -0.0690
 3816SOL     OW23080   1.552   0.977   5.330  0.9313 -0.5989 -0.5232
 3816SOL    HW123081   1.567   0.922   5.253 -2.2785 -2.4045  0.0949
 3816SOL    HW223082   1.594   1.055   5.294 -0.5909  0.6153  0.3350
 3817SOL     OW23083   3.690   1.792   7.191 -0.0973 -0.4896 -0.4783
 3817SOL    HW123084   3.669   1.704   7.223  2.4622 -0.9285 -0.0030
 3817SOL    HW223085   3.644   1.791   7.108  0.6986  1.4631 -0.9518
 3818SOL     OW23086   2.584   4.578   7.241  0.0443  0.3365 -0.0725
 3818SOL    HW123087   2.668   4.545   7.271  0.6415 -0.5224 -2.6826
 3818SOL    HW223088   2.565   4.646   7.306 -1.4454  1.5047 -1.7275
 3819SOL     OW23089   0.199   0.329   6.656  0.5886 -0.3537  0.2482
 3819SOL    HW123090   0.237   0.257   6.707  0.3062  0.1227  1.1392
 3819SOL    HW223091   0.145   0.367   6.725  2.5799 -0.0499  1.6484
 3820SOL     OW23092   4.559   0.604   4.322 -0.4436  0.5567 -0.1330
 3820SOL    HW123093   4.647   0.640   4.310 -0.4502  0.5749 -0.1261
 3820SOL    HW223094   4.589   0.513   4.330 -0.6172  0.6833  1.8677
 3821SOL     OW23095   4.068   2.232   4.811  0.4998 -0.3622  0.1213
 3821SOL    HW123096   4.089   2.229   4.904  1.2166  1.2277  0.0218
 3821SOL    HW223097   4.149   2.199   4.770 -0.6895 -1.6217 -1.2082
 3822SOL     OW23098   2.414   3.526   3.068  0.6169  0.9429  0.2965
 3822SOL    HW123099   2.387   3.570   2.987  1.0479  1.8136  0.6282
 3822SOL    HW223100   2.503   3.506   3.038  0.7801 -2.2397  2.8948
 3823SOL     OW23101   2.315   3.907   3.110  0.1317 -0.2978  0.3499
 3823SOL    HW123102   2.276   3.839   3.165  0.9057  0.5960  1.9809
 3823SOL    HW223103   2.278   3.983   3.153  1.6564 -0.7865  2.4975
 3824SOL     OW23104   4.513   3.316   6.454 -0.0170  0.1215 -0.2587
 3824SOL    HW123105   4.506   3.395   6.401  0.1254  0.8209  0.7558
 3824SOL    HW223106   4.456   3.335   6.528  1.8009 -0.1711  1.2373
 3825SOL     OW23107   4.010   0.148   0.230 -0.2870  0.4276 -0.2449
 3825SOL    HW123108   3.940   0.190   0.279  0.4169 -0.1220  1.2423
 3825SOL    HW223109   4.031   0.227   0.181  2.2767 -0.1337 -0.0966
 3826SOL     OW23110   3.255   0.796   8.880 -0.7392  0.3909  0.6637
 3826SOL    HW123111   3.305   0.730   8.928  2.9170  2.2991 -0.4416
 3826SOL    HW223112   3.303   0.869   8.920 -0.8754  0.3064  0.9712
 3827SOL     OW23113   2.078   0.718   9.018  0.2602  0.3310 -0.1835
 3827SOL    HW123114   2.059   0.812   9.011 -1.0388  0.0268 -0.6388
 3827SOL    HW223115   2.172   0.724   9.002  0.2300  1.3901  0.0329
 3828SOL     OW23116   2.512   4.337   5.753 -0.2929 -0.1466  0.2201
 3828SOL    HW123117   2.547   4.310   5.668 -2.6128 -1.0931 -0.4131
 3828SOL    HW223118   2.418   4.323   5.748 -0.1179 -0.1542 -2.6361
 3829SOL     OW23119   1.517   2.126  12.575 -0.6913 -0.2110  0.2476
 3829SOL    HW123120   1.586   2.181  12.614  0.3618  0.1509 -2.1482
 3829SOL    HW223121   1.456   2.195  12.551 -0.4557 -0.3992 -0.8783
 3830SOL     OW23122   4.422   0.598   9.477  0.3757  0.7568 -0.1164
 3830SOL    HW123123   4.364   0.581   9.551  2.3116  0.0750  1.2443
 3830SOL    HW223124   4.473   0.517   9.474  1.5551  1.4221  2.4118
 3831SOL     OW23125   0.754   3.359   6.268  0.2967 -0.1175  0.2966
 3831SOL    HW123126   0.757   3.264   6.256 -1.8412 -0.1210 -0.1164
 3831SOL    HW223127   0.685   3.383   6.207 -0.3742 -0.1564  1.0409
 3832SOL     OW23128   1.004   0.165   2.708  0.1468 -0.5785  0.2306
 3832SOL    HW123129   1.057   0.244   2.716 -1.1418  0.0682  2.5747
 3832SOL    HW223130   0.942   0.185   2.637  1.8387  0.9194 -0.8221
 3833SOL     OW23131   1.016   2.538   9.401  0.4655 -0.0369 -0.5966
 3833SOL    HW123132   1.085   2.515   9.339  0.6796  0.1329 -0.4203
 3833SOL    HW223133   1.033   2.627   9.429  0.5102  0.0648 -0.9422
 3834SOL     OW23134   4.084   1.834   4.814 -0.4437  0.0946 -0.5102
 3834SOL    HW123135   4.048   1.783   4.742  0.9114 -3.1292  1.0728
 3834SOL    HW223136   4.134   1.897   4.762  0.4737 -1.1142 -1.1101
 3835SOL     OW23137   3.282   3.734   2.553  0.4375 -0.0177 -0.5356
 3835SOL    HW123138   3.264   3.825   2.531  2.4186  1.1518  2.7668
 3835SOL    HW223139   3.373   3.721   2.528  0.7553  1.5316 -0.1590
 3836SOL     OW23140   2.740   1.427   2.152 -0.4041  0.1127 -0.3427
 3836SOL    HW123141   2.648   1.452   2.150 -0.7317 -1.2770 -2.4742
 3836SOL    HW223142   2.737   1.348   2.206 -1.0201  0.3667 -0.0116
 3837SOL     OW23143   1.233   3.299  11.271 -0.1500  0.6395 -1.1870
 3837SOL    HW123144   1.259   3.242  11.199 -0.9596  1.0552 -1.8000
 3837SOL    HW223145   1.258   3.388  11.248 -0.3764  0.8858 -0.4995
 3838SOL     OW23146   0.148   2.359  17.154 -0.1175  0.8359 -0.0055
 3838SOL    HW123147   0.115   2.302  17.224  0.5359  0.0981 -0.2977
 3838SOL    HW223148   0.071   2.384  17.103  0.7485  2.7691 -0.3508
 3839SOL     OW23149   0.995   1.657  13.290 -0.5292 -0.8645  0.5384
 3839SOL    HW123150   0.938   1.613  13.227  0.4178 -2.9856  1.1773
 3839SOL    HW223151   1.081   1.646  13.248  0.3114 -1.8245  2.5549
 3840SOL     OW23152   2.151   0.330   2.586  0.6998 -0.3248  0.2727
 3840SOL    HW123153   2.191   0.262   2.641  0.2435  0.2590  1.3109
 3840SOL    HW223154   2.226   0.386   2.568  0.8403 -0.0287  1.8106
 3841SOL     OW23155   4.515   2.647   7.076 -0.3788 -0.3857  0.3362
 3841SOL    HW123156   4.596   2.602   7.102  1.6153  2.1177 -1.5592
 3841SOL    HW223157   4.473   2.673   7.157 -1.7858 -2.2190  0.1887
 3842SOL     OW23158   0.649   4.236   5.977 -0.1071 -0.2859 -0.3671
 3842SOL    HW123159   0.606   4.252   5.893 -1.0333 -1.5735 -0.1544
 3842SOL    HW223160   0.735   4.278   5.968 -0.5304  0.0319 -2.9039
 3843SOL     OW23161   3.529   1.266   0.450 -0.1806 -0.1843 -0.0099
 3843SOL    HW123162   3.507   1.339   0.508 -0.4490 -1.1639  1.1296
 3843SOL    HW223163   3.564   1.318   0.378  1.5608 -0.2864  0.7798
 3844SOL     OW23164   1.197   2.599   7.903  0.0060 -0.1541  0.1497
 3844SOL    HW123165   1.205   2.684   7.946 -1.0017 -0.7042  1.4108
 3844SOL    HW223166   1.134   2.551   7.957 -0.6330 -0.0230 -0.4888
 3845SOL     OW23167   2.755   0.991   7.199  0.8305 -0.1243 -0.3816
 3845SOL    HW123168   2.776   0.916   7.144 -0.1408 -0.4867 -0.2641
 3845SOL    HW223169   2.773   0.970   7.291  2.0322 -1.2254 -0.8724
 3846SOL     OW23170   3.801   3.477  13.709  0.6065  0.7703  0.1740
 3846SOL    HW123171   3.854   3.401  13.683 -3.5113 -1.6013 -1.2009
 3846SOL    HW223172   3.818   3.529  13.630 -0.6983 -1.2623 -1.4577
 3847SOL     OW23173   2.909   4.004  17.480 -0.1162  0.9216 -1.3340
 3847SOL    HW123174   2.814   3.989  17.480  0.3674 -2.1508  1.3370
 3847SOL    HW223175   2.922   3.985  17.573 -1.6758  1.7971 -0.9296
 3848SOL     OW23176   0.954   4.646   0.825 -0.2489  0.2832 -0.1036
 3848SOL    HW123177   0.859   4.640   0.836 -0.5018  3.2380 -0.7788
 3848SOL    HW223178   0.983   4.568   0.873 -1.8556  0.2430  0.8182
 3849SOL     OW23179   0.144   1.337  16.462 -0.0624 -0.5258  0.3239
 3849SOL    HW123180   0.203   1.329  16.536  0.6387 -3.1970 -0.5107
 3849SOL    HW223181   0.207   1.360  16.394 -0.1987  0.6730  0.6057
 3850SOL     OW23182   2.223   4.725   8.109  0.6909 -0.5211  1.3765
 3850SOL    HW123183   2.190   0.074   8.136  0.1160  0.2345 -1.7267
 3850SOL    HW223184   2.198   4.665   8.180  3.7573 -0.9396  2.0970
 3851SOL     OW23185   3.923   4.581   7.845 -0.3818  0.0457  0.4802
 3851SOL    HW123186   4.013   4.548   7.835 -0.5307 -0.4026  0.6272
 3851SOL    HW223187   3.883   4.500   7.876 -1.4945 -0.5817 -2.6567
 3852SOL     OW23188   2.988   2.712   3.849  0.3052  0.0743  0.0700
 3852SOL    HW123189   2.964   2.624   3.878  1.5225 -0.1178  0.4769
 3852SOL    HW223190   2.904   2.741   3.814 -1.0156 -1.9091  1.5752
 3853SOL     OW23191   2.445   1.964   3.431  0.3795 -0.2903 -0.1464
 3853SOL    HW123192   2.394   1.897   3.476  0.9147 -1.3752 -1.1670
 3853SOL    HW223193   2.464   1.930   3.344  0.2810 -0.3386 -0.1489
 3854SOL     OW23194   1.703   2.688   4.789  0.4662  0.3088  0.6082
 3854SOL    HW123195   1.794   2.659   4.797  0.3762 -0.2183 -0.3138
 3854SOL    HW223196   1.701   2.737   4.707 -0.1164 -2.4591 -1.0455
 3855SOL     OW23197   3.333   3.077   8.763 -0.3973 -0.3536 -0.3619
 3855SOL    HW123198   3.383   3.056   8.842 -0.0961  0.9509 -0.2097
 3855SOL    HW223199   3.345   2.994   8.715  1.0379  0.0659 -0.7111
 3856SOL     OW23200   3.836   1.257   3.465  0.1358  0.1527  0.0252
 3856SOL    HW123201   3.741   1.257   3.466  0.1269 -3.8791 -0.5111
 3856SOL    HW223202   3.858   1.313   3.391  1.5660  1.7568  1.6486
 3857SOL     OW23203   1.143   0.876   7.762  0.3288 -0.4121  0.2653
 3857SOL    HW123204   1.231   0.849   7.735 -0.0707 -0.3443 -1.1000
 3857SOL    HW223205   1.161   0.955   7.812 -1.0120  0.0360  0.0406
 3858SOL     OW23206   3.404   4.270   5.153 -0.3489  0.1888 -0.8462
 3858SOL    HW123207   3.370   4.236   5.070  0.8971  0.2701 -1.3979
 3858SOL    HW223208   3.477   4.318   5.114 -1.6512  2.0570 -0.9862
 3859SOL     OW23209   3.754   2.595   1.172  0.5555 -0.3108 -0.7633
 3859SOL    HW123210   3.786   2.619   1.085 -1.9519  0.4018 -1.4937
 3859SOL    HW223211   3.799   2.657   1.229  1.8037 -2.1271  0.2268
 3860SOL     OW23212   4.736   2.999   2.514 -0.2513  0.3356  0.0312
 3860SOL    HW123213   0.069   3.063   2.505  0.2012 -0.6870 -3.6929
 3860SOL    HW223214   0.018   2.945   2.591  0.0613 -1.3880 -1.2596
 3861SOL     OW23215   4.322   2.969   0.781 -0.3836  0.1367 -0.6610
 3861SOL    HW123216   4.301   2.957   0.874  0.2044  2.1870 -0.2577
 3861SOL    HW223217   4.286   3.052   0.749 -0.8606  0.7541  1.4477
 3862SOL     OW23218   2.773   3.997   7.970 -0.2245  0.0312 -0.9277
 3862SOL    HW123219   2.683   3.979   7.945 -0.6786  3.5010 -1.8189
 3862SOL    HW223220   2.817   3.990   7.886  0.8865 -0.3215 -0.3203
 3863SOL     OW23221   1.210   4.059   5.540  0.1325 -0.8791  0.6389
 3863SOL    HW123222   1.258   4.035   5.460 -0.2245 -1.4906  0.6114
 3863SOL    HW223223   1.212   3.981   5.595 -1.0197 -1.5973 -0.3350
 3864SOL     OW23224   1.623   1.979   6.411  0.1578  0.8031  0.6445
 3864SOL    HW123225   1.657   1.951   6.326 -1.8973  0.9063 -0.2197
 3864SOL    HW223226   1.620   2.073   6.393  2.5250  0.4233 -1.6296
 3865SOL     OW23227   1.001   3.242   2.077 -0.1917 -0.0851  0.3506
 3865SOL    HW123228   0.944   3.314   2.106 -0.3701 -0.6085  1.3116
 3865SOL    HW223229   0.993   3.246   1.982 -3.3743 -2.0639  0.5569
 3866SOL     OW23230   0.176   0.893   2.536  0.0771  0.1819 -0.1857
 3866SOL    HW123231   0.183   0.988   2.540 -0.6333  0.2620 -0.8617
 3866SOL    HW223232   0.230   0.861   2.464  0.1825 -1.4910  0.6236
 3867SOL     OW23233   2.662   4.290   3.418  0.1505 -0.1433 -0.3935
 3867SOL    HW123234   2.715   4.366   3.392  0.8623 -0.3315  0.5052
 3867SOL    HW223235   2.603   4.330   3.483  0.6338  0.2766 -0.2037
 3868SOL     OW23236   3.035   3.701   7.277  0.3879  0.1086  0.6877
 3868SOL    HW123237   3.112   3.745   7.312  0.0508 -0.5275  2.2396
 3868SOL    HW223238   3.082   3.635   7.225  0.9075  0.6094  0.5210
 3869SOL     OW23239   2.626   3.038   4.935  0.4039  0.2830  0.0294
 3869SOL    HW123240   2.570   3.085   4.996  0.4585  1.2699 -0.6972
 3869SOL    HW223241   2.667   2.973   4.993  0.4162 -0.1378 -0.4517
 3870SOL     OW23242   4.289   4.020  11.463 -0.2450 -0.3181 -0.5025
 3870SOL    HW123243   4.358   4.026  11.529 -0.5475  0.4737 -0.2612
 3870SOL    HW223244   4.333   3.954  11.410 -1.1977 -1.4599  0.1373
 3871SOL     OW23245   3.525   3.734   6.722  0.1398 -0.1552 -0.0169
 3871SOL    HW123246   3.451   3.789   6.698  1.9057  3.0920  1.9936
 3871SOL    HW223247   3.527   3.756   6.815  0.4152 -1.0913  0.2020
 3872SOL     OW23248   0.929   0.407   4.543  0.1316 -0.5124 -0.3862
 3872SOL    HW123249   1.014   0.395   4.587 -0.3894 -2.3440  0.1010
 3872SOL    HW223250   0.896   0.320   4.563 -0.4897  0.1163  1.3096
 3873SOL     OW23251   4.244   1.444   1.819  0.2218  0.0404  0.6389
 3873SOL    HW123252   4.339   1.433   1.826  0.0147 -3.3754 -2.0602
 3873SOL    HW223253   4.221   1.378   1.753 -0.6796  0.6217  0.3739
 3874SOL     OW23254   1.106   3.885   8.240 -0.4237 -0.5171  0.0601
 3874SOL    HW123255   1.200   3.885   8.223 -0.7984 -2.5987 -2.0920
 3874SOL    HW223256   1.073   3.942   8.170 -2.9219  1.2049  2.6324
 3875SOL     OW23257   1.945   2.923   4.750 -0.5431 -0.5561 -0.1485
 3875SOL    HW123258   2.020   2.918   4.692  0.1609  3.0374  0.4182
 3875SOL    HW223259   1.879   2.938   4.682  0.5489 -0.1252 -1.1093
 3876SOL     OW23260   2.213   3.231  17.528  0.3441  0.0544 -0.4619
 3876SOL    HW123261   2.257   3.307  17.566  1.2493 -0.5082 -0.3826
 3876SOL    HW223262   2.195   3.251  17.437  2.3735  1.3249 -0.5822
 3877SOL     OW23263   2.566   0.288   7.193 -0.5959 -0.5231 -0.3325
 3877SOL    HW123264   2.658   0.283   7.168 -0.5697 -0.7055 -0.2026
 3877SOL    HW223265   2.522   0.241   7.123  0.6117  0.6587 -1.8757
 3878SOL     OW23266   4.030   2.024   3.034  0.6488 -0.0219 -0.6312
 3878SOL    HW123267   4.108   2.041   3.087  0.8445 -0.1945 -0.8621
 3878SOL    HW223268   4.083   2.035   2.955  0.6481 -0.9323 -0.7694
 3879SOL     OW23269   3.745   0.337  10.609 -0.6706  0.6868  0.1472
 3879SOL    HW123270   3.840   0.339  10.599 -0.7995  2.0201 -0.8058
 3879SOL    HW223271   3.731   0.277  10.682  1.2643 -0.6884 -0.6332
 3880SOL     OW23272   2.563   2.355   3.485 -0.2269  0.2449  0.4686
 3880SOL    HW123273   2.632   2.353   3.419 -0.3895 -0.0279  0.3037
 3880SOL    HW223274   2.615   2.375   3.563  2.5072  0.1949 -1.3542
 3881SOL     OW23275   0.861   2.362   4.426 -0.1295 -0.3286 -0.0072
 3881SOL    HW123276   0.805   2.380   4.501  1.1600 -1.9958  1.3813
 3881SOL    HW223277   0.803   2.378   4.352 -1.0509 -0.1956  0.7514
 3882SOL     OW23278   1.403   2.321  15.322  0.1795  0.9629 -0.2255
 3882SOL    HW123279   1.441   2.335  15.235 -2.6117  1.3503 -1.3875
 3882SOL    HW223280   1.320   2.368  15.317 -0.8929 -1.1278 -1.7407
 3883SOL     OW23281   1.884   1.290   0.057  0.6971 -0.0407 -0.0778
 3883SOL    HW123282   1.948   1.362   0.050  1.0190 -0.3371 -0.1834
 3883SOL    HW223283   1.951   1.222   0.055  1.5639  0.7313  2.4625
 3884SOL     OW23284   1.399   2.452   7.126  0.7219  0.5168  0.3183
 3884SOL    HW123285   1.461   2.514   7.163  0.1642  1.7033 -0.7572
 3884SOL    HW223286   1.384   2.399   7.204  2.0662 -2.4444 -1.4197
 3885SOL     OW23287   0.138   0.905  12.727 -0.5094 -0.4136  0.0013
 3885SOL    HW123288   0.106   0.867  12.645  0.9143  0.9855 -1.1969
 3885SOL    HW223289   0.189   0.975  12.687 -2.4148 -0.1585 -1.9538
 3886SOL     OW23290   0.010   3.208   9.964 -0.2871 -0.2807  0.1956
 3886SOL    HW123291   0.006   3.184  10.057 -1.5267 -0.6041  0.0678
 3886SOL    HW223292   4.674   3.155   9.931  0.2189 -1.2251  0.6120
 3887SOL     OW23293   2.887   0.922   4.867 -0.2174  0.3224 -0.6027
 3887SOL    HW123294   2.926   0.835   4.875 -2.4300 -0.7888 -2.2272
 3887SOL    HW223295   2.915   0.971   4.945 -1.6469 -1.4434  1.0269
 3888SOL     OW23296   2.704   1.528  17.033  0.0727 -0.5455 -0.5591
 3888SOL    HW123297   2.760   1.463  17.077  0.3435  2.1271  3.0567
 3888SOL    HW223298   2.728   1.519  16.941  1.0951 -0.1839 -0.3237
 3889SOL     OW23299   1.776   1.355   3.275 -0.0271  0.0971 -0.5096
 3889SOL    HW123300   1.752   1.416   3.343 -0.4845 -0.5094 -0.1267
 3889SOL    HW223301   1.694   1.305   3.273  0.3479 -0.5661  0.5962
 3890SOL     OW23302   0.714   2.608   5.595 -0.8006  0.1192 -0.2481
 3890SOL    HW123303   0.634   2.568   5.561 -1.1914 -1.0197  1.9757
 3890SOL    HW223304   0.756   2.607   5.509 -0.4924 -0.6399 -0.0892
 3891SOL     OW23305   3.786   4.640   7.603 -0.6765  0.2488 -0.1809
 3891SOL    HW123306   3.856   4.595   7.555 -0.1146  0.3501  0.5412
 3891SOL    HW223307   3.826   4.624   7.688  1.1557 -1.0606 -1.2770
 3892SOL     OW23308   0.161   0.804   0.523  0.0448  0.2915 -0.0939
 3892SOL    HW123309   0.238   0.830   0.472  0.5824  0.1885  0.6734
 3892SOL    HW223310   0.116   0.888   0.533  0.3086  0.6134 -1.6040
 3893SOL     OW23311   1.045   3.782   8.836 -0.0634  0.5594  0.0911
 3893SOL    HW123312   1.011   3.694   8.817 -0.1840  0.8209 -0.8699
 3893SOL    HW223313   1.139   3.773   8.825 -0.4938 -2.7976 -0.9774
 3894SOL     OW23314   2.080   3.260   2.348  0.1539  0.2153 -0.0165
 3894SOL    HW123315   2.081   3.350   2.315  2.4156  0.6663  1.2677
 3894SOL    HW223316   2.009   3.218   2.299  2.1622 -3.1451 -0.0314
 3895SOL     OW23317   3.376   0.032  13.700  0.2080  0.3590  0.5666
 3895SOL    HW123318   3.391   0.107  13.643 -2.1922  1.9245  1.9872
 3895SOL    HW223319   3.463   4.729  13.704 -0.4606 -1.3447 -1.7169
 3896SOL     OW23320   2.353   2.359  10.239  0.2451 -0.1469 -0.7609
 3896SOL    HW123321   2.341   2.299  10.312 -0.7995  0.8434 -0.1382
 3896SOL    HW223322   2.262   2.376  10.215  0.4792  1.0743 -0.7926
 3897SOL     OW23323   4.189   2.076  15.373  0.1587  0.3812 -0.0534
 3897SOL    HW123324   4.231   2.159  15.350 -0.6975  1.3679  1.9505
 3897SOL    HW223325   4.163   2.088  15.464  0.9456 -2.0186  0.4647
 3898SOL     OW23326   4.586   2.088  16.235  0.3288  0.1593  0.0697
 3898SOL    HW123327   4.599   2.144  16.159  1.0886  0.4456  0.4133
 3898SOL    HW223328   4.581   2.003  16.191 -0.6163  0.8113 -1.0572
 3899SOL     OW23329   1.898   2.840   4.995  0.1912  0.1911  0.2120
 3899SOL    HW123330   1.815   2.884   4.981 -1.0803 -1.3559  2.9308
 3899SOL    HW223331   1.952   2.875   4.924 -1.2809 -1.2238 -1.6017
 3900SOL     OW23332   2.169   3.433   5.162 -0.3410  1.0610 -0.4031
 3900SOL    HW123333   2.224   3.367   5.120 -1.2811 -0.0539  0.1296
 3900SOL    HW223334   2.176   3.500   5.094 -1.5488  0.0410 -1.5244
 3901SOL     OW23335   4.183   1.793   8.584 -0.1096 -0.6308  0.8637
 3901SOL    HW123336   4.146   1.768   8.500  2.9280 -1.1028 -0.3577
 3901SOL    HW223337   4.215   1.708   8.615  2.9018  0.4339  0.6596
 3902SOL     OW23338   4.504   3.650   2.724  0.1361 -0.6349 -0.7038
 3902SOL    HW123339   4.583   3.598   2.708  2.1042  2.2187 -0.2183
 3902SOL    HW223340   4.525   3.705   2.799 -2.0542 -1.6379  0.6409
 3903SOL     OW23341   1.655   2.476   4.977  0.1654 -0.3020 -0.1353
 3903SOL    HW123342   1.667   2.556   4.926 -1.2774 -1.4719 -2.3412
 3903SOL    HW223343   1.653   2.421   4.899  0.8839 -0.9847  0.3281
 3904SOL     OW23344   1.059   0.964  11.753 -0.3694 -0.0099  0.1636
 3904SOL    HW123345   0.980   0.928  11.712  1.3281 -2.3425 -1.0374
 3904SOL    HW223346   1.120   0.891  11.746  0.1274  0.2819  1.4633
 3905SOL     OW23347   0.625   0.765   3.763  0.0598 -0.6729 -0.3269
 3905SOL    HW123348   0.555   0.806   3.713 -0.8533 -0.9787  0.6971
 3905SOL    HW223349   0.631   0.839   3.824  0.8231 -0.9938 -0.0151
 3906SOL     OW23350   0.651   0.895   0.820 -0.3085  0.1035  0.4103
 3906SOL    HW123351   0.747   0.891   0.822 -0.3182 -0.3592 -0.0624
 3906SOL    HW223352   0.627   0.912   0.911 -1.6600 -2.3507  0.5068
 3907SOL     OW23353   0.516   3.548  16.030  0.5337 -0.1747 -0.2263
 3907SOL    HW123354   0.607   3.538  16.056  1.3383  0.8770 -2.6516
 3907SOL    HW223355   0.522   3.624  15.972 -1.9446 -0.3842 -0.7760
 3908SOL     OW23356   2.272   0.213   5.358 -0.6409 -0.2571  0.1584
 3908SOL    HW123357   2.208   0.283   5.356 -0.8448 -0.4609 -0.5718
 3908SOL    HW223358   2.293   0.210   5.264 -0.0949 -0.2870  0.2801
 3909SOL     OW23359   1.242   1.299   0.684 -0.0453  0.1785  0.0445
 3909SOL    HW123360   1.317   1.282   0.626 -0.1057 -0.1516  0.0636
 3909SOL    HW223361   1.241   1.394   0.690  0.2781  0.0148  2.4745
 3910SOL     OW23362   2.840   2.671   2.819 -0.4101  0.2051 -0.0702
 3910SOL    HW123363   2.917   2.714   2.857 -0.4795 -0.7292  1.1659
 3910SOL    HW223364   2.843   2.584   2.860  1.0917 -0.5298 -1.7529
 3911SOL     OW23365   1.024   3.653   3.936  0.0847  0.1276  0.4376
 3911SOL    HW123366   1.063   3.570   3.964 -1.6040 -0.4473  1.0772
 3911SOL    HW223367   1.031   3.652   3.841 -0.0651 -1.9092  0.4345
 3912SOL     OW23368   2.502   3.499   4.912 -0.2591 -0.6960  0.2894
 3912SOL    HW123369   2.553   3.426   4.876  1.3504  0.6634 -0.1793
 3912SOL    HW223370   2.546   3.574   4.874  1.8981 -0.4390  3.2590
 3913SOL     OW23371   0.629   2.599   6.991  0.3182 -0.2032  0.4841
 3913SOL    HW123372   0.650   2.515   6.951 -2.0522  0.4414 -2.0989
 3913SOL    HW223373   0.701   2.604   7.054  0.9083 -1.2521 -0.1207
 3914SOL     OW23374   1.268   1.049  10.091 -0.1978 -0.3255 -0.4746
 3914SOL    HW123375   1.297   0.960  10.069  2.8784  0.6049 -0.1622
 3914SOL    HW223376   1.174   1.034  10.096 -0.1329 -0.4531  0.3741
 3915SOL     OW23377   0.769   3.044   0.945  0.3045  0.5980 -0.0604
 3915SOL    HW123378   0.815   3.076   0.867 -0.8327  2.1292 -0.1015
 3915SOL    HW223379   0.796   3.110   1.009  1.5227  0.3698 -0.3343
 3916SOL     OW23380   4.410   3.168   9.043  0.1878  0.0754 -0.1190
 3916SOL    HW123381   4.332   3.128   9.004  1.9510 -4.2836  0.7809
 3916SOL    HW223382   4.458   3.193   8.965  1.1715  3.9055  1.7462
 3917SOL     OW23383   1.619   3.390  14.736  0.1342 -0.6312  0.5678
 3917SOL    HW123384   1.565   3.319  14.700  0.7512  0.5785 -2.7640
 3917SOL    HW223385   1.710   3.365  14.725  0.3040  0.5192 -0.6864
 3918SOL     OW23386   1.441   2.945   2.279  0.2076  0.3237 -0.0957
 3918SOL    HW123387   1.495   3.019   2.306 -0.6819 -0.0697  2.7948
 3918SOL    HW223388   1.394   2.933   2.362  0.2631  1.8458  0.1512
 3919SOL     OW23389   3.449   1.943   9.253  0.1458  0.0162  0.4682
 3919SOL    HW123390   3.505   2.015   9.227 -1.9360  1.5213  0.1396
 3919SOL    HW223391   3.367   1.970   9.211  1.1791 -1.1841 -2.2851
 3920SOL     OW23392   0.844   4.516  14.179  0.7378  0.1811 -0.1254
 3920SOL    HW123393   0.937   4.539  14.191  0.3546  1.0020  1.3502
 3920SOL    HW223394   0.809   4.602  14.202  1.8292  0.4470  0.5467
 3921SOL     OW23395   3.989   0.059   2.582 -0.1400  0.0100 -0.6213
 3921SOL    HW123396   3.981   0.051   2.677 -2.2617 -0.2688 -0.8083
 3921SOL    HW223397   3.986   4.702   2.565 -0.3973  0.2275 -1.7432
 3922SOL     OW23398   1.134   0.096   0.161  0.3275  0.3881 -0.1540
 3922SOL    HW123399   1.078   0.024   0.189 -0.3441  1.4232  1.2061
 3922SOL    HW223400   1.083   0.172   0.190 -0.0942  0.1661 -0.3181
 3923SOL     OW23401   1.651   2.138   3.310 -0.0417 -0.0782 -0.1666
 3923SOL    HW123402   1.678   2.102   3.226  0.8632  0.1894  0.0120
 3923SOL    HW223403   1.696   2.075   3.367  0.5973  1.0233  0.5276
 3924SOL     OW23404   2.048   4.080   4.378  0.2119 -0.1638 -0.1129
 3924SOL    HW123405   2.060   4.099   4.471 -1.5968 -0.2832  0.1450
 3924SOL    HW223406   2.132   4.050   4.344 -0.1062  0.5682 -1.5771
 3925SOL     OW23407   1.854   1.736   2.641 -0.1401 -0.2642 -0.6262
 3925SOL    HW123408   1.824   1.680   2.713  0.0649  2.6345  1.7059
 3925SOL    HW223409   1.822   1.684   2.568 -2.5395  0.1531  0.1211
 3926SOL     OW23410   2.852   3.593   8.672 -0.6060  0.9552  0.1286
 3926SOL    HW123411   2.866   3.617   8.763  2.5504  1.6286 -0.5254
 3926SOL    HW223412   2.838   3.500   8.686 -0.4327  0.7302 -1.1827
 3927SOL     OW23413   3.056   3.300   7.068  0.2273  0.4529  0.0707
 3927SOL    HW123414   3.070   3.292   6.974  2.6415 -0.0623  0.4705
 3927SOL    HW223415   3.036   3.217   7.110 -2.4530 -0.2186 -2.5529
 3928SOL     OW23416   0.612   3.135   5.071 -0.2003  0.3324  0.6326
 3928SOL    HW123417   0.540   3.105   5.126 -2.7678  2.7017 -1.4404
 3928SOL    HW223418   0.583   3.217   5.031 -0.4886  0.0945  0.3581
 3929SOL     OW23419   2.449   0.289   7.459 -0.2014 -0.0767  0.2888
 3929SOL    HW123420   2.445   0.197   7.486  0.2264 -0.1756  0.0176
 3929SOL    HW223421   2.491   0.269   7.376 -2.2050  0.9508 -0.9752
 3930SOL     OW23422   2.790   0.895   8.312 -0.1150 -0.3594 -0.0621
 3930SOL    HW123423   2.716   0.851   8.270  1.3219 -0.3075 -2.6652
 3930SOL    HW223424   2.748   0.977   8.337  0.2853 -0.2526  0.2643
 3931SOL     OW23425   3.057   0.003   5.328  0.2934  0.0008 -0.2828
 3931SOL    HW123426   3.084   4.690   5.251 -1.3204 -0.1681 -0.7369
 3931SOL    HW223427   3.142   0.021   5.368 -0.9767  1.8273  1.5700
 3932SOL     OW23428   1.278   4.338  14.089 -0.2829  0.4549 -0.2806
 3932SOL    HW123429   1.244   4.365  14.174  0.4710  2.8924 -0.7272
 3932SOL    HW223430   1.358   4.392  14.092  0.8944 -1.2624 -0.7095
 3933SOL     OW23431   1.913   4.636   1.963 -0.4678  0.0499  0.5419
 3933SOL    HW123432   1.954   4.550   1.969  1.5717  0.9553 -0.4892
 3933SOL    HW223433   1.867   4.636   2.048  2.2906 -0.9558  2.0350
 3934SOL     OW23434   3.463   3.734   9.562  0.0382  0.5292 -0.5206
 3934SOL    HW123435   3.438   3.761   9.650 -1.4392  1.4468 -1.2104
 3934SOL    HW223436   3.383   3.757   9.515 -2.1478 -1.1051  2.3566
 3935SOL     OW23437   0.868   4.298   5.126 -0.2798 -0.1636  0.2020
 3935SOL    HW123438   0.844   4.208   5.148 -1.9356  0.4405  0.8858
 3935SOL    HW223439   0.916   4.285   5.044  0.0629  1.1248  0.1950
 3936SOL     OW23440   0.228   1.173   6.168  0.3406  0.4840 -0.0327
 3936SOL    HW123441   0.299   1.152   6.230  0.8139 -0.2362 -0.8201
 3936SOL    HW223442   0.157   1.125   6.210  0.6375  0.2134  0.1599
 3937SOL     OW23443   4.529   2.824  13.784 -0.4647 -0.0080 -0.1401
 3937SOL    HW123444   4.521   2.914  13.816  0.4603 -0.5106  1.5083
 3937SOL    HW223445   4.620   2.804  13.807  0.2150  0.9843 -1.9648
 3938SOL     OW23446   1.693   1.292  13.127 -0.2651 -0.2893 -0.4454
 3938SOL    HW123447   1.757   1.299  13.199 -0.1289 -1.3115 -0.4644
 3938SOL    HW223448   1.615   1.264  13.174  0.2510 -1.6699 -0.4233
 3939SOL     OW23449   1.164   3.112   2.591 -0.0411  0.1630  0.6900
 3939SOL    HW123450   1.177   3.018   2.580 -1.2171 -0.0048  0.6477
 3939SOL    HW223451   1.105   3.115   2.666 -1.5918  1.4547 -0.5755
 3940SOL     OW23452   4.676   1.539  17.213 -0.7138 -0.8713  0.0980
 3940SOL    HW123453   4.734   1.463  17.212 -0.1927 -0.4825  1.6404
 3940SOL    HW223454   4.736   1.610  17.191 -0.2609 -0.7354  1.7823
 3941SOL     OW23455   2.348   1.990   6.836  0.0333 -0.2701  0.1878
 3941SOL    HW123456   2.259   1.983   6.871  0.1174 -0.4877  0.3507
 3941SOL    HW223457   2.345   2.074   6.789 -2.5588 -0.1472  0.5627
 3942SOL     OW23458   0.211   0.333   0.839  0.2667  0.4993  0.0150
 3942SOL    HW123459   0.165   0.268   0.892  2.0056  0.4283  1.4335
 3942SOL    HW223460   0.157   0.411   0.851 -0.1474  0.6012 -2.4357
 3943SOL     OW23461   3.009   1.982   1.381 -0.0523 -0.0528 -0.6147
 3943SOL    HW123462   3.051   1.912   1.331  1.8820 -0.4307  1.5552
 3943SOL    HW223463   3.085   2.035   1.404 -0.2181 -0.0944  0.0318
 3944SOL     OW23464   3.852   2.674  12.190  0.4755  0.0021 -0.0659
 3944SOL    HW123465   3.868   2.763  12.221 -0.8271 -0.1597  1.0427
 3944SOL    HW223466   3.822   2.696  12.102  3.4873  3.1151 -0.3137
 3945SOL     OW23467   4.583   3.896   4.661  0.0441 -0.0323 -0.0453
 3945SOL    HW123468   4.493   3.891   4.629 -0.3200  0.6311  0.8872
 3945SOL    HW223469   4.600   3.988   4.681  0.0940  0.7076 -3.3782
 3946SOL     OW23470   4.662   2.772  13.360 -0.6957 -0.1862 -0.4196
 3946SOL    HW123471   4.723   2.700  13.345 -2.3052 -1.1697 -2.4003
 3946SOL    HW223472   4.712   2.836  13.410  0.5746 -1.0221 -0.6310
 3947SOL     OW23473   1.362   2.912   5.440  0.6094  0.2816 -0.0666
 3947SOL    HW123474   1.298   2.854   5.482 -0.4415  3.3209  2.5107
 3947SOL    HW223475   1.345   2.885   5.349 -1.5453  0.6717  0.2037
 3948SOL     OW23476   0.893   0.168   6.062 -0.1003  0.0358 -0.1527
 3948SOL    HW123477   0.922   0.107   6.130  0.8114  1.2778  0.5764
 3948SOL    HW223478   0.799   0.151   6.052 -0.0683  0.8331 -1.7278
 3949SOL     OW23479   0.121   1.423   6.116  0.0820  1.3683  0.0445
 3949SOL    HW123480   0.061   1.444   6.188 -1.1671 -0.3695 -0.4877
 3949SOL    HW223481   0.128   1.329   6.131 -0.5788  1.2191 -0.5279
 3950SOL     OW23482   1.148   2.908   5.855 -0.0170  0.0582 -0.3861
 3950SOL    HW123483   1.201   2.828   5.846  0.0346  0.1404 -0.8358
 3950SOL    HW223484   1.177   2.946   5.937  0.6398 -1.2603 -0.0137
 3951SOL     OW23485   1.617   4.153   2.244  0.4275  0.0160 -0.2391
 3951SOL    HW123486   1.532   4.121   2.275  0.9797  0.1494  1.4449
 3951SOL    HW223487   1.616   4.150   2.149  1.0250 -2.0508 -0.1746
 3952SOL     OW23488   2.856   1.354  16.755 -0.2008 -0.3417 -0.0791
 3952SOL    HW123489   2.879   1.355  16.662  0.2246  0.7229  0.0333
 3952SOL    HW223490   2.766   1.382  16.738 -0.1617  1.3409  2.4370
 3953SOL     OW23491   0.777   0.827   6.643 -0.1373  0.7204 -1.2698
 3953SOL    HW123492   0.709   0.881   6.683  2.4256  1.0021  2.7781
 3953SOL    HW223493   0.811   0.889   6.578  0.8838  0.4797 -0.9614
 3954SOL     OW23494   0.554   2.595   8.750 -0.2973 -0.2568  0.7114
 3954SOL    HW123495   0.526   2.505   8.736  0.5234 -0.7971  2.4914
 3954SOL    HW223496   0.592   2.610   8.663  0.1811 -0.2481  0.9205
 3955SOL     OW23497   1.349   2.590   9.565 -0.8392 -0.3493  0.1853
 3955SOL    HW123498   1.283   2.640   9.516  0.2186 -0.8398 -1.7252
 3955SOL    HW223499   1.362   2.507   9.519  0.7645 -0.1052  0.2081
 3956SOL     OW23500   4.025   0.732   8.011 -0.1987 -0.0452 -0.2433
 3956SOL    HW123501   3.973   0.773   8.080  2.7923  2.0758  0.7489
 3956SOL    HW223502   3.994   0.643   8.000 -0.4106 -0.0067  0.0555
 3957SOL     OW23503   2.891   4.446  14.885  0.1857  0.2931 -0.5967
 3957SOL    HW123504   2.887   4.429  14.979 -2.1754 -0.0606 -0.7761
 3957SOL    HW223505   2.801   4.425  14.860  0.7928 -0.9392 -1.7705
 3958SOL     OW23506   2.372   3.839   8.514  0.1173 -0.2500 -0.2013
 3958SOL    HW123507   2.451   3.835   8.567  0.4724 -0.2175 -0.7333
 3958SOL    HW223508   2.374   3.932   8.492  0.4980 -1.0814 -3.6742
 3959SOL     OW23509   0.352   0.614   7.262  0.4145 -0.6322  0.1293
 3959SOL    HW123510   0.418   0.682   7.273 -0.8081  0.2596  1.9897
 3959SOL    HW223511   0.396   0.555   7.201  1.4297 -1.3709  1.5813
 3960SOL     OW23512   3.049   1.889   0.725  0.5930  0.0334  0.3888
 3960SOL    HW123513   3.144   1.890   0.713  0.9044  3.0864  2.9982
 3960SOL    HW223514   3.041   1.872   0.819  0.4497  0.6377  0.4861
 3961SOL     OW23515   3.694   1.139   3.963 -0.5736  0.1880 -0.5213
 3961SOL    HW123516   3.638   1.062   3.955  0.8890 -0.8750 -0.4991
 3961SOL    HW223517   3.777   1.101   3.990 -1.1495 -2.4274 -2.4377
 3962SOL     OW23518   0.376   0.991   8.704  0.3832 -0.1910  0.6395
 3962SOL    HW123519   0.304   0.947   8.659  1.4771 -0.4654 -0.8282
 3962SOL    HW223520   0.423   1.032   8.632 -0.2083  1.5999  1.2908
 3963SOL     OW23521   3.006   2.465  14.681  0.1167  0.4743 -0.7125
 3963SOL    HW123522   2.938   2.444  14.617  1.4347  2.0001 -2.6034
 3963SOL    HW223523   3.031   2.380  14.718 -1.2653  0.1713 -0.4807
 3964SOL     OW23524   2.878   3.257   5.215  0.2628 -0.8501 -0.8040
 3964SOL    HW123525   2.896   3.332   5.158  0.5311 -0.5251 -0.2920
 3964SOL    HW223526   2.881   3.182   5.155 -0.0833  0.2780 -2.2327
 3965SOL     OW23527   1.193   0.184  14.024 -0.3067  0.5389 -0.1709
 3965SOL    HW123528   1.243   0.182  14.105  0.8873  2.1492 -0.8787
 3965SOL    HW223529   1.261   0.149  13.967 -0.5541  1.1903 -0.8669
 3966SOL     OW23530   0.386   1.681   1.453 -0.3777  0.0121  0.4512
 3966SOL    HW123531   0.306   1.657   1.499  0.9137  1.6896  3.6538
 3966SOL    HW223532   0.358   1.684   1.362 -1.2611 -2.0177  0.6650
 3967SOL     OW23533   1.631   1.366   0.113 -0.0871  0.5204 -0.4665
 3967SOL    HW123534   1.655   1.453   0.144 -0.9059 -0.1625  2.0693
 3967SOL    HW223535   1.718   1.326   0.112 -0.6337 -0.6478 -1.2552
 3968SOL     OW23536   3.480   1.529   3.176 -0.0724  0.4129  0.1703
 3968SOL    HW123537   3.496   1.613   3.132  2.4409  0.4744  1.1810
 3968SOL    HW223538   3.395   1.504   3.140  1.0653 -2.2981 -0.6920
 3969SOL     OW23539   0.278   1.135  12.611  0.1096 -0.3963 -0.1478
 3969SOL    HW123540   0.285   1.153  12.517 -2.3139 -1.2628 -0.5031
 3969SOL    HW223541   0.325   1.211  12.646  0.5077 -0.4405 -0.5908
 3970SOL     OW23542   0.442   4.666  11.785 -0.1055  0.6552  0.3794
 3970SOL    HW123543   0.411   4.585  11.744 -0.6286  0.5233  1.0342
 3970SOL    HW223544   0.460   4.636  11.874 -0.0335  3.5679  1.3558
 3971SOL     OW23545   2.911   1.508   5.243 -0.3344  0.3567 -0.1971
 3971SOL    HW123546   2.986   1.488   5.187  0.1045  1.3071  0.0660
 3971SOL    HW223547   2.880   1.593   5.212 -1.7698 -0.5981 -1.4472
 3972SOL     OW23548   1.299   4.095   9.714 -0.2533 -0.1959  0.1358
 3972SOL    HW123549   1.221   4.126   9.759 -0.0195 -0.1995  0.5473
 3972SOL    HW223550   1.343   4.180   9.702 -1.5294  0.6129  1.1632
 3973SOL     OW23551   3.664   0.083   5.842  0.4010  0.0793 -0.0981
 3973SOL    HW123552   3.636   0.079   5.934  0.3586 -0.1726 -0.1210
 3973SOL    HW223553   3.661   4.729   5.811 -0.1259 -0.2089  0.7819
 3974SOL     OW23554   0.207   2.357   7.126 -0.2151  0.4114  0.2673
 3974SOL    HW123555   0.185   2.333   7.036 -0.4383 -1.7187  0.8731
 3974SOL    HW223556   0.293   2.316   7.137  0.7670  2.0804 -1.1531
 3975SOL     OW23557   1.783   0.003   9.738  0.4022 -0.3991 -0.5455
 3975SOL    HW123558   1.864   0.054   9.744 -0.2643  0.4047  1.4266
 3975SOL    HW223559   1.724   0.053   9.680 -0.3350 -0.3161  0.2712
 3976SOL     OW23560   2.663   2.318   8.887 -0.0286  0.1924  0.6069
 3976SOL    HW123561   2.575   2.302   8.921 -0.2259 -0.1433 -0.0657
 3976SOL    HW223562   2.706   2.273   8.959 -0.3016 -1.1569 -0.0868
 3977SOL     OW23563   2.632   1.587   2.412 -0.4282 -0.0515 -0.4499
 3977SOL    HW123564   2.616   1.681   2.414 -1.3593 -0.2352  0.5458
 3977SOL    HW223565   2.660   1.557   2.498 -0.8618 -0.5916 -0.4931
 3978SOL     OW23566   2.599   4.147   2.606 -0.8039  0.1420 -0.3256
 3978SOL    HW123567   2.666   4.114   2.666 -1.3638 -1.9107 -0.8207
 3978SOL    HW223568   2.656   4.196   2.547 -0.5219 -1.5627 -1.4986
 3979SOL     OW23569   0.878   3.977   6.991  0.3363 -0.3595 -0.0307
 3979SOL    HW123570   0.838   3.934   7.067 -0.1074 -0.2793 -0.2185
 3979SOL    HW223571   0.896   3.907   6.929  1.8245 -1.3031  1.4734
 3980SOL     OW23572   4.120   4.692   8.281  0.1736 -0.0408 -0.0717
 3980SOL    HW123573   4.166   4.616   8.317  0.5400  0.0680 -0.3060
 3980SOL    HW223574   4.150   4.692   8.190  3.6540  2.2669  1.0765
 3981SOL     OW23575   2.840   1.876   6.094 -0.0147  0.0348 -0.5627
 3981SOL    HW123576   2.839   1.861   6.000  0.3148  1.0986 -0.7333
 3981SOL    HW223577   2.773   1.944   6.098  0.1916  0.2891 -1.4869
 3982SOL     OW23578   2.191   2.750  11.219  0.7933  0.1509 -0.6035
 3982SOL    HW123579   2.218   2.783  11.133 -0.1850  2.2656 -0.0906
 3982SOL    HW223580   2.134   2.677  11.196  0.0705  1.1670 -2.0318
 3983SOL     OW23581   2.787   1.629   7.379  0.1081 -0.1955  0.2497
 3983SOL    HW123582   2.821   1.551   7.337  1.3679  0.4688  0.0273
 3983SOL    HW223583   2.710   1.651   7.325  0.7305 -2.1138 -1.3844
 3984SOL     OW23584   2.261   1.839  14.458  0.5282 -0.1061 -0.1755
 3984SOL    HW123585   2.225   1.769  14.512 -1.6150 -0.4084 -2.0115
 3984SOL    HW223586   2.332   1.792  14.414  1.5541 -0.6704  2.0473
 3985SOL     OW23587   3.372   1.648   8.112 -0.0099  0.2704 -0.1163
 3985SOL    HW123588   3.398   1.674   8.201 -0.2820  0.4897 -0.1011
 3985SOL    HW223589   3.335   1.560   8.116  0.1237  0.2836  1.4100
 3986SOL     OW23590   2.266   2.925  12.023 -1.2814  0.3816  0.6668
 3986SOL    HW123591   2.302   2.969  12.100 -2.2546  0.8498  0.8513
 3986SOL    HW223592   2.286   2.999  11.966 -0.2815  0.6909  1.4213
 3987SOL     OW23593   2.453   4.349   0.623  0.1604  0.0218  0.1163
 3987SOL    HW123594   2.364   4.314   0.625 -0.7213  2.3131  0.8931
 3987SOL    HW223595   2.441   4.414   0.692  1.8037 -0.6043  1.0002
 3988SOL     OW23596   0.737   3.093   8.183 -0.1366  0.2104 -0.2742
 3988SOL    HW123597   0.695   3.176   8.162  1.3431  1.2682  1.0288
 3988SOL    HW223598   0.668   3.050   8.233 -0.5386 -0.0879 -1.0811
 3989SOL     OW23599   1.635   0.019  14.984 -0.3499  0.0548  0.4840
 3989SOL    HW123600   1.674   0.103  15.008  1.1061 -0.6943  0.7069
 3989SOL    HW223601   1.720   4.722  14.956 -0.3135  2.2088 -2.0098
 3990SOL     OW23602   4.360   2.933   2.982 -0.0445  0.0397  0.0378
 3990SOL    HW123603   4.362   3.023   2.949 -0.8461  0.3835  0.9440
 3990SOL    HW223604   4.322   2.944   3.069  3.0550 -0.4144  1.4428
 3991SOL     OW23605   4.293   0.681   8.698 -0.4440 -0.3131  0.4583
 3991SOL    HW123606   4.377   0.650   8.731  1.2162  3.4232 -0.2720
 3991SOL    HW223607   4.272   0.764   8.741  1.0306  0.2671  0.0576
 3992SOL     OW23608   1.051   1.806   2.789 -0.1295 -0.4014 -0.0151
 3992SOL    HW123609   1.055   1.846   2.876  0.5419  2.1102 -1.2108
 3992SOL    HW223610   1.122   1.850   2.743  1.3354  0.1575  2.7540
 3993SOL     OW23611   2.167   2.677   1.454  0.2489 -0.2935 -0.1005
 3993SOL    HW123612   2.229   2.722   1.396 -0.1217 -1.5317 -1.4594
 3993SOL    HW223613   2.094   2.740   1.457 -0.5509 -1.1841 -0.8639
 3994SOL     OW23614   3.810   1.427   1.882  0.1276 -0.3461  0.4860
 3994SOL    HW123615   3.837   1.519   1.887 -2.1837  0.3404  0.3964
 3994SOL    HW223616   3.749   1.442   1.954 -1.3695 -0.8859 -0.6778
 3995SOL     OW23617   4.459   0.895   0.473  0.3059 -0.1567 -0.0149
 3995SOL    HW123618   4.364   0.884   0.467  0.5425 -0.7377 -2.8158
 3995SOL    HW223619   4.483   0.864   0.386  2.7473 -0.6113  0.8294
 3996SOL     OW23620   0.219   1.291   1.356  0.4920 -0.5231 -0.4943
 3996SOL    HW123621   0.145   1.251   1.402  0.7308 -1.4254 -0.9091
 3996SOL    HW223622   0.178   1.368   1.316  1.9077  1.0046  0.9818
 3997SOL     OW23623   3.132   2.570   5.393 -0.2269  0.1787 -0.8676
 3997SOL    HW123624   3.051   2.613   5.418  0.1820  0.6965 -0.4300
 3997SOL    HW223625   3.154   2.515   5.469  0.4275  0.5490 -0.7850
 3998SOL     OW23626   0.984   3.402   9.829 -0.4337 -0.0394 -0.5243
 3998SOL    HW123627   1.055   3.460   9.802  0.1261 -1.2945 -1.7597
 3998SOL    HW223628   0.955   3.452   9.905 -1.4596  0.3453 -1.1774
 3999SOL     OW23629   3.055   4.672   2.712  0.2733 -0.5293  0.6784
 3999SOL    HW123630   3.005   0.004   2.670  0.5768 -0.6789  0.0819
 3999SOL    HW223631   2.984   4.634   2.764  1.0056  0.3336  2.3227
 4000SOL     OW23632   3.286   0.151   7.959  0.2532 -0.1877  0.0228
 4000SOL    HW123633   3.275   0.073   7.906  1.2654 -1.0649  1.0979
 4000SOL    HW223634   3.381   0.158   7.955  0.2281  0.6393  0.8225
 4001SOL     OW23635   2.891   1.733   5.085  0.6137  0.0079 -0.2780
 4001SOL    HW123636   2.982   1.756   5.071  0.9410 -0.9324  0.2615
 4001SOL    HW223637   2.867   1.707   4.996  1.4632 -0.2558 -0.4289
 4002SOL     OW23638   0.969   2.645   6.733 -0.0624  0.0807  0.1296
 4002SOL    HW123639   0.902   2.581   6.711  1.8335 -1.4218 -1.2783
 4002SOL    HW223640   0.932   2.715   6.679 -2.8069 -0.8221  0.8754
 4003SOL     OW23641   0.787   3.664   1.715  0.8461 -0.9512 -1.0243
 4003SOL    HW123642   0.782   3.756   1.738  1.4293 -1.4219  0.9711
 4003SOL    HW223643   0.709   3.651   1.661 -0.0457  0.4605 -0.0453
 4004SOL     OW23644   1.994   0.803   7.589  0.0199  0.3865  0.3229
 4004SOL    HW123645   1.977   0.897   7.580 -0.4967  0.1537 -1.2622
 4004SOL    HW223646   2.077   0.803   7.542  0.0802 -1.0129  0.4452
 4005SOL     OW23647   2.593   4.494   5.507 -0.0518 -0.1901 -0.3179
 4005SOL    HW123648   2.646   4.436   5.451 -0.4743  0.1571 -1.0832
 4005SOL    HW223649   2.519   4.518   5.452 -0.8901  0.3480  1.0654
 4006SOL     OW23650   3.007   4.525   8.820 -0.0766 -0.5009 -0.0450
 4006SOL    HW123651   3.089   4.482   8.796 -0.1446 -0.5239 -0.2413
 4006SOL    HW223652   2.972   4.443   8.856  0.3731 -1.7454 -2.4137
 4007SOL     OW23653   3.477   3.470   6.256 -0.0850  0.2005  0.0743
 4007SOL    HW123654   3.441   3.394   6.209 -2.5720 -0.3745  2.9045
 4007SOL    HW223655   3.395   3.512   6.283 -0.5837 -1.7938  1.5984
 4008SOL     OW23656   1.795   3.885   9.102 -0.1369 -0.0320  0.4761
 4008SOL    HW123657   1.773   3.859   9.013 -2.5870  0.1475  1.0365
 4008SOL    HW223658   1.849   3.962   9.087 -0.9163 -0.3476 -3.8786
 4009SOL     OW23659   4.052   4.003  12.267  0.1038  0.2476  0.4156
 4009SOL    HW123660   4.056   3.984  12.173 -0.9771  2.1879 -0.0038
 4009SOL    HW223661   3.989   4.074  12.271 -0.9441 -0.7091  0.9791
 4010SOL     OW23662   1.349   2.206  13.289  0.5623 -0.1262  0.0406
 4010SOL    HW123663   1.328   2.148  13.362  0.3569 -0.2387 -0.1080
 4010SOL    HW223664   1.382   2.137  13.231 -0.3125  0.2421 -0.8907
 4011SOL     OW23665   2.084   0.436   5.285  0.0071 -0.5095  0.1016
 4011SOL    HW123666   2.056   0.506   5.225 -0.3354 -2.2882 -1.7896
 4011SOL    HW223667   2.137   0.486   5.347 -0.9506 -0.3513  0.7917
 4012SOL     OW23668   2.827   3.742   5.839 -0.5237 -0.2214  0.3996
 4012SOL    HW123669   2.844   3.795   5.762 -0.3930  1.7295  1.7632
 4012SOL    HW223670   2.757   3.688   5.803 -0.6324 -0.5248  1.0526
 4013SOL     OW23671   0.586   2.001  15.667  0.4051 -0.1061 -0.4567
 4013SOL    HW123672   0.644   1.963  15.733 -1.5850 -1.6069  0.4276
 4013SOL    HW223673   0.504   2.013  15.715 -0.4561  1.5950 -2.3881
 4014SOL     OW23674   0.716   3.317   2.563 -0.1104  0.1616 -0.5876
 4014SOL    HW123675   0.667   3.389   2.522  1.6127  2.9105  2.2334
 4014SOL    HW223676   0.691   3.248   2.502 -1.2561  1.6094 -1.7566
 4015SOL     OW23677   2.920   3.768   9.473  0.5934  0.1146 -0.3169
 4015SOL    HW123678   2.946   3.676   9.474  1.2108  0.2940 -0.2419
 4015SOL    HW223679   2.829   3.754   9.500  0.4649  2.8585  0.7147
 4016SOL     OW23680   4.716   1.363   7.658 -0.2502  0.2190  0.5353
 4016SOL    HW123681   4.723   1.289   7.597  0.6194  0.4682  0.3285
 4016SOL    HW223682   0.063   1.401   7.631 -0.2985 -0.6639 -0.8935
 4017SOL     OW23683   1.117   4.529   5.337 -0.2881  0.6405 -0.0467
 4017SOL    HW123684   1.133   4.586   5.262 -1.4151 -0.1121 -0.8715
 4017SOL    HW223685   1.054   4.583   5.384 -0.8774  0.3498 -0.4982
 4018SOL     OW23686   2.883   2.359   5.139 -0.1292 -0.2639 -0.1497
 4018SOL    HW123687   2.903   2.314   5.221  2.9815  1.0330 -0.2039
 4018SOL    HW223688   2.885   2.282   5.083 -3.4219 -1.3647  1.2129
 4019SOL     OW23689   2.231   1.918   5.110  0.1431 -0.0548  0.3007
 4019SOL    HW123690   2.243   1.925   5.204  2.5291  2.3407 -0.1631
 4019SOL    HW223691   2.308   1.864   5.092 -0.1165 -0.0334 -0.9045
 4020SOL     OW23692   4.721   3.694   5.394  0.2405  0.1445  0.4270
 4020SOL    HW123693   4.730   3.601   5.374  0.2621 -0.1110  1.5858
 4020SOL    HW223694   4.677   3.686   5.479  1.6567  2.1916  1.3466
 4021SOL     OW23695   4.558   2.395   4.313 -0.0452 -0.1821  0.4403
 4021SOL    HW123696   4.591   2.423   4.399  0.5879  2.4667 -0.6789
 4021SOL    HW223697   4.479   2.450   4.311  0.6542  0.7105 -2.0751
 4022SOL     OW23698   0.848   1.246   6.776  0.0926  0.6409  0.4553
 4022SOL    HW123699   0.895   1.248   6.692 -1.5093  0.9763 -0.4224
 4022SOL    HW223700   0.824   1.338   6.785  0.4976  0.7591  0.3523
 4023SOL     OW23701   1.582   1.247   4.883 -0.0708 -0.5312 -0.3429
 4023SOL    HW123702   1.671   1.237   4.916  0.3219  2.6896 -0.4267
 4023SOL    HW223703   1.594   1.314   4.816 -2.2129 -0.7930 -0.9721
 4024SOL     OW23704   3.454   0.805   1.969  0.0368 -0.1314 -0.1568
 4024SOL    HW123705   3.388   0.736   1.970 -1.8350  1.6722  1.1084
 4024SOL    HW223706   3.472   0.833   1.879  0.5152  0.2111  0.0425
 4025SOL     OW23707   3.857   0.017   1.528 -1.1350 -0.4409 -0.0853
 4025SOL    HW123708   3.798   4.715   1.592 -1.2999  2.2184  1.3761
 4025SOL    HW223709   3.940   0.003   1.574  0.0411  3.8990 -0.8695
 4026SOL     OW23710   0.425   1.141  14.579 -0.0636  0.2782 -0.4008
 4026SOL    HW123711   0.399   1.232  14.563 -0.9561  0.1043  0.0196
 4026SOL    HW223712   0.414   1.143  14.674  0.8227  1.1414 -0.3288
 4027SOL     OW23713   1.991   2.470   6.024  0.2559 -0.3846  0.1750
 4027SOL    HW123714   1.929   2.443   5.956  0.8822 -0.1000 -0.5034
 4027SOL    HW223715   1.945   2.468   6.108  1.5017  0.8400  0.8826
 4028SOL     OW23716   1.597   2.949   4.684  0.1615 -0.1432  0.6116
 4028SOL    HW123717   1.549   2.898   4.750 -1.9398  1.9135  0.6786
 4028SOL    HW223718   1.577   2.899   4.605  2.6606 -0.0144 -0.0833
 4029SOL     OW23719   4.617   3.463   8.576  0.3909 -0.1284  0.0477
 4029SOL    HW123720   4.633   3.480   8.669 -0.3569  2.7331 -0.3646
 4029SOL    HW223721   4.705   3.480   8.542  0.4734  0.0738  0.3662
 4030SOL     OW23722   3.036   4.648   1.904 -0.2876  0.3370 -0.0704
 4030SOL    HW123723   3.073   4.613   1.824 -2.0678  2.2659 -1.7485
 4030SOL    HW223724   3.002   4.735   1.884 -0.1824  0.2265 -0.7227
 4031SOL     OW23725   2.405   1.536   9.137  0.2719  0.4985  0.4842
 4031SOL    HW123726   2.404   1.522   9.042  0.5979 -1.0466  0.7087
 4031SOL    HW223727   2.457   1.459   9.161 -0.4572  0.0322  0.5754
 4032SOL     OW23728   3.689   2.784   4.154  0.7059  0.3837 -0.1070
 4032SOL    HW123729   3.694   2.879   4.167 -0.3997  0.4933 -0.5751
 4032SOL    HW223730   3.598   2.778   4.127  0.4298  1.2047  0.6427
 4033SOL     OW23731   3.168   2.837   5.765  0.0822 -0.2654 -0.2793
 4033SOL    HW123732   3.133   2.749   5.749 -0.7263  0.1392 -0.7052
 4033SOL    HW223733   3.157   2.843   5.860 -1.8663 -1.7417 -0.3958
 4034SOL     OW23734   3.064   1.938   5.391 -0.8358 -0.2755  0.6825
 4034SOL    HW123735   3.120   1.924   5.314 -2.2194 -3.7646  0.2740
 4034SOL    HW223736   3.117   1.902   5.462  0.8619 -0.6795 -0.7868
 4035SOL     OW23737   2.191   1.757   8.441 -0.1099  0.0780 -0.0314
 4035SOL    HW123738   2.196   1.853   8.433 -1.4019  0.0459 -1.2755
 4035SOL    HW223739   2.138   1.751   8.520  0.1168 -0.5838  0.0634
 4036SOL     OW23740   2.035   1.265   3.885 -0.1981  0.6309  0.1615
 4036SOL    HW123741   2.057   1.335   3.824  1.4310 -0.3331 -0.3559
 4036SOL    HW223742   1.951   1.239   3.847 -0.8053 -0.3754  2.1744
 4037SOL     OW23743   2.928   3.348   5.819  0.0789  0.2677 -0.0220
 4037SOL    HW123744   2.851   3.390   5.782  1.0653  2.3711  0.2739
 4037SOL    HW223745   2.888   3.304   5.894 -0.3593 -0.5593 -0.7398
 4038SOL     OW23746   0.604   3.017   8.583  0.3174 -0.2850 -0.0913
 4038SOL    HW123747   0.600   3.068   8.663 -0.3145  0.8312 -0.8423
 4038SOL    HW223748   0.511   3.004   8.564  0.4850  0.6323 -1.5324
 4039SOL     OW23749   0.506   4.298   1.123  0.3084 -0.2906  0.1075
 4039SOL    HW123750   0.457   4.345   1.055  0.1013 -0.3635  0.2036
 4039SOL    HW223751   0.438   4.253   1.174  0.2346  0.9916  1.1200
 4040SOL     OW23752   4.377   4.673  12.192 -0.5769 -0.4580 -0.2462
 4040SOL    HW123753   4.281   4.678  12.193 -0.6210 -1.5795  0.9441
 4040SOL    HW223754   4.407   4.705  12.107  1.2094  0.0954  0.5927
 4041SOL     OW23755   4.283   3.598   8.553 -0.4678  0.1110  0.5459
 4041SOL    HW123756   4.221   3.659   8.594 -0.6116  0.6408 -0.4668
 4041SOL    HW223757   4.367   3.636   8.579 -0.0267 -0.4017 -0.1427
 4042SOL     OW23758   1.844   0.282  11.589 -0.1952  0.0105 -0.1401
 4042SOL    HW123759   1.751   0.297  11.570 -0.0313 -0.9014 -1.6565
 4042SOL    HW223760   1.860   0.363  11.638  1.1237 -0.3463  0.0276
 4043SOL     OW23761   4.035   0.373  16.315 -0.2826  0.0122  0.2578
 4043SOL    HW123762   3.952   0.421  16.316  0.4686  1.2769  3.6078
 4043SOL    HW223763   4.035   0.304  16.381  0.0540  1.9742  2.3004
 4044SOL     OW23764   4.319   0.083   0.934 -0.3337 -0.5629  0.3571
 4044SOL    HW123765   4.355   0.163   0.972 -1.6200  0.5676 -0.8034
 4044SOL    HW223766   4.397   0.027   0.936 -0.9914 -1.4748  0.7475
 4045SOL     OW23767   0.686   3.496   4.710  0.5853  0.6100 -0.0547
 4045SOL    HW123768   0.689   3.406   4.679  0.5670 -0.0781  1.9295
 4045SOL    HW223769   0.775   3.523   4.689  0.4244  1.6115  0.5220
 4046SOL     OW23770   2.759   0.695   8.030  0.2192 -0.0896 -0.5924
 4046SOL    HW123771   2.712   0.677   7.949 -1.7449 -2.4696  1.0475
 4046SOL    HW223772   2.846   0.668   7.999  1.1076  1.4563  0.5173
 4047SOL     OW23773   0.224   1.280  10.832  0.6781 -0.2723  0.2358
 4047SOL    HW123774   0.244   1.366  10.793 -1.2089  0.5844  1.1687
 4047SOL    HW223775   0.308   1.257  10.873  0.2774 -1.1471  0.5456
 4048SOL     OW23776   1.768   2.626   0.124  0.2929 -0.4487 -0.4725
 4048SOL    HW123777   1.757   2.583   0.039  2.3587  0.0937 -1.0215
 4048SOL    HW223778   1.792   2.713   0.092  1.2648 -1.2566 -1.9271
 4049SOL     OW23779   1.694   0.903   7.965  0.1542  0.5501 -0.0931
 4049SOL    HW123780   1.685   0.998   7.961 -1.1662  0.4570  0.6515
 4049SOL    HW223781   1.710   0.883   8.057 -0.0072  1.5940  0.1664
 4050SOL     OW23782   0.037   4.321  14.179 -0.1400 -0.6305 -0.5316
 4050SOL    HW123783   0.005   4.380  14.111 -0.8309 -0.2985  0.0760
 4050SOL    HW223784   0.112   4.374  14.208 -1.3105  0.0727  1.2333
 4051SOL     OW23785   2.401   2.552   6.549 -0.4456  0.1041  0.1349
 4051SOL    HW123786   2.349   2.603   6.487 -2.1073  1.0267  2.2905
 4051SOL    HW223787   2.461   2.618   6.584  1.6515 -1.5474 -0.3397
 4052SOL     OW23788   3.056   3.795   5.493 -0.4304 -0.2593 -0.0048
 4052SOL    HW123789   2.969   3.834   5.494  0.4831  1.7385  1.3677
 4052SOL    HW223790   3.099   3.859   5.550 -0.3496 -1.4236  1.2461
 4053SOL     OW23791   3.207   2.202  16.160 -0.6431 -0.0384  0.5241
 4053SOL    HW123792   3.238   2.290  16.181 -1.1096  0.1347  0.4891
 4053SOL    HW223793   3.284   2.167  16.115  0.1345  1.2669  0.8390
 4054SOL     OW23794   3.402   4.065   7.720  0.5051  0.1493  0.2482
 4054SOL    HW123795   3.428   4.067   7.812  1.2820 -0.3841  0.0421
 4054SOL    HW223796   3.367   4.152   7.703 -0.3694 -0.3749 -0.6800
 4055SOL     OW23797   3.120   4.253  12.347  0.2917  0.5424 -0.3376
 4055SOL    HW123798   3.130   4.342  12.314  0.9837  0.4896 -0.2660
 4055SOL    HW223799   3.198   4.254  12.403 -0.1577  1.7112  0.2642
 4056SOL     OW23800   0.035   3.396  12.754  0.3441 -0.1832 -0.1453
 4056SOL    HW123801   0.023   3.302  12.742 -1.1761  0.0690 -0.5971
 4056SOL    HW223802   0.004   3.411  12.844 -0.2354  0.8884 -0.5303
 4057SOL     OW23803   1.184   0.590   7.079  0.3299 -0.1033  0.2714
 4057SOL    HW123804   1.096   0.561   7.099  0.1684  0.3713  0.2418
 4057SOL    HW223805   1.176   0.685   7.086  0.9934 -0.0331  0.1654
 4058SOL     OW23806   1.216   4.422  11.081 -0.2431 -0.1437 -1.1492
 4058SOL    HW123807   1.206   4.395  11.172  0.1530  2.4268 -0.3347
 4058SOL    HW223808   1.286   4.488  11.079  0.3033 -0.7048 -0.6317
 4059SOL     OW23809   4.639   1.195   3.938  0.6615 -0.3757  0.9600
 4059SOL    HW123810   4.707   1.210   4.003  0.9968  0.7820  0.3379
 4059SOL    HW223811   4.574   1.139   3.980  0.3089  0.2989  1.3106
 4060SOL     OW23812   1.477   0.553  13.753 -0.4872 -0.2741  0.1352
 4060SOL    HW123813   1.465   0.626  13.814  1.9816 -0.8710  1.3662
 4060SOL    HW223814   1.416   0.490  13.792 -0.7001  0.1626  0.5059
 4061SOL     OW23815   1.324   0.889   6.328 -0.7640  0.6762  0.0948
 4061SOL    HW123816   1.240   0.848   6.306  0.0821 -0.6075 -0.7584
 4061SOL    HW223817   1.298   0.951   6.396 -0.1958 -0.4897  1.3681
 4062SOL     OW23818   1.015   1.924   3.030 -0.3246  0.3050 -0.2236
 4062SOL    HW123819   1.068   1.955   3.103 -1.1968  1.2793 -0.0099
 4062SOL    HW223820   0.933   1.966   3.057  0.1350  1.7996 -1.1617
 4063SOL     OW23821   3.990   2.763   2.128  0.4394  0.3558 -0.0611
 4063SOL    HW123822   4.066   2.726   2.082 -0.5881 -1.6462 -0.1300
 4063SOL    HW223823   3.917   2.714   2.091  0.2770  1.9546 -1.9041
 4064SOL     OW23824   2.155   2.925   1.719 -0.1989  0.4219 -0.4584
 4064SOL    HW123825   2.091   2.987   1.753  0.3402  0.8933 -0.3112
 4064SOL    HW223826   2.098   2.848   1.723  2.2800 -1.4440 -0.8656
 4065SOL     OW23827   1.443   4.131   1.812 -0.2543  0.0462  0.3472
 4065SOL    HW123828   1.412   4.060   1.867  0.7884 -1.4524 -0.9718
 4065SOL    HW223829   1.361   4.161   1.772  0.5530  1.3149 -0.3826
 4066SOL     OW23830   4.444   3.242   7.790  0.2349 -0.0034  0.1996
 4066SOL    HW123831   4.525   3.264   7.836  1.1434 -2.8012 -0.0312
 4066SOL    HW223832   4.479   3.232   7.702  1.0794 -2.8390  0.8508
 4067SOL     OW23833   0.969   3.999   3.407  0.0698  0.2781 -0.0823
 4067SOL    HW123834   1.065   3.996   3.409  0.1320  1.2499 -1.5581
 4067SOL    HW223835   0.956   3.950   3.326  0.1675  0.0113  0.0636
 4068SOL     OW23836   3.754   4.484  12.403  0.1599 -0.4516  0.3239
 4068SOL    HW123837   3.704   4.409  12.370 -0.5925  0.0375  0.3547
 4068SOL    HW223838   3.762   4.521  12.315 -0.5529 -0.1206  0.3975
 4069SOL     OW23839   2.650   1.219  13.502 -0.4970 -0.7486 -0.6841
 4069SOL    HW123840   2.735   1.224  13.545 -1.4000 -2.3491  1.2808
 4069SOL    HW223841   2.621   1.311  13.499 -0.7706 -0.7398  1.9937
 4070SOL     OW23842   1.448   0.208   5.978  0.5660  0.1769 -0.1827
 4070SOL    HW123843   1.396   0.250   6.046 -1.4142 -2.6523  0.0761
 4070SOL    HW223844   1.396   0.129   5.962 -1.9759  1.4740  1.7761
 4071SOL     OW23845   2.404   0.381   6.712 -0.2057  0.0545 -0.2994
 4071SOL    HW123846   2.312   0.357   6.723 -1.0507  2.2321 -2.6402
 4071SOL    HW223847   2.448   0.296   6.707 -1.6272 -0.6369 -1.2952
 4072SOL     OW23848   2.212   0.447  15.074 -0.0017  0.1561  0.5203
 4072SOL    HW123849   2.268   0.369  15.068  0.3452  0.3014  1.8088
 4072SOL    HW223850   2.268   0.504  15.127  2.0335  0.0152 -1.5108
 4073SOL     OW23851   0.306   0.516   2.013  0.4415  0.2101 -0.1978
 4073SOL    HW123852   0.395   0.496   2.042 -0.0554 -1.7060  0.0235
 4073SOL    HW223853   0.326   0.552   1.927  1.0719 -0.9801 -0.5340
 4074SOL     OW23854   3.922   0.310   2.067  0.5379 -0.6588 -0.1536
 4074SOL    HW123855   3.842   0.362   2.062 -0.9417 -2.8173  1.2015
 4074SOL    HW223856   3.903   0.241   2.003 -2.6498  1.0949 -1.0959
 4075SOL     OW23857   1.364   3.178  13.484  0.2187 -0.2034  0.3550
 4075SOL    HW123858   1.294   3.243  13.473  0.9334  0.3255 -1.1355
 4075SOL    HW223859   1.437   3.218  13.531  0.2766  2.3430 -1.8528
 4076SOL     OW23860   0.649   3.345   8.119 -0.2761 -0.3849  0.6109
 4076SOL    HW123861   0.633   3.408   8.190 -1.7934 -0.1319  0.0460
 4076SOL    HW223862   0.678   3.406   8.051 -0.7747 -0.3228  0.4559
 4077SOL     OW23863   1.459   2.400  13.485 -0.0499  0.0004 -0.0609
 4077SOL    HW123864   1.417   2.425  13.403  1.1585  0.4151 -0.5461
 4077SOL    HW223865   1.384   2.407  13.544 -1.6276 -2.4124 -1.7882
 4078SOL     OW23866   3.751   2.649   4.901  0.3008  0.6483 -0.0618
 4078SOL    HW123867   3.720   2.714   4.838 -0.6598 -0.2678 -0.5299
 4078SOL    HW223868   3.842   2.646   4.872 -0.0578  0.0625 -1.1385
 4079SOL     OW23869   0.068   0.397  15.483 -0.1684  0.0049  0.6236
 4079SOL    HW123870   0.024   0.369  15.402  0.5709 -0.3275  0.3331
 4079SOL    HW223871   0.143   0.448  15.450  0.7665 -1.6596  0.1746
 4080SOL     OW23872   2.028   2.010  10.010 -0.5888 -0.2615  0.0457
 4080SOL    HW123873   2.115   2.032  10.043 -0.7282 -1.0036  0.9117
 4080SOL    HW223874   2.032   1.917  10.031 -1.9102 -0.6820 -1.5856
 4081SOL     OW23875   4.360   2.168  16.962  0.3709  0.1120 -0.6813
 4081SOL    HW123876   4.451   2.161  16.990 -0.2425  1.8295  1.7370
 4081SOL    HW223877   4.324   2.246  17.006  0.1035 -1.3485  1.7082
 4082SOL     OW23878   4.390   1.846   7.985 -0.4545  0.4858 -0.4133
 4082SOL    HW123879   4.411   1.753   7.995  0.1928  0.6697 -0.0797
 4082SOL    HW223880   4.474   1.878   7.953  0.6734 -0.6311  1.3887
 4083SOL     OW23881   4.441   3.821   4.197  0.1871  0.2328 -0.0611
 4083SOL    HW123882   4.400   3.738   4.221  0.7950  0.2056  0.8908
 4083SOL    HW223883   4.432   3.872   4.278 -0.1818  1.6141 -0.9657
 4084SOL     OW23884   0.588   3.861  15.353 -0.2123  0.1055  0.8351
 4084SOL    HW123885   0.609   3.933  15.412 -1.3917  0.9903  0.1661
 4084SOL    HW223886   0.495   3.883  15.346  0.2441  0.6400 -3.6978
 4085SOL     OW23887   1.406   2.364   8.616  0.4107 -0.0743  0.7908
 4085SOL    HW123888   1.425   2.335   8.705  1.6511 -1.0652  0.2047
 4085SOL    HW223889   1.361   2.447   8.633  0.6602  0.4786 -1.2422
 4086SOL     OW23890   4.623   1.879   2.156 -0.7934  0.1824  0.4861
 4086SOL    HW123891   4.534   1.891   2.121 -0.9105 -0.0595  0.7026
 4086SOL    HW223892   4.650   1.957   2.204 -0.9272  1.3932 -1.3841
 4087SOL     OW23893   0.636   4.685   5.549  0.0307  0.5378  0.2258
 4087SOL    HW123894   0.646   4.714   5.639  1.3582 -0.8632  0.5351
 4087SOL    HW223895   0.565   4.623   5.562  0.6522  0.2630  2.2947
 4088SOL     OW23896   3.009   1.320   5.460 -0.1691 -0.4761  0.0353
 4088SOL    HW123897   2.962   1.392   5.420  0.4763  1.0623  2.0589
 4088SOL    HW223898   2.973   1.249   5.407  1.0018 -1.4896  0.5798
 4089SOL     OW23899   2.261   0.901   3.592 -0.0869 -0.0563  0.5388
 4089SOL    HW123900   2.266   0.833   3.525  0.0791  0.1343  0.3591
 4089SOL    HW223901   2.329   0.866   3.650  0.7050  1.2219  0.3745
 4090SOL     OW23902   2.819   2.689   7.946  0.6306  0.3522  0.4927
 4090SOL    HW123903   2.777   2.770   7.918 -0.6859 -0.4329  0.2328
 4090SOL    HW223904   2.797   2.624   7.879 -0.1162  0.0205  1.0590
 4091SOL     OW23905   1.558   2.041  13.753  0.3531  0.4951 -0.2403
 4091SOL    HW123906   1.613   2.068  13.679 -0.0742  0.8054 -0.4445
 4091SOL    HW223907   1.549   1.951  13.722  3.0505  0.1035  0.1306
 4092SOL     OW23908   4.300   1.804  15.581 -0.3105  0.3874  0.4332
 4092SOL    HW123909   4.224   1.820  15.638  0.4932 -0.3005  1.7045
 4092SOL    HW223910   4.352   1.881  15.605  0.1438  0.2065  0.0282
 4093SOL     OW23911   0.371   0.198   8.783 -0.3273  0.2420 -0.2654
 4093SOL    HW123912   0.449   0.152   8.814 -0.1325  1.2457  0.7190
 4093SOL    HW223913   0.318   0.127   8.748  0.2117 -0.0313 -0.5398
 4094SOL     OW23914   1.614   1.009  13.707 -0.2915 -0.6708 -0.5072
 4094SOL    HW123915   1.600   1.098  13.740 -1.4768 -0.7295 -0.8572
 4094SOL    HW223916   1.679   0.977  13.769 -0.8071  1.4189  1.1164
 4095SOL     OW23917   2.454   2.250  17.536 -0.0737  0.2247  0.2292
 4095SOL    HW123918   2.518   2.226  17.603 -3.6287 -1.1019  3.1255
 4095SOL    HW223919   2.490   2.193  17.468  1.8696  2.0926 -0.3056
 4096SOL     OW23920   2.268   3.748  13.246  0.0442  0.3702 -0.2716
 4096SOL    HW123921   2.212   3.694  13.190  3.3848 -0.6133 -2.6013
 4096SOL    HW223922   2.199   3.792  13.295  1.0091  1.1488  0.3613
 4097SOL     OW23923   2.539   3.538   6.646 -0.5665  0.1184 -0.0422
 4097SOL    HW123924   2.510   3.475   6.711  0.4168 -0.8900 -0.5750
 4097SOL    HW223925   2.459   3.590   6.636  0.6025  1.9383 -0.0047
 4098SOL     OW23926   1.447   0.088   6.569  1.1986 -0.3282  0.0635
 4098SOL    HW123927   1.456   0.166   6.514 -1.8592  0.6625  1.0011
 4098SOL    HW223928   1.396   0.029   6.513  0.8543 -0.9483  1.0380
 4099SOL     OW23929   3.379   1.434   7.148 -0.0852 -0.2366  0.0868
 4099SOL    HW123930   3.298   1.470   7.183  0.2064 -0.7489  1.2856
 4099SOL    HW223931   3.436   1.445   7.224 -0.2989  0.0317  0.2099
 4100SOL     OW23932   4.055   3.882   5.542  0.5403 -0.3360 -0.2600
 4100SOL    HW123933   4.069   3.977   5.547 -0.6320 -0.1056 -1.5746
 4100SOL    HW223934   4.053   3.870   5.637 -0.8206  0.6312 -0.1689
 4101SOL     OW23935   0.686   1.057  17.731  0.0273 -0.5792  0.0577
 4101SOL    HW123936   0.775   1.069  17.697 -0.4043 -0.4765 -1.0515
 4101SOL    HW223937   0.691   1.103   0.069  1.8070 -0.1372 -0.2975
 4102SOL     OW23938   0.537   4.631  15.527 -0.0130  0.0821 -0.4604
 4102SOL    HW123939   0.609   4.684  15.563 -0.0149  0.7165 -1.3748
 4102SOL    HW223940   0.508   4.678  15.448 -2.8321  0.1239  0.6157
 4103SOL     OW23941   2.598   3.110  13.723 -0.4218  0.1543  0.3992
 4103SOL    HW123942   2.519   3.075  13.765 -0.8040  0.3744 -0.1428
 4103SOL    HW223943   2.618   3.038  13.664  1.0054  2.1213 -1.5013
 4104SOL     OW23944   3.139   1.780   3.407  0.2659  0.5291  0.5577
 4104SOL    HW123945   3.231   1.761   3.424  0.5123  0.1014 -1.2273
 4104SOL    HW223946   3.095   1.732   3.477  1.6769 -2.0036 -0.2840
 4105SOL     OW23947   2.860   2.945   5.380  0.6462  0.0858 -0.4989
 4105SOL    HW123948   2.927   2.991   5.430 -1.9494  0.3486  2.7078
 4105SOL    HW223949   2.867   2.979   5.290 -1.5655  1.2456 -0.2364
 4106SOL     OW23950   4.525   0.695   1.389  0.8970 -0.7278 -0.2805
 4106SOL    HW123951   4.517   0.790   1.382  1.1817 -0.5204  2.3893
 4106SOL    HW223952   4.508   0.678   1.481 -0.6583 -0.0646 -0.4403
 4107SOL     OW23953   4.085   2.378   9.230  0.2331  0.4504  0.3237
 4107SOL    HW123954   4.065   2.468   9.257  0.6387  0.7506 -0.3758
 4107SOL    HW223955   4.178   2.388   9.207  0.6374 -0.1249  1.7032
 4108SOL     OW23956   2.833   3.118   3.633  0.2911 -0.0617  0.6912
 4108SOL    HW123957   2.820   3.207   3.664 -0.8162 -0.0478  0.1863
 4108SOL    HW223958   2.778   3.120   3.555 -0.0016 -1.8018  0.8458
 4109SOL     OW23959   2.540   3.055   7.941  0.2743 -0.3321  0.2260
 4109SOL    HW123960   2.574   2.969   7.915 -0.8787 -0.4124 -1.0322
 4109SOL    HW223961   2.458   3.059   7.893  2.0266 -2.3107 -2.9680
 4110SOL     OW23962   2.507   0.119  15.892 -0.2652 -0.0619 -0.0280
 4110SOL    HW123963   2.512   0.068  15.811  0.3934 -0.2123  0.1105
 4110SOL    HW223964   2.465   0.066  15.960 -0.5520 -2.0009 -1.7166
 4111SOL     OW23965   0.683   2.976  10.790 -0.5382 -0.5661  0.1222
 4111SOL    HW123966   0.715   2.925  10.864  2.6794  0.5343 -0.5053
 4111SOL    HW223967   0.594   2.948  10.773 -0.0852 -1.0055 -1.5709
 4112SOL     OW23968   4.086   0.342   0.029 -0.0336  0.3874 -0.1415
 4112SOL    HW123969   4.128   0.335  17.689 -0.7403 -0.1981 -0.4352
 4112SOL    HW223970   4.118   0.427   0.059  0.9822  0.3647 -1.1475
 4113SOL     OW23971   1.573   0.594   5.290  0.0423  0.4674  0.1694
 4113SOL    HW123972   1.543   0.606   5.380  1.2306 -0.1186  0.6530
 4113SOL    HW223973   1.632   0.519   5.296 -0.2445  0.2008 -0.3646
 4114SOL     OW23974   3.044   3.470   9.790  0.2902  0.0537 -0.0844
 4114SOL    HW123975   3.074   3.379   9.785  1.6055  0.3574  2.3102
 4114SOL    HW223976   2.978   3.469   9.721  0.7124 -1.4000 -0.4897
 4115SOL     OW23977   4.409   1.357   8.978 -0.1586  0.0327 -0.0699
 4115SOL    HW123978   4.479   1.302   9.012 -1.2256 -0.7772  0.8040
 4115SOL    HW223979   4.443   1.389   8.895  2.3250 -0.0905  0.9038
 4116SOL     OW23980   0.912   4.122   2.297 -0.1844 -0.7007  0.2691
 4116SOL    HW123981   0.973   4.061   2.338 -0.8712 -1.4635  0.1543
 4116SOL    HW223982   0.830   4.089   2.333 -0.0471  0.0940  1.3123
 4117SOL     OW23983   2.531   2.908   3.309 -0.1929 -0.1831 -0.2828
 4117SOL    HW123984   2.440   2.925   3.332 -0.2903  0.2846 -1.0073
 4117SOL    HW223985   2.526   2.824   3.265  1.1449  0.8293 -2.3763
 4118SOL     OW23986   0.401   3.880   2.404 -0.2340  0.3548 -0.3389
 4118SOL    HW123987   0.344   3.837   2.468 -1.1360  0.2778 -1.2016
 4118SOL    HW223988   0.350   3.894   2.324  1.0666  2.4526 -0.8177
 4119SOL     OW23989   3.758   4.700  16.888  0.7093  0.2055 -0.5602
 4119SOL    HW123990   3.822   0.015  16.840 -0.6207  2.7711  0.4019
 4119SOL    HW223991   3.768   4.617  16.841  0.5471  0.5861 -1.2680
 4120SOL     OW23992   0.461   1.257   8.890 -0.2821  0.0540  0.2974
 4120SOL    HW123993   0.429   1.179   8.844  2.2097 -1.2753  0.8445
 4120SOL    HW223994   0.430   1.229   8.976  2.5286  2.6428  2.1489
 4121SOL     OW23995   3.642   3.481   2.965 -0.1124 -0.3749 -0.5034
 4121SOL    HW123996   3.727   3.511   2.932  0.0448 -0.4503 -0.1624
 4121SOL    HW223997   3.663   3.411   3.026  2.7769  1.1789  0.2753
 4122SOL     OW23998   1.912   0.456   1.135  0.1218 -0.0954 -0.1214
 4122SOL    HW123999   2.005   0.435   1.134  0.6182  2.1064 -0.7710
 4122SOL    HW224000   1.926   0.550   1.125 -0.6024  0.0450  0.1504
 4123SOL     OW24001   3.645   2.113  11.606 -0.3064  0.3767  0.3928
 4123SOL    HW124002   3.732   2.074  11.596 -0.6651  0.2811 -2.3975
 4123SOL    HW224003   3.604   2.058  11.673 -1.0602  0.5906  0.1182
 4124SOL     OW24004   3.781   0.850   3.643 -0.1459  0.0834  0.1087
 4124SOL    HW124005   3.707   0.799   3.677  1.6904 -2.0591  0.8550
 4124SOL    HW224006   3.840   0.833   3.716 -0.6896  0.6406  0.6823
 4125SOL     OW24007   0.746   3.706   8.646  0.0223  0.0140 -0.4476
 4125SOL    HW124008   0.742   3.751   8.731 -1.5717  0.3841 -0.7206
 4125SOL    HW224009   0.799   3.632   8.676 -1.2264 -0.6995 -0.0153
 4126SOL     OW24010   3.722   4.710   9.543  0.0224  0.1309 -0.1398
 4126SOL    HW124011   3.645   4.664   9.511  0.0151  1.1839 -1.6103
 4126SOL    HW224012   3.767   4.664   9.614 -2.0358 -0.7391  0.6009
 4127SOL     OW24013   2.137   4.141   3.169 -0.1023  0.0849 -0.2722
 4127SOL    HW124014   2.068   4.126   3.233  0.2473  0.9928  0.3150
 4127SOL    HW224015   2.187   4.216   3.201 -0.9121 -0.4446  2.2009
 4128SOL     OW24016   0.575   0.534   1.674 -0.5219  0.0199 -0.5876
 4128SOL    HW124017   0.557   0.585   1.595 -0.1894 -0.9100 -1.2692
 4128SOL    HW224018   0.532   0.586   1.741 -0.1681  2.2482 -2.0695
 4129SOL     OW24019   3.314   3.190   4.469  0.0025  0.2810 -0.1642
 4129SOL    HW124020   3.396   3.223   4.433  0.6170 -1.4625 -0.3773
 4129SOL    HW224021   3.264   3.271   4.464  0.0563  0.4630  2.3421
 4130SOL     OW24022   0.563   1.848  10.979 -0.1586  0.4909 -0.3283
 4130SOL    HW124023   0.489   1.869  11.035  0.8293 -1.3901  1.6520
 4130SOL    HW224024   0.586   1.935  10.946 -0.1803  0.4734 -0.3889
 4131SOL     OW24025   2.381   3.143  11.894 -0.1852  0.2216 -0.4206
 4131SOL    HW124026   2.458   3.200  11.895 -0.3410  0.3531  3.4254
 4131SOL    HW224027   2.314   3.209  11.910  0.1106  0.5831 -0.6506
 4132SOL     OW24028   4.614   0.630   6.640 -0.1295  0.3434  0.5671
 4132SOL    HW124029   4.547   0.601   6.701  0.1226  1.1865  1.2374
 4132SOL    HW224030   4.595   0.724   6.640 -2.2761 -0.1004  1.0469
 4133SOL     OW24031   1.093   2.085   9.520 -0.2362 -0.0547 -0.3297
 4133SOL    HW124032   1.037   2.011   9.497  0.9034 -1.3352  1.1348
 4133SOL    HW224033   1.031   2.149   9.556  1.3063  2.4668 -2.1107
 4134SOL     OW24034   3.075   0.681   6.306 -0.1082 -0.3299  0.0719
 4134SOL    HW124035   3.048   0.767   6.274 -0.9269  0.4736  2.9191
 4134SOL    HW224036   3.165   0.675   6.274 -0.9471  0.7523 -2.4102
 4135SOL     OW24037   2.457   2.345   4.528  0.2883 -0.5022  0.1052
 4135SOL    HW124038   2.376   2.337   4.577  0.4632 -0.9647  0.3130
 4135SOL    HW224039   2.526   2.366   4.591 -0.1696 -0.6815  0.6611
 4136SOL     OW24040   3.304   2.795   3.617 -0.2448  0.6493  0.6182
 4136SOL    HW124041   3.397   2.776   3.610 -0.5412 -0.0329 -1.5369
 4136SOL    HW224042   3.256   2.712   3.617 -0.7861  0.9623 -0.9358
 4137SOL     OW24043   3.132   1.662  14.143  0.6775 -0.2452 -0.1892
 4137SOL    HW124044   3.042   1.637  14.168  1.0741 -0.6086  0.8890
 4137SOL    HW224045   3.123   1.746  14.099 -2.6936 -1.2318 -1.4365
 4138SOL     OW24046   1.007   0.186   4.892 -0.0708  0.0633 -0.4403
 4138SOL    HW124047   0.965   0.135   4.961  0.5899 -0.2595 -0.2696
 4138SOL    HW224048   1.084   0.133   4.870 -1.3174 -2.0694  0.3665
 4139SOL     OW24049   1.267   4.450  14.358 -0.2932  0.8409 -0.3611
 4139SOL    HW124050   1.199   4.393  14.392 -0.2854  2.4765  2.4008
 4139SOL    HW224051   1.229   4.535  14.381  0.0760  0.1769  2.6809
 4140SOL     OW24052   2.715   4.109  15.437 -0.4393  0.3813 -0.1549
 4140SOL    HW124053   2.732   4.119  15.343 -0.9695  1.7853 -0.1038
 4140SOL    HW224054   2.761   4.188  15.465 -1.6074  1.2958 -0.8027
 4141SOL     OW24055   4.372   3.657   6.629 -0.5877  0.3204 -0.3522
 4141SOL    HW124056   4.317   3.583   6.601  1.6560 -1.0375 -1.1292
 4141SOL    HW224057   4.418   3.625   6.707  0.0016  1.2002 -0.3405
 4142SOL     OW24058   2.223   2.633   4.578  0.7931  0.4743  0.0189
 4142SOL    HW124059   2.203   2.726   4.579 -0.7273  0.1410  1.5306
 4142SOL    HW224060   2.160   2.605   4.512  0.0224  0.6623  0.6650
 4143SOL     OW24061   1.006   4.581   3.115 -0.0471  0.3694  0.4292
 4143SOL    HW124062   1.013   4.539   3.201 -1.5500  0.5210  0.6169
 4143SOL    HW224063   1.046   4.513   3.060 -1.5391 -2.8558  3.3086
 4144SOL     OW24064   3.973   3.723   2.891 -0.0086 -0.3386  0.8029
 4144SOL    HW124065   4.004   3.669   2.964 -1.4453 -0.9367  0.9741
 4144SOL    HW224066   3.952   3.653   2.829  0.3660  0.7114 -0.5167
 4145SOL     OW24067   4.307   3.856   6.318 -0.0623 -0.5283  0.3393
 4145SOL    HW124068   4.217   3.849   6.285  0.4372 -2.5084 -0.5690
 4145SOL    HW224069   4.282   3.894   6.402 -2.0755 -3.4099  1.0517
 4146SOL     OW24070   4.427   4.103   4.358  0.4074  0.1591  0.1243
 4146SOL    HW124071   4.516   4.078   4.332  1.0406  2.8908 -0.3846
 4146SOL    HW224072   4.396   4.019   4.390  1.3017  0.0532  0.7274
 4147SOL     OW24073   1.030   1.787  12.996  0.0389  0.0205 -0.0636
 4147SOL    HW124074   1.108   1.731  13.008  0.6373  0.6201 -1.2189
 4147SOL    HW224075   1.072   1.873  12.991 -0.1406  0.3133  3.0784
 4148SOL     OW24076   1.878   2.852   5.516  0.1799 -0.1151 -0.5266
 4148SOL    HW124077   1.909   2.805   5.439 -1.9714 -1.5543 -0.5104
 4148SOL    HW224078   1.787   2.867   5.488  0.2428  0.3786 -0.4724
 4149SOL     OW24079   4.497   4.723   1.924  0.0790 -0.4937 -0.7249
 4149SOL    HW124080   4.539   0.069   1.947 -0.4080 -1.4168  3.3598
 4149SOL    HW224081   4.499   4.673   2.005  2.0714 -2.0924 -1.7379
 4150SOL     OW24082   0.918   0.137   4.332  0.2298 -0.0136  0.2652
 4150SOL    HW124083   0.854   0.066   4.325  0.3316  0.0360 -1.1659
 4150SOL    HW224084   0.919   0.158   4.239  0.5170 -1.6055 -0.0933
 4151SOL     OW24085   0.876   2.304   2.270  0.0875  0.2445  0.2729
 4151SOL    HW124086   0.921   2.269   2.347 -0.3710  0.7955  0.7948
 4151SOL    HW224087   0.826   2.226   2.245  0.4806  0.2922 -0.6435
 4152SOL     OW24088   2.258   2.833   7.230 -0.6288 -0.3631 -0.2922
 4152SOL    HW124089   2.343   2.791   7.222 -0.2878  0.4967 -1.1764
 4152SOL    HW224090   2.243   2.812   7.323 -2.0885 -1.1070 -0.7002
 4153SOL     OW24091   1.917   4.062   5.716  0.1636  0.0777 -0.4559
 4153SOL    HW124092   1.882   4.007   5.786 -0.0641 -1.7217 -1.9945
 4153SOL    HW224093   1.877   4.016   5.642 -0.9680 -0.2750  0.3786
 4154SOL     OW24094   3.725   3.467   6.670  0.7971  0.0333 -0.6231
 4154SOL    HW124095   3.723   3.377   6.704  0.1877  0.6332  0.9152
 4154SOL    HW224096   3.704   3.506   6.755  0.3103  0.9248 -1.1556
 4155SOL     OW24097   3.960   2.292   6.459 -0.1863 -0.4956 -0.2493
 4155SOL    HW124098   4.038   2.292   6.514 -0.4192  1.5785  0.1054
 4155SOL    HW224099   3.900   2.320   6.529  0.8301 -1.6742  1.0812
 4156SOL     OW24100   4.643   0.832   2.312  0.4848  0.5539  0.4488
 4156SOL    HW124101   4.559   0.788   2.297  0.0147  0.7214  2.6955
 4156SOL    HW224102   4.624   0.877   2.394  2.8859 -0.2953  1.4514
 4157SOL     OW24103   4.204   3.039  10.991  0.3409 -0.1729 -0.0903
 4157SOL    HW124104   4.139   3.079  11.048  0.5480 -1.1187  0.8149
 4157SOL    HW224105   4.281   3.089  11.016  0.0861  0.0320  0.2795
 4158SOL     OW24106   3.845   4.337   9.023  0.3319 -0.0159 -0.2565
 4158SOL    HW124107   3.931   4.302   9.047  1.0682  1.5639 -0.5288
 4158SOL    HW224108   3.834   4.386   9.104 -1.6670  0.2756 -0.7112
 4159SOL     OW24109   0.617   1.739  12.427  0.2132  0.1519  0.1683
 4159SOL    HW124110   0.706   1.736  12.392 -0.6857 -0.9249 -2.0033
 4159SOL    HW224111   0.592   1.648  12.444 -1.2709  0.7284  1.1149
 4160SOL     OW24112   1.264   1.591   9.625 -0.4136  0.0521 -0.3989
 4160SOL    HW124113   1.276   1.534   9.548  0.0258 -0.7992  0.2985
 4160SOL    HW224114   1.354   1.606   9.654 -1.1779  2.5171  0.6269
 4161SOL     OW24115   3.567   1.189   1.605 -0.6484 -0.0655  0.4011
 4161SOL    HW124116   3.475   1.198   1.632 -0.6953  2.0049 -0.4222
 4161SOL    HW224117   3.598   1.279   1.608 -0.4191 -0.2213  2.4213
 4162SOL     OW24118   2.827   0.353  13.609  0.5455  0.2270  0.3327
 4162SOL    HW124119   2.846   0.351  13.515  0.6178 -0.5731  0.3649
 4162SOL    HW224120   2.765   0.281  13.624 -0.4159  0.7355 -1.1168
 4163SOL     OW24121   0.158   4.243   3.965 -0.1414  0.0931  0.3292
 4163SOL    HW124122   0.117   4.160   3.987  1.1462 -0.5040  0.5037
 4163SOL    HW224123   0.246   4.224   3.999 -0.6626 -0.8987  1.1257
 4164SOL     OW24124   3.380   0.420   7.823 -0.2186  0.3433  0.6063
 4164SOL    HW124125   3.461   0.399   7.778 -0.2148  0.1825  0.6886
 4164SOL    HW224126   3.398   0.386   7.910 -2.5168 -2.3855  0.0234
 4165SOL     OW24127   3.154   2.002   8.422  0.8020  0.5297 -0.3032
 4165SOL    HW124128   3.225   2.064   8.405  1.1101  0.6327  1.3609
 4165SOL    HW224129   3.094   2.039   8.358 -2.7605 -0.6681  2.3717
 4166SOL     OW24130   0.129   4.201   0.914 -0.0736 -0.1847 -0.0824
 4166SOL    HW124131   0.049   4.244   0.884 -0.3507  0.6270  1.8309
 4166SOL    HW224132   0.129   4.125   0.855  0.6511 -1.0855  1.0577
 4167SOL     OW24133   0.414   4.133   5.277  0.4563  0.6244 -0.5270
 4167SOL    HW124134   0.480   4.103   5.215  1.2610  0.2018  0.5204
 4167SOL    HW224135   0.442   4.079   5.351  2.1522  2.6465  0.2893
 4168SOL     OW24136   0.370   4.514   9.830  0.4032 -0.2081 -0.6886
 4168SOL    HW124137   0.442   4.504   9.892  0.2302 -1.4008 -0.6786
 4168SOL    HW224138   0.371   4.429   9.786 -2.4364 -1.1722  1.1343
 4169SOL     OW24139   1.224   2.976   1.884 -0.2422  0.1773 -0.0945
 4169SOL    HW124140   1.140   2.995   1.841 -0.4337  1.8372  1.0184
 4169SOL    HW224141   1.197   2.906   1.944 -0.4453  1.1223  0.9069
 4170SOL     OW24142   3.606   4.691   4.389 -0.2370 -0.3420  0.3190
 4170SOL    HW124143   3.610   4.703   4.294 -0.6708 -1.2390  0.1934
 4170SOL    HW224144   3.584   0.043   4.418 -2.9727 -0.9710  0.1858
 4171SOL     OW24145   3.360   4.665   8.899 -0.0813 -0.3034  0.2467
 4171SOL    HW124146   3.288   4.647   8.959 -0.5576  0.6657 -0.0437
 4171SOL    HW224147   3.337   4.604   8.829 -1.3348  1.7926 -1.1545
 4172SOL     OW24148   1.537   4.338  11.234 -0.1660  0.7805 -0.7224
 4172SOL    HW124149   1.540   4.262  11.177  3.3612  0.9911 -0.8071
 4172SOL    HW224150   1.534   4.413  11.174 -1.8888  1.2408 -0.0751
 4173SOL     OW24151   3.332   2.989   8.000 -0.2155  0.1343  0.0861
 4173SOL    HW124152   3.314   2.984   7.906 -0.1724 -2.8253  0.2268
 4173SOL    HW224153   3.242   3.008   8.025 -1.1125 -2.5177 -1.1298
 4174SOL     OW24154   3.043   4.077   2.976  0.2403 -0.1657 -0.0096
 4174SOL    HW124155   3.081   4.117   3.054  2.6657  1.0863 -1.8382
 4174SOL    HW224156   3.064   4.142   2.909 -0.7080 -0.2665 -0.4081
 4175SOL     OW24157   1.107   4.543   9.885  0.0266  0.1630 -0.4728
 4175SOL    HW124158   1.047   4.499   9.944  1.8057 -3.9605 -1.7458
 4175SOL    HW224159   1.104   4.489   9.806 -0.6090  3.6287 -2.8328
 4176SOL     OW24160   2.281   1.016  10.125  0.7150  0.4068  0.2948
 4176SOL    HW124161   2.217   1.072  10.169 -0.1675 -1.0510  0.8906
 4176SOL    HW224162   2.252   0.928  10.149 -1.5069  0.8485 -0.7065
 4177SOL     OW24163   1.909   4.579   3.835  0.2346 -0.0258  0.3876
 4177SOL    HW124164   1.885   4.602   3.925  1.3912  0.3039  0.6181
 4177SOL    HW224165   1.975   4.511   3.851 -0.2661 -1.5560 -3.9826
 4178SOL     OW24166   2.073   2.118  12.722 -0.5649 -0.4171 -0.0965
 4178SOL    HW124167   2.118   2.150  12.801 -0.6465 -2.6513  0.8309
 4178SOL    HW224168   2.101   2.027  12.728  0.4698  0.1279  3.4252
 4179SOL     OW24169   1.494   4.049   3.516 -0.4048  0.7730  0.2906
 4179SOL    HW124170   1.573   4.103   3.524 -0.1593  0.4711 -0.1123
 4179SOL    HW224171   1.526   3.980   3.574  1.8326  1.5299 -0.0269
 4180SOL     OW24172   0.751   1.004  13.930 -0.4015  0.1072  0.4750
 4180SOL    HW124173   0.748   0.921  13.882 -1.5356  0.1988  0.3741
 4180SOL    HW224174   0.794   1.064  13.869 -0.7543 -0.3325 -0.2096
 4181SOL     OW24175   0.265   1.919   6.644 -0.0424 -0.1836 -0.2245
 4181SOL    HW124176   0.320   1.897   6.719  0.2550  1.6483  0.0914
 4181SOL    HW224177   0.233   1.832   6.620 -0.1395  0.2658 -1.7732
 4182SOL     OW24178   2.602   1.252   6.316  0.4386 -0.2727  0.9386
 4182SOL    HW124179   2.564   1.300   6.390  0.2576 -1.4432  1.6094
 4182SOL    HW224180   2.522   1.238   6.266  1.6407 -2.3056 -0.4019
 4183SOL     OW24181   3.842   3.201   3.659 -0.1062  0.1885  0.3632
 4183SOL    HW124182   3.807   3.287   3.635  3.2921  1.6141  0.4882
 4183SOL    HW224183   3.903   3.186   3.587 -0.8807  0.8379 -0.4393
 4184SOL     OW24184   2.429   2.398   8.263  0.0923  0.2979  0.1485
 4184SOL    HW124185   2.342   2.378   8.229  1.0195 -2.8741 -0.4374
 4184SOL    HW224186   2.482   2.427   8.189  0.6702  0.4956  0.6363
 4185SOL     OW24187   3.949   1.422   7.274  0.0636  0.1013  0.3429
 4185SOL    HW124188   3.982   1.336   7.248 -1.4603  0.0188 -1.3448
 4185SOL    HW224189   4.024   1.472   7.306 -1.3373  2.8222 -0.5567
 4186SOL     OW24190   1.220   0.058   4.754 -0.2433 -0.7110  0.2697
 4186SOL    HW124191   1.256   4.706   4.761  1.9645  0.3571  2.4107
 4186SOL    HW224192   1.164   0.034   4.680 -0.8175  1.2561  0.0742
 4187SOL     OW24193   0.060   3.248   2.859  0.0929  0.2368 -0.0430
 4187SOL    HW124194   4.711   3.226   2.895  1.0906 -1.5932  1.2059
 4187SOL    HW224195   0.118   3.261   2.934  2.3939 -3.4335 -1.2113
 4188SOL     OW24196   0.559   3.921   1.997  0.2785  0.0677  0.1333
 4188SOL    HW124197   0.557   3.854   2.066 -0.0889  1.1278  1.1365
 4188SOL    HW224198   0.469   3.927   1.966  0.3149  2.1973  0.4856
 4189SOL     OW24199   4.374   3.073   5.007  0.2446 -0.2817  0.5660
 4189SOL    HW124200   4.339   2.985   4.990 -1.2257  0.4048  0.0773
 4189SOL    HW224201   4.397   3.105   4.919 -1.3386 -0.2191  0.1823
 4190SOL     OW24202   1.315   4.591   8.542  0.2043 -0.2549  0.2264
 4190SOL    HW124203   1.356   4.507   8.520 -1.3349 -0.7574 -0.7142
 4190SOL    HW224204   1.382   4.635   8.594  0.6994 -0.3884 -0.2948
 4191SOL     OW24205   0.056   4.524   9.749  0.0036 -0.3010  0.1252
 4191SOL    HW124206   4.727   4.470   9.792  1.2436 -0.3289  1.9771
 4191SOL    HW224207   0.141   4.494   9.781  1.5829  1.6124 -2.2254
 4192SOL     OW24208   1.512   0.251   3.767  0.4303  0.4449  0.1184
 4192SOL    HW124209   1.494   0.305   3.690  0.0849 -0.8110 -0.6831
 4192SOL    HW224210   1.503   0.165   3.724 -1.3553 -0.2482  1.8690
 4193SOL     OW24211   3.328   4.538   2.149 -0.3757  0.0871 -0.7216
 4193SOL    HW124212   3.310   4.629   2.172  0.7220  0.2077 -0.3173
 4193SOL    HW224213   3.407   4.563   2.099  1.2551  1.0787  2.3402
 4194SOL     OW24214   2.408   3.505   8.283  0.3849 -0.3746  0.4116
 4194SOL    HW124215   2.453   3.432   8.325  0.9719 -0.0767  0.3052
 4194SOL    HW224216   2.341   3.535   8.344  1.0549 -0.1567  1.0491
 4195SOL     OW24217   0.987   0.609  12.939  0.5669 -0.4289  0.2840
 4195SOL    HW124218   0.938   0.691  12.935 -0.3055 -0.9077  1.0287
 4195SOL    HW224219   0.966   0.574  12.853 -1.0252  1.0495  0.0808
 4196SOL     OW24220   0.384   0.222   2.218  0.1500 -0.2779  0.1530
 4196SOL    HW124221   0.421   0.153   2.272 -0.7122 -1.5136 -0.8212
 4196SOL    HW224222   0.318   0.172   2.169  1.1860  1.8021 -3.4381
 4197SOL     OW24223   3.922   0.148   5.876  0.5363  0.3358  0.2424
 4197SOL    HW124224   3.918   0.127   5.969 -0.4807 -1.8401 -0.2965
 4197SOL    HW224225   3.831   0.145   5.847  1.2401 -0.8362 -1.8833
 4198SOL     OW24226   4.317   4.701  13.396 -0.4342 -0.3945  0.3303
 4198SOL    HW124227   4.275   4.628  13.350 -0.1453  0.4201 -1.2166
 4198SOL    HW224228   4.360   4.653  13.466  1.1698 -1.9972 -1.7742
 4199SOL     OW24229   2.552   3.587  13.852 -0.2088 -0.3400  0.0102
 4199SOL    HW124230   2.600   3.538  13.786  0.2460  0.7215 -0.4352
 4199SOL    HW224231   2.499   3.511  13.878 -0.5628  0.3336  1.2609
 4200SOL     OW24232   4.391   0.588   4.787  0.0505 -0.4530 -0.4463
 4200SOL    HW124233   4.324   0.546   4.840  0.9571 -1.5375 -0.1515
 4200SOL    HW224234   4.386   0.674   4.829  1.0869 -1.2831  1.3887
 4201SOL     OW24235   1.975   0.702   1.025 -0.2393  0.7848 -0.2276
 4201SOL    HW124236   1.966   0.663   0.938  1.5036 -1.5961  0.6473
 4201SOL    HW224237   2.068   0.724   1.025  0.1834 -0.9970  0.9742
 4202SOL     OW24238   0.566   3.374  12.334  0.2366  0.2263  0.4940
 4202SOL    HW124239   0.559   3.467  12.313 -1.6406  0.2497  1.1892
 4202SOL    HW224240   0.476   3.343  12.328 -0.3559  1.8803  0.7179
 4203SOL     OW24241   1.646   1.559  11.655  0.4882 -0.0582 -0.4410
 4203SOL    HW124242   1.730   1.560  11.609  0.8114 -0.1843  0.1465
 4203SOL    HW224243   1.586   1.599  11.592  0.2421  1.1771  0.5704
 4204SOL     OW24244   2.551   3.802   3.326 -0.1597  0.7560 -0.1210
 4204SOL    HW124245   2.594   3.717   3.333 -1.5406  0.0494 -0.0977
 4204SOL    HW224246   2.610   3.856   3.378  0.6744  0.7601 -1.0865
 4205SOL     OW24247   0.733   3.679   9.210 -0.2694  0.0544 -0.2967
 4205SOL    HW124248   0.655   3.729   9.233  2.4677  2.9766  2.8014
 4205SOL    HW224249   0.797   3.747   9.232  1.0996 -1.4559  0.4463
 4206SOL     OW24250   3.206   3.548   3.030 -0.2533 -0.0012 -0.1341
 4206SOL    HW124251   3.263   3.476   3.058 -1.6685 -0.9322  0.3780
 4206SOL    HW224252   3.274   3.601   2.987 -0.3647  0.2151 -0.0394
 4207SOL     OW24253   1.252   2.629  11.230 -0.4843  0.7478 -0.2536
 4207SOL    HW124254   1.171   2.591  11.196  1.1241 -1.5238 -1.5407
 4207SOL    HW224255   1.257   2.597  11.320  0.5736 -1.4314 -1.0796
 4208SOL     OW24256   1.094   3.236   4.419  0.1893  0.3753  0.1135
 4208SOL    HW124257   1.100   3.306   4.485  2.1985 -2.2300  2.7203
 4208SOL    HW224258   1.125   3.302   4.357 -0.5440 -1.1142 -1.8283
 4209SOL     OW24259   4.436   1.638   8.569  0.5782 -0.2813  0.5809
 4209SOL    HW124260   4.455   1.591   8.650 -1.8911  0.1585  1.4155
 4209SOL    HW224261   4.489   1.599   8.500  0.1587 -2.5046  1.5228
 4210SOL     OW24262   4.736   3.508   3.504 -0.2234  0.0394 -0.5201
 4210SOL    HW124263   0.045   3.572   3.559  1.0084 -0.6981 -0.6946
 4210SOL    HW224264   4.665   3.559   3.466 -1.3195  0.7773  2.4792
 4211SOL     OW24265   1.246   3.337   6.964 -0.7561 -0.4843 -0.5289
 4211SOL    HW124266   1.236   3.329   6.869 -0.2696  2.4521 -0.8272
 4211SOL    HW224267   1.341   3.350   6.968 -0.8625  0.8063 -2.8729
 4212SOL     OW24268   0.996   4.640   7.077  0.5274  0.8786  0.2618
 4212SOL    HW124269   1.044   4.561   7.104  0.3146  0.7525  0.2726
 4212SOL    HW224270   1.043   4.665   6.997 -1.3089  0.9598 -0.7804
 4213SOL     OW24271   3.756   1.467  16.377  0.1991  0.1554 -0.0008
 4213SOL    HW124272   3.734   1.387  16.425 -0.3776 -0.2120 -0.8572
 4213SOL    HW224273   3.839   1.499  16.411  1.4405 -2.0020 -1.0638
 4214SOL     OW24274   1.301   0.598   4.618  0.0912 -0.0061  0.2375
 4214SOL    HW124275   1.395   0.589   4.633  0.0928 -0.8127 -0.2528
 4214SOL    HW224276   1.279   0.665   4.683  0.9717  1.4312 -0.9628
 4215SOL     OW24277   3.171   1.762   1.288  0.5032 -0.2399 -0.1957
 4215SOL    HW124278   3.196   1.694   1.226 -1.4670  0.0893 -1.3428
 4215SOL    HW224279   3.243   1.754   1.352  0.7905  1.5288 -0.2766
 4216SOL     OW24280   3.270   2.151   5.320 -0.0817 -0.4315  0.4152
 4216SOL    HW124281   3.290   2.107   5.238  1.5510  1.4889 -0.2069
 4216SOL    HW224282   3.272   2.245   5.302 -2.0787 -0.6558 -0.9896
 4217SOL     OW24283   3.453   1.540  14.620 -0.4400 -0.0446 -0.5848
 4217SOL    HW124284   3.421   1.530  14.530 -0.8089  3.8060 -0.8821
 4217SOL    HW224285   3.412   1.622  14.647  0.5066  0.7640 -1.5754
 4218SOL     OW24286   0.583   2.161   9.721  0.0953 -0.4453 -0.3020
 4218SOL    HW124287   0.586   2.162   9.817  1.2630 -0.2940 -0.3336
 4218SOL    HW224288   0.494   2.194   9.709 -1.1166 -2.7529  2.2339
 4219SOL     OW24289   2.197   2.410   7.354  0.2360 -0.1933  0.2245
 4219SOL    HW124290   2.113   2.364   7.347 -1.3009  2.4047  1.7538
 4219SOL    HW224291   2.256   2.369   7.291  1.0020  0.0211  0.8016
 4220SOL     OW24292   1.168   3.921   3.691  0.0360  0.1210 -0.6669
 4220SOL    HW124293   1.135   3.944   3.778  1.3828 -0.9748  0.1327
 4220SOL    HW224294   1.104   3.852   3.669 -0.8361  1.0503 -1.0420
 4221SOL     OW24295   2.852   2.969   7.299  0.7576 -0.8291 -0.3028
 4221SOL    HW124296   2.876   2.876   7.295  0.0771 -0.9720 -1.0236
 4221SOL    HW224297   2.807   2.972   7.215 -1.2558  1.4303  0.8635
 4222SOL     OW24298   2.613   2.679   5.392 -0.1983  0.8894 -0.0526
 4222SOL    HW124299   2.585   2.587   5.394 -0.6917  1.0635  0.9936
 4222SOL    HW224300   2.698   2.690   5.436 -0.4721  0.5754  0.5516
 4223SOL     OW24301   2.968   3.864   3.462  0.4556 -0.1511  0.3985
 4223SOL    HW124302   2.897   3.859   3.526  0.8288  1.9140  0.9871
 4223SOL    HW224303   2.917   3.898   3.388  1.0770 -2.0397 -0.8888
 4224SOL     OW24304   1.915   0.351   7.019  0.5390 -0.1963  0.0460
 4224SOL    HW124305   1.952   0.302   7.092 -0.5190 -0.2983  0.5173
 4224SOL    HW224306   1.900   0.436   7.061 -0.9237 -0.0099 -0.8344
 4225SOL     OW24307   3.809   4.085  11.494 -0.0982 -0.0389 -0.6964
 4225SOL    HW124308   3.735   4.032  11.525 -2.2789  2.1075 -2.2653
 4225SOL    HW224309   3.880   4.036  11.535 -0.6292  0.9113  1.3702
 4226SOL     OW24310   1.150   0.363  11.967  0.7340 -0.0359  0.0910
 4226SOL    HW124311   1.168   0.456  11.961 -1.1725  0.2996 -0.3862
 4226SOL    HW224312   1.224   0.326  11.918  0.4653 -1.0523  0.4384
 4227SOL     OW24313   4.368   1.109   4.768  0.0197 -0.0605 -0.1122
 4227SOL    HW124314   4.319   1.122   4.849  0.5914 -1.1606  0.4122
 4227SOL    HW224315   4.303   1.103   4.698  0.8159 -1.6631 -0.7337
 4228SOL     OW24316   0.288   4.406  15.289  0.1222 -0.3364 -0.2931
 4228SOL    HW124317   0.270   4.322  15.247  0.0952 -1.4976  2.0457
 4228SOL    HW224318   0.373   4.430  15.252  1.5561 -6.0571 -0.6925
 4229SOL     OW24319   3.990   0.412   4.083  0.0423  0.3392  0.1338
 4229SOL    HW124320   3.931   0.337   4.085  0.2366  0.2221  1.6486
 4229SOL    HW224321   3.967   0.451   3.999  0.7078 -0.0145 -0.2116
 4230SOL     OW24322   2.203   2.609  13.391 -0.1153  0.0448 -0.1923
 4230SOL    HW124323   2.255   2.532  13.367 -1.5747 -1.4919  1.5073
 4230SOL    HW224324   2.195   2.605  13.486  0.2265 -1.5172 -0.2202
 4231SOL     OW24325   1.666   1.378   6.127 -0.1936 -0.2094 -0.1863
 4231SOL    HW124326   1.754   1.364   6.092  0.2404  2.1404 -0.0442
 4231SOL    HW224327   1.676   1.432   6.206  2.5806 -0.5291 -0.3121
 4232SOL     OW24328   3.101   3.894   6.777 -0.3493  0.2746 -0.4749
 4232SOL    HW124329   3.182   3.907   6.728 -1.3161 -1.3258 -2.5225
 4232SOL    HW224330   3.042   3.867   6.706 -1.3026 -2.9794  1.5761
 4233SOL     OW24331   2.006   2.515   8.408 -0.1355  0.2543 -0.2702
 4233SOL    HW124332   1.969   2.516   8.320 -1.5772  1.0575  0.3458
 4233SOL    HW224333   2.059   2.435   8.399  2.2696  1.6771  1.3640
 4234SOL     OW24334   3.243   2.380   1.224 -0.3414  0.1615  0.0582
 4234SOL    HW124335   3.281   2.465   1.202  0.2294 -0.3513 -0.9427
 4234SOL    HW224336   3.170   2.398   1.283  0.2400 -1.8009  1.3803
 4235SOL     OW24337   4.619   1.991   7.375  0.0415  0.2545  0.2399
 4235SOL    HW124338   4.545   2.050   7.357  0.0470  0.5002  1.0090
 4235SOL    HW224339   4.590   1.957   7.460 -0.0367  0.2149  0.1977
 4236SOL     OW24340   1.190   1.252   6.711  0.1883  0.3796  0.2811
 4236SOL    HW124341   1.245   1.248   6.789  2.1367  0.2704 -1.1000
 4236SOL    HW224342   1.190   1.346   6.693 -0.3010 -0.0632 -2.1282
 4237SOL     OW24343   0.723   2.910   2.281  0.0009  0.0029 -0.0005
 4237SOL    HW124344   0.674   2.988   2.307 -1.8423 -1.4678  0.9440
 4237SOL    HW224345   0.814   2.941   2.285  0.6763 -1.7237 -1.8493
 4238SOL     OW24346   2.927   2.993   5.124  0.2823 -0.0506  0.0187
 4238SOL    HW124347   2.910   2.913   5.074 -1.6692  1.0329 -1.0925
 4238SOL    HW224348   3.017   3.010   5.097  0.5393  1.9498  2.1630
 4239SOL     OW24349   0.100   1.695   8.508 -0.1815 -0.0046  0.2943
 4239SOL    HW124350   0.089   1.790   8.518 -0.3251 -0.0110  0.2045
 4239SOL    HW224351   0.182   1.690   8.557 -0.0875  0.8565  0.2324
 4240SOL     OW24352   0.498   4.442   3.097 -0.6489 -0.8059  0.7397
 4240SOL    HW124353   0.556   4.405   3.164  1.9967 -1.8580 -2.0975
 4240SOL    HW224354   0.467   4.361   3.057 -0.3835 -0.1621 -0.7530
 4241SOL     OW24355   0.414   0.994   4.828 -0.7079  0.1627 -0.3109
 4241SOL    HW124356   0.476   0.932   4.867  0.4661  1.4191 -0.1989
 4241SOL    HW224357   0.342   0.994   4.891 -2.0261  0.7315 -1.8283
 4242SOL     OW24358   3.730   3.067   6.402 -0.4444  0.0544  0.0591
 4242SOL    HW124359   3.741   3.080   6.496  1.8723  2.8862 -0.5897
 4242SOL    HW224360   3.793   3.134   6.374  0.4432 -0.9804 -0.3895
 4243SOL     OW24361   1.405   0.379   0.107  0.7847  0.4047 -0.2043
 4243SOL    HW124362   1.340   0.355   0.173  0.6291 -1.2779 -0.9525
 4243SOL    HW224363   1.341   0.367   0.036  1.4911  2.7602 -1.2512
 4244SOL     OW24364   4.696   3.737   5.826 -0.3680  0.4887 -0.0926
 4244SOL    HW124365   0.011   3.799   5.775 -1.9138  0.3648 -1.8042
 4244SOL    HW224366   0.026   3.698   5.883 -0.2849 -1.1182 -1.2885
 4245SOL     OW24367   2.677   3.538   4.400 -0.0837 -0.4764  0.1523
 4245SOL    HW124368   2.717   3.486   4.330 -2.2634 -1.4124 -0.4041
 4245SOL    HW224369   2.757   3.561   4.447 -0.6527  1.6241  0.1230
 4246SOL     OW24370   2.717   0.418   0.650  0.7436 -0.3268  0.6038
 4246SOL    HW124371   2.769   0.393   0.574 -0.9075  0.9328 -0.9402
 4246SOL    HW224372   2.735   0.512   0.643 -0.9677  0.0612  1.2329
 4247SOL     OW24373   3.461   3.249   7.636  0.4459  0.0390  0.1675
 4247SOL    HW124374   3.552   3.279   7.631  1.2698 -2.3799  0.7839
 4247SOL    HW224375   3.415   3.317   7.587 -1.5730  0.6413  2.8670
 4248SOL     OW24376   0.525   1.524   3.858 -0.0977 -0.1307  0.3701
 4248SOL    HW124377   0.601   1.468   3.844  0.2049  0.3085  0.2638
 4248SOL    HW224378   0.455   1.459   3.863 -0.3417  0.1705  0.9399
 4249SOL     OW24379   2.629   2.557   2.738  1.0485  0.3881  0.1420
 4249SOL    HW124380   2.660   2.544   2.648  2.1562 -1.7081  0.8186
 4249SOL    HW224381   2.700   2.617   2.760  1.3828  0.1865 -0.3837
 4250SOL     OW24382   1.862   4.118  10.535  0.3055  0.0384  0.2014
 4250SOL    HW124383   1.877   4.074  10.619  0.3476  0.1030  0.2286
 4250SOL    HW224384   1.953   4.111  10.505 -0.4098 -2.4256 -1.3611
 4251SOL     OW24385   3.197   4.280   7.572 -0.1108  0.3227  0.1316
 4251SOL    HW124386   3.176   4.272   7.665 -3.5473  0.8729 -0.5838
 4251SOL    HW224387   3.105   4.284   7.543 -1.7189  0.6795  5.2536
 4252SOL     OW24388   1.627   4.510   5.029 -0.4079 -0.0963  0.2654
 4252SOL    HW124389   1.632   4.602   5.002  0.9885  0.0174  0.9367
 4252SOL    HW224390   1.534   4.491   5.013 -0.1045 -0.6785 -0.7987
 4253SOL     OW24391   2.251   4.270   5.256  0.1539  0.4763  0.1770
 4253SOL    HW124392   2.284   4.259   5.346 -2.1395 -3.2173  0.5669
 4253SOL    HW224393   2.198   4.348   5.272 -0.5370 -0.4239  2.2889
 4254SOL     OW24394   2.824   1.312   4.649  0.3640 -0.1841  0.3667
 4254SOL    HW124395   2.912   1.332   4.681 -0.1549  1.3790  0.8557
 4254SOL    HW224396   2.771   1.319   4.729 -0.7960  1.6206 -0.5501
 4255SOL     OW24397   4.540   2.879   9.486  0.1843  0.3941  0.1653
 4255SOL    HW124398   4.461   2.826   9.476  0.7517 -0.4669  0.2409
 4255SOL    HW224399   4.541   2.918   9.399 -1.9914 -1.5839 -0.7519
 4256SOL     OW24400   2.911   0.522   5.571 -0.0505  0.0745  0.1448
 4256SOL    HW124401   2.829   0.526   5.621  1.5031 -1.7284  2.8274
 4256SOL    HW224402   2.879   0.488   5.487 -0.5980  0.1173  0.3329
 4257SOL     OW24403   0.037   2.208   9.986  0.2947 -0.0677 -0.1597
 4257SOL    HW124404   0.018   2.136  10.047 -0.0415 -0.6755 -0.9836
 4257SOL    HW224405   0.048   2.155   9.908 -1.0121  0.3273 -0.6057
 4258SOL     OW24406   3.787   1.106   1.101 -0.7162  0.3599 -0.1398
 4258SOL    HW124407   3.868   1.155   1.111 -1.2141  0.9178  1.2221
 4258SOL    HW224408   3.811   1.050   1.027 -2.7745 -0.0121 -0.5203
 4259SOL     OW24409   2.090   1.556   6.789 -0.1724 -0.1565  0.3080
 4259SOL    HW124410   2.124   1.568   6.877  2.3650  0.7387 -0.7840
 4259SOL    HW224411   2.081   1.462   6.770  1.3761 -0.0727 -0.8996
 4260SOL     OW24412   3.090   0.439   6.456  0.0251  0.7146 -1.0774
 4260SOL    HW124413   2.999   0.439   6.485 -0.6000 -0.5944 -3.0889
 4260SOL    HW224414   3.078   0.498   6.382 -0.6413  0.7587 -0.9311
 4261SOL     OW24415   0.228   3.918   0.436 -0.1421  0.6958 -0.4641
 4261SOL    HW124416   0.150   3.863   0.440  1.6299 -1.6999  1.3770
 4261SOL    HW224417   0.253   3.895   0.347  1.5481  0.5753  0.0408
 4262SOL     OW24418   4.187   1.989   7.308  0.2885  0.1641 -0.5277
 4262SOL    HW124419   4.111   1.997   7.365  1.1257  0.5957  0.5317
 4262SOL    HW224420   4.150   2.008   7.222  2.3070  0.4955 -1.3359
 4263SOL     OW24421   1.047   1.370  12.617 -0.0362  0.1968  0.0186
 4263SOL    HW124422   1.096   1.396  12.695  1.3425  0.2851 -0.8582
 4263SOL    HW224423   1.031   1.455  12.576  1.6496 -0.0807 -1.2558
 4264SOL     OW24424   3.446   1.544  17.238  0.0323 -0.1215  0.4965
 4264SOL    HW124425   3.382   1.515  17.302 -1.0747  2.2035  0.4040
 4264SOL    HW224426   3.478   1.624  17.278  0.2645 -0.0157  0.0991
 4265SOL     OW24427   0.409   3.709   8.406 -0.1482 -0.7811  0.4565
 4265SOL    HW124428   0.442   3.711   8.496  2.4506  0.6551 -0.5245
 4265SOL    HW224429   0.477   3.652   8.371  0.0012 -1.3082  1.5793
 4266SOL     OW24430   4.734   1.538   4.825  0.4968  0.8618  0.1384
 4266SOL    HW124431   0.058   1.472   4.791 -2.3712 -1.7265  0.0421
 4266SOL    HW224432   4.653   1.490   4.842  0.8233  0.7022  1.2556
 4267SOL     OW24433   2.014   3.710   4.787 -0.0293  0.1486  0.3378
 4267SOL    HW124434   2.091   3.766   4.796  0.9052 -0.6601 -2.6466
 4267SOL    HW224435   1.944   3.738   4.845  0.7306 -1.3209  1.9626
 4268SOL     OW24436   0.183   2.776   6.353 -0.5530  0.1559 -0.9300
 4268SOL    HW124437   0.151   2.686   6.358  0.0960  0.0708  1.7311
 4268SOL    HW224438   0.209   2.776   6.261 -2.7649  0.9879 -1.5609
 4269SOL     OW24439   3.780   3.692  13.180  0.1894  0.4612  0.3568
 4269SOL    HW124440   3.724   3.681  13.104  0.7483  0.5230 -0.0606
 4269SOL    HW224441   3.812   3.782  13.177  0.0514  0.4884 -0.2971
 4270SOL     OW24442   2.534   3.908   4.438 -0.3385 -0.3925  0.0946
 4270SOL    HW124443   2.582   3.892   4.519 -0.0193  1.3143  0.2463
 4270SOL    HW224444   2.492   3.823   4.425 -1.5896  0.2964 -0.3728
 4271SOL     OW24445   0.029   2.481   8.977  0.1882 -0.4425  0.4439
 4271SOL    HW124446   0.106   2.456   8.926  1.9586 -0.2057  3.0432
 4271SOL    HW224447   4.715   2.400   8.966 -1.8989  0.8549  0.6165
 4272SOL     OW24448   1.901   1.574  11.550 -0.6344 -0.0591  0.3645
 4272SOL    HW124449   1.977   1.549  11.498 -1.0074  0.8682 -0.6355
 4272SOL    HW224450   1.925   1.666  11.546  0.3684 -0.3699 -0.7552
 4273SOL     OW24451   3.732   3.436   4.111  0.1561  0.3818  0.5461
 4273SOL    HW124452   3.719   3.364   4.050  2.1124  2.0807 -1.8316
 4273SOL    HW224453   3.703   3.507   4.054  2.7104 -0.3309 -1.6317
 4274SOL     OW24454   0.394   1.620   3.103 -0.0407 -0.0963  0.4913
 4274SOL    HW124455   0.357   1.703   3.075 -1.5642 -0.0992  2.5471
 4274SOL    HW224456   0.484   1.633   3.073 -1.0327 -0.2915 -2.6013
 4275SOL     OW24457   0.956   0.544   1.967 -0.3654  0.4827  0.4731
 4275SOL    HW124458   1.029   0.519   2.024 -1.0129  1.1954  1.6171
 4275SOL    HW224459   1.004   0.544   1.885 -0.7956  0.3498  0.2210
 4276SOL     OW24460   2.715   0.982   2.130  0.2635 -0.9756  0.0246
 4276SOL    HW124461   2.725   1.076   2.112 -0.9908 -1.1401 -1.5532
 4276SOL    HW224462   2.732   0.992   2.224 -0.3648  0.0538  0.0255
 4277SOL     OW24463   0.755   3.977   5.850  0.2783 -0.5222  0.5421
 4277SOL    HW124464   0.731   4.051   5.906 -2.5757  0.2486 -1.6979
 4277SOL    HW224465   0.838   3.953   5.892 -0.5666 -2.4828  1.0861
 4278SOL     OW24466   3.957   1.535   5.590 -0.2505  0.2831 -0.0956
 4278SOL    HW124467   4.021   1.469   5.565 -0.4268 -0.3518  1.0933
 4278SOL    HW224468   3.925   1.491   5.669 -2.6219  3.8870  0.9702
 4279SOL     OW24469   3.264   0.619   8.511  0.3603 -0.0637 -0.3167
 4279SOL    HW124470   3.241   0.538   8.466 -0.3963 -0.9127  1.5748
 4279SOL    HW224471   3.336   0.590   8.567  1.0823 -0.0007 -1.2134
 4280SOL     OW24472   3.809   3.889  16.322  0.2488  0.0128  0.6064
 4280SOL    HW124473   3.866   3.860  16.251 -0.9708 -0.3939 -0.2209
 4280SOL    HW224474   3.744   3.941  16.275  0.4280 -0.2645  0.0520
 4281SOL     OW24475   4.681   2.269   4.819 -0.7526  0.5569  0.2099
 4281SOL    HW124476   4.642   2.309   4.742  0.4109  0.5958 -0.3675
 4281SOL    HW224477   4.690   2.349   4.870 -0.4783  0.1751  0.7615
 4282SOL     OW24478   2.294   1.244  10.394  0.4074  0.7105  0.2848
 4282SOL    HW124479   2.378   1.198  10.387 -1.1952 -1.7712 -2.5931
 4282SOL    HW224480   2.328   1.320  10.346  0.4004  1.6092  1.6973
 4283SOL     OW24481   4.035   1.968   6.382 -0.3674 -0.8920  0.6265
 4283SOL    HW124482   3.987   1.970   6.465  0.0012  0.1463  0.8114
 4283SOL    HW224483   4.090   2.046   6.391  1.2388 -2.1442  1.8183
 4284SOL     OW24484   1.093   3.078   8.036 -0.2189 -0.7057 -0.0862
 4284SOL    HW124485   1.135   3.001   8.074  0.3604 -0.8980 -1.0969
 4284SOL    HW224486   1.070   3.124   8.117 -0.1870 -1.4777  0.3569
 4285SOL     OW24487   1.278   1.927   6.895 -0.3114 -0.1424 -0.0904
 4285SOL    HW124488   1.298   2.018   6.915  1.1413 -0.0228 -2.0711
 4285SOL    HW224489   1.328   1.923   6.814  1.8647 -1.3792  1.2933
 4286SOL     OW24490   4.514   1.272   3.343 -0.1708  0.8759 -0.0669
 4286SOL    HW124491   4.509   1.207   3.412 -0.6373 -0.1978 -1.1061
 4286SOL    HW224492   4.608   1.287   3.336 -0.3800  3.3772  2.4156
 4287SOL     OW24493   2.518   2.987  11.713 -0.4931 -0.3019  0.1178
 4287SOL    HW124494   2.467   3.029  11.782 -0.2902  0.3391 -0.1254
 4287SOL    HW224495   2.540   3.061  11.656  0.2472  0.8049  1.8496
 4288SOL     OW24496   1.744   1.546   3.985 -0.0933 -0.1537  0.8334
 4288SOL    HW124497   1.815   1.610   3.991 -1.9845  2.1605 -1.4026
 4288SOL    HW224498   1.756   1.478   4.051  0.6281 -3.4801 -2.6605
 4289SOL     OW24499   1.076   2.073  10.441 -0.5787  0.6216 -0.0062
 4289SOL    HW124500   1.015   2.107  10.507 -0.8830 -1.6942  0.8949
 4289SOL    HW224501   1.021   2.014  10.389  1.2020 -1.2364  0.1992
 4290SOL     OW24502   1.339   3.933   8.133 -0.0055  0.5437 -1.1046
 4290SOL    HW124503   1.316   4.023   8.109  0.0684  0.8908  0.1163
 4290SOL    HW224504   1.435   3.936   8.140 -0.1343 -0.8331  1.1447
 4291SOL     OW24505   0.032   4.709   5.344 -0.5537  0.0351  0.0747
 4291SOL    HW124506   0.105   4.714   5.406  0.3304 -0.2192 -0.9466
 4291SOL    HW224507   0.017   4.615   5.341  0.3586 -0.1108  0.2243
 4292SOL     OW24508   1.723   2.911   6.422  0.1652  0.0352  0.1614
 4292SOL    HW124509   1.776   2.896   6.500  1.3498 -1.3566 -0.9070
 4292SOL    HW224510   1.674   2.828   6.417 -0.2031  0.1389  2.0088
 4293SOL     OW24511   0.985   4.565   2.528  0.2520 -0.3609  0.0629
 4293SOL    HW124512   0.923   4.634   2.504  1.6262  0.7142 -0.3433
 4293SOL    HW224513   0.984   4.507   2.452  2.6313  1.6798 -1.5004
 4294SOL     OW24514   0.923   3.458   3.226 -0.3508 -0.0286 -0.3444
 4294SOL    HW124515   0.920   3.363   3.235 -0.3767  0.1868  2.0242
 4294SOL    HW224516   0.905   3.463   3.133  0.9526  0.2149 -0.5838
 4295SOL     OW24517   0.105   3.818   5.175 -0.0203  0.1765 -0.1422
 4295SOL    HW124518   0.055   3.794   5.097  1.2690 -2.5767 -0.1281
 4295SOL    HW224519   0.070   3.757   5.240 -1.8183 -0.1329 -1.3979
 4296SOL     OW24520   0.809   3.389   6.531  0.1486  0.1227 -0.3871
 4296SOL    HW124521   0.803   3.354   6.442  0.7279 -0.2849 -0.2697
 4296SOL    HW224522   0.722   3.379   6.568 -0.4167  0.4161 -1.6662
 4297SOL     OW24523   4.633   3.686  15.345  0.0459 -0.7923 -0.0696
 4297SOL    HW124524   4.718   3.674  15.388  1.1154 -1.6793 -2.3915
 4297SOL    HW224525   4.660   3.671  15.254 -0.8918 -3.0146  0.0114
 4298SOL     OW24526   4.697   3.353  11.769 -0.4698 -0.1133  0.0168
 4298SOL    HW124527   4.683   3.259  11.778 -2.3707  0.2535  0.9727
 4298SOL    HW224528   4.700   3.386  11.859 -0.0300 -0.6306  0.1917
 4299SOL     OW24529   2.400   3.414   4.193  0.2246  0.5501  0.1106
 4299SOL    HW124530   2.319   3.364   4.207  2.2876 -2.6919  0.4011
 4299SOL    HW224531   2.453   3.360   4.134  0.0739  1.0328 -0.4734
 4300SOL     OW24532   0.211   0.862   5.613 -0.6772  0.2986 -0.2241
 4300SOL    HW124533   0.121   0.850   5.582 -1.1324  0.6908  0.9537
 4300SOL    HW224534   0.196   0.869   5.707 -0.9300  1.5828 -0.3599
 4301SOL     OW24535   0.379   2.191   9.504 -0.0061  0.0045 -0.2342
 4301SOL    HW124536   0.390   2.096   9.511 -1.4867 -0.0861  0.6417
 4301SOL    HW224537   0.295   2.211   9.544 -0.5350 -2.7614  0.0498
 4302SOL     OW24538   0.795   2.832  10.981  0.2121  0.3335 -0.1796
 4302SOL    HW124539   0.811   2.745  10.945 -2.2256 -0.4676  0.6555
 4302SOL    HW224540   0.879   2.851  11.022  0.9686 -0.3832 -1.4011
 4303SOL     OW24541   1.854   3.704  12.488  0.1429 -0.6345 -0.0669
 4303SOL    HW124542   1.779   3.648  12.466  1.0117 -0.9915 -2.1039
 4303SOL    HW224543   1.887   3.733  12.403 -0.7315  0.1189 -0.1462
 4304SOL     OW24544   0.314   1.501   2.768  0.2024  0.1477  0.2391
 4304SOL    HW124545   0.277   1.589   2.774 -1.6053 -0.5895  0.1231
 4304SOL    HW224546   0.398   1.514   2.812  0.5907 -1.6348  0.0373
 4305SOL     OW24547   4.632   0.622   3.178  0.3371  0.6538  0.2379
 4305SOL    HW124548   4.614   0.533   3.148 -0.7860  1.6180 -1.9824
 4305SOL    HW224549   4.682   0.665   3.108 -0.5448 -1.5216 -1.7396
 4306SOL     OW24550   4.033   3.961  11.570 -0.0329  0.6579 -0.1059
 4306SOL    HW124551   4.049   3.908  11.648  0.7101  1.3892  0.2384
 4306SOL    HW224552   4.123   3.982  11.545 -0.0449  0.1850 -0.5542
 4307SOL     OW24553   3.749   4.017   8.275  0.4586  0.5201 -0.0562
 4307SOL    HW124554   3.724   4.107   8.256  3.0185  1.5721  1.5137
 4307SOL    HW224555   3.678   3.981   8.329  1.3996  1.3964  1.7689
 4308SOL     OW24556   4.138   4.627   7.022 -0.0604 -0.7179 -0.0537
 4308SOL    HW124557   4.200   4.698   7.037 -2.4103  1.1269  0.9131
 4308SOL    HW224558   4.107   4.664   6.939 -2.4607  0.3093  1.2844
 4309SOL     OW24559   0.285   3.634  14.834  0.0687 -0.1969 -0.4152
 4309SOL    HW124560   0.218   3.676  14.781 -0.4200  1.6314  1.6615
 4309SOL    HW224561   0.311   3.567  14.771 -4.8330 -1.0557 -1.5591
 4310SOL     OW24562   4.148   0.027   8.889  0.5016 -0.3683  1.1030
 4310SOL    HW124563   4.202   0.066   8.821 -3.3066  3.1559  0.1096
 4310SOL    HW224564   4.223   4.730   8.939  0.9569 -1.8528 -0.6098
 4311SOL     OW24565   2.458   2.134   4.949  0.3117 -0.3197 -0.7866
 4311SOL    HW124566   2.524   2.175   5.004  1.1631 -1.1720 -1.1721
 4311SOL    HW224567   2.480   2.177   4.866  0.2701  0.4589 -0.3925
 4312SOL     OW24568   2.817   0.715   8.528  0.1654  0.2610 -0.2588
 4312SOL    HW124569   2.833   0.757   8.443 -0.2880 -2.3831 -1.6546
 4312SOL    HW224570   2.905   0.726   8.562 -0.3510  0.5916  0.9733
 4313SOL     OW24571   1.298   2.363  13.843  0.0978 -0.1048 -0.2668
 4313SOL    HW124572   1.372   2.338  13.898  0.3911 -0.2224 -0.7125
 4313SOL    HW224573   1.226   2.357  13.906  0.5813  1.5291  0.4343
 4314SOL     OW24574   0.548   1.028  13.046 -0.2816 -0.5257 -0.5266
 4314SOL    HW124575   0.562   1.043  12.953  0.5838  1.4021 -0.0799
 4314SOL    HW224576   0.454   1.011  13.049 -0.5850  1.1940 -0.1703
 4315SOL     OW24577   0.145   2.456   7.467  0.5021  0.0347 -0.0898
 4315SOL    HW124578   0.163   2.401   7.391 -0.6497 -0.7941  0.2215
 4315SOL    HW224579   0.192   2.535   7.441  2.1745 -1.6577 -2.1590
 4316SOL     OW24580   4.681   4.524   6.171 -0.2338  0.3483  0.3692
 4316SOL    HW124581   0.017   4.576   6.202  0.2571 -0.2501  0.2309
 4316SOL    HW224582   4.683   4.451   6.234 -0.0536 -1.2917 -1.5153
 4317SOL     OW24583   2.807   3.648  15.693 -0.5497  0.3337  0.1622
 4317SOL    HW124584   2.780   3.701  15.618  0.9564  0.4910 -0.2612
 4317SOL    HW224585   2.736   3.584  15.685  0.4384 -0.8841  1.2970
 4318SOL     OW24586   4.658   0.867   4.904 -0.0085  0.3781  0.6017
 4318SOL    HW124587   4.703   0.839   4.984 -0.5519 -1.5347  0.2514
 4318SOL    HW224588   4.707   0.939   4.865 -1.1867  1.1017  0.4519
 4319SOL     OW24589   0.608   2.263   5.784 -0.2834  0.0163  0.1700
 4319SOL    HW124590   0.656   2.180   5.786  0.5866  0.5860  3.1154
 4319SOL    HW224591   0.657   2.310   5.851  0.0141  0.5967 -0.4468
 4320SOL     OW24592   2.553   4.633   3.503 -0.0898  0.1921  0.2042
 4320SOL    HW124593   2.636   4.657   3.542 -0.2727 -2.2139  2.0569
 4320SOL    HW224594   2.513   4.585   3.576 -0.0686 -1.9674 -1.1826
 4321SOL     OW24595   0.421   1.889   9.510 -0.3658 -0.0425 -0.4590
 4321SOL    HW124596   0.507   1.878   9.551 -1.1693 -1.2978  0.9186
 4321SOL    HW224597   0.373   1.811   9.539 -1.5187  1.2897  1.1838
 4322SOL     OW24598   1.311   0.405   9.590  0.1926  0.6609 -0.1917
 4322SOL    HW124599   1.273   0.404   9.502 -0.2026 -1.5278 -0.0013
 4322SOL    HW224600   1.386   0.464   9.578  0.8988 -0.5381 -1.6850
 4323SOL     OW24601   0.506   3.805   2.962  0.0625 -0.0099 -0.2209
 4323SOL    HW124602   0.480   3.748   2.890  1.1559  0.9300 -1.3606
 4323SOL    HW224603   0.582   3.840   2.916 -0.6195 -0.8615 -1.9826
 4324SOL     OW24604   1.225   0.003   3.049  0.0255 -0.5658  0.8174
 4324SOL    HW124605   1.151   4.684   3.074 -0.1327 -1.0845 -0.7603
 4324SOL    HW224606   1.230   4.722   2.955 -2.2374 -0.6864  0.7214
 4325SOL     OW24607   4.119   2.396  17.200  0.5841  0.5515 -0.1210
 4325SOL    HW124608   4.038   2.446  17.193  0.3456 -0.2798 -3.1220
 4325SOL    HW224609   4.164   2.426  17.121 -0.5928  1.6298 -0.3654
 4326SOL     OW24610   4.736   4.232   1.403  0.3742 -0.1075 -0.2129
 4326SOL    HW124611   4.713   4.150   1.447 -0.5820  0.7647  0.8884
 4326SOL    HW224612   0.069   4.252   1.465  1.5645  2.6363 -2.4616
 4327SOL     OW24613   2.595   1.379   3.769  0.2445  0.3081 -0.2700
 4327SOL    HW124614   2.601   1.474   3.775  2.1269  0.2494 -0.9456
 4327SOL    HW224615   2.583   1.372   3.674 -2.5642 -1.5148  0.2254
 4328SOL     OW24616   0.086   1.323   3.362  0.2431 -0.7380 -0.5878
 4328SOL    HW124617   0.154   1.390   3.350 -1.1543  0.7685 -0.1117
 4328SOL    HW224618   0.113   1.295   3.450  1.7123 -1.0979 -1.1438
 4329SOL     OW24619   3.836   0.815   8.847  0.1049 -0.3160  0.4603
 4329SOL    HW124620   3.751   0.775   8.830  0.5136 -0.4263 -1.3351
 4329SOL    HW224621   3.874   0.800   8.760 -0.6109 -1.7883  0.4071
 4330SOL     OW24622   4.022   3.263   4.419 -0.3165  0.0198 -0.8849
 4330SOL    HW124623   4.023   3.256   4.324  0.5487 -1.0430 -0.7957
 4330SOL    HW224624   4.002   3.355   4.436  2.5804  0.4246  0.2847
 4331SOL     OW24625   2.233   0.573   3.174 -0.4109 -0.0559 -0.0497
 4331SOL    HW124626   2.157   0.540   3.126 -0.4748  0.6650 -0.4369
 4331SOL    HW224627   2.270   0.619   3.099 -0.8670 -0.2011 -0.3667
 4332SOL     OW24628   1.242   3.158   3.494 -0.1065  0.4800 -0.0888
 4332SOL    HW124629   1.183   3.219   3.537  1.0596 -0.4872  2.9203
 4332SOL    HW224630   1.289   3.209   3.428  1.3443 -0.7055  0.0045
 4333SOL     OW24631   1.078   4.404   6.569 -0.4439  0.1003  1.0886
 4333SOL    HW124632   0.990   4.428   6.541  0.1306 -1.1569 -1.7563
 4333SOL    HW224633   1.079   4.312   6.544  0.1303 -0.1048  1.8505
 4334SOL     OW24634   0.717   4.721   6.321  0.4995  0.6058  0.5980
 4334SOL    HW124635   0.637   4.701   6.272 -0.1651  1.5856  1.2828
 4334SOL    HW224636   0.685   4.735   6.410 -1.8589 -0.0983 -0.1487
 4335SOL     OW24637   2.434   2.606  14.720  0.2236  0.7557 -0.4264
 4335SOL    HW124638   2.524   2.589  14.692  1.4343  0.1246  3.9614
 4335SOL    HW224639   2.415   2.531  14.777  0.2651  0.4315 -0.8363
 4336SOL     OW24640   0.681   1.669   9.434  0.0165 -0.2993 -0.1116
 4336SOL    HW124641   0.764   1.626   9.455 -0.4417 -0.9758  0.3125
 4336SOL    HW224642   0.684   1.754   9.477 -2.5817 -1.4498  2.3045
 4337SOL     OW24643   1.201   1.850  15.791 -0.4743 -0.0010  0.1470
 4337SOL    HW124644   1.176   1.872  15.881 -1.2435 -0.4089  0.0348
 4337SOL    HW224645   1.143   1.776  15.774 -0.5674  0.1905 -0.3929
 4338SOL     OW24646   1.508   2.415   9.401  0.0338  0.3465  0.4730
 4338SOL    HW124647   1.529   2.384   9.489  2.4693 -1.3280 -0.7092
 4338SOL    HW224648   1.554   2.358   9.339 -1.2931 -2.2231  1.8657
 4339SOL     OW24649   3.975   3.798   7.551  0.6361  0.1904  0.1211
 4339SOL    HW124650   4.066   3.771   7.539  0.3140 -0.2261 -1.3516
 4339SOL    HW224651   3.936   3.723   7.507 -1.0831  1.2332 -0.1417
 4340SOL     OW24652   0.891   2.127  17.188  0.4274  0.2249 -0.0286
 4340SOL    HW124653   0.933   2.136  17.273 -0.9150  2.5963  0.3810
 4340SOL    HW224654   0.833   2.054  17.207 -0.3840  0.9600  0.3031
 4341SOL     OW24655   1.155   3.400   7.680  0.1129  0.3232  0.0626
 4341SOL    HW124656   1.212   3.468   7.716  0.0178  0.6891 -0.4823
 4341SOL    HW224657   1.099   3.385   7.756 -2.0060 -3.6286 -2.2670
 4342SOL     OW24658   1.901   0.029   6.076  0.4536  0.0555  0.1339
 4342SOL    HW124659   1.937   0.066   5.996 -2.0458  0.3012 -0.8770
 4342SOL    HW224660   1.949   0.075   6.145  0.1388 -0.3967  0.6598
 4343SOL     OW24661   2.698   3.431   3.635  0.0692  0.6112 -0.4509
 4343SOL    HW124662   2.636   3.365   3.603 -1.4345  1.9725 -0.2785
 4343SOL    HW224663   2.651   3.472   3.707 -0.8202 -0.8394 -0.1938
 4344SOL     OW24664   3.791   3.063   6.094  0.7638  0.0688  0.5304
 4344SOL    HW124665   3.790   3.141   6.150  0.1928  0.7978 -0.4896
 4344SOL    HW224666   3.775   3.099   6.007 -1.1881  0.5511  1.0951
 4345SOL     OW24667   4.367   0.290   1.389  1.0099 -0.4983  0.0841
 4345SOL    HW124668   4.353   0.195   1.401 -0.4215 -0.1756  1.0426
 4345SOL    HW224669   4.414   0.322   1.465  1.6615 -1.2156 -0.0176
 4346SOL     OW24670   2.930   0.856   9.152 -0.6021 -0.2261  0.3684
 4346SOL    HW124671   2.901   0.767   9.173 -0.7474 -0.0371  0.9843
 4346SOL    HW224672   2.884   0.863   9.069  1.7343 -0.7814 -0.9582
 4347SOL     OW24673   2.139   2.086   7.553 -0.1795  0.1812 -0.1020
 4347SOL    HW124674   2.147   2.034   7.633 -2.1079 -0.3382 -0.2424
 4347SOL    HW224675   2.113   2.007   7.504  0.1535 -0.3952  0.6468
 4348SOL     OW24676   0.739   3.497   5.664  0.0627  0.5819  0.2907
 4348SOL    HW124677   0.789   3.425   5.625 -1.5217 -0.9885  1.1636
 4348SOL    HW224678   0.742   3.555   5.588 -0.6377  0.3924  0.1189
 4349SOL     OW24679   3.155   0.893  14.515 -0.0667  0.1284  0.6522
 4349SOL    HW124680   3.238   0.850  14.495  0.7170  2.1397 -0.4535
 4349SOL    HW224681   3.171   0.980  14.551 -0.0460  0.7240 -0.7593
 4350SOL     OW24682   2.615   3.077   3.825  0.3217 -0.0662  0.0666
 4350SOL    HW124683   2.688   3.070   3.764 -1.7114  0.7729 -2.4985
 4350SOL    HW224684   2.547   3.031   3.775 -0.2327 -0.1177  0.8786
 4351SOL     OW24685   2.698   0.167   8.936 -1.0362 -0.2506 -0.3538
 4351SOL    HW124686   2.651   0.228   8.993 -1.2902  0.7231 -1.6361
 4351SOL    HW224687   2.623   0.142   8.882  0.1284 -0.6611 -1.7637
 4352SOL     OW24688   4.285   3.242   5.261  0.7391 -0.1816  0.1185
 4352SOL    HW124689   4.317   3.206   5.179 -1.2547  1.4045 -1.3607
 4352SOL    HW224690   4.313   3.334   5.260  1.2688 -0.3300  1.5794
 4353SOL     OW24691   1.213   0.670   9.215 -0.1391  0.0999 -0.1696
 4353SOL    HW124692   1.128   0.701   9.183 -0.9650 -2.8208 -0.8578
 4353SOL    HW224693   1.183   0.585   9.249  2.6187  0.4264  3.0598
 4354SOL     OW24694   4.248   3.790   3.315 -0.0487 -0.5336 -0.2164
 4354SOL    HW124695   4.254   3.872   3.267  0.5454 -1.9384 -2.4986
 4354SOL    HW224696   4.258   3.727   3.244  0.5268 -1.9736  1.1361
 4355SOL     OW24697   3.938   1.482   5.135  0.5733 -0.1620  0.2770
 4355SOL    HW124698   4.003   1.533   5.183 -1.1490  2.0008  0.3272
 4355SOL    HW224699   3.878   1.550   5.104  0.4596  0.7387  2.4998
 4356SOL     OW24700   3.961   1.285   3.120  0.3817  0.2703  0.5093
 4356SOL    HW124701   3.914   1.222   3.064  0.4228 -1.5685  2.5280
 4356SOL    HW224702   4.042   1.278   3.070 -0.4388 -0.6988 -0.6989
 4357SOL     OW24703   2.389   0.724   8.123 -0.1093  0.3704 -0.3045
 4357SOL    HW124704   2.456   0.656   8.115 -0.7409 -0.6608  2.9330
 4357SOL    HW224705   2.443   0.801   8.109  0.1531  0.4041  0.8721
 4358SOL     OW24706   4.210   2.821   7.967 -0.0427 -0.4171  0.1533
 4358SOL    HW124707   4.298   2.816   8.005  0.5658 -1.4649 -1.3600
 4358SOL    HW224708   4.160   2.832   8.047 -1.3545 -1.4887 -0.5115
 4359SOL     OW24709   3.839   1.183   1.804 -0.5146  0.0667  1.0657
 4359SOL    HW124710   3.851   1.203   1.711 -0.9274 -0.0595  0.9826
 4359SOL    HW224711   3.852   1.269   1.841  0.9443  0.8465 -1.2377
 4360SOL     OW24712   0.384   1.746   5.317 -0.3632  0.6176 -0.8579
 4360SOL    HW124713   0.480   1.748   5.320 -0.4775  1.1593  2.9409
 4360SOL    HW224714   0.371   1.690   5.241 -0.3176 -0.2454 -0.2395
 4361SOL     OW24715   2.894   3.273  13.261 -0.7650  0.0909 -0.4812
 4361SOL    HW124716   2.939   3.268  13.177  0.1456  1.0345 -0.0647
 4361SOL    HW224717   2.861   3.362  13.253  2.0088  1.1770  0.1744
 4362SOL     OW24718   0.572   2.192  14.062 -0.3955  0.1023  0.0746
 4362SOL    HW124719   0.511   2.119  14.075 -1.1540  0.4450 -1.5419
 4362SOL    HW224720   0.599   2.155  13.978 -2.2752  2.2480 -1.4922
 4363SOL     OW24721   3.607   1.570  11.239 -0.3645  0.0955 -0.8128
 4363SOL    HW124722   3.582   1.631  11.169 -1.7291  1.2725  0.7137
 4363SOL    HW224723   3.536   1.575  11.303  0.6648 -0.7031  0.3766
 4364SOL     OW24724   2.703   3.037   4.391 -0.3367  0.3121 -0.4470
 4364SOL    HW124725   2.790   3.015   4.424 -0.1061  3.0394  0.7637
 4364SOL    HW224726   2.662   3.068   4.472  5.6466  2.9556  1.5617
 4365SOL     OW24727   1.415   0.352   6.807 -0.0173  0.3230 -0.2677
 4365SOL    HW124728   1.491   0.367   6.864 -1.5874  0.6658  1.7118
 4365SOL    HW224729   1.384   0.271   6.847 -0.1230  0.1411 -0.7269
 4366SOL     OW24730   2.491   0.004   7.559 -0.2538  0.5106  0.0948
 4366SOL    HW124731   2.514   0.034   7.647  3.4397 -0.1882 -0.6149
 4366SOL    HW224732   2.579   4.732   7.521 -0.2199  1.0722  0.0468
 4367SOL     OW24733   0.025   4.037   6.967  0.6166  0.5334 -0.3759
 4367SOL    HW124734   4.692   3.992   7.013  2.5128 -1.3250  0.6652
 4367SOL    HW224735   0.010   4.130   6.986 -2.4901 -0.3681  1.5042
 4368SOL     OW24736   1.712   0.429   4.974  0.5314 -0.3319 -0.1848
 4368SOL    HW124737   1.637   0.388   5.016  0.9917 -3.9520 -2.9772
 4368SOL    HW224738   1.689   0.511   5.018  0.9689  0.0992 -0.7570
 4369SOL     OW24739   3.233   3.058   5.364 -0.3911  0.1177  0.1632
 4369SOL    HW124740   3.200   2.982   5.317 -1.2124  0.9539 -0.5977
 4369SOL    HW224741   3.272   3.109   5.293 -0.3081 -0.8551 -0.4945
 4370SOL     OW24742   3.435   3.937   4.053  0.2429  0.6013 -0.8682
 4370SOL    HW124743   3.398   3.858   4.014 -2.5857  1.0998  0.8306
 4370SOL    HW224744   3.511   3.950   3.995  1.0678  0.2741  0.1473
 4371SOL     OW24745   4.061   0.511   8.680 -0.3515 -0.1208  0.3342
 4371SOL    HW124746   4.118   0.587   8.690  1.9664 -2.2392  2.9116
 4371SOL    HW224747   4.109   0.451   8.623  0.2431 -0.0039  0.7171
 4372SOL     OW24748   2.093   2.442   9.469 -0.5811 -0.6172  0.2317
 4372SOL    HW124749   2.084   2.348   9.481  0.9431 -0.6933  0.7496
 4372SOL    HW224750   2.065   2.462   9.558  2.9838  1.0552  0.9826
 4373SOL     OW24751   0.757   0.465  14.431 -0.3463 -0.1955 -0.4039
 4373SOL    HW124752   0.665   0.466  14.458 -0.1178 -1.1469  0.3851
 4373SOL    HW224753   0.762   0.556  14.401 -1.4474 -0.9685 -2.9198
 4374SOL     OW24754   1.321   0.335   8.486 -0.0660 -0.3750  0.3394
 4374SOL    HW124755   1.303   0.259   8.431  0.9943 -1.0273  0.8896
 4374SOL    HW224756   1.234   0.361   8.515 -0.5505 -2.3576  0.6500
 4375SOL     OW24757   3.711   1.993   8.850  0.1592 -0.4755 -0.1600
 4375SOL    HW124758   3.732   2.007   8.943 -1.4199 -1.7558  0.3926
 4375SOL    HW224759   3.751   2.072   8.813  0.5533 -0.5412  0.1217
 4376SOL     OW24760   4.437   0.877   7.156 -0.5234 -0.1036  0.0922
 4376SOL    HW124761   4.363   0.854   7.100 -1.0009  0.3696  0.5394
 4376SOL    HW224762   4.508   0.904   7.098 -0.1497  0.3773  0.7744
 4377SOL     OW24763   1.577   0.995  13.442 -0.3277 -0.8730  0.2502
 4377SOL    HW124764   1.671   1.010  13.434 -0.5844  0.2576 -0.5668
 4377SOL    HW224765   1.565   1.024  13.532  0.1462 -5.2032  1.7294
 4378SOL     OW24766   2.481   2.213   7.827 -0.3230 -0.4020  0.2412
 4378SOL    HW124767   2.462   2.176   7.741 -2.0153  3.7005 -1.1282
 4378SOL    HW224768   2.547   2.150   7.856 -1.5768 -1.4477  0.8511
 4379SOL     OW24769   3.147   1.156   4.194  0.6155 -0.0037  0.3238
 4379SOL    HW124770   3.188   1.103   4.263  1.9330  0.6403  0.0488
 4379SOL    HW224771   3.174   1.247   4.210  1.2329  0.1030 -1.3559
 4380SOL     OW24772   2.095   4.249   6.640 -0.0867 -0.2938  0.2802
 4380SOL    HW124773   2.075   4.197   6.562  0.4913  0.0379 -0.0881
 4380SOL    HW224774   2.183   4.279   6.618  0.0739 -1.0041 -0.0236
 4381SOL     OW24775   0.754   4.049   2.584  0.3150  1.2124  0.7216
 4381SOL    HW124776   0.824   4.113   2.598  0.1233  1.3581  1.0230
 4381SOL    HW224777   0.794   3.965   2.605  0.0890  0.7927 -0.5354
 4382SOL     OW24778   3.311   4.630   1.833  0.0491  0.3587 -0.5966
 4382SOL    HW124779   3.295   4.536   1.822 -0.6518  0.3435  0.5497
 4382SOL    HW224780   3.257   4.635   1.912  1.5880 -2.1035  0.6268
 4383SOL     OW24781   2.898   1.025  11.123  0.1753 -0.0280 -0.0609
 4383SOL    HW124782   2.898   1.064  11.035 -2.3962 -2.0035 -0.9250
 4383SOL    HW224783   2.900   1.100  11.183 -1.4680 -0.9286  1.0961
 4384SOL     OW24784   3.746   2.802   0.752 -0.3713  0.2780  0.5369
 4384SOL    HW124785   3.759   2.896   0.767 -2.1856  0.6422 -0.1484
 4384SOL    HW224786   3.761   2.796   0.658  1.0686  2.7902  0.5796
 4385SOL     OW24787   2.351   3.737   3.933  0.1093 -0.2421 -0.2900
 4385SOL    HW124788   2.422   3.764   3.992  0.3382  0.0576 -0.7000
 4385SOL    HW224789   2.376   3.783   3.853  3.8940 -1.8422 -0.0160
 4386SOL     OW24790   4.140   1.193   6.969 -0.1818  0.5216  0.3445
 4386SOL    HW124791   4.087   1.160   7.041  0.1049  0.2485  0.4295
 4386SOL    HW224792   4.204   1.242   7.020  0.5392 -0.2882  0.2219
 4387SOL     OW24793   0.852   3.971   6.177  0.3287  0.5775 -0.4151
 4387SOL    HW124794   0.855   3.877   6.191  1.1111  0.6390 -0.1322
 4387SOL    HW224795   0.947   3.981   6.168  0.2323 -0.6944 -2.8797
 4388SOL     OW24796   4.682   3.259   5.513  0.0075 -0.1709  0.0356
 4388SOL    HW124797   4.617   3.302   5.568 -0.7758 -1.5197  0.1748
 4388SOL    HW224798   4.627   3.185   5.487  0.4607 -0.3659 -0.3688
 4389SOL     OW24799   0.673   0.986   8.763 -0.4605  0.6030 -0.5780
 4389SOL    HW124800   0.698   0.923   8.831  2.7428  1.1669 -1.2584
 4389SOL    HW224801   0.579   0.968   8.759 -0.6288  1.2578  0.5119
 4390SOL     OW24802   1.805   3.536  16.253  0.2292 -0.0976  0.3434
 4390SOL    HW124803   1.806   3.558  16.347 -0.5406  1.5146 -0.0381
 4390SOL    HW224804   1.868   3.602  16.223  0.1241  0.7448  1.9515
 4391SOL     OW24805   1.476   1.464   2.301 -0.4586  0.5269  0.3398
 4391SOL    HW124806   1.508   1.391   2.248 -1.3254 -0.7195  1.5329
 4391SOL    HW224807   1.522   1.539   2.263  1.8461 -0.5754  0.9303
 4392SOL     OW24808   4.726   1.522  15.651 -0.2419 -0.0262 -0.1994
 4392SOL    HW124809   4.635   1.497  15.668  0.4525 -0.2559  3.1207
 4392SOL    HW224810   4.731   1.493  15.560 -2.5167 -0.8423 -0.0765
 4393SOL     OW24811   3.711   4.259   2.285 -0.3414 -0.0634  0.1495
 4393SOL    HW124812   3.752   4.256   2.199  1.2048 -0.1564  0.8802
 4393SOL    HW224813   3.676   4.170   2.294  0.0172 -0.0279  1.9432
 4394SOL     OW24814   3.323   3.237   2.252  0.0081 -0.2490 -0.4347
 4394SOL    HW124815   3.407   3.272   2.222 -1.0430  0.3522 -2.7299
 4394SOL    HW224816   3.336   3.258   2.344  3.0258  1.4721 -1.2654
 4395SOL     OW24817   3.766   0.942  15.098 -0.0499  0.0271 -0.2115
 4395SOL    HW124818   3.769   0.855  15.138  0.6050  1.2399  2.4100
 4395SOL    HW224819   3.842   0.977  15.145 -0.9754  0.3771  1.0333
 4396SOL     OW24820   3.161   0.559   7.705  0.2435  0.5049  0.0611
 4396SOL    HW124821   3.207   0.615   7.643  0.9476 -1.3670 -1.0855
 4396SOL    HW224822   3.233   0.511   7.746  0.1841  2.3975  2.3946
 4397SOL     OW24823   4.620   2.340   3.673 -0.0922 -0.5481 -0.5134
 4397SOL    HW124824   4.599   2.313   3.762 -0.9785  1.1087 -0.2237
 4397SOL    HW224825   4.715   2.328   3.668  0.1053  0.5818  0.5737
 4398SOL     OW24826   3.269   4.168   9.192  0.0393  0.0103  0.0290
 4398SOL    HW124827   3.182   4.202   9.172 -0.7412 -1.6014  0.7053
 4398SOL    HW224828   3.326   4.244   9.185  0.4098 -0.5994 -3.6381
 4399SOL     OW24829   2.312   4.707   1.924  0.5099 -0.3483  0.2477
 4399SOL    HW124830   2.328   4.731   1.833  0.0080 -2.9584 -0.5388
 4399SOL    HW224831   2.395   4.680   1.964  0.1969 -0.2190  0.9692
 4400SOL     OW24832   0.159   0.443   3.804 -0.5944  0.2261 -0.8506
 4400SOL    HW124833   0.116   0.482   3.880  1.0823  0.9797 -0.3045
 4400SOL    HW224834   0.099   0.373   3.778 -1.4374  0.7585 -0.3622
 4401SOL     OW24835   0.485   4.677   0.984 -0.3383 -0.5782 -0.9423
 4401SOL    HW124836   0.397   4.657   0.953 -0.3090 -0.9479 -0.7823
 4401SOL    HW224837   0.471   0.035   0.991 -0.0653 -0.6959  1.1859
 4402SOL     OW24838   3.056   3.890   8.594 -0.1966  0.1249  0.2940
 4402SOL    HW124839   3.122   3.926   8.534 -0.9512 -1.8002 -1.6839
 4402SOL    HW224840   2.974   3.902   8.547 -0.7343  1.3786  1.5477
 4403SOL     OW24841   3.360   4.371   3.808 -0.4978 -0.0460 -0.2339
 4403SOL    HW124842   3.407   4.405   3.884 -1.5682 -0.7955  0.7626
 4403SOL    HW224843   3.278   4.357   3.855  0.4308  0.4200  1.5027
 4404SOL     OW24844   3.908   1.579   0.592 -0.2783  0.1816 -0.0670
 4404SOL    HW124845   3.842   1.646   0.611 -1.8430 -0.7456 -2.2979
 4404SOL    HW224846   3.900   1.574   0.497 -0.7074  0.7068 -0.0632
 4405SOL     OW24847   1.855   4.631   4.415 -0.7654 -0.0506 -0.0350
 4405SOL    HW124848   1.791   4.670   4.474 -0.1789  0.3936  0.3128
 4405SOL    HW224849   1.818   4.547   4.389  0.7733 -0.7502  0.0459
 4406SOL     OW24850   4.011   1.475   8.064 -0.2422 -0.0547 -0.5639
 4406SOL    HW124851   4.065   1.460   7.987  1.7249  0.0211  0.8056
 4406SOL    HW224852   4.031   1.403   8.123 -0.2895 -0.8763 -1.5433
 4407SOL     OW24853   2.397   3.073  13.912 -0.0953 -0.1831  0.5469
 4407SOL    HW124854   2.340   3.147  13.894  0.6843 -0.1455 -1.7633
 4407SOL    HW224855   2.427   3.100  13.999  0.6758 -2.5939  1.0350
 4408SOL     OW24856   3.304   4.206   6.401 -0.8992  0.0936 -0.0668
 4408SOL    HW124857   3.215   4.227   6.373 -0.5106  1.5909 -0.2036
 4408SOL    HW224858   3.293   4.111   6.397 -1.4359  0.0778  1.6253
 4409SOL     OW24859   3.759   3.992   1.442  0.2657  0.0100  0.1326
 4409SOL    HW124860   3.682   4.030   1.399 -0.4038  1.3008  2.4743
 4409SOL    HW224861   3.733   4.020   1.530  1.7748  0.4628  0.4332
 4410SOL     OW24862   3.203   0.996   5.303  0.7036 -0.2932  0.2814
 4410SOL    HW124863   3.257   0.918   5.289  2.6079  1.4354 -1.8794
 4410SOL    HW224864   3.162   0.969   5.386 -0.4416  1.9381  0.4354
 4411SOL     OW24865   1.760   3.247   8.989  0.1805 -0.6656  0.5648
 4411SOL    HW124866   1.746   3.163   9.034 -1.3750 -0.8416 -0.2356
 4411SOL    HW224867   1.841   3.282   9.025 -0.9883  0.4895  2.0453
 4412SOL     OW24868   2.023   3.144   4.968 -0.4015  0.0719  0.3685
 4412SOL    HW124869   2.001   3.093   4.891 -0.3496  0.9601 -0.2356
 4412SOL    HW224870   1.979   3.226   4.945  0.5027  1.0659  2.1798
 4413SOL     OW24871   0.084   3.821   1.993 -0.2028 -0.1317  0.4629
 4413SOL    HW124872   0.016   3.887   2.002 -1.4445 -1.3384  0.0176
 4413SOL    HW224873   0.105   3.812   2.086 -0.5437  2.7084  0.8142
 4414SOL     OW24874   0.290   0.911   5.285 -0.1066 -0.2702 -0.5431
 4414SOL    HW124875   0.283   0.893   5.379  0.8137 -0.8344 -0.5834
 4414SOL    HW224876   0.329   0.830   5.253 -0.1974 -1.7145  2.9713
 4415SOL     OW24877   2.634   2.831   7.803 -0.2214  0.8113 -0.0768
 4415SOL    HW124878   2.655   2.802   7.714 -2.2387  0.0270 -0.2915
 4415SOL    HW224879   2.543   2.802   7.808  0.1922 -0.1881  1.8636
 4416SOL     OW24880   4.719   0.226   0.416  0.0354 -0.3744  0.1797
 4416SOL    HW124881   4.629   0.238   0.385  0.2249 -3.8620 -1.7501
 4416SOL    HW224882   4.730   0.307   0.465 -0.0991 -0.0112 -0.3923
 4417SOL     OW24883   0.779   1.243  10.505 -0.4845  0.0564 -0.1615
 4417SOL    HW124884   0.779   1.278  10.416  1.6301  0.5825  0.0538
 4417SOL    HW224885   0.842   1.305  10.540  0.2368  0.7601 -2.7238
 4418SOL     OW24886   1.356   3.048   8.421  0.0374  0.2281 -0.0371
 4418SOL    HW124887   1.324   3.101   8.494 -0.4755 -0.7139  0.4282
 4418SOL    HW224888   1.378   3.119   8.362  1.8570 -0.7648 -0.5547
 4419SOL     OW24889   3.970   2.600   2.401 -0.4246  0.4567  0.3261
 4419SOL    HW124890   4.017   2.684   2.399  1.3322 -0.5749 -1.5689
 4419SOL    HW224891   3.945   2.577   2.312 -0.8642  0.8196  0.3555
 4420SOL     OW24892   3.124   4.274  14.872 -0.0725  0.2834 -0.3385
 4420SOL    HW124893   3.035   4.247  14.849 -0.3368  0.0833  0.8919
 4420SOL    HW224894   3.113   4.369  14.874  0.4684  0.3432 -0.1030
 4421SOL     OW24895   1.612   0.140   1.966  0.3638 -0.2035  0.0175
 4421SOL    HW124896   1.644   0.084   1.895  0.9471  0.8701 -0.5545
 4421SOL    HW224897   1.556   0.085   2.021 -0.5608  1.0399  0.3191
 4422SOL     OW24898   0.997   1.043  10.033 -1.0423 -0.0066  0.0622
 4422SOL    HW124899   0.974   1.030  10.125  1.1473 -0.5590  0.5299
 4422SOL    HW224900   0.985   0.953  10.002  0.4275 -0.5160  0.9645
 4423SOL     OW24901   1.021   2.888   2.816  0.0520 -0.2309  0.3733
 4423SOL    HW124902   1.043   2.850   2.901 -0.6384 -1.4453  0.0060
 4423SOL    HW224903   1.026   2.982   2.831  1.8919 -0.2273 -0.3031
 4424SOL     OW24904   1.648   0.577  12.308  0.5100 -0.2458  0.0865
 4424SOL    HW124905   1.642   0.550  12.400 -1.1974  2.2260  0.6859
 4424SOL    HW224906   1.705   0.654  12.308 -2.3947  1.8822 -0.6743
 4425SOL     OW24907   0.874   4.590   8.022 -0.4747 -0.0910 -0.1383
 4425SOL    HW124908   0.836   4.532   7.956 -1.3745  1.0892 -0.6758
 4425SOL    HW224909   0.893   4.534   8.097 -1.2536  0.6578  0.6279
 4426SOL     OW24910   0.984   2.019   2.377 -0.2574  0.1558  0.5165
 4426SOL    HW124911   0.995   1.926   2.357 -0.5094 -0.1267  1.7246
 4426SOL    HW224912   0.943   2.036   2.461 -0.6498 -3.0802  0.9730
 4427SOL     OW24913   1.988   4.437   8.718 -0.4991 -0.1379  0.1227
 4427SOL    HW124914   1.987   4.478   8.805 -0.7110 -1.7755  0.8921
 4427SOL    HW224915   2.013   4.346   8.735 -2.2180 -0.4011  1.2686
 4428SOL     OW24916   4.494   4.428   4.746  0.0933  0.4941 -0.4488
 4428SOL    HW124917   4.465   4.379   4.823 -1.3071 -1.2211 -2.0624
 4428SOL    HW224918   4.546   4.356   4.710  1.7491  0.9168  1.0772
 4429SOL     OW24919   1.003   3.882   2.008  0.2698  0.1998  0.1489
 4429SOL    HW124920   0.925   3.843   2.047  0.9515 -0.5792  0.7358
 4429SOL    HW224921   0.955   3.916   1.932 -1.0758 -1.0224  0.4693
 4430SOL     OW24922   0.340   1.395  16.724  0.4464 -0.2992  0.0482
 4430SOL    HW124923   0.382   1.471  16.683  1.6271 -0.9474  0.0652
 4430SOL    HW224924   0.414   1.351  16.768 -0.6357 -1.3598  0.8022
 4431SOL     OW24925   2.607   3.285   4.780  0.2197 -0.4572  0.1514
 4431SOL    HW124926   2.599   3.195   4.812 -0.3738 -1.2992 -2.4155
 4431SOL    HW224927   2.566   3.283   4.694 -1.3433 -0.6462  0.9132
 4432SOL     OW24928   2.956   1.827   8.573 -0.3878  0.2830 -0.0591
 4432SOL    HW124929   2.913   1.859   8.494 -0.0251  0.4126 -0.2046
 4432SOL    HW224930   2.879   1.812   8.628 -0.0621  2.3374  0.9414
 4433SOL     OW24931   0.588   1.676   4.233 -0.0358  0.9943  0.1457
 4433SOL    HW124932   0.578   1.584   4.210 -0.4666  1.6275 -2.2155
 4433SOL    HW224933   0.615   1.671   4.325 -0.2553 -1.1444  0.0941
 4434SOL     OW24934   3.254   0.939   7.486  0.5739 -0.0056 -0.1384
 4434SOL    HW124935   3.314   0.871   7.516  0.7914 -0.5724 -1.8804
 4434SOL    HW224936   3.267   0.992   7.565  0.4209 -0.3533  0.1165
 4435SOL     OW24937   0.156   2.277   9.629 -0.4106  0.2726  0.1662
 4435SOL    HW124938   0.102   2.198   9.631  1.2174 -0.8655 -0.9473
 4435SOL    HW224939   0.092   2.347   9.614 -1.1366  0.2135  2.9775
 4436SOL     OW24940   2.552   1.949  15.914 -0.0202 -0.0255  0.6535
 4436SOL    HW124941   2.543   2.040  15.942  0.4663 -0.5315  2.4542
 4436SOL    HW224942   2.486   1.918  15.976 -1.0030 -0.5196 -0.6343
 4437SOL     OW24943   0.194   0.416   4.347  0.2974 -0.3956  0.4224
 4437SOL    HW124944   0.253   0.491   4.341  0.5452 -0.7046 -0.9929
 4437SOL    HW224945   0.157   0.413   4.259  2.3210  1.3428 -0.4971
 4438SOL     OW24946   2.057   0.147   5.891 -0.0112 -0.0697  0.2277
 4438SOL    HW124947   2.022   0.228   5.852  0.4305  0.1754  0.3410
 4438SOL    HW224948   2.146   0.177   5.908 -0.2581  1.3971 -1.0588
 4439SOL     OW24949   0.174   3.294   8.965 -0.0846 -0.2266 -0.0031
 4439SOL    HW124950   0.207   3.205   8.954 -0.3250 -0.4178  0.8222
 4439SOL    HW224951   0.092   3.299   8.915  0.4868 -1.9662 -1.1188
 4440SOL     OW24952   2.566   1.744   7.670 -0.1604  0.1983  0.0642
 4440SOL    HW124953   2.597   1.666   7.624 -2.8243 -0.0500 -1.2850
 4440SOL    HW224954   2.611   1.742   7.754  0.0191 -0.4505 -0.0514
 4441SOL     OW24955   0.087   2.189  15.079 -0.0209 -0.1652 -0.3936
 4441SOL    HW124956   0.011   2.232  15.118 -0.1350 -0.7070 -0.0279
 4441SOL    HW224957   0.156   2.256  15.077  0.3658 -0.5769 -0.6975
 4442SOL     OW24958   3.903   4.215   4.411  0.1119  0.0241  0.5817
 4442SOL    HW124959   3.955   4.296   4.404  0.5080 -0.1295  1.8943
 4442SOL    HW224960   3.951   4.159   4.350  0.3172  1.8069 -0.9334
 4443SOL     OW24961   1.091   1.364   7.084 -0.3008 -0.6202 -0.0758
 4443SOL    HW124962   1.048   1.353   7.168 -0.1831 -1.7256 -0.1669
 4443SOL    HW224963   1.036   1.428   7.039  1.8715 -0.1777 -2.1040
 4444SOL     OW24964   3.907   1.681   2.728  0.7388 -0.0111  0.4796
 4444SOL    HW124965   3.991   1.698   2.684  0.7590  1.7315  1.2161
 4444SOL    HW224966   3.917   1.586   2.737 -0.3168 -0.3470 -1.8533
 4445SOL     OW24967   0.477   4.113   8.152  0.7485  0.0772 -0.0486
 4445SOL    HW124968   0.474   4.208   8.166  0.2016 -0.0437  0.6602
 4445SOL    HW224969   0.404   4.099   8.092 -1.2237  2.7654  1.7186
 4446SOL     OW24970   0.862   0.596   3.811  0.3023  0.2280 -0.3284
 4446SOL    HW124971   0.800   0.645   3.864 -0.4657  0.3628 -1.3651
 4446SOL    HW224972   0.818   0.515   3.785  0.7867 -0.0089 -0.4216
 4447SOL     OW24973   3.945   0.881   2.446 -0.2510  0.8331  0.3654
 4447SOL    HW124974   3.923   0.930   2.525 -3.3977 -1.1229  0.6944
 4447SOL    HW224975   4.025   0.831   2.466 -1.4470 -1.0175  0.4898
 4448SOL     OW24976   4.078   1.249   0.095 -0.1490 -0.5613 -0.1641
 4448SOL    HW124977   4.081   1.337   0.057  2.5772  0.6504  2.8904
 4448SOL    HW224978   4.139   1.212   0.032 -0.5459  1.4893 -1.7375
 4449SOL     OW24979   0.646   0.024   2.795  0.0666 -0.1206 -0.2389
 4449SOL    HW124980   0.728   0.020   2.843  1.0378  2.3145 -1.7106
 4449SOL    HW224981   0.575   0.007   2.857 -0.6137  1.4503 -0.5775
 4450SOL     OW24982   4.563   1.700   5.838 -0.3563  0.3832 -0.2230
 4450SOL    HW124983   4.566   1.690   5.743  0.0536 -1.7728  0.0093
 4450SOL    HW224984   4.640   1.648   5.863 -0.9108  0.2417  1.1967
 4451SOL     OW24985   3.434   3.795   5.051 -0.3643  0.5112 -0.0110
 4451SOL    HW124986   3.527   3.774   5.048 -0.5503 -0.1781 -0.9992
 4451SOL    HW224987   3.430   3.869   5.112 -1.7754 -1.2939  2.1133
 4452SOL     OW24988   2.652   2.330   5.749 -0.0444 -0.1786  0.0094
 4452SOL    HW124989   2.736   2.324   5.702  1.1803 -2.1388  2.4416
 4452SOL    HW224990   2.622   2.412   5.709 -1.4250  0.7263  2.9192
 4453SOL     OW24991   2.004   0.405   5.912 -0.8143  0.0792 -0.2517
 4453SOL    HW124992   1.993   0.460   5.990  0.6434 -0.8112  0.5933
 4453SOL    HW224993   2.062   0.459   5.859 -0.8383  0.3336 -0.0198
 4454SOL     OW24994   3.113   2.384  15.472  0.4089 -0.1359  0.2964
 4454SOL    HW124995   3.199   2.417  15.501 -0.2694 -1.2054  3.5689
 4454SOL    HW224996   3.131   2.377  15.379  0.6041  1.4980  0.2039
 4455SOL     OW24997   3.499   1.556  12.134 -0.2950 -0.0809  0.3212
 4455SOL    HW124998   3.481   1.592  12.221 -1.3240 -0.1315  0.1255
 4455SOL    HW224999   3.594   1.555  12.127 -0.1393 -0.6639  2.4944
 4456SOL     OW25000   2.647   3.499   7.361 -0.4596  0.3974 -0.2172
 4456SOL    HW125001   2.616   3.578   7.407 -0.2193  0.3158  0.0834
 4456SOL    HW225002   2.583   3.435   7.393 -0.2468  1.4919  2.4626
 4457SOL     OW25003   2.451   1.760   9.269  0.1395  0.1578  0.4494
 4457SOL    HW125004   2.446   1.685   9.209  3.2126  0.0269  0.3692
 4457SOL    HW225005   2.546   1.756   9.280  0.1700 -2.5698 -0.7307
 4458SOL     OW25006   2.401   2.383  13.341  0.3709 -0.2868  0.1025
 4458SOL    HW125007   2.404   2.333  13.260 -0.6268 -0.6893  0.3117
 4458SOL    HW225008   2.435   2.469  13.317 -0.3581  0.0268  0.1914
 4459SOL     OW25009   2.830   2.912  16.009 -0.7160  0.0583  0.1586
 4459SOL    HW125010   2.803   2.931  15.919 -0.0065 -0.5082 -0.1786
 4459SOL    HW225011   2.787   2.828  16.027 -0.1243 -0.2957 -0.0674
 4460SOL     OW25012   3.370   3.606  15.411 -0.1609 -0.2282 -0.0492
 4460SOL    HW125013   3.449   3.658  15.393 -1.6606  1.1451 -2.7371
 4460SOL    HW225014   3.398   3.544  15.478 -1.0057  0.3028  0.7948
 4461SOL     OW25015   2.369   4.133  12.058 -0.3427 -0.1394  0.4266
 4461SOL    HW125016   2.307   4.062  12.040  0.5786 -0.8327  0.0191
 4461SOL    HW225017   2.369   4.180  11.974  0.9366 -0.6226  0.1631
 4462SOL     OW25018   4.434   3.302  12.713  0.0240 -0.0185  0.5193
 4462SOL    HW125019   4.474   3.371  12.767 -0.1076 -0.2619  0.9301
 4462SOL    HW225020   4.503   3.294  12.647 -1.5442 -1.1162 -0.9923
 4463SOL     OW25021   0.498   0.599   0.081 -0.0320 -0.1380 -0.1953
 4463SOL    HW125022   0.590   0.626   0.081  0.4907 -1.8977 -0.6648
 4463SOL    HW225023   0.503   0.530   0.147  2.7950  2.2054  2.0370
 4464SOL     OW25024   2.132   4.070   6.147 -0.4837  0.1211  0.1466
 4464SOL    HW125025   2.080   4.122   6.209  2.4888  2.4479  0.7075
 4464SOL    HW225026   2.208   4.049   6.201  2.7366  0.3982 -4.3364
 4465SOL     OW25027   4.722   4.466  14.639 -0.1561  0.3540 -0.4597
 4465SOL    HW125028   0.022   4.385  14.603  1.2987 -0.7018  3.4203
 4465SOL    HW225029   4.670   4.437  14.713  1.1028  1.1196  0.7180
 4466SOL     OW25030   1.803   2.012   0.510 -0.3523  0.0218  0.2322
 4466SOL    HW125031   1.844   2.092   0.478  2.7586 -0.8912  1.9900
 4466SOL    HW225032   1.726   2.009   0.453  1.0246  2.5555 -1.7416
 4467SOL     OW25033   3.455   3.173   9.038  0.1782 -0.0141 -0.2762
 4467SOL    HW125034   3.527   3.217   8.992  0.5783  0.1031  0.4699
 4467SOL    HW225035   3.407   3.245   9.080 -0.2777 -0.2335 -0.4242
 4468SOL     OW25036   4.604   1.390   9.864 -0.0496  0.1669  0.4486
 4468SOL    HW125037   4.516   1.358   9.849 -0.0630  1.8167 -2.8198
 4468SOL    HW225038   4.654   1.317   9.903 -2.0139 -0.6623  1.3989
 4469SOL     OW25039   1.532   3.054   3.265  0.0023  0.3191 -0.1926
 4469SOL    HW125040   1.563   3.119   3.202  2.3935 -1.6441 -1.0611
 4469SOL    HW225041   1.475   3.002   3.208  2.6479 -1.3794 -1.2871
 4470SOL     OW25042   2.814   3.900   5.562  1.2633 -0.9234  0.4941
 4470SOL    HW125043   2.751   3.931   5.496 -1.6867 -0.2183  3.6192
 4470SOL    HW225044   2.810   3.974   5.622 -0.6216 -1.0415  0.5159
 4471SOL     OW25045   1.651   4.392   7.330 -0.2093  0.1017 -0.1303
 4471SOL    HW125046   1.686   4.468   7.284 -0.3498  0.1625 -0.1362
 4471SOL    HW225047   1.658   4.331   7.257  0.2713 -1.3732  1.1514
 4472SOL     OW25048   3.151   0.356  11.447 -0.9740 -0.2440  0.6305
 4472SOL    HW125049   3.209   0.305  11.390 -1.1979 -1.6391  1.6320
 4472SOL    HW225050   3.093   0.391  11.379 -0.2430  0.2815  0.2879
 4473SOL     OW25051   1.934   3.949   9.551 -1.0175 -0.4456  0.7106
 4473SOL    HW125052   1.864   3.958   9.615  1.2785  2.2451  2.8159
 4473SOL    HW225053   1.907   4.003   9.476  1.0017  1.4192  1.3369
 4474SOL     OW25054   4.546   1.920  14.352  0.7441 -0.4055 -0.4825
 4474SOL    HW125055   4.513   2.007  14.329  1.9452  0.2236  0.1235
 4474SOL    HW225056   4.492   1.870  14.292 -1.0597 -1.6863  2.1946
 4475SOL     OW25057   0.845   1.124  15.006  1.1900  0.2736  0.3279
 4475SOL    HW125058   0.778   1.095  15.068  1.2309 -1.9812 -0.6858
 4475SOL    HW225059   0.793   1.132  14.927 -2.3110  1.8305  2.7960
 4476SOL     OW25060   4.108   3.052  10.721 -0.0221  0.1554 -0.0426
 4476SOL    HW125061   4.141   3.051  10.810 -0.1203 -2.3856 -0.0241
 4476SOL    HW225062   4.166   3.115  10.679  0.4039  0.7130  1.4188
 4477SOL     OW25063   2.599   3.714  13.567  0.7040 -0.3261 -0.2949
 4477SOL    HW125064   2.585   3.662  13.646  1.3580 -0.5088 -0.3053
 4477SOL    HW225065   2.665   3.774  13.602  0.4887  0.2325 -0.8442
 4478SOL     OW25066   3.198   4.065   8.065 -0.7889  0.2743  0.4230
 4478SOL    HW125067   3.175   3.977   8.034 -1.0600  0.7542 -0.7457
 4478SOL    HW225068   3.119   4.069   8.120 -0.8291  0.9888  0.3102
 4479SOL     OW25069   3.609   4.062  13.283  0.3077 -0.0642 -0.5232
 4479SOL    HW125070   3.607   4.156  13.270  0.3569  0.1119  0.7043
 4479SOL    HW225071   3.559   4.032  13.207  0.4394  1.9889 -1.3935
 4480SOL     OW25072   0.855   1.065   9.419 -0.2535 -0.3337 -0.6205
 4480SOL    HW125073   0.930   1.036   9.471 -0.1430  0.0120 -0.5895
 4480SOL    HW225074   0.787   1.005   9.451 -0.1041 -0.7059 -1.0061
 4481SOL     OW25075   4.292   1.926   2.239  0.5775 -0.8502 -0.5536
 4481SOL    HW125076   4.233   2.000   2.249 -0.2487 -1.6893  0.7351
 4481SOL    HW225077   4.327   1.957   2.156  1.2312  2.1539  0.8719
 4482SOL     OW25078   0.413   3.612  16.714  0.0572 -0.3018  0.0377
 4482SOL    HW125079   0.338   3.582  16.766  0.0082  1.3571  0.9209
 4482SOL    HW225080   0.493   3.569  16.743  2.5307  2.7022 -2.3204
 4483SOL     OW25081   3.011   1.974   5.691  0.2214 -0.4974 -0.2140
 4483SOL    HW125082   2.959   2.013   5.620 -1.5063 -1.0898  0.7089
 4483SOL    HW225083   2.991   1.881   5.683 -0.5312 -0.1417 -2.4084
 4484SOL     OW25084   0.329   4.217   2.144  1.0398 -0.3204  0.6251
 4484SOL    HW125085   0.424   4.219   2.156  1.0836 -1.8037  0.5066
 4484SOL    HW225086   0.315   4.157   2.071 -0.4093 -0.7478  1.2635
 4485SOL     OW25087   3.084   3.224  12.995 -0.5817  0.2092 -0.3931
 4485SOL    HW125088   3.020   3.236  12.925  0.7146 -1.1533 -1.7933
 4485SOL    HW225089   3.094   3.129  12.989 -0.1948  0.2418 -0.2455
 4486SOL     OW25090   1.124   0.666   5.750  0.5691 -0.0288  0.2695
 4486SOL    HW125091   1.176   0.670   5.830  0.8420 -1.2821  0.1570
 4486SOL    HW225092   1.180   0.728   5.704 -2.5214  2.4504 -0.1554
 4487SOL     OW25093   3.781   3.451   9.246  0.1718 -0.4829  0.6262
 4487SOL    HW125094   3.707   3.504   9.276  0.2581  0.4784 -0.8814
 4487SOL    HW225095   3.764   3.377   9.306  0.5425  0.3101  1.7132
 4488SOL     OW25096   2.997   4.047   9.062 -0.0185 -0.3621  0.4145
 4488SOL    HW125097   3.001   3.984   8.990  0.4076  0.8299 -0.6106
 4488SOL    HW225098   3.014   3.982   9.130  0.6443 -0.8688 -0.2387
 4489SOL     OW25099   2.137   1.607   3.350  0.4198  0.5637  0.3013
 4489SOL    HW125100   2.166   1.538   3.290 -1.3305  2.4654 -2.7106
 4489SOL    HW225101   2.210   1.668   3.343  0.8329 -0.1098 -1.0931
 4490SOL     OW25102   4.054   2.280  14.803 -0.3201 -0.3583 -0.2017
 4490SOL    HW125103   4.024   2.220  14.735  0.9471 -1.5547  0.2933
 4490SOL    HW225104   3.999   2.251  14.875 -1.0210  0.4012 -0.4351
 4491SOL     OW25105   0.724   0.719  14.341 -0.1175  0.1350 -0.1742
 4491SOL    HW125106   0.732   0.745  14.249  2.0161  1.4735  0.3901
 4491SOL    HW225107   0.651   0.770  14.376  0.0859 -0.3528  0.9416
 4492SOL     OW25108   3.663   3.019  17.198  0.0396 -0.3819  0.0006
 4492SOL    HW125109   3.655   3.079  17.273  0.4025  0.0141 -0.2793
 4492SOL    HW225110   3.577   2.977  17.201  0.4270 -1.0748  1.3225
 4493SOL     OW25111   0.993   1.417  17.656  0.1713 -0.1427  0.4920
 4493SOL    HW125112   1.088   1.409  17.654  0.4386  3.1849  1.1152
 4493SOL    HW225113   0.972   1.340  17.603  0.5873  0.2432 -0.2199
 4494SOL     OW25114   0.169   2.203  13.983  0.1355  0.2276  0.7535
 4494SOL    HW125115   0.145   2.286  14.023  1.2682  1.2004 -0.5680
 4494SOL    HW225116   0.263   2.216  13.971  0.2339 -0.0711  1.1925
 4495SOL     OW25117   3.259   0.798   9.858 -0.2160  0.3375 -0.5024
 4495SOL    HW125118   3.244   0.753   9.941 -2.5012  2.7636  0.3857
 4495SOL    HW225119   3.341   0.759   9.828  0.8962  1.3465  1.2663
 4496SOL     OW25120   3.413   1.773   7.696 -0.3500  0.6806  0.0165
 4496SOL    HW125121   3.468   1.822   7.757 -0.4238 -0.5998  1.1323
 4496SOL    HW225122   3.359   1.728   7.762 -0.5629  0.5859 -0.2243
 4497SOL     OW25123   0.208   0.363   6.092 -0.2180 -0.2421 -0.5938
 4497SOL    HW125124   0.233   0.295   6.030  1.5486  1.4102 -1.7018
 4497SOL    HW225125   0.205   0.439   6.034  1.6056  0.7766  0.6409
 4498SOL     OW25126   4.180   2.496   6.073 -0.4968  0.7172 -0.1205
 4498SOL    HW125127   4.228   2.417   6.099 -0.1131  0.6453 -1.0384
 4498SOL    HW225128   4.112   2.501   6.139 -0.8368  0.8869 -0.4850
 4499SOL     OW25129   3.901   0.647   2.025 -0.6777 -0.2984  0.3448
 4499SOL    HW125130   3.919   0.602   1.942  0.4036 -1.3220  1.1200
 4499SOL    HW225131   3.906   0.738   1.998  0.7829 -0.8896 -1.3749
 4500SOL     OW25132   4.433   4.413   1.653  0.5927  0.5481  0.0832
 4500SOL    HW125133   4.378   4.465   1.595  1.5469  0.0938 -1.2281
 4500SOL    HW225134   4.505   4.380   1.599  0.4430 -1.3772  1.0754
 4501SOL     OW25135   2.896   0.907   0.910  0.4100 -0.1829  0.4198
 4501SOL    HW125136   2.878   0.956   0.990 -5.3140  0.2780 -1.1565
 4501SOL    HW225137   2.989   0.929   0.898  0.1965  1.2282  1.3495
 4502SOL     OW25138   2.969   0.952   3.693 -0.3060 -0.2719  0.0991
 4502SOL    HW125139   2.912   0.977   3.766  3.1573  1.4825  2.2271
 4502SOL    HW225140   3.011   0.876   3.733 -0.8387  0.3424  1.8488
 4503SOL     OW25141   1.069   3.854   6.345 -0.3624 -0.4014  0.2591
 4503SOL    HW125142   0.997   3.791   6.339  0.4801 -1.2381 -1.1016
 4503SOL    HW225143   1.115   3.828   6.425 -0.6654  1.5755  1.0894
 4504SOL     OW25144   3.374   1.674   3.447 -0.3925  0.3166  0.2363
 4504SOL    HW125145   3.408   1.601   3.498 -2.8445 -0.0511  1.3156
 4504SOL    HW225146   3.381   1.630   3.362  1.2255 -1.2324  1.1852
 4505SOL     OW25147   0.668   1.729   2.320 -0.2943  0.0832  0.2777
 4505SOL    HW125148   0.760   1.751   2.310  0.1044 -0.9744  1.7269
 4505SOL    HW225149   0.626   1.786   2.255  0.6745 -0.1711 -0.5730
 4506SOL     OW25150   1.349   3.427  16.777 -0.2749  0.1191  0.2722
 4506SOL    HW125151   1.316   3.337  16.766  1.9747 -0.7041  0.1610
 4506SOL    HW225152   1.384   3.439  16.688 -1.3051  0.1494 -0.1258
 4507SOL     OW25153   1.069   3.249  15.619  0.1209 -0.7153  0.7804
 4507SOL    HW125154   1.004   3.298  15.671  1.7552  2.6236 -0.3584
 4507SOL    HW225155   1.030   3.162  15.630 -1.3923  0.1799  2.5944
 4508SOL     OW25156   4.371   3.996   1.153 -0.5386 -0.1991 -0.1012
 4508SOL    HW125157   4.392   4.042   1.235 -0.5882 -1.4095  0.5886
 4508SOL    HW225158   4.309   3.931   1.186  0.4149 -0.4916  1.1075
 4509SOL     OW25159   3.057   4.591   7.571  0.6226 -0.3384  0.4647
 4509SOL    HW125160   3.062   4.504   7.530  2.7120 -0.7555  1.6078
 4509SOL    HW225161   3.124   4.638   7.522  0.0830 -1.7178 -1.6332
 4510SOL     OW25162   0.896   1.046   2.143 -0.5015  0.2268  0.0541
 4510SOL    HW125163   0.846   1.050   2.225  2.4252  0.2119  1.8697
 4510SOL    HW225164   0.973   1.097   2.168  0.8222 -0.6207 -2.4053
 4511SOL     OW25165   4.194   0.192   4.526  0.2133 -0.8307 -0.2721
 4511SOL    HW125166   4.237   0.245   4.459  1.2640  0.9257  1.7943
 4511SOL    HW225167   4.109   0.175   4.485  1.0787 -1.4604 -1.8120
 4512SOL     OW25168   3.627   1.431   5.505  0.3015 -0.0563 -0.1797
 4512SOL    HW125169   3.702   1.377   5.482  1.4995  0.6850  1.9750
 4512SOL    HW225170   3.577   1.362   5.548  0.8427  1.3512  2.7388
 4513SOL     OW25171   2.280   3.710   3.318  0.1125 -0.5571 -0.2939
 4513SOL    HW125172   2.265   3.618   3.300  2.2340 -1.0884  0.6624
 4513SOL    HW225173   2.373   3.718   3.299  0.0179  1.9234  0.2368
 4514SOL     OW25174   0.333   0.990   2.063 -0.3020 -0.0379 -0.2472
 4514SOL    HW125175   0.256   0.943   2.094 -0.1603 -0.5216 -0.6308
 4514SOL    HW225176   0.396   0.918   2.067  1.6581  1.5929 -1.8874
 4515SOL     OW25177   1.380   0.376   5.759 -0.0314 -0.2685  0.1964
 4515SOL    HW125178   1.380   0.467   5.789 -2.7043  0.2733 -1.4483
 4515SOL    HW225179   1.444   0.319   5.800 -0.6428 -0.0854  1.4122
 4516SOL     OW25180   1.345   1.214   4.981 -0.3561 -0.5062  0.8909
 4516SOL    HW125181   1.435   1.226   4.953 -0.6212  0.4539  0.4528
 4516SOL    HW225182   1.301   1.245   4.902  2.5379  0.4634 -0.3169
 4517SOL     OW25183   1.016   2.073   8.332 -0.0687  0.4050 -0.8345
 4517SOL    HW125184   0.989   2.147   8.385 -2.6267 -0.7077 -0.6065
 4517SOL    HW225185   1.112   2.076   8.333 -0.0693  0.3495 -0.6065
 4518SOL     OW25186   2.771   1.576   9.221 -0.0125 -0.1101 -0.1004
 4518SOL    HW125187   2.762   1.666   9.187 -1.0307 -0.0772  0.2416
 4518SOL    HW225188   2.826   1.539   9.152 -1.0402 -0.5648 -0.6881
 4519SOL     OW25189   1.298   2.087   4.594  0.4633 -0.3955  0.4889
 4519SOL    HW125190   1.233   2.030   4.553 -0.0279  0.8801 -0.5109
 4519SOL    HW225191   1.295   2.052   4.683  0.5559 -0.3742  0.4999
 4520SOL     OW25192   2.833   2.786   2.570 -0.1753  0.3812  0.3760
 4520SOL    HW125193   2.884   2.759   2.647 -1.9497 -0.6308  1.1908
 4520SOL    HW225194   2.849   2.723   2.500 -0.2034  2.5146 -1.5522
 4521SOL     OW25195   0.919   0.094   5.169  0.0927 -0.1250  0.1878
 4521SOL    HW125196   1.015   0.093   5.172  0.1753 -0.3523 -2.1846
 4521SOL    HW225197   0.901   0.000   5.165 -0.2052 -0.1281  1.7958
 4522SOL     OW25198   0.532   4.721   5.991  0.5287  0.3191 -0.0871
 4522SOL    HW125199   0.508   4.646   6.046 -0.4300 -0.5349 -1.6512
 4522SOL    HW225200   0.528   4.680   5.904  1.6267  0.6021 -0.2711
 4523SOL     OW25201   0.930   1.727   0.228  0.4193  0.3227 -0.1194
 4523SOL    HW125202   0.913   1.645   0.181  0.4060 -0.0843  0.5985
 4523SOL    HW225203   0.841   1.760   0.241  0.5368  0.8492 -0.6529
 4524SOL     OW25204   2.588   3.311   5.357  0.4704  0.3028 -0.1917
 4524SOL    HW125205   2.547   3.262   5.285  0.5545 -1.7983  1.1822
 4524SOL    HW225206   2.677   3.324   5.325 -0.2934  1.9109 -1.6921
 4525SOL     OW25207   4.264   0.034   3.374  0.0220 -0.3163 -0.0835
 4525SOL    HW125208   4.266   0.060   3.466  1.4289 -1.7917  0.2916
 4525SOL    HW225209   4.171   0.048   3.358  0.0068  2.2901  2.2448
 4526SOL     OW25210   3.781   1.396  16.688 -0.3627  0.4202 -0.3843
 4526SOL    HW125211   3.824   1.458  16.629  1.6990 -0.1449  0.5499
 4526SOL    HW225212   3.732   1.342  16.626 -0.9338 -0.3246  0.7040
 4527SOL     OW25213   1.505   2.643  13.785  0.4512 -0.1259  0.5059
 4527SOL    HW125214   1.535   2.709  13.724 -1.3118 -0.3133 -0.5590
 4527SOL    HW225215   1.556   2.563  13.783  2.5834  1.3329 -1.9870
 4528SOL     OW25216   4.516   2.461   8.722 -0.4846  0.3740  0.1218
 4528SOL    HW125217   4.543   2.374   8.753  0.1832  0.1335 -1.1517
 4528SOL    HW225218   4.599   2.498   8.694 -0.2526 -0.2876 -0.0579
 4529SOL     OW25219   1.860   2.537   7.934  0.4339 -0.2520 -0.1418
 4529SOL    HW125220   1.786   2.592   7.957 -2.1244 -3.3159 -0.9065
 4529SOL    HW225221   1.931   2.584   7.978 -1.1581 -0.4979  2.6626
 4530SOL     OW25222   3.611   1.463   4.798 -0.5119  0.0015 -0.8358
 4530SOL    HW125223   3.560   1.406   4.856 -1.5724  2.5497  0.7347
 4530SOL    HW225224   3.700   1.438   4.821 -0.3889  0.8217 -0.4316
 4531SOL     OW25225   3.191   4.269   4.063 -0.0999 -0.0972  0.2167
 4531SOL    HW125226   3.220   4.259   4.154  0.3990  0.1557  0.0863
 4531SOL    HW225227   3.101   4.298   4.076 -0.2093  0.5370 -1.9393
 4532SOL     OW25228   1.226   0.028  15.598 -0.1765  0.1075 -0.2711
 4532SOL    HW125229   1.245   0.074  15.516 -1.7625  0.8058 -0.2463
 4532SOL    HW225230   1.221   4.675  15.566 -0.4422  0.3733 -0.9672
 4533SOL     OW25231   0.556   3.796   6.129 -0.3037  0.1515  0.2731
 4533SOL    HW125232   0.580   3.770   6.218 -1.1623  1.5935  0.9376
 4533SOL    HW225233   0.643   3.790   6.091 -0.3299  0.5056  0.1486
 4534SOL     OW25234   0.997   3.636  11.961 -0.1050  0.2758 -0.2903
 4534SOL    HW125235   0.924   3.584  11.928  0.3711 -0.8508  0.4107
 4534SOL    HW225236   0.980   3.644  12.055 -0.4552  2.2093 -0.5249
 4535SOL     OW25237   0.279   2.483   2.322  0.0929 -0.5397  0.3893
 4535SOL    HW125238   0.373   2.474   2.305  0.4600  0.2426  1.9608
 4535SOL    HW225239   0.259   2.576   2.314  1.0932 -0.3378  0.2089
 4536SOL     OW25240   2.741   0.519   7.400  0.2128 -0.5198  0.4029
 4536SOL    HW125241   2.728   0.468   7.480 -1.4212 -0.1342  0.3840
 4536SOL    HW225242   2.812   0.573   7.434 -0.8077  0.8051  0.4124
 4537SOL     OW25243   2.713   3.443   8.968 -0.5937 -0.6400  0.2128
 4537SOL    HW125244   2.649   3.447   9.039 -1.3520 -4.1161 -0.2710
 4537SOL    HW225245   2.749   3.532   8.968 -0.4057 -0.7175  1.6844
 4538SOL     OW25246   0.449   2.809   5.152 -0.3451  0.0498  0.0155
 4538SOL    HW125247   0.420   2.819   5.243  1.1767  0.0052  0.5013
 4538SOL    HW225248   0.439   2.895   5.111  1.5146 -0.6721 -1.9491
 4539SOL     OW25249   2.450   3.702   5.313 -0.1415  0.4884 -0.1424
 4539SOL    HW125250   2.519   3.685   5.377 -0.1347  0.8439 -0.0560
 4539SOL    HW225251   2.392   3.626   5.318 -0.4582  0.7862  0.7144
 4540SOL     OW25252   3.816   2.564   6.043  0.3637  0.7439  0.0277
 4540SOL    HW125253   3.883   2.499   6.063  0.2915  0.5433 -0.3853
 4540SOL    HW225254   3.809   2.599   6.132 -1.9205  0.1161  0.1050
 4541SOL     OW25255   4.065   4.077   6.784  0.1879  0.4389 -0.1832
 4541SOL    HW125256   4.129   4.045   6.721  0.6049 -1.2072  1.0591
 4541SOL    HW225257   4.087   4.019   6.857  1.6261 -0.5533 -1.4132
 4542SOL     OW25258   2.540   4.313  11.021  0.3769 -0.0397  0.1147
 4542SOL    HW125259   2.501   4.307  10.933  1.0089 -0.1868 -0.1589
 4542SOL    HW225260   2.515   4.403  11.042 -2.6059 -1.1575  1.3672
 4543SOL     OW25261   2.000   2.330   4.070  0.0001  0.0682  0.4533
 4543SOL    HW125262   1.940   2.258   4.050  0.4325  0.2719 -1.5633
 4543SOL    HW225263   2.017   2.360   3.981 -0.2503 -1.2651 -0.0409
 4544SOL     OW25264   0.438   2.866  10.773  0.3383 -0.5739  0.0275
 4544SOL    HW125265   0.388   2.849  10.693 -2.2432 -0.6585  1.6703
 4544SOL    HW225266   0.393   2.799  10.824  1.4702 -1.9435 -0.7593
 4545SOL     OW25267   0.411   2.660  10.256  0.8734  0.1543  0.4391
 4545SOL    HW125268   0.411   2.737  10.313 -1.6385  1.1329 -0.8797
 4545SOL    HW225269   0.501   2.653  10.222 -0.4169  0.0185 -2.9635
 4546SOL     OW25270   0.525   2.069   9.022 -0.0678 -0.0172 -0.0975
 4546SOL    HW125271   0.569   2.087   9.106 -0.2519  0.8419 -0.1880
 4546SOL    HW225272   0.434   2.092   9.037  1.3697  4.8694  1.0890
 4547SOL     OW25273   1.038   1.823   8.541  0.0043  0.0519 -0.4880
 4547SOL    HW125274   1.121   1.851   8.503  0.2579 -0.9698 -0.7007
 4547SOL    HW225275   1.063   1.743   8.588  0.6335  0.9977  0.7794
 4548SOL     OW25276   0.108   0.719   1.361 -0.3767 -0.0739  0.3502
 4548SOL    HW125277   0.039   0.782   1.340 -1.4994 -1.9554 -1.6125
 4548SOL    HW225278   0.171   0.781   1.397 -1.6294  0.8455  0.9863
 4549SOL     OW25279   3.264   3.926   7.037 -0.7648 -0.1588  0.0446
 4549SOL    HW125280   3.245   3.867   6.964 -1.7111  1.0987 -0.7259
 4549SOL    HW225281   3.359   3.933   7.040 -0.9999  2.3864  1.3483
 4550SOL     OW25282   3.736   3.073   2.186  0.4238  0.2789  0.1160
 4550SOL    HW125283   3.814   3.077   2.242  0.3311 -2.0187  0.4187
 4550SOL    HW225284   3.778   3.075   2.100  1.0992 -2.1596  0.4048
 4551SOL     OW25285   0.239   1.287   4.440 -0.0541  0.1270 -0.1662
 4551SOL    HW125286   0.176   1.340   4.489  1.5728  0.9837  1.0125
 4551SOL    HW225287   0.189   1.267   4.360  0.9525  3.1307 -1.5734
 4552SOL     OW25288   1.813   2.195  15.313  0.3805 -0.1016  0.1712
 4552SOL    HW125289   1.870   2.126  15.347  0.9770 -0.3830 -1.4305
 4552SOL    HW225290   1.809   2.157  15.226 -2.0332 -0.5204  0.4803
 4553SOL     OW25291   0.703   2.254   7.170 -0.0613  0.6620 -0.2697
 4553SOL    HW125292   0.739   2.311   7.102 -1.3472  0.2005 -1.3378
 4553SOL    HW225293   0.776   2.258   7.232 -0.7518 -2.0737  0.7144
 4554SOL     OW25294   3.924   1.697   8.241  0.2321  0.0173 -0.1378
 4554SOL    HW125295   3.988   1.702   8.312  0.1406 -1.8722  0.0546
 4554SOL    HW225296   3.961   1.628   8.186  1.8240  0.3337  0.5393
 4555SOL     OW25297   0.406   2.413  13.954 -0.1142  0.2436 -0.4430
 4555SOL    HW125298   0.468   2.481  13.929 -1.1731  1.7297  0.9331
 4555SOL    HW225299   0.464   2.337  13.948  1.2803  1.2982 -0.2794
 4556SOL     OW25300   2.725   2.360   2.134 -0.1845  0.0289 -0.0184
 4556SOL    HW125301   2.810   2.326   2.162 -0.6410 -1.2102 -0.1177
 4556SOL    HW225302   2.728   2.452   2.162  0.7388  0.2446 -0.8346
 4557SOL     OW25303   3.702   4.262   8.345  0.1829  0.0205  0.1875
 4557SOL    HW125304   3.758   4.338   8.330 -1.3145  0.9947 -0.5222
 4557SOL    HW225305   3.675   4.269   8.436 -1.7048 -0.4162 -0.3355
 4558SOL     OW25306   1.713   3.884   4.183 -0.0954  0.0361 -0.1508
 4558SOL    HW125307   1.701   3.904   4.276 -0.6238 -0.1804 -0.1730
 4558SOL    HW225308   1.773   3.952   4.151  1.2036 -0.3708  1.3987
 4559SOL     OW25309   0.160   1.944   7.380 -0.2299 -0.1784 -0.3105
 4559SOL    HW125310   0.069   1.972   7.385 -0.3946 -0.6388 -0.6749
 4559SOL    HW225311   0.145   1.856   7.344 -2.0359 -0.1554  0.3919
 4560SOL     OW25312   3.567   2.832   2.225  0.6087  0.3187 -0.0983
 4560SOL    HW125313   3.617   2.914   2.221 -0.3258  0.9206  0.8009
 4560SOL    HW225314   3.601   2.777   2.155 -1.5919 -2.1920  0.8272
 4561SOL     OW25315   4.399   3.265  11.499 -0.2662 -0.4226 -0.1814
 4561SOL    HW125316   4.414   3.171  11.511  3.4757  0.0554 -1.1747
 4561SOL    HW225317   4.400   3.267  11.403  1.5668  1.6607 -0.1106
 4562SOL     OW25318   2.612   0.326  12.573  0.0519 -0.3670 -0.3447
 4562SOL    HW125319   2.590   0.325  12.480 -0.0874 -0.5676 -0.3101
 4562SOL    HW225320   2.547   0.388  12.603  1.6120  1.3708 -0.5337
 4563SOL     OW25321   0.564   2.275   4.783  0.3366 -0.8445  0.0968
 4563SOL    HW125322   0.625   2.205   4.759  1.6490  0.6088 -0.8156
 4563SOL    HW225323   0.486   2.220   4.773  0.0003 -0.1966 -0.8442
 4564SOL     OW25324   4.385   3.275   1.730  0.0333  0.1741 -0.0245
 4564SOL    HW125325   4.303   3.313   1.762  2.3396  1.9745  3.8100
 4564SOL    HW225326   4.445   3.341   1.766  0.1730  1.0932 -1.9297
 4565SOL     OW25327   2.503   0.100   8.520  0.5569 -0.0055 -0.0510
 4565SOL    HW125328   2.528   0.016   8.480 -2.1294 -1.4887  1.3500
 4565SOL    HW225329   2.585   0.146   8.503  0.3113 -0.2665 -1.9442
 4566SOL     OW25330   2.538   2.512  17.279  0.4173  0.2740 -0.2092
 4566SOL    HW125331   2.534   2.531  17.373 -0.4404 -2.2518  0.2610
 4566SOL    HW225332   2.445   2.520  17.256 -0.1519 -0.2643  1.9360
 4567SOL     OW25333   4.320   1.694   5.464 -0.2461  0.2735 -0.3736
 4567SOL    HW125334   4.396   1.740   5.500 -1.2657  0.5359  1.4232
 4567SOL    HW225335   4.278   1.658   5.542 -1.6920 -0.7634 -1.6306
 4568SOL     OW25336   0.613   0.668   8.082  0.2171 -0.3462  0.4459
 4568SOL    HW125337   0.538   0.689   8.025 -0.5584 -0.5831  1.3778
 4568SOL    HW225338   0.574   0.657   8.169  1.7591 -2.2120  0.9127
 4569SOL     OW25339   0.720   0.690   9.530  0.0283  0.4374  0.2527
 4569SOL    HW125340   0.759   0.681   9.443  0.9844  2.5532  0.4469
 4569SOL    HW225341   0.757   0.625   9.588  1.4035  2.4572  1.6376
 4570SOL     OW25342   4.265   2.924   2.246 -0.2792 -0.4276  0.3823
 4570SOL    HW125343   4.253   2.989   2.176  1.0019  1.9861  2.4138
 4570SOL    HW225344   4.353   2.945   2.277 -0.5712 -3.0002  2.8702
 4571SOL     OW25345   1.231   0.215   3.992 -0.0145 -0.2484  0.1479
 4571SOL    HW125346   1.169   0.239   3.923 -1.3885 -0.0364  1.4510
 4571SOL    HW225347   1.239   0.122   3.972 -0.2881 -0.3366  0.4470
 4572SOL     OW25348   4.150   1.966  14.917 -0.1970 -0.3087  0.3518
 4572SOL    HW125349   4.169   1.941  15.008  2.3006  1.4592  0.3040
 4572SOL    HW225350   4.195   2.048  14.901  2.0038 -1.9257 -1.8142
 4573SOL     OW25351   1.567   4.262   2.905 -0.0235 -0.7446 -0.0835
 4573SOL    HW125352   1.636   4.264   2.972 -1.6353  1.0241  1.5247
 4573SOL    HW225353   1.615   4.212   2.839  0.1354 -1.6460  0.7083
 4574SOL     OW25354   3.748   2.051   7.016 -0.4762  0.2966 -0.0643
 4574SOL    HW125355   3.734   2.120   6.952  1.2236 -0.3185 -1.1069
 4574SOL    HW225356   3.713   1.972   6.976  0.1715  0.3744 -0.7825
 4575SOL     OW25357   1.749   2.727   9.067  0.2216  0.0524 -0.4957
 4575SOL    HW125358   1.664   2.683   9.060 -0.1194  0.6572 -0.1653
 4575SOL    HW225359   1.777   2.688   9.150  1.9387 -1.9410 -1.9916
 4576SOL     OW25360   1.629   0.228  13.036 -0.4320 -0.0463  0.5526
 4576SOL    HW125361   1.649   0.147  13.084 -0.0058 -0.4238 -0.2627
 4576SOL    HW225362   1.536   0.237  13.056 -0.3831  0.4968  0.5321
 4577SOL     OW25363   4.679   4.546   3.473 -0.5446 -0.8190  0.1958
 4577SOL    HW125364   0.023   4.580   3.510 -0.5584  0.2662 -0.7855
 4577SOL    HW225365   4.691   4.574   3.382 -1.7166  0.4529  0.4402
 4578SOL     OW25366   0.560   4.617   1.877 -0.4076 -0.7011  0.3662
 4578SOL    HW125367   0.620   4.571   1.935  0.2307 -0.8532 -0.4144
 4578SOL    HW225368   0.598   4.705   1.865  1.3424 -1.0883  3.0282
 4579SOL     OW25369   3.528   1.877   4.048 -0.0360  0.1327  0.3396
 4579SOL    HW125370   3.614   1.870   4.089  0.6583  1.2430 -0.9077
 4579SOL    HW225371   3.520   1.802   3.989  1.9659  0.4540 -0.3367
 4580SOL     OW25372   0.148   4.347   4.843  0.0950  0.7220 -0.0702
 4580SOL    HW125373   0.221   4.289   4.866 -2.6309 -3.5863 -2.3252
 4580SOL    HW225374   0.124   4.311   4.758  1.4450  0.6144 -0.4114
 4581SOL     OW25375   3.061   0.336  11.898 -0.0252  0.1548 -0.0743
 4581SOL    HW125376   3.023   0.424  11.889 -2.3279 -0.9251 -0.9986
 4581SOL    HW225377   3.091   0.328  11.808  0.5567 -2.3163  0.3336
 4582SOL     OW25378   2.187   1.116   5.604 -0.1809  0.0184 -0.0498
 4582SOL    HW125379   2.267   1.126   5.656 -0.1292 -0.1394 -0.1008
 4582SOL    HW225380   2.124   1.082   5.668 -1.7063  0.7152 -1.1806
 4583SOL     OW25381   3.148   4.256   7.870  0.2891  0.0814  0.1449
 4583SOL    HW125382   3.159   4.194   7.942  0.7729  1.1680  1.0079
 4583SOL    HW225383   3.054   4.271   7.864 -0.1398 -1.8929  1.7313
 4584SOL     OW25384   0.732   1.939   2.838  0.2359 -0.4018  0.2665
 4584SOL    HW125385   0.716   1.907   2.749  0.6028 -1.6761  0.6642
 4584SOL    HW225386   0.674   1.876   2.881 -3.0389  2.2198 -0.3135
 4585SOL     OW25387   1.382   1.689   8.097 -0.2282  0.0068 -0.0647
 4585SOL    HW125388   1.439   1.741   8.154 -0.7091  1.2834 -0.7362
 4585SOL    HW225389   1.307   1.748   8.093  0.6200  1.0947  0.0487
 4586SOL     OW25390   4.291   2.240   1.305  0.2156 -0.1686 -0.2450
 4586SOL    HW125391   4.354   2.238   1.377  1.0432  0.8835 -0.9225
 4586SOL    HW225392   4.213   2.188   1.325 -0.0835  0.5708  0.5140
 4587SOL     OW25393   0.904   1.070  12.270  0.5314  0.2700 -0.3608
 4587SOL    HW125394   0.999   1.065  12.260  0.7434  0.3062  1.7113
 4587SOL    HW225395   0.894   1.151  12.320 -0.6208  0.9119 -1.6364
 4588SOL     OW25396   0.652   4.069   8.757  0.1496 -0.4233 -0.2380
 4588SOL    HW125397   0.746   4.063   8.739  0.0316  0.5560 -1.1659
 4588SOL    HW225398   0.634   3.978   8.781 -1.4883  0.0150  0.1972
 4589SOL     OW25399   4.584   4.314   0.162  0.0277  0.0984 -0.1298
 4589SOL    HW125400   4.495   4.284   0.142  0.5992 -2.6668  1.4144
 4589SOL    HW225401   4.575   4.348   0.251 -0.1457 -3.2668  1.1322
 4590SOL     OW25402   1.331   2.186   9.110 -0.6087 -0.2649 -0.4079
 4590SOL    HW125403   1.332   2.164   9.203  0.3507 -1.1584 -0.6315
 4590SOL    HW225404   1.238   2.208   9.102 -1.2154 -2.3885  0.8284
 4591SOL     OW25405   4.252   0.237   5.500  0.6722  0.2365  0.4097
 4591SOL    HW125406   4.195   0.194   5.565 -0.0483 -0.8892 -0.9472
 4591SOL    HW225407   4.287   0.155   5.465  1.1561  0.9762 -0.8146
 4592SOL     OW25408   2.493   3.319   8.011 -0.3681  0.1848  0.4300
 4592SOL    HW125409   2.535   3.375   7.945  1.3090 -1.2128  0.2962
 4592SOL    HW225410   2.535   3.233   8.004 -0.8968 -0.0643  0.3077
 4593SOL     OW25411   3.380   2.743   8.039  0.0996  0.2184 -0.1754
 4593SOL    HW125412   3.345   2.717   8.125  1.7713  0.7253  0.6605
 4593SOL    HW225413   3.388   2.838   8.047  0.3510  0.4099 -2.6407
 4594SOL     OW25414   3.898   3.798   7.835  0.1048 -0.2395  0.3739
 4594SOL    HW125415   3.910   3.783   7.742  0.8679  0.0277  0.4236
 4594SOL    HW225416   3.987   3.773   7.863 -0.1462 -2.0164 -0.4482
 4595SOL     OW25417   3.563   4.219   9.301 -0.0625 -0.1657  0.2848
 4595SOL    HW125418   3.505   4.143   9.295  0.1936 -0.3995  0.7398
 4595SOL    HW225419   3.566   4.252   9.212 -0.0222  1.1141  0.7522
 4596SOL     OW25420   3.663   3.366   4.843  0.2085  0.7250 -0.0028
 4596SOL    HW125421   3.615   3.396   4.766  2.4277 -0.0119 -1.6776
 4596SOL    HW225422   3.678   3.273   4.824 -1.0642  0.4934  0.0989
 4597SOL     OW25423   0.486   4.022   3.598 -0.6046  0.6299  0.4883
 4597SOL    HW125424   0.574   3.985   3.600  0.4277  3.0871  1.1197
 4597SOL    HW225425   0.430   3.964   3.546 -2.1653  0.9939  1.7829
 4598SOL     OW25426   2.780   3.281   6.079 -0.1457  0.2374 -0.4954
 4598SOL    HW125427   2.797   3.375   6.079 -0.3159  0.2592  1.8902
 4598SOL    HW225428   2.701   3.276   6.024 -0.2604 -0.6478 -0.2456
 4599SOL     OW25429   1.601   2.230  15.473  0.1250  0.9087  0.5125
 4599SOL    HW125430   1.673   2.240  15.411 -1.8793  3.3232 -1.4247
 4599SOL    HW225431   1.531   2.262  15.416  1.2250  0.3312 -1.1736
 4600SOL     OW25432   2.067   4.546  12.639  0.1867 -0.3454 -0.6099
 4600SOL    HW125433   2.015   4.466  12.630  1.7705 -1.5379  0.8642
 4600SOL    HW225434   2.056   4.580  12.551 -2.7951 -1.4470 -0.6628
 4601SOL     OW25435   0.101   1.673   9.274 -0.2261  0.0250  0.1646
 4601SOL    HW125436   0.081   1.698   9.184  1.9980 -0.3162 -0.4216
 4601SOL    HW225437   0.050   1.594   9.290  2.1104 -1.6796 -0.8176
 4602SOL     OW25438   3.121   2.149  12.560 -0.1948 -0.1089  0.1094
 4602SOL    HW125439   3.151   2.090  12.491 -0.0781 -0.9769  0.9013
 4602SOL    HW225440   3.059   2.095  12.610  0.1630  0.1120  0.7938
 4603SOL     OW25441   3.614   2.849   1.564 -0.2061 -0.4693 -0.6082
 4603SOL    HW125442   3.659   2.933   1.570  0.9437 -0.9155 -2.9971
 4603SOL    HW225443   3.560   2.861   1.486  0.0925 -1.8355 -1.0230
 4604SOL     OW25444   0.023   2.577  12.193 -0.0299 -0.4175  0.2567
 4604SOL    HW125445   0.001   2.597  12.102 -0.5146 -1.1389  0.2158
 4604SOL    HW225446   0.066   2.492  12.181  1.5688  0.5200 -0.6627
 4605SOL     OW25447   2.719   3.769   3.619 -0.1193 -0.2976 -0.3172
 4605SOL    HW125448   2.709   3.714   3.542 -0.2223  1.0775 -1.2801
 4605SOL    HW225449   2.791   3.718   3.657  0.8299  1.7773  0.6978
 4606SOL     OW25450   4.654   0.476   5.166 -0.1565 -0.2802 -0.0402
 4606SOL    HW125451   4.674   0.383   5.171  1.5250  0.0567 -0.4602
 4606SOL    HW225452   4.592   0.493   5.237  1.0854  0.4285  0.8855
 4607SOL     OW25453   0.257   0.424   5.126  0.5050 -0.3133 -0.2302
 4607SOL    HW125454   0.217   0.436   5.040  1.2815  1.5800 -0.3072
 4607SOL    HW225455   0.198   0.362   5.170 -0.2872 -1.1768 -2.4949
 4608SOL     OW25456   0.046   3.175  10.570  0.5757  0.0130  0.4257
 4608SOL    HW125457   4.694   3.166  10.607  1.2036  0.9266  2.1613
 4608SOL    HW225458   0.071   3.094  10.526  0.7295  0.0062  0.5272
 4609SOL     OW25459   1.332   4.419   6.467  0.2149  0.2023  0.0532
 4609SOL    HW125460   1.291   4.504   6.449 -1.4338 -0.3488  1.1629
 4609SOL    HW225461   1.263   4.359   6.496 -1.4895  1.9329 -0.4598
 4610SOL     OW25462   2.342   3.415   9.277  0.1326 -0.2006 -0.5928
 4610SOL    HW125463   2.287   3.338   9.288  1.1467 -0.4493  2.6760
 4610SOL    HW225464   2.282   3.487   9.259 -0.1600 -0.6972 -1.6509
 4611SOL     OW25465   1.949   1.226   0.633  0.5808  0.0366 -0.0360
 4611SOL    HW125466   1.985   1.154   0.684  0.0212 -1.1642 -1.3358
 4611SOL    HW225467   1.996   1.295   0.679  0.7746 -1.1202  1.5264
 4612SOL     OW25468   0.670   3.990   3.974 -0.6811  0.6013  0.5719
 4612SOL    HW125469   0.640   4.071   3.933 -0.6470  1.1032  1.5373
 4612SOL    HW225470   0.637   3.986   4.064 -0.2247 -1.4258  0.6426
 4613SOL     OW25471   2.999   4.626   0.912 -0.3788  0.4411 -0.3594
 4613SOL    HW125472   3.047   4.674   0.980  1.0135 -0.8432 -0.4372
 4613SOL    HW225473   2.931   4.688   0.886 -0.7845 -0.3805 -1.2478
 4614SOL     OW25474   4.039   2.886   8.408 -0.1764 -0.5307 -0.5124
 4614SOL    HW125475   4.101   2.847   8.469 -1.6535 -0.9073  0.7665
 4614SOL    HW225476   4.003   2.961   8.456  1.3243  0.5155 -1.0172
 4615SOL     OW25477   3.205   0.249  12.106 -0.0089 -0.0184 -0.8836
 4615SOL    HW125478   3.238   0.169  12.063 -2.3669 -1.3225 -0.2873
 4615SOL    HW225479   3.159   0.287  12.031  0.6147  1.7968 -0.3357
 4616SOL     OW25480   0.250   3.287  16.640 -0.3311 -0.2983 -0.9614
 4616SOL    HW125481   0.221   3.293  16.549 -2.2085  1.0375 -0.2576
 4616SOL    HW225482   0.284   3.376  16.642 -2.6875  0.5405  1.2060
 4617SOL     OW25483   2.864   2.977   0.959  0.1480 -0.1675 -0.3489
 4617SOL    HW125484   2.830   2.907   0.902 -0.9005 -1.0557  1.3643
 4617SOL    HW225485   2.784   3.002   1.006  0.4723 -1.0044  0.6627
 4618SOL     OW25486   2.328   2.996   4.067  0.2497 -0.1377  0.6886
 4618SOL    HW125487   2.312   3.078   4.021 -1.0801 -0.3097  0.8525
 4618SOL    HW225488   2.417   2.998   4.102  0.4146 -0.2021  0.2697
 4619SOL     OW25489   0.919   0.485   2.693 -0.5053  0.3278  0.3542
 4619SOL    HW125490   1.014   0.487   2.703 -0.3402  3.8355 -1.8791
 4619SOL    HW225491   0.907   0.564   2.640 -0.6577  0.3281  0.3902
 4620SOL     OW25492   1.772   2.985   1.597 -0.0357  1.0260 -0.0399
 4620SOL    HW125493   1.791   3.079   1.591 -2.8832  1.3688 -3.4404
 4620SOL    HW225494   1.678   2.975   1.580  0.3469 -0.5070 -1.3023
 4621SOL     OW25495   4.015   4.455   4.919 -0.1025  0.6415 -0.1031
 4621SOL    HW125496   4.106   4.479   4.899  0.5020  0.0983  2.0025
 4621SOL    HW225497   3.984   4.443   4.829  0.3404  0.3252 -0.2169
 4622SOL     OW25498   0.011   0.411  15.894  0.5765  0.0726 -0.7110
 4622SOL    HW125499   4.721   0.426  15.985 -0.5344 -3.7617 -0.4002
 4622SOL    HW225500   4.664   0.390  15.852 -0.3047  0.2009  1.0061
 4623SOL     OW25501   4.607   4.379  11.723 -0.5926  0.2769 -0.5355
 4623SOL    HW125502   4.580   4.403  11.634 -0.4513 -2.9833 -1.4745
 4623SOL    HW225503   4.547   4.306  11.738  2.6410 -2.3531 -0.4148
 4624SOL     OW25504   1.696   1.248   9.568  0.4171  0.4777  0.1689
 4624SOL    HW125505   1.715   1.340   9.554  0.7027  0.6515  1.7266
 4624SOL    HW225506   1.775   1.222   9.615  0.5590  1.7330  0.6151
 4625SOL     OW25507   1.166   3.710   6.710  0.0365  0.3666  0.2575
 4625SOL    HW125508   1.189   3.802   6.718  1.6603  0.0486 -0.9993
 4625SOL    HW225509   1.253   3.671   6.719 -0.8960 -1.3269  2.0061
 4626SOL     OW25510   3.253   3.926   5.664  0.6834 -0.6051 -0.4555
 4626SOL    HW125511   3.223   3.988   5.731 -0.0334  0.2703 -1.5943
 4626SOL    HW225512   3.331   3.879   5.694 -0.9505 -1.9511  1.7400
 4627SOL     OW25513   2.459   3.855   6.487 -0.3016 -0.0485  0.5242
 4627SOL    HW125514   2.505   3.794   6.428  1.0804  0.0263  1.5127
 4627SOL    HW225515   2.417   3.789   6.541 -1.2474 -0.7145 -1.0074
 4628SOL     OW25516   4.186   1.661   5.002 -0.1670 -0.2101  0.0201
 4628SOL    HW125517   4.148   1.725   4.941 -1.8309 -1.4215 -0.2376
 4628SOL    HW225518   4.273   1.701   5.006 -0.1677  0.0019 -1.8561
 4629SOL     OW25519   0.698   3.376   4.170  0.2403  0.4255 -0.2167
 4629SOL    HW125520   0.771   3.371   4.109  1.7826  1.8747  1.5001
 4629SOL    HW225521   0.721   3.299   4.222 -0.7891  0.1654 -0.1449
 4630SOL     OW25522   0.428   0.963  11.330  0.1552  0.1257  0.0773
 4630SOL    HW125523   0.362   1.004  11.274  0.5103 -0.2627 -0.6280
 4630SOL    HW225524   0.510   0.966  11.282  0.1988 -1.0038  0.0619
 4631SOL     OW25525   3.194   1.442   4.208 -0.6478  0.3846 -0.5061
 4631SOL    HW125526   3.120   1.500   4.227  0.5824  2.4430 -2.1364
 4631SOL    HW225527   3.246   1.498   4.150  0.4776 -0.0750  0.0662
 4632SOL     OW25528   1.735   2.355   3.413  0.5143  0.5547 -0.0057
 4632SOL    HW125529   1.717   2.410   3.337 -1.0806  0.3694  0.2348
 4632SOL    HW225530   1.703   2.271   3.380  1.6601  0.7345 -1.5490
 4633SOL     OW25531   1.810   3.874  12.720  0.0266 -0.0911  0.2743
 4633SOL    HW125532   1.888   3.858  12.773  1.0300  1.5872 -0.6798
 4633SOL    HW225533   1.826   3.819  12.643 -2.6811 -0.6488  0.1377
 4634SOL     OW25534   1.698   0.913   2.830  0.8259  0.0621  0.3951
 4634SOL    HW125535   1.652   0.900   2.913 -0.1112 -0.8903 -0.2636
 4634SOL    HW225536   1.709   0.820   2.809 -1.2034 -0.3659  1.1736
 4635SOL     OW25537   3.949   3.921  15.130  0.0690 -1.0393  0.1090
 4635SOL    HW125538   3.880   3.854  15.130  0.2366 -1.2156 -1.1928
 4635SOL    HW225539   3.902   3.975  15.066  1.8019 -1.0678 -1.1773
 4636SOL     OW25540   3.210   1.180   7.055 -0.4743 -0.7424  0.5976
 4636SOL    HW125541   3.127   1.226   7.056 -0.7913 -1.2797 -1.4093
 4636SOL    HW225542   3.235   1.182   7.147  0.9900  1.0184  0.1720
 4637SOL     OW25543   3.370   1.240   1.895  0.3070  0.6181  0.1401
 4637SOL    HW125544   3.420   1.166   1.930  0.4447  1.0443  0.8661
 4637SOL    HW225545   3.283   1.200   1.894  0.6898 -0.2585  1.4858
 4638SOL     OW25546   0.735   0.609   6.231 -0.0610 -0.5919  0.2372
 4638SOL    HW125547   0.650   0.594   6.273 -0.2284 -0.3363 -0.0042
 4638SOL    HW225548   0.781   0.664   6.295  2.2893 -2.7233  0.3802
 4639SOL     OW25549   2.965   4.243   8.443 -0.1120  0.1268  0.0970
 4639SOL    HW125550   3.014   4.244   8.525 -0.0015 -1.8829  0.0667
 4639SOL    HW225551   2.972   4.149   8.428 -0.3301 -0.0291  0.9936
 4640SOL     OW25552   4.177   1.588  12.704  0.5345 -0.6461 -0.3825
 4640SOL    HW125553   4.089   1.624  12.704  0.3952 -1.0130 -1.8210
 4640SOL    HW225554   4.204   1.617  12.791 -2.0838 -0.9129  0.4982
 4641SOL     OW25555   1.675   4.486  16.329 -0.1599 -0.8240  0.3567
 4641SOL    HW125556   1.706   4.425  16.262 -0.4226  1.6104 -1.9668
 4641SOL    HW225557   1.621   4.420  16.373 -0.4164 -0.1140  1.1107
 4642SOL     OW25558   4.670   3.274   3.663  0.2960  0.2618  0.2767
 4642SOL    HW125559   4.689   3.340   3.597  2.2289 -0.4374  0.1260
 4642SOL    HW225560   4.614   3.322   3.724 -0.0395 -1.5709  1.4043
 4643SOL     OW25561   3.765   4.150  11.075  0.1935 -0.4482  0.0586
 4643SOL    HW125562   3.819   4.149  10.996 -0.7702  1.4688 -0.6096
 4643SOL    HW225563   3.826   4.160  11.149  0.9266  2.2553 -0.9188
 4644SOL     OW25564   3.867   0.815   7.470 -1.0354  0.0365  0.6799
 4644SOL    HW125565   3.885   0.905   7.498 -0.1876 -0.6286  2.2840
 4644SOL    HW225566   3.932   0.794   7.404 -1.0041 -0.4058  0.8545
 4645SOL     OW25567   2.738   2.284   8.608 -0.0838  0.0919  0.2303
 4645SOL    HW125568   2.693   2.276   8.692 -1.7766 -2.7947 -0.9411
 4645SOL    HW225569   2.803   2.216   8.623 -2.1074 -1.8466  0.1576
 4646SOL     OW25570   2.278   3.516   5.391  0.2376  0.5685  0.4304
 4646SOL    HW125571   2.229   3.583   5.439 -0.0139  0.4234  0.3774
 4646SOL    HW225572   2.217   3.501   5.319  1.1190  1.4167 -0.4888
 4647SOL     OW25573   0.187   3.737   1.440  0.1451 -0.6625 -0.3871
 4647SOL    HW125574   0.187   3.694   1.355  1.1008 -1.0595 -0.1832
 4647SOL    HW225575   0.254   3.801   1.420  0.0868 -0.7857 -0.9611
 4648SOL     OW25576   2.788   0.042   5.542 -0.1517 -0.2000 -0.5546
 4648SOL    HW125577   2.761   4.701   5.591 -1.4526  0.9043  0.4907
 4648SOL    HW225578   2.881   0.029   5.522  0.2159  0.5408  0.6907
 4649SOL     OW25579   1.745   1.180   2.709 -0.8541  0.0598  0.6581
 4649SOL    HW125580   1.740   1.093   2.748  0.2902 -0.5099 -0.4757
 4649SOL    HW225581   1.717   1.226   2.788 -2.0884 -0.4166  0.5044
 4650SOL     OW25582   1.121   0.413  11.458  0.3349  0.0308  0.9467
 4650SOL    HW125583   1.085   0.442  11.542  1.6569 -0.6598  1.7357
 4650SOL    HW225584   1.049   0.360  11.425 -0.4548  1.2361  0.7349
 4651SOL     OW25585   4.001   1.381   8.880 -0.0574 -0.3672  0.2716
 4651SOL    HW125586   3.945   1.455   8.860  0.9125  0.4822  0.6758
 4651SOL    HW225587   3.936   1.313   8.866 -1.6648  1.3470 -0.5910
 4652SOL     OW25588   3.135   3.173   4.975  0.0216 -0.0770  0.2735
 4652SOL    HW125589   3.052   3.172   4.927  0.2153 -1.4662 -0.0203
 4652SOL    HW225590   3.179   3.094   4.943  0.0945  0.3022 -0.5606
 4653SOL     OW25591   2.799   2.673   4.833  0.8385 -0.3145  0.3486
 4653SOL    HW125592   2.754   2.633   4.907  2.1653 -0.2256  1.2056
 4653SOL    HW225593   2.881   2.704   4.871  1.0210  0.6299 -0.8228
 4654SOL     OW25594   4.666   0.292  15.201  0.3664 -0.0369 -0.2993
 4654SOL    HW125595   4.583   0.284  15.249  0.5012 -1.0210 -0.2305
 4654SOL    HW225596   4.690   0.199  15.199 -0.9101 -0.3679 -0.1060
 4655SOL     OW25597   3.489   3.564  10.964  0.1992 -0.6531  0.5900
 4655SOL    HW125598   3.512   3.554  11.056 -0.5485  1.5937  1.0011
 4655SOL    HW225599   3.432   3.640  10.974  0.9016 -0.1634  0.8184
 4656SOL     OW25600   0.639   1.855   0.298  0.0563  0.4056  0.2083
 4656SOL    HW125601   0.632   1.872   0.391  0.1593  2.5468 -0.1822
 4656SOL    HW225602   0.581   1.924   0.267 -0.9609 -0.5300  0.0045
 4657SOL     OW25603   3.394   3.724  14.607  0.5893 -0.1060  0.0601
 4657SOL    HW125604   3.470   3.752  14.556 -0.2607  0.8207 -0.7007
 4657SOL    HW225605   3.338   3.801  14.612 -0.1310 -0.7381  1.8425
 4658SOL     OW25606   2.862   4.467   3.382 -0.3684 -0.1286  0.4980
 4658SOL    HW125607   2.855   4.563   3.388  0.0711 -0.0044 -1.1049
 4658SOL    HW225608   2.920   4.448   3.456 -2.4570  0.2832  2.2315
 4659SOL     OW25609   4.303   1.702   5.778 -0.2672 -0.3032 -0.3366
 4659SOL    HW125610   4.269   1.613   5.792  1.3943 -0.6798  1.1601
 4659SOL    HW225611   4.395   1.688   5.799 -0.3107 -1.5617 -0.9508
 4660SOL     OW25612   0.170   0.844   6.135 -0.1642 -0.8957  0.1226
 4660SOL    HW125613   0.078   0.857   6.160 -0.2063  0.5641 -0.7643
 4660SOL    HW225614   0.212   0.843   6.221  2.4133 -0.1071 -1.1190
 4661SOL     OW25615   2.032   2.804   8.887  0.3123 -0.0939 -0.0847
 4661SOL    HW125616   1.943   2.838   8.874 -0.2903 -1.9931 -0.8753
 4661SOL    HW225617   2.038   2.735   8.821  0.2392 -0.2117  0.0327
 4662SOL     OW25618   0.306   1.351   7.009 -0.6241  0.4818 -0.7451
 4662SOL    HW125619   0.367   1.421   6.985 -2.3745  3.7285  4.0814
 4662SOL    HW225620   0.306   1.366   7.104 -2.5000  1.5825 -0.9212
 4663SOL     OW25621   3.771   0.927   4.202  0.0704 -0.4620 -0.1402
 4663SOL    HW125622   3.794   0.904   4.292  0.0977 -0.6279 -0.1903
 4663SOL    HW225623   3.724   0.849   4.174  0.6415  0.7284 -4.3239
 4664SOL     OW25624   3.272   0.607   7.416 -0.4747  0.0654  0.2355
 4664SOL    HW125625   3.324   0.609   7.336  0.2350 -1.4835  0.6424
 4664SOL    HW225626   3.228   0.524   7.396 -0.3589  0.5856 -2.0968
 4665SOL     OW25627   1.771   0.828   2.280  0.4678 -0.0468  0.4156
 4665SOL    HW125628   1.794   0.742   2.247 -1.0298 -1.2119  2.4405
 4665SOL    HW225629   1.760   0.876   2.198  2.3920 -1.6528 -0.7756
 4666SOL     OW25630   0.608   2.792   7.518 -0.3600  0.1810 -0.4942
 4666SOL    HW125631   0.527   2.815   7.473  0.4002  0.5554 -1.6604
 4666SOL    HW225632   0.599   2.854   7.591 -1.1290 -2.9799  2.1066
 4667SOL     OW25633   1.866   3.998   3.262 -0.1610 -0.0624  0.0681
 4667SOL    HW125634   1.897   3.927   3.319 -0.2562  0.7553  1.1366
 4667SOL    HW225635   1.839   4.056   3.333 -0.5869  1.5144 -1.3796
 4668SOL     OW25636   0.833   2.890   8.514 -0.1617 -0.4442 -0.3814
 4668SOL    HW125637   0.743   2.920   8.508  0.1796  0.3231 -1.6581
 4668SOL    HW225638   0.849   2.916   8.604 -0.0901  0.0543 -0.5387
 4669SOL     OW25639   2.167   3.418   4.737  0.2327  0.2191 -0.3646
 4669SOL    HW125640   2.225   3.492   4.720  1.4990 -0.5929  0.4071
 4669SOL    HW225641   2.147   3.412   4.643 -2.4252 -0.5750  0.2422
 4670SOL     OW25642   3.227   4.066   8.459 -0.3134  0.0602 -0.2833
 4670SOL    HW125643   3.216   4.155   8.492  0.1706  0.4887 -1.2846
 4670SOL    HW225644   3.316   4.043   8.485 -1.2953 -1.8153  1.3813
 4671SOL     OW25645   4.180   3.891   7.830  0.2139 -0.2268  0.3526
 4671SOL    HW125646   4.266   3.850   7.816  0.7573  1.3023 -0.6834
 4671SOL    HW225647   4.151   3.807   7.866  0.5109 -0.6093 -0.3016
 4672SOL     OW25648   4.664   3.021  11.694  0.0724 -0.0600 -0.0961
 4672SOL    HW125649   4.624   3.014  11.608 -1.0543  0.6540  0.3702
 4672SOL    HW225650   4.588   3.032  11.751  0.0381 -1.4583  0.1261
 4673SOL     OW25651   2.146   3.490   2.207 -0.0357  0.2561  0.9907
 4673SOL    HW125652   2.128   3.500   2.113 -3.8928  1.5282  1.8425
 4673SOL    HW225653   2.231   3.446   2.204 -0.9967 -1.3782 -1.5580
 4674SOL     OW25654   0.440   1.961  12.107 -0.0093  0.0749  0.3425
 4674SOL    HW125655   0.387   1.973  12.185  0.1070 -0.2244  0.4676
 4674SOL    HW225656   0.408   1.887  12.056  1.5551 -0.2544 -0.1587
 4675SOL     OW25657   3.736   2.029   2.088  0.1283  0.3030 -1.0115
 4675SOL    HW125658   3.697   1.977   2.017  1.9626  0.4450 -2.1084
 4675SOL    HW225659   3.781   1.960   2.137 -0.3472 -0.3138 -1.4445
 4676SOL     OW25660   4.458   1.340   2.070  0.3503 -0.0910 -0.3252
 4676SOL    HW125661   4.419   1.287   2.000 -0.2813  1.7853 -1.3831
 4676SOL    HW225662   4.522   1.284   2.113  1.2265 -0.2939 -1.8811
 4677SOL     OW25663   1.915   2.762   1.667 -0.1872 -0.1821 -0.0235
 4677SOL    HW125664   1.868   2.843   1.646 -1.5120 -1.0419 -0.3453
 4677SOL    HW225665   1.844   2.702   1.687 -0.8664  0.5803 -0.1632
 4678SOL     OW25666   3.245   2.036   8.048  0.3477  0.3166 -0.8748
 4678SOL    HW125667   3.209   2.109   8.099 -1.1319 -0.8939 -0.2043
 4678SOL    HW225668   3.334   2.070   8.059  0.0825  0.8896 -0.5213
 4679SOL     OW25669   3.520   4.135   1.405 -0.5173  0.4242  0.7276
 4679SOL    HW125670   3.454   4.108   1.469 -0.3223 -3.1256 -0.5679
 4679SOL    HW225671   3.532   4.226   1.432  0.7320  0.9031 -1.4983
 4680SOL     OW25672   1.938   1.930   6.482 -0.6361 -0.8364  0.5494
 4680SOL    HW125673   1.993   1.859   6.448 -1.6104 -0.5676 -1.5803
 4680SOL    HW225674   1.948   1.995   6.413 -1.5281  0.9703  2.1066
 4681SOL     OW25675   3.639   4.677   2.083  0.4174 -0.6601  0.0904
 4681SOL    HW125676   3.590   0.023   2.082  1.0630 -0.2592  2.6245
 4681SOL    HW225677   3.708   4.698   2.146  1.1975  0.3873 -1.1097
 4682SOL     OW25678   0.406   0.465   8.138  0.2015 -0.1634  0.3535
 4682SOL    HW125679   0.318   0.473   8.099  2.2874  2.2265 -3.9423
 4682SOL    HW225680   0.458   0.424   8.069  1.3047 -0.8982  1.6469
 4683SOL     OW25681   0.944   0.631   0.944  0.2580  0.1571  0.2520
 4683SOL    HW125682   0.950   0.694   0.872 -0.9050 -2.0759 -1.8118
 4683SOL    HW225683   1.013   0.655   1.006  2.2360 -2.7359 -0.8386
 4684SOL     OW25684   0.358   3.078   7.493  0.0646  0.2915  0.8181
 4684SOL    HW125685   0.442   3.102   7.453 -0.8198  1.4117 -0.3657
 4684SOL    HW225686   0.312   3.036   7.420 -1.0160  1.1120  1.0345
 4685SOL     OW25687   1.849   3.505   3.915 -0.6927 -0.2382 -0.3877
 4685SOL    HW125688   1.863   3.553   3.833 -0.0292 -0.5684 -0.4637
 4685SOL    HW225689   1.849   3.418   3.876  0.5183  0.3235 -1.6209
 4686SOL     OW25690   4.708   1.547   3.580  0.5961  0.2961 -0.4983
 4686SOL    HW125691   4.690   1.454   3.591  0.1979  0.5153  0.7092
 4686SOL    HW225692   4.636   1.571   3.523  0.9521  1.5107 -0.4381
 4687SOL     OW25693   0.338   0.355   6.318 -0.0723  0.4827  0.4877
 4687SOL    HW125694   0.257   0.340   6.367  2.2152 -0.3400  4.0305
 4687SOL    HW225695   0.293   0.359   6.234  1.1835  1.6552 -0.1295
 4688SOL     OW25696   1.250   1.272   8.619  0.1217 -0.2929 -0.6272
 4688SOL    HW125697   1.164   1.239   8.647  0.0419  0.2630 -0.2331
 4688SOL    HW225698   1.220   1.343   8.562 -2.4973 -1.1547 -0.3503
 4689SOL     OW25699   2.314   4.689   3.111 -0.3204  0.3100 -0.5208
 4689SOL    HW125700   2.322   4.686   3.016  2.7712 -0.6222 -0.2499
 4689SOL    HW225701   2.361   0.034   3.129 -1.3214  0.8051 -0.2125
 4690SOL     OW25702   0.192   1.623   2.431 -0.1023  0.4911  0.0902
 4690SOL    HW125703   0.199   1.700   2.375  1.4785  0.5751  0.3773
 4690SOL    HW225704   0.159   1.665   2.511  3.8764  1.8746  1.0214
 4691SOL     OW25705   2.552   3.972   6.726 -0.1473 -0.5030  0.2195
 4691SOL    HW125706   2.622   4.020   6.682 -0.9960  0.9057  0.4179
 4691SOL    HW225707   2.496   3.956   6.651  0.2876 -2.1131  0.2372
 4692SOL     OW25708   0.082   1.858  14.339 -0.2980 -0.4513  0.6033
 4692SOL    HW125709   4.729   1.888  14.350 -0.0484  1.1728 -1.7917
 4692SOL    HW225710   0.104   1.918  14.268  0.7105 -1.8254 -0.2446
 4693SOL     OW25711   0.529   1.713   3.644  0.1957  0.2592  0.0194
 4693SOL    HW125712   0.478   1.652   3.698  0.0923  1.7563  1.6146
 4693SOL    HW225713   0.563   1.655   3.576 -0.6949  0.0471 -0.2487
 4694SOL     OW25714   3.960   2.306  16.818  0.3852 -0.4157 -0.0547
 4694SOL    HW125715   4.014   2.228  16.804  0.5402 -0.4383  0.7008
 4694SOL    HW225716   4.028   2.372  16.832 -0.1657  0.0194  0.5222
 4695SOL     OW25717   3.380   2.897   4.397 -0.2204  0.1686  0.0517
 4695SOL    HW125718   3.306   2.848   4.360  0.3401 -1.5876  1.2255
 4695SOL    HW225719   3.336   2.922   4.478  0.3055 -1.7730  0.9490
 4696SOL     OW25720   4.416   1.017   6.841  0.1332  0.3229  0.6451
 4696SOL    HW125721   4.421   1.024   6.937  0.2637  2.9975  0.4466
 4696SOL    HW225722   4.330   0.975   6.834  0.9072 -0.8119 -1.7679
 4697SOL     OW25723   2.722   4.192   2.968  0.0792  0.1706 -0.4817
 4697SOL    HW125724   2.780   4.159   2.899  1.3345  0.4734  0.4200
 4697SOL    HW225725   2.752   4.281   2.982  0.7053 -0.4603  2.1468
 4698SOL     OW25726   3.116   0.974   2.499 -0.3868 -0.0321 -0.2402
 4698SOL    HW125727   3.184   0.976   2.431  0.6957 -0.1953  0.8408
 4698SOL    HW225728   3.070   0.891   2.489  1.0832 -0.6654 -1.8567
 4699SOL     OW25729   4.618   2.784  16.394 -1.1909 -0.2529  0.1169
 4699SOL    HW125730   4.661   2.712  16.347  1.1810  0.4379  1.2699
 4699SOL    HW225731   4.604   2.835  16.314 -0.0463  1.3185  0.9315
 4700SOL     OW25732   4.459   2.505  10.661  0.3166  0.1627 -0.5536
 4700SOL    HW125733   4.487   2.473  10.575  1.0083  1.8018 -0.9374
 4700SOL    HW225734   4.537   2.497  10.716 -0.0455 -0.2994 -0.1137
 4701SOL     OW25735   3.900   3.278   7.409 -0.0537  0.3648 -0.0037
 4701SOL    HW125736   3.995   3.277   7.400  0.1404  1.4590  1.9871
 4701SOL    HW225737   3.877   3.195   7.451  1.7224 -0.9355 -1.5816
 4702SOL     OW25738   2.445   4.105   9.514 -0.1114  0.0061  0.1535
 4702SOL    HW125739   2.392   4.162   9.457  1.8732  0.7293 -0.9946
 4702SOL    HW225740   2.381   4.034   9.508  0.6917 -0.6852 -0.1174
 4703SOL     OW25741   4.019   0.327  10.638 -0.5304 -0.7204 -0.8092
 4703SOL    HW125742   4.047   0.417  10.651  0.9840 -1.3521  0.2546
 4703SOL    HW225743   4.046   0.287  10.721 -1.1176 -1.2543 -0.8714
 4704SOL     OW25744   0.499   4.118   9.217 -0.1003 -0.5077  0.1823
 4704SOL    HW125745   0.419   4.157   9.183  0.3573  1.5596  1.4907
 4704SOL    HW225746   0.553   4.196   9.204 -0.2367 -0.4954 -0.3069
 4705SOL     OW25747   4.262   0.301  16.133 -0.0036 -0.0757 -0.9778
 4705SOL    HW125748   4.347   0.290  16.176 -0.3759 -1.4081 -0.5994
 4705SOL    HW225749   4.207   0.323  16.208  1.5736 -0.8935  0.4243
 4706SOL     OW25750   3.158   0.619   5.480 -0.1786  0.7454  0.3684
 4706SOL    HW125751   3.075   0.578   5.502  0.3893 -0.5090  0.1348
 4706SOL    HW225752   3.138   0.635   5.388  0.6946  1.2526  0.2699
 4707SOL     OW25753   0.857   0.815   8.525 -0.0266 -0.4505 -0.7804
 4707SOL    HW125754   0.764   0.796   8.528  0.4626 -3.0352 -1.8813
 4707SOL    HW225755   0.880   0.818   8.432  0.0204  2.0704 -0.6714
 4708SOL     OW25756   1.011   2.068   5.335  0.2022  0.0489 -0.2291
 4708SOL    HW125757   1.107   2.072   5.335  0.1389  1.7007 -0.9540
 4708SOL    HW225758   0.994   1.990   5.282  0.3419  0.2433 -0.5643
 4709SOL     OW25759   1.448   4.624  15.345  0.2675  0.3304  0.5505
 4709SOL    HW125760   1.361   4.634  15.385  0.7215 -0.4933  1.7291
 4709SOL    HW225761   1.417   4.618  15.255  1.0409  1.2787  0.2232
 4710SOL     OW25762   0.388   3.730  11.195 -0.6415  0.3755 -0.0016
 4710SOL    HW125763   0.469   3.701  11.236  0.8519  2.9121 -1.0991
 4710SOL    HW225764   0.338   3.648  11.196 -1.4821  0.9087  1.4639
 4711SOL     OW25765   2.375   2.591   2.821 -0.6020  0.2574  0.0090
 4711SOL    HW125766   2.389   2.683   2.841  1.4469 -0.4106  1.6639
 4711SOL    HW225767   2.459   2.560   2.789  0.7740  1.6442  2.2716
 4712SOL     OW25768   3.373   3.567  14.866 -0.3587  0.5821  0.4844
 4712SOL    HW125769   3.389   3.608  14.780  1.5372  0.2468  0.6672
 4712SOL    HW225770   3.326   3.492  14.831  2.5867 -1.4348  0.8268
 4713SOL     OW25771   1.999   0.889   2.088 -0.2087 -0.3969 -0.0660
 4713SOL    HW125772   2.001   0.979   2.122 -0.1601 -0.6344  0.5630
 4713SOL    HW225773   1.969   0.908   1.999  1.0327  0.8626 -0.2234
 4714SOL     OW25774   4.341   4.721   3.847 -0.4770 -1.0677  0.1289
 4714SOL    HW125775   4.383   4.636   3.834  0.2142 -0.5888 -0.7539
 4714SOL    HW225776   4.419   0.036   3.870 -1.1517 -0.1916  0.4338
 4715SOL     OW25777   2.858   1.828   8.065 -0.4218 -0.7274 -0.3272
 4715SOL    HW125778   2.935   1.814   8.010 -0.9609 -1.2424 -0.9516
 4715SOL    HW225779   2.837   1.738   8.086 -2.2244 -0.4853 -1.1329
 4716SOL     OW25780   0.265   1.206   5.889 -0.0399  0.3573 -0.1575
 4716SOL    HW125781   0.260   1.182   5.982  0.5191  1.3343  0.1274
 4716SOL    HW225782   0.309   1.136   5.843 -2.1436 -0.7635 -0.4506
 4717SOL     OW25783   4.558   1.164  11.113  0.3462 -0.4282 -0.2210
 4717SOL    HW125784   4.606   1.098  11.162  1.5557 -0.2991 -1.2284
 4717SOL    HW225785   4.620   1.173  11.041  1.4449 -0.8664  0.6750
 4718SOL     OW25786   4.319   2.579   3.772 -0.1000 -0.4722 -0.1691
 4718SOL    HW125787   4.285   2.533   3.695 -1.4335 -1.6241  1.1127
 4718SOL    HW225788   4.347   2.510   3.833 -0.9636  0.0181  0.7824
 4719SOL     OW25789   2.232   1.424   1.639  0.0208 -0.3294  0.5144
 4719SOL    HW125790   2.283   1.409   1.560  2.6723 -2.3207  2.6026
 4719SOL    HW225791   2.220   1.330   1.654  0.1561 -0.1296  1.8790
 4720SOL     OW25792   2.378   4.070   5.663  0.1806 -0.0427 -0.5537
 4720SOL    HW125793   2.406   4.007   5.729 -0.9024 -1.4870 -1.4549
 4720SOL    HW225794   2.338   4.011   5.598 -2.2825  1.0722 -0.0394
 4721SOL     OW25795   3.168   3.156   2.689  0.2312  0.0880  0.7495
 4721SOL    HW125796   3.093   3.130   2.635  1.2309 -2.1542  0.4628
 4721SOL    HW225797   3.139   3.134   2.778 -2.0383 -0.2369 -0.0765
 4722SOL     OW25798   0.819   0.796   3.573  0.0066 -0.1494  0.3288
 4722SOL    HW125799   0.751   0.792   3.641 -0.3087  2.2875  0.1544
 4722SOL    HW225800   0.896   0.803   3.629 -0.0417 -1.4831  0.5702
 4723SOL     OW25801   2.370   0.308   7.865 -0.1789  0.2068 -0.1603
 4723SOL    HW125802   2.289   0.257   7.873 -0.4049  0.4366 -0.9280
 4723SOL    HW225803   2.370   0.366   7.941  0.1699 -0.7079  0.5306
 4724SOL     OW25804   1.258   1.151  13.372  0.1716 -0.1098  0.0123
 4724SOL    HW125805   1.277   1.146  13.466 -0.2857  1.4805  0.1908
 4724SOL    HW225806   1.172   1.108  13.371  0.2832 -0.3150 -0.9316
 4725SOL     OW25807   0.132   0.325   1.367 -0.4903  0.0815 -0.3149
 4725SOL    HW125808   0.111   0.399   1.425 -1.3187 -2.2292  2.3886
 4725SOL    HW225809   0.180   0.265   1.424 -0.7138 -1.6443 -1.9582
 4726SOL     OW25810   4.236   0.935   8.248  0.2246  0.5728  0.1583
 4726SOL    HW125811   4.275   0.866   8.303 -0.4461  1.0732  1.2577
 4726SOL    HW225812   4.162   0.887   8.213 -0.8227  0.7156  2.1636
 4727SOL     OW25813   1.855   4.322   6.142  0.2132  0.3755 -0.1604
 4727SOL    HW125814   1.877   4.357   6.055 -0.9344  0.9075 -0.2439
 4727SOL    HW225815   1.823   4.401   6.187 -5.1781 -1.6358 -0.4351
 4728SOL     OW25816   4.677   3.174  12.095 -0.2486 -0.4588 -0.4351
 4728SOL    HW125817   4.733   3.107  12.055  1.8764  0.5995  0.7381
 4728SOL    HW225818   4.592   3.146  12.062 -0.1261 -2.1385  0.6970
 4729SOL     OW25819   3.093   3.576  12.845  0.4412  0.4208  0.0200
 4729SOL    HW125820   3.037   3.544  12.774 -0.3309  0.8231  0.4378
 4729SOL    HW225821   3.177   3.592  12.803  0.5039  0.0930  0.0224
 4730SOL     OW25822   2.496   1.026   3.933 -0.3897 -0.4903 -0.7993
 4730SOL    HW125823   2.469   0.978   4.012 -0.7869  1.5208  0.2940
 4730SOL    HW225824   2.433   1.091   3.902 -0.7258 -1.3607 -1.9092
 4731SOL     OW25825   2.969   4.658   3.636  0.2521  0.0478 -0.7462
 4731SOL    HW125826   2.882   4.642   3.671 -0.0768  3.3060 -0.0084
 4731SOL    HW225827   2.950   4.723   3.568 -1.3795  0.1903 -0.1498
 4732SOL     OW25828   4.426   4.031   2.326 -0.0227  0.1616 -0.0758
 4732SOL    HW125829   4.340   3.995   2.347  0.4507  0.0988  1.8067
 4732SOL    HW225830   4.460   4.072   2.406 -1.2899  1.3427 -0.1563
 4733SOL     OW25831   0.587   3.740   4.534 -0.4929 -0.2881 -0.7097
 4733SOL    HW125832   0.661   3.686   4.564 -2.1085 -1.1063  1.7554
 4733SOL    HW225833   0.520   3.675   4.555  0.8747 -1.4386  0.0527
 4734SOL     OW25834   4.435   0.444  11.646 -0.2081 -0.0653 -0.0995
 4734SOL    HW125835   4.395   0.527  11.675 -0.2180 -0.0619 -0.1228
 4734SOL    HW225836   4.528   0.465  11.644 -0.0065 -1.1304 -1.8071
 4735SOL     OW25837   2.914   2.412   2.874  0.0199 -0.4530 -0.4401
 4735SOL    HW125838   2.923   2.408   2.969  0.4922  3.0714 -0.3463
 4735SOL    HW225839   2.878   2.323   2.869  0.6231 -0.7004 -0.3241
 4736SOL     OW25840   2.223   1.151   8.793 -0.2425 -0.1688  0.4544
 4736SOL    HW125841   2.292   1.092   8.763 -1.5567 -2.5594  2.1272
 4736SOL    HW225842   2.257   1.240   8.785 -0.2630 -0.2436 -0.5136
 4737SOL     OW25843   4.731   2.359   3.986 -0.4894  0.0441  0.2361
 4737SOL    HW125844   4.688   2.293   4.040  0.3274  0.3659  1.2704
 4737SOL    HW225845   0.024   2.302   3.915  0.7538 -1.5801  2.0596
 4738SOL     OW25846   4.552   3.885   8.440 -0.0820  0.6069 -0.6565
 4738SOL    HW125847   4.469   3.915   8.403 -1.5694 -2.2026  0.4559
 4738SOL    HW225848   4.541   3.830   8.517  1.1182  0.0324 -0.8886
 4739SOL     OW25849   1.326   4.598   4.955  0.0307 -0.0303 -0.0978
 4739SOL    HW125850   1.307   4.572   4.865 -0.9375  1.9837 -0.4889
 4739SOL    HW225851   1.273   4.537   5.006 -0.4006  1.0019  0.6838
 4740SOL     OW25852   4.247   4.711   8.041 -0.2379  0.4044 -0.1253
 4740SOL    HW125853   4.300   4.677   7.970  1.0269  1.5316  0.2757
 4740SOL    HW225854   4.187   0.031   7.993  0.2810  0.0814 -1.1372
 4741SOL     OW25855   3.009   0.417   6.141 -0.4577 -0.5191  0.3821
 4741SOL    HW125856   2.989   0.507   6.116 -1.9185 -0.5224  1.5144
 4741SOL    HW225857   3.015   0.371   6.057  0.4033 -2.2444  1.3763
 4742SOL     OW25858   0.890   3.679   6.114  0.1379 -0.5400  0.2818
 4742SOL    HW125859   0.861   3.687   6.023  0.5509 -4.5038 -0.2146
 4742SOL    HW225860   0.856   3.592   6.136 -0.4064 -0.7454 -1.3813
 4743SOL     OW25861   3.097   0.192   4.662  0.5762 -0.9112  0.7154
 4743SOL    HW125862   3.113   0.193   4.756 -0.2192 -1.3777  0.8613
 4743SOL    HW225863   3.176   0.158   4.620  0.7697 -1.7082  1.7522
 4744SOL     OW25864   2.945   1.146  10.868 -0.5409 -0.4123 -0.4930
 4744SOL    HW125865   2.991   1.225  10.837  1.1935 -1.0190  0.5230
 4744SOL    HW225866   2.941   1.101  10.784 -2.3475  2.0217 -1.7334
 4745SOL     OW25867   0.699   0.302  10.841 -0.0126  0.0115 -0.1346
 4745SOL    HW125868   0.719   0.353  10.921  1.2598  1.4106 -1.3441
 4745SOL    HW225869   0.605   0.317  10.848 -0.0102 -0.6975  1.5211
 4746SOL     OW25870   0.414   1.255  14.231  0.0144 -0.0059 -0.2999
 4746SOL    HW125871   0.398   1.309  14.153 -0.4064  0.8840  0.3993
 4746SOL    HW225872   0.322   1.239  14.255  0.5559 -3.3074 -0.4409
 4747SOL     OW25873   3.877   4.484   5.132  0.7352  0.3700  0.2488
 4747SOL    HW125874   3.944   4.521   5.189  0.0818  0.9475  0.6456
 4747SOL    HW225875   3.930   4.452   5.058  1.8093  1.7451  0.4206
 4748SOL     OW25876   0.539   4.260   8.895 -0.3169 -0.2598 -0.0225
 4748SOL    HW125877   0.593   4.187   8.865  2.0522  0.2644  2.9776
 4748SOL    HW225878   0.597   4.331   8.867  1.3591 -1.7582 -0.2703
 4749SOL     OW25879   2.436   1.697   0.767 -0.3962  0.2336 -0.3899
 4749SOL    HW125880   2.500   1.764   0.794 -0.7192  0.5908 -0.5093
 4749SOL    HW225881   2.362   1.710   0.827 -0.0758 -1.2191  0.3142
 4750SOL     OW25882   0.373   3.561   7.606 -0.6843  0.0306  0.1856
 4750SOL    HW125883   0.386   3.646   7.564  0.1915  0.4169  1.2303
 4750SOL    HW225884   0.359   3.503   7.531  0.4647  0.9869 -0.7706
 4751SOL     OW25885   1.970   1.370   8.335  0.3021  0.3134  0.2185
 4751SOL    HW125886   1.875   1.377   8.331  0.2020 -1.5043 -0.8003
 4751SOL    HW225887   1.994   1.414   8.253  0.3311  0.5337  0.3469
 4752SOL     OW25888   0.426   1.887   3.273 -0.2606 -0.0230 -0.6154
 4752SOL    HW125889   0.388   1.874   3.186 -0.4513  0.1713 -0.5604
 4752SOL    HW225890   0.520   1.899   3.263 -0.4582  1.4590 -0.6593
 4753SOL     OW25891   2.681   2.030   3.912  0.3283  0.8797 -0.3139
 4753SOL    HW125892   2.692   2.119   3.946  0.8690  1.1585 -1.1887
 4753SOL    HW225893   2.769   2.001   3.888  0.8087  2.0762 -0.0199
 4754SOL     OW25894   4.570   2.403  15.461 -0.0709  0.6247  0.3375
 4754SOL    HW125895   4.621   2.410  15.380 -0.4487  1.1195  0.1454
 4754SOL    HW225896   4.533   2.316  15.444  0.7198  0.7342 -2.0149
 4755SOL     OW25897   3.907   2.652   9.575 -0.4006  0.3060 -0.1700
 4755SOL    HW125898   3.820   2.650   9.535 -1.6649  0.8377  2.5733
 4755SOL    HW225899   3.882   2.610   9.657 -2.5194  0.0760 -0.9332
 4756SOL     OW25900   1.289   1.119  11.752  0.1196 -0.2714  0.2536
 4756SOL    HW125901   1.202   1.079  11.755 -0.2643  0.5394 -0.1516
 4756SOL    HW225902   1.327   1.098  11.667  1.1142  3.8526 -0.2972
 4757SOL     OW25903   1.059   3.689   7.968  0.0354 -0.1981  0.0317
 4757SOL    HW125904   0.972   3.694   7.928 -0.9160 -1.7954  1.9171
 4757SOL    HW225905   1.061   3.784   7.982  0.2206  0.0533 -1.6681
 4758SOL     OW25906   3.714   4.506   3.801  0.0117  0.0503 -0.5877
 4758SOL    HW125907   3.653   4.572   3.767  0.5071  0.4015 -0.8045
 4758SOL    HW225908   3.793   4.558   3.784  1.1344 -1.9084 -1.3136
 4759SOL     OW25909   3.886   3.358   8.872 -0.2361  0.0318 -0.3885
 4759SOL    HW125910   3.809   3.319   8.829 -0.7714 -0.1965  0.7830
 4759SOL    HW225911   3.881   3.336   8.965  1.4678  0.0788 -0.2963
 4760SOL     OW25912   1.275   3.429   2.935  0.3451  0.2185 -0.1533
 4760SOL    HW125913   1.355   3.462   2.977  1.0697 -1.2001 -0.4169
 4760SOL    HW225914   1.307   3.429   2.845 -3.4151 -0.2541 -1.4882
 4761SOL     OW25915   0.338   3.071   6.526 -0.5949 -0.4381 -0.7353
 4761SOL    HW125916   0.257   3.081   6.477 -0.6209  0.5300 -0.4886
 4761SOL    HW225917   0.301   3.039   6.608 -1.3088  1.2287 -0.4056
 4762SOL     OW25918   0.918   1.603   7.036  0.8905  0.1987  0.4406
 4762SOL    HW125919   0.924   1.618   6.942 -0.6532 -0.1629  0.2812
 4762SOL    HW225920   0.995   1.642   7.079 -0.5623  1.7766  1.6230
 4763SOL     OW25921   3.397   0.622   2.597  0.3098 -0.4448  0.0599
 4763SOL    HW125922   3.451   0.667   2.532 -0.5566  0.7542  0.1890
 4763SOL    HW225923   3.445   0.631   2.680  1.1088 -1.0670 -0.3306
 4764SOL     OW25924   1.220   3.426  15.900 -0.2342 -0.1659  0.3355
 4764SOL    HW125925   1.171   3.465  15.828  2.2664  2.5145  0.1089
 4764SOL    HW225926   1.176   3.342  15.912  0.2766  0.0764  4.0693
 4765SOL     OW25927   1.362   2.847   6.780  0.4971  0.4508 -0.0054
 4765SOL    HW125928   1.374   2.771   6.837 -1.6646  1.1652  1.3918
 4765SOL    HW225929   1.300   2.898   6.833 -1.4336 -0.0573 -1.7609
 4766SOL     OW25930   2.187   3.117   3.824 -0.0117  0.5375  0.0958
 4766SOL    HW125931   2.108   3.114   3.879 -1.2139 -0.2863 -1.6794
 4766SOL    HW225932   2.197   3.024   3.803 -0.7086  0.6223 -0.6259
 4767SOL     OW25933   1.818   2.055  17.672 -0.0982 -0.3692  0.1125
 4767SOL    HW125934   1.869   2.051  17.592 -0.2774 -2.0343  0.0732
 4767SOL    HW225935   1.768   2.134  17.651  1.0251  1.0274  2.6218
 4768SOL     OW25936   3.578   2.833   3.545 -0.1234  0.1025  0.5525
 4768SOL    HW125937   3.626   2.905   3.503  0.1683 -0.6970 -0.5128
 4768SOL    HW225938   3.615   2.865   3.627 -0.1849 -0.7400  0.9121
 4769SOL     OW25939   3.927   1.477   4.530 -0.1082  0.2510  0.9121
 4769SOL    HW125940   3.895   1.387   4.528  2.1855 -0.5388 -0.4299
 4769SOL    HW225941   3.842   1.520   4.532 -0.8632 -1.3512  2.5874
 4770SOL     OW25942   1.043   3.612   8.329  0.2765  0.2111 -0.2652
 4770SOL    HW125943   1.048   3.707   8.318 -0.9049  0.1624 -1.3059
 4770SOL    HW225944   1.051   3.569   8.244  1.9456 -1.7766  0.9065
 4771SOL     OW25945   1.702   2.779   2.901  0.4526 -0.3246  0.2318
 4771SOL    HW125946   1.767   2.806   2.836 -0.1638 -2.5861 -1.2802
 4771SOL    HW225947   1.744   2.817   2.979  0.9639 -1.9675  0.7631
 4772SOL     OW25948   0.611   0.267   9.457 -1.1607  0.1012  0.1149
 4772SOL    HW125949   0.518   0.273   9.481 -1.2222 -0.0768 -0.0718
 4772SOL    HW225950   0.646   0.284   9.544  1.3180  0.5861 -0.9896
 4773SOL     OW25951   0.308   1.192   2.265 -0.3110 -0.3962 -0.3768
 4773SOL    HW125952   0.353   1.260   2.215  0.7415 -0.3001  0.7008
 4773SOL    HW225953   0.319   1.116   2.208 -0.8098 -0.4624 -0.3851
 4774SOL     OW25954   2.301   3.645  15.500  0.5295 -0.2037 -0.0529
 4774SOL    HW125955   2.247   3.684  15.432 -0.2976 -0.6512  0.3422
 4774SOL    HW225956   2.277   3.554  15.481 -0.1580 -0.5691  2.5353
 4775SOL     OW25957   0.896   4.302  15.547 -0.6456 -0.2835 -0.2652
 4775SOL    HW125958   0.808   4.334  15.565 -0.3397 -0.2662  1.1506
 4775SOL    HW225959   0.938   4.388  15.541  1.0119 -1.0745  0.2367
 4776SOL     OW25960   4.542   0.674   0.253 -0.6738 -0.3155  0.1614
 4776SOL    HW125961   4.568   0.583   0.234 -0.4601  0.0757 -1.4071
 4776SOL    HW225962   4.628   0.714   0.265 -0.8586  0.7082 -2.0628
 4777SOL     OW25963   2.278   3.137   4.458 -1.0149 -0.3469 -0.0837
 4777SOL    HW125964   2.229   3.219   4.467  2.5275  1.6029  1.2508
 4777SOL    HW225965   2.271   3.128   4.363 -0.2592 -2.2594  0.0387
 4778SOL     OW25966   4.607   1.941   5.218 -0.5194  0.0729  0.4583
 4778SOL    HW125967   4.635   1.947   5.309 -0.2541 -2.0264  0.5282
 4778SOL    HW225968   4.686   1.934   5.164 -0.1762 -1.3100  1.1223
 4779SOL     OW25969   3.836   3.197   2.617  0.2318  0.3337  0.3079
 4779SOL    HW125970   3.764   3.205   2.678  0.9525  0.2927  1.1622
 4779SOL    HW225971   3.829   3.107   2.585 -2.1652  0.1346  1.4547
 4780SOL     OW25972   2.886   0.814  16.074  0.0332  0.4274  0.3306
 4780SOL    HW125973   2.797   0.827  16.040  0.9656 -0.1096 -2.3505
 4780SOL    HW225974   2.878   0.730  16.119 -1.2160 -0.3735 -1.3496
 4781SOL     OW25975   3.237   2.486  14.830 -0.3263  0.1634  0.7891
 4781SOL    HW125976   3.290   2.425  14.779 -0.2402  0.1583  0.8849
 4781SOL    HW225977   3.164   2.507  14.771 -0.0788  0.6687  0.6664
 4782SOL     OW25978   3.763   2.201   5.434 -0.2904  0.5973 -0.0249
 4782SOL    HW125979   3.740   2.126   5.488  3.1026 -0.4753 -0.1126
 4782SOL    HW225980   3.770   2.159   5.348  0.1134  1.1567 -0.2673
 4783SOL     OW25981   1.785   3.109  14.371 -0.5530 -0.0026 -0.3747
 4783SOL    HW125982   1.814   3.043  14.307  1.5194 -0.5561  1.1345
 4783SOL    HW225983   1.800   3.062  14.453  0.6236  1.1236  0.0694
 4784SOL     OW25984   2.946   4.232   5.962 -0.5388  0.0091 -0.3353
 4784SOL    HW125985   2.857   4.234   5.997 -0.0149  1.2169  0.9477
 4784SOL    HW225986   2.959   4.327   5.957 -2.2651  0.4161  2.4132
 4785SOL     OW25987   2.407   4.427   7.594 -0.4978  0.1305  0.1299
 4785SOL    HW125988   2.485   4.483   7.588 -0.0010 -0.6153 -0.4860
 4785SOL    HW225989   2.438   4.349   7.546  2.1451  1.7949 -0.8695
 4786SOL     OW25990   0.738   3.786  16.827 -0.2470  0.1323 -0.1947
 4786SOL    HW125991   0.804   3.821  16.887  1.4850 -1.5719 -1.1227
 4786SOL    HW225992   0.677   3.761  16.897  1.7019 -2.1770  0.6823
 4787SOL     OW25993   1.237   1.901   5.972 -0.1235 -0.1156  0.0438
 4787SOL    HW125994   1.280   1.984   5.956  2.4656 -1.4311  0.2200
 4787SOL    HW225995   1.295   1.868   6.041 -1.0518  0.0025  0.8888
 4788SOL     OW25996   3.156   1.732   9.879  0.1959  0.0463 -0.0852
 4788SOL    HW125997   3.152   1.643   9.844 -0.2205  0.0559 -0.0585
 4788SOL    HW225998   3.070   1.770   9.863  1.2437  2.7236  0.5707
 4789SOL     OW25999   0.536   0.656   0.586 -0.0724 -0.0529  0.3817
 4789SOL    HW126000   0.563   0.742   0.618 -0.0394  0.1087 -0.0726
 4789SOL    HW226001   0.489   0.685   0.507 -1.6152  0.0545  1.3438
 4790SOL     OW26002   1.370   3.906   4.894 -0.3496 -0.1553  0.5792
 4790SOL    HW126003   1.466   3.906   4.885 -0.5150  2.3762 -0.9106
 4790SOL    HW226004   1.378   3.842   4.965  1.3184  0.0677  0.6016
 4791SOL     OW26005   2.770   0.490   8.812 -0.5418 -0.1593 -0.3309
 4791SOL    HW126006   2.722   0.483   8.729  1.7164 -3.3192 -1.3866
 4791SOL    HW226007   2.862   0.486   8.785  0.1781 -0.8671  2.2754
 4792SOL     OW26008   2.464   1.878   0.017  0.0891 -0.3828  0.1390
 4792SOL    HW126009   2.466   1.902  17.670  0.2273  0.6882  0.4208
 4792SOL    HW226010   2.472   1.963   0.061  1.0641 -0.6240  0.4470
 4793SOL     OW26011   3.027   3.492  15.565  0.1788 -0.5604 -0.6156
 4793SOL    HW126012   2.981   3.535  15.637  0.6247 -3.4899  1.4058
 4793SOL    HW226013   3.087   3.433  15.611  2.0528  1.2904 -0.7300
 4794SOL     OW26014   4.327   4.117   8.480  0.8270  0.4464  0.1834
 4794SOL    HW126015   4.408   4.128   8.431  0.7490 -0.9816 -0.2787
 4794SOL    HW226016   4.294   4.044   8.427  2.0849  0.1108 -0.1375
 4795SOL     OW26017   4.191   2.678   6.883  0.4256  0.5888  0.1785
 4795SOL    HW126018   4.205   2.605   6.942  0.1287  0.9034  0.6366
 4795SOL    HW226019   4.189   2.639   6.795 -0.5284  0.0441  0.4400
 4796SOL     OW26020   0.572   4.177  15.933 -0.2088 -0.3394  0.4244
 4796SOL    HW126021   0.602   4.241  15.869 -0.1868 -1.0773 -0.2991
 4796SOL    HW226022   0.485   4.208  15.957 -0.6921  0.5885 -2.6371
 4797SOL     OW26023   2.287   2.230   2.536  0.0913  0.1957  0.2395
 4797SOL    HW126024   2.256   2.171   2.605  0.0166 -1.7064 -1.4058
 4797SOL    HW226025   2.211   2.287   2.526  1.3475  1.4459 -2.1524
 4798SOL     OW26026   0.612   3.638   4.119 -0.4844  0.3570 -1.1987
 4798SOL    HW126027   0.518   3.657   4.112 -0.8179  0.2234  2.9345
 4798SOL    HW226028   0.623   3.544   4.133  0.9765  0.3293 -2.5955
 4799SOL     OW26029   1.389   1.108  12.055 -0.6597 -0.2581 -0.2162
 4799SOL    HW126030   1.419   1.017  12.049 -0.8539 -0.2317 -1.6207
 4799SOL    HW226031   1.456   1.133  12.118  0.2828 -1.2131 -0.8216
 4800SOL     OW26032   1.325   3.874   7.545  0.1184 -0.9054 -0.1303
 4800SOL    HW126033   1.335   3.789   7.504  0.9699  0.0199 -1.8380
 4800SOL    HW226034   1.270   3.917   7.479  1.6673  0.1345 -0.7215
 4801SOL     OW26035   1.433   3.820   1.669  0.4974 -0.0586 -0.3645
 4801SOL    HW126036   1.362   3.879   1.694  2.4778  1.8515  0.6762
 4801SOL    HW226037   1.384   3.738   1.670 -1.3824  1.0399 -1.5470
 4802SOL     OW26038   4.062   0.571   3.561  0.0517  0.2953 -0.3947
 4802SOL    HW126039   4.152   0.559   3.591  0.0521 -1.7108 -1.2180
 4802SOL    HW226040   4.018   0.505   3.614  0.0916  1.1572  0.7102
 4803SOL     OW26041   1.879   2.611   2.475  0.2083 -0.2611 -0.5128
 4803SOL    HW126042   1.860   2.551   2.403  3.4758 -2.3952  0.4111
 4803SOL    HW226043   1.886   2.696   2.431  1.1658  0.1882  0.5196
 4804SOL     OW26044   4.047   0.184  15.480 -0.3812 -0.1586 -0.4653
 4804SOL    HW126045   4.100   0.165  15.402  1.6251  0.2308  0.8242
 4804SOL    HW226046   4.068   0.273  15.507  0.2747 -0.5897  0.4170
 4805SOL     OW26047   0.448   2.173  12.704  0.4923 -0.1819 -0.0950
 4805SOL    HW126048   0.456   2.243  12.639 -0.7096 -0.7901 -0.8878
 4805SOL    HW226049   0.496   2.097  12.671 -0.0756 -0.4742 -0.2576
 4806SOL     OW26050   4.715   0.359   3.027  0.1217 -0.0721  0.5826
 4806SOL    HW126051   0.057   0.393   2.985 -0.9092 -0.6443 -1.7821
 4806SOL    HW226052   0.021   0.277   3.050  0.2212 -0.5004 -1.1725
 4807SOL     OW26053   3.097   0.777   1.185 -0.8226 -0.4088 -0.1983
 4807SOL    HW126054   3.052   0.832   1.122 -1.5005 -0.3189  0.3676
 4807SOL    HW226055   3.181   0.782   1.139  0.3761  1.9867  2.2276
 4808SOL     OW26056   0.416   2.046  11.728 -0.5222 -0.3127 -0.3906
 4808SOL    HW126057   0.458   1.971  11.770  0.9594  0.0173 -1.2712
 4808SOL    HW226058   0.453   2.116  11.782 -1.9243  1.4052 -1.6517
 4809SOL     OW26059   4.360   3.449   6.086  0.0088 -0.3118 -0.4663
 4809SOL    HW126060   4.345   3.529   6.036  0.1411 -0.2726 -0.4433
 4809SOL    HW226061   4.323   3.384   6.026 -0.2436 -2.5678  2.1199
 4810SOL     OW26062   2.677   2.709   7.525 -0.0793  0.0771 -0.6002
 4810SOL    HW126063   2.613   2.735   7.459 -1.4473  0.2171  0.7679
 4810SOL    HW226064   2.761   2.695   7.482  0.2339 -1.6205  0.5644
 4811SOL     OW26065   2.427   1.425   4.731 -0.4187 -0.1861 -0.3787
 4811SOL    HW126066   2.384   1.438   4.647  2.1251  0.9813 -1.4906
 4811SOL    HW226067   2.391   1.500   4.779  0.4593 -1.3343  2.1087
 4812SOL     OW26068   1.718   3.484  17.695  0.5592 -0.0535  0.5572
 4812SOL    HW126069   1.702   3.508  17.604  2.5299 -0.0431  0.2022
 4812SOL    HW226070   1.748   3.569  17.728  1.5789 -1.2640  2.8030
 4813SOL     OW26071   1.813   2.669   4.183  0.0114  0.1750 -0.3716
 4813SOL    HW126072   1.743   2.604   4.179 -0.6457  0.8499  0.1690
 4813SOL    HW226073   1.768   2.747   4.218 -0.4018 -1.4932  2.8098
 4814SOL     OW26074   2.493   0.120   6.680 -0.0306 -0.1687 -0.0684
 4814SOL    HW126075   2.483   0.027   6.657  0.3286 -0.7641  2.2463
 4814SOL    HW226076   2.535   0.156   6.602 -1.5337  2.1023  0.1662
 4815SOL     OW26077   4.417   2.841   6.915  0.4015  0.2926 -0.6035
 4815SOL    HW126078   4.348   2.775   6.910 -0.2163  0.9177 -0.3490
 4815SOL    HW226079   4.481   2.798   6.972  1.4677  2.1630 -0.3938
 4816SOL     OW26080   1.185   4.624   4.201 -0.5414  0.2029  0.3976
 4816SOL    HW126081   1.092   4.620   4.221 -0.2011  1.2228  2.0828
 4816SOL    HW226082   1.194   4.649   4.109  0.4831  1.0633  0.7340
 4817SOL     OW26083   4.142   0.318  17.148 -0.4185 -0.2241 -0.5931
 4817SOL    HW126084   4.105   0.393  17.101 -2.2412 -1.0731 -0.5091
 4817SOL    HW226085   4.059   0.284  17.184 -0.5419  1.4623  0.7575
 4818SOL     OW26086   1.332   3.368   4.791  0.0672  0.0300  0.4818
 4818SOL    HW126087   1.344   3.292   4.734 -1.6565  1.7721 -2.2166
 4818SOL    HW226088   1.281   3.326   4.860  0.8554  0.9349  1.6184
 4819SOL     OW26089   2.538   3.766   9.298 -0.1256 -0.4354  0.2343
 4819SOL    HW126090   2.452   3.807   9.290  0.1251 -0.0813 -0.6117
 4819SOL    HW226091   2.533   3.704   9.225 -1.3089 -2.0080  1.6558
 4820SOL     OW26092   2.107   3.303   6.530  0.3488 -0.8470  0.1494
 4820SOL    HW126093   2.171   3.232   6.532  0.9978 -0.2245  1.2068
 4820SOL    HW226094   2.038   3.260   6.480 -1.1829  1.2908  0.4463
 4821SOL     OW26095   2.339   4.284   5.517 -0.1335  0.2042 -0.1223
 4821SOL    HW126096   2.350   4.203   5.566  0.9844  0.2619 -0.2894
 4821SOL    HW226097   2.303   4.341   5.585 -0.0139 -0.1809  0.2647
 4822SOL     OW26098   0.248   3.202  15.502 -0.1549 -0.0246  0.0155
 4822SOL    HW126099   0.319   3.262  15.524 -0.0749 -1.0438  2.4930
 4822SOL    HW226100   0.196   3.247  15.436  1.9105  3.0936  0.4686
 4823SOL     OW26101   2.197   1.607  14.595 -0.2753 -0.6366  0.1232
 4823SOL    HW126102   2.222   1.516  14.576 -0.9903 -1.1786  1.7612
 4823SOL    HW226103   2.103   1.589  14.596 -0.7630  1.8369 -0.9048
 4824SOL     OW26104   1.964   1.392   7.423  0.1870  0.2302  0.1442
 4824SOL    HW126105   1.883   1.342   7.436  0.7529 -0.3096  1.5334
 4824SOL    HW226106   2.027   1.322   7.407  0.1339  0.0189  0.8697
 4825SOL     OW26107   3.259   4.232   4.899  0.4489  1.0689  0.1646
 4825SOL    HW126108   3.190   4.203   4.959 -0.2916  1.6746 -0.3866
 4825SOL    HW226109   3.204   4.281   4.838 -0.0874 -0.5399 -0.6491
 4826SOL     OW26110   3.049   0.507  11.659  0.0826  0.0219  1.1039
 4826SOL    HW126111   3.019   0.576  11.600 -0.0446 -0.2288  0.8735
 4826SOL    HW226112   3.103   0.457  11.597 -0.9052  0.4710 -0.1133
 4827SOL     OW26113   3.663   0.284   6.713  0.2880  0.1270 -0.0562
 4827SOL    HW126114   3.581   0.298   6.665  1.9765 -2.1567 -3.5616
 4827SOL    HW226115   3.686   0.192   6.712  1.2584  0.3698  0.0098
 4828SOL     OW26116   4.215   4.209  12.853 -0.5521  0.2068  0.3070
 4828SOL    HW126117   4.289   4.167  12.810 -0.5825 -0.4671  0.9107
 4828SOL    HW226118   4.261   4.268  12.912 -1.8609  1.4929  0.0465
 4829SOL     OW26119   2.221   3.647   4.171 -0.4616 -0.2052  0.1117
 4829SOL    HW126120   2.156   3.577   4.160 -0.8382  0.2848 -0.8229
 4829SOL    HW226121   2.256   3.656   4.082 -0.1586  1.5674  0.4146
 4830SOL     OW26122   1.877   0.857  16.938 -0.4134  0.6551  0.1827
 4830SOL    HW126123   1.810   0.921  16.960  0.7052  1.4038  1.4369
 4830SOL    HW226124   1.861   0.837  16.845  0.0428 -0.1626  0.2741
 4831SOL     OW26125   3.173   1.597   1.837  0.0876  0.5595  0.2732
 4831SOL    HW126126   3.239   1.578   1.903  0.5981 -0.8583 -0.6478
 4831SOL    HW226127   3.140   1.686   1.851 -1.3516  0.3343 -1.6288
 4832SOL     OW26128   2.328   2.054   3.726  0.6319  0.2606 -0.0769
 4832SOL    HW126129   2.350   2.104   3.647 -0.4680  0.2905 -0.3551
 4832SOL    HW226130   2.248   2.016   3.690  1.0014 -4.2554  3.9165
 4833SOL     OW26131   0.491   1.700   6.057  0.4894 -0.1511 -0.4821
 4833SOL    HW126132   0.470   1.615   6.016  0.5558 -0.2641 -0.2832
 4833SOL    HW226133   0.433   1.761   6.012  0.4058  0.9396  1.1473
 4834SOL     OW26134   2.843   4.264   2.252 -0.3628 -0.0186  0.2915
 4834SOL    HW126135   2.809   4.320   2.322  0.3331  0.0438  0.5782
 4834SOL    HW226136   2.861   4.182   2.299  2.0059  0.4730  0.2223
 4835SOL     OW26137   1.862   2.093  15.021 -0.0035  0.0223  0.1815
 4835SOL    HW126138   1.810   2.065  14.945  1.1695  0.6409 -0.8352
 4835SOL    HW226139   1.953   2.089  14.992  0.2433  0.4170  0.8949
 4836SOL     OW26140   1.757   3.905   3.768  0.0338  0.1336 -1.0857
 4836SOL    HW126141   1.727   3.972   3.829  0.5251 -0.2421 -0.4258
 4836SOL    HW226142   1.852   3.912   3.783  0.3531 -2.1947 -2.0375
 4837SOL     OW26143   4.126   2.803  10.677  0.4947 -0.1484  0.2853
 4837SOL    HW126144   4.038   2.771  10.655 -0.0094  0.3375  1.6420
 4837SOL    HW226145   4.119   2.898  10.678  0.3007 -0.1624  0.2343
 4838SOL     OW26146   4.368   0.846   4.891 -0.6298 -0.0616  0.0999
 4838SOL    HW126147   4.334   0.897   4.964 -0.7731  2.4124 -1.7210
 4838SOL    HW226148   4.464   0.850   4.896 -0.3760 -0.9806 -3.5576
 4839SOL     OW26149   4.432   3.065   8.366  0.1498 -0.6238 -0.3215
 4839SOL    HW126150   4.505   3.003   8.365  0.2274 -0.5734  2.6119
 4839SOL    HW226151   4.482   3.147   8.364 -0.9840  0.0431 -1.3313
 4840SOL     OW26152   4.616   2.458   4.569 -0.0679  0.2260 -0.3240
 4840SOL    HW126153   4.646   2.547   4.587 -0.4872  0.4563 -0.7557
 4840SOL    HW226154   4.544   2.453   4.632 -0.6399  0.9234 -0.9119
 4841SOL     OW26155   2.103   1.099   5.868 -0.3609  0.5694  0.0931
 4841SOL    HW126156   2.088   1.191   5.845  0.1523  0.5881 -0.1536
 4841SOL    HW226157   2.051   1.098   5.948 -1.5445  1.1177 -0.6689
 4842SOL     OW26158   2.409   2.002   4.544 -0.3595  0.2534 -0.1604
 4842SOL    HW126159   2.344   1.932   4.550 -0.0848  0.0245  0.2307
 4842SOL    HW226160   2.458   1.967   4.469 -0.2510 -0.7272  0.3563
 4843SOL     OW26161   2.316   2.545   5.537 -0.1493  0.3135  0.2044
 4843SOL    HW126162   2.391   2.573   5.590  0.5210  0.0552 -0.6174
 4843SOL    HW226163   2.250   2.531   5.605  2.0983 -4.0565  1.5025
 4844SOL     OW26164   3.668   3.730   8.709 -0.0501 -0.4887  0.5042
 4844SOL    HW126165   3.640   3.639   8.701 -1.4954 -0.1721  1.7604
 4844SOL    HW226166   3.760   3.744   8.689 -0.6741  1.9794 -0.6901
 4845SOL     OW26167   0.150   1.104   3.663  0.2002 -0.0502  0.1902
 4845SOL    HW126168   0.074   1.157   3.687 -0.5612 -0.3459 -1.5346
 4845SOL    HW226169   0.129   1.074   3.574  1.4720  0.6915 -0.3617
 4846SOL     OW26170   4.038   0.693   4.457  0.0442 -0.0190  0.3748
 4846SOL    HW126171   4.086   0.762   4.411 -0.8146  1.0660  1.1086
 4846SOL    HW226172   4.110   0.635   4.483 -1.2212 -1.0291  1.6132
 4847SOL     OW26173   2.121   3.303   7.729 -0.0996 -0.8306  0.0463
 4847SOL    HW126174   2.118   3.329   7.637 -0.2598  0.6129  0.4662
 4847SOL    HW226175   2.141   3.388   7.768 -0.5924 -0.6642 -0.0635
 4848SOL     OW26176   2.110   1.075  16.912  0.2125  0.0611 -0.1035
 4848SOL    HW126177   2.087   1.108  16.999  0.6867  1.1098 -0.3844
 4848SOL    HW226178   2.033   1.097  16.858 -0.3462  0.0359  0.6859
 4849SOL     OW26179   0.716   4.622   4.806 -0.3008 -0.4294  0.0500
 4849SOL    HW126180   0.785   4.585   4.751  0.2125  0.1350  0.3087
 4849SOL    HW226181   0.642   4.622   4.746 -0.6009 -0.0301  0.4146
 4850SOL     OW26182   3.422   2.492   5.791 -0.6311 -0.0057 -0.1774
 4850SOL    HW126183   3.485   2.452   5.732  0.0377  0.6025  0.1169
 4850SOL    HW226184   3.486   2.541   5.842  0.5742 -0.3780 -1.3214
 4851SOL     OW26185   4.643   1.040   7.037  0.4892  0.6297 -0.7994
 4851SOL    HW126186   4.659   1.125   6.996 -0.1824  0.1606 -2.0314
 4851SOL    HW226187   4.732   1.007   7.037  0.1144 -0.3697 -0.7157
 4852SOL     OW26188   4.445   1.267   4.450  0.1118 -0.2721  0.3979
 4852SOL    HW126189   4.458   1.174   4.431 -0.0696 -0.3267  0.5369
 4852SOL    HW226190   4.370   1.253   4.508 -0.9870  1.0497 -0.7224
 4853SOL     OW26191   1.836   1.542   5.663  0.5455 -0.2831 -0.0621
 4853SOL    HW126192   1.812   1.472   5.723  3.1170  0.3239  1.6710
 4853SOL    HW226193   1.891   1.490   5.603 -1.3165  0.8495 -2.7631
 4854SOL     OW26194   2.630   3.269   2.689 -0.1786  0.0477 -0.3524
 4854SOL    HW126195   2.695   3.316   2.637  0.3042  2.2038  2.1878
 4854SOL    HW226196   2.546   3.307   2.663  0.9479  2.7765 -0.0023
 4855SOL     OW26197   1.738   4.240  13.149 -0.2836  0.5054  0.3073
 4855SOL    HW126198   1.829   4.238  13.120 -0.1436  0.3054  0.7575
 4855SOL    HW226199   1.751   4.198  13.234  1.4738 -0.9322 -0.6927
 4856SOL     OW26200   0.238   0.452   3.040 -0.4291 -0.3931  0.0095
 4856SOL    HW126201   0.297   0.378   3.029 -0.1696 -0.3382  0.9941
 4856SOL    HW226202   0.281   0.502   3.110 -0.0867 -1.1859  0.3743
 4857SOL     OW26203   4.135   2.015  12.475 -0.3980 -0.1400 -0.5326
 4857SOL    HW126204   4.116   1.999  12.568  0.1085 -1.4789 -0.6491
 4857SOL    HW226205   4.132   1.924  12.446 -2.1319 -0.4726  0.7369
 4858SOL     OW26206   3.661   0.079   4.774  0.1898  0.2455  0.6826
 4858SOL    HW126207   3.651   0.174   4.769  2.1075  0.3872 -0.2332
 4858SOL    HW226208   3.750   0.079   4.807  0.3233 -0.4118  0.3174
 4859SOL     OW26209   2.783   0.354  14.853  0.4722  0.2047  0.2961
 4859SOL    HW126210   2.708   0.294  14.856  0.2020  0.4563 -1.1896
 4859SOL    HW226211   2.807   0.347  14.761  4.3616  0.3472  1.3253
 4860SOL     OW26212   2.747   0.153   9.248 -0.2859 -0.7852 -0.2529
 4860SOL    HW126213   2.705   0.211   9.185  1.1011 -1.8332 -2.1483
 4860SOL    HW226214   2.832   0.157   9.203 -0.1153  1.5696  0.2755
 4861SOL     OW26215   4.059   4.141  16.016  0.0324  0.0261  0.1615
 4861SOL    HW126216   3.995   4.170  15.952  0.0574 -1.4343 -0.5195
 4861SOL    HW226217   4.080   4.223  16.061  1.6616  0.4257 -1.3040
 4862SOL     OW26218   1.126   4.604  13.895  0.5394  0.6267  0.3558
 4862SOL    HW126219   1.118   4.588  13.801  0.3955 -1.4424  0.7193
 4862SOL    HW226220   1.216   4.637  13.897  1.7575 -2.6494 -0.1705
 4863SOL     OW26221   3.989   0.781   3.418 -0.3324 -0.1361 -0.2161
 4863SOL    HW126222   4.042   0.709   3.453  2.1487  1.3703 -0.9106
 4863SOL    HW226223   3.923   0.775   3.487 -0.1302  1.5429  0.1130
 4864SOL     OW26224   0.114   4.630   2.485  0.6953 -0.4895 -0.1891
 4864SOL    HW126225   0.135   4.721   2.505  1.2948 -0.4995 -0.7547
 4864SOL    HW226226   0.198   4.587   2.472  0.6960 -0.2759 -0.8829
 4865SOL     OW26227   4.175   3.908   2.136 -0.2040 -0.1368  0.1196
 4865SOL    HW126228   4.162   3.935   2.227  0.7714  1.8655 -0.3329
 4865SOL    HW226229   4.216   3.986   2.098 -0.0461 -0.5480 -0.5542
 4866SOL     OW26230   1.395   0.132   2.657  0.2787 -0.6442 -0.1468
 4866SOL    HW126231   1.356   0.046   2.672  0.1882 -0.2494  1.7955
 4866SOL    HW226232   1.433   0.136   2.745  0.5958 -4.3581 -0.0985
 4867SOL     OW26233   3.344   0.977   5.665  0.0286 -0.4849  0.1357
 4867SOL    HW126234   3.262   0.944   5.627  0.8769  0.0260 -2.1005
 4867SOL    HW226235   3.310   1.009   5.749  0.9520 -0.8377  0.6391
 4868SOL     OW26236   1.657   1.286   2.941  0.3024 -0.0326  0.4086
 4868SOL    HW126237   1.595   1.245   3.001  2.0748 -2.5481  0.5194
 4868SOL    HW226238   1.657   1.377   2.972  2.9794  0.2720 -0.5280
 4869SOL     OW26239   3.800   1.844  13.777 -0.0531 -0.2979 -0.3848
 4869SOL    HW126240   3.850   1.774  13.735  2.0370  0.8711  0.1933
 4869SOL    HW226241   3.740   1.802  13.838 -1.6908 -1.1526 -2.5532
 4870SOL     OW26242   1.412   0.719  13.947 -0.6003  0.2351 -0.0301
 4870SOL    HW126243   1.340   0.722  13.884  0.3640  2.5892 -1.0339
 4870SOL    HW226244   1.377   0.770  14.020 -0.1581 -1.0143  1.0503
 4871SOL     OW26245   0.987   3.229   6.965  0.2311 -0.3878 -0.5717
 4871SOL    HW126246   1.060   3.286   6.988 -1.3602  0.2141  2.9977
 4871SOL    HW226247   0.972   3.261   6.876  0.5014  0.4236 -0.3250
 4872SOL     OW26248   2.333   3.702   9.627 -0.1035  0.1981  0.1913
 4872SOL    HW126249   2.390   3.636   9.589  0.0047 -0.2934  1.1957
 4872SOL    HW226250   2.277   3.637   9.670  0.9160 -1.0390 -0.3734
 4873SOL     OW26251   1.345   1.478  15.934 -0.2795 -0.2272  0.2418
 4873SOL    HW126252   1.339   1.486  15.839 -0.6261 -2.1390  0.1011
 4873SOL    HW226253   1.357   1.570  15.958  0.1240 -0.6047  1.5028
 4874SOL     OW26254   4.728   3.032  14.965 -0.4093  0.0558 -0.0951
 4874SOL    HW126255   4.682   3.098  14.913 -0.2523 -0.5900 -1.0563
 4874SOL    HW226256   0.005   3.066  15.054  3.7625  1.5747 -1.3428
 4875SOL     OW26257   4.545   3.409  10.876  0.3036 -0.2423  0.0240
 4875SOL    HW126258   4.623   3.462  10.887 -0.8237  1.2482  0.7490
 4875SOL    HW226259   4.502   3.461  10.809 -2.2244 -2.9966 -0.4715
 4876SOL     OW26260   2.970   2.066   9.354 -0.2353 -0.3717  0.2865
 4876SOL    HW126261   3.041   2.012   9.389  0.7642 -0.2953 -1.6062
 4876SOL    HW226262   2.991   2.146   9.401 -0.6987 -0.1656  0.1372
 4877SOL     OW26263   3.639   3.113   7.360  0.4177  0.3477 -0.2479
 4877SOL    HW126264   3.697   3.055   7.310  0.8453 -0.6500  1.4030
 4877SOL    HW226265   3.664   3.088   7.449 -0.1322  0.5750 -0.0291
 4878SOL     OW26266   3.428   3.220   1.703  0.3357 -0.4016  0.1860
 4878SOL    HW126267   3.339   3.247   1.677  0.0912 -2.0126 -0.6457
 4878SOL    HW226268   3.413   3.202   1.795  2.9691  1.3633  0.9508
 4879SOL     OW26269   0.216   0.871   0.098  0.0769  0.3186 -0.3015
 4879SOL    HW126270   0.159   0.930   0.147  0.3403  0.8829 -0.6636
 4879SOL    HW226271   0.299   0.907   0.128 -0.3040  0.1040  1.0063
 4880SOL     OW26272   2.699   2.544   6.780  0.1507  0.4844  0.0271
 4880SOL    HW126273   2.795   2.541   6.776  0.0467  1.2231 -2.5892
 4880SOL    HW226274   2.680   2.455   6.750 -3.2181  1.5315 -0.8764
 4881SOL     OW26275   0.707   1.364   5.405  0.3589 -0.2844 -0.0952
 4881SOL    HW126276   0.665   1.313   5.336 -0.1359 -1.9773  1.4468
 4881SOL    HW226277   0.726   1.288   5.460  0.0340 -0.7150 -0.5845
 4882SOL     OW26278   1.611   2.386   8.445 -0.2324  0.0840 -0.0771
 4882SOL    HW126279   1.542   2.352   8.502 -1.0226 -0.1160 -1.1584
 4882SOL    HW226280   1.631   2.470   8.487 -1.1304  0.7803 -1.0454
 4883SOL     OW26281   1.691   0.261  16.750  0.2815 -0.2116 -0.5712
 4883SOL    HW126282   1.679   0.309  16.832 -1.2949 -0.3958 -0.7002
 4883SOL    HW226283   1.610   0.211  16.750  0.9732 -1.3262  0.1175
 4884SOL     OW26284   0.790   4.161   1.610 -0.3036  0.5302 -0.1126
 4884SOL    HW126285   0.705   4.160   1.566 -0.2152  4.4784 -0.3590
 4884SOL    HW226286   0.859   4.138   1.548 -0.0478 -1.6362  0.9946
 4885SOL     OW26287   1.187   1.290   7.822  0.1515  0.2463  0.0849
 4885SOL    HW126288   1.113   1.233   7.801  1.4806 -1.1163 -0.8586
 4885SOL    HW226289   1.209   1.252   7.907 -0.9700 -3.0508 -1.0790
 4886SOL     OW26290   0.704   2.994  11.545  0.7825  0.0865  0.2606
 4886SOL    HW126291   0.718   3.025  11.456  1.3462  1.3861  0.7960
 4886SOL    HW226292   0.789   3.002  11.588  1.5664 -3.7883 -0.6006
 4887SOL     OW26293   4.304   0.109   4.990  0.2940  0.7723 -0.1216
 4887SOL    HW126294   4.290   0.164   4.913 -0.6104  1.8610  0.8112
 4887SOL    HW226295   4.284   0.173   5.059  0.1332  2.4920 -1.7834
 4888SOL     OW26296   0.987   1.240   6.527 -0.1542 -0.1421  0.1691
 4888SOL    HW126297   1.003   1.317   6.472  0.2372  0.3244  0.9383
 4888SOL    HW226298   1.060   1.243   6.589 -1.6623 -0.5312  1.9583
 4889SOL     OW26299   0.591   3.143  13.739 -0.2647 -0.1551  0.0371
 4889SOL    HW126300   0.562   3.201  13.668 -0.3585  1.2220  1.1885
 4889SOL    HW226301   0.620   3.207  13.805  1.5656 -0.3916 -0.5585
 4890SOL     OW26302   0.606   3.966   5.087 -0.7045  0.1291  0.0601
 4890SOL    HW126303   0.656   3.948   5.007 -2.0439  0.8757 -0.9368
 4890SOL    HW226304   0.517   3.941   5.062 -1.1943  1.6384  0.2688
 4891SOL     OW26305   0.990   1.275   8.479 -0.1351  0.1371  0.0570
 4891SOL    HW126306   0.943   1.201   8.519 -2.2442  2.2223  1.4274
 4891SOL    HW226307   1.020   1.244   8.394  0.5875  0.9973  0.0056
 4892SOL     OW26308   0.743   2.632   4.759 -0.1083  0.0784  0.0262
 4892SOL    HW126309   0.655   2.607   4.786  0.0322  1.0969  1.3886
 4892SOL    HW226310   0.715   2.691   4.689 -0.7593 -0.3798 -0.1033
 4893SOL     OW26311   0.059   2.301  16.394  0.1178 -0.0600 -0.0534
 4893SOL    HW126312   4.726   2.366  16.385 -0.1250 -0.3718 -0.4018
 4893SOL    HW226313   0.125   2.357  16.435 -1.0277 -0.0178  1.7320
 4894SOL     OW26314   2.115   4.723   3.290  0.4314  0.6607 -0.5670
 4894SOL    HW126315   2.137   0.080   3.288 -0.6946  0.9523  0.3772
 4894SOL    HW226316   2.197   4.690   3.255  0.9881  3.8612 -2.2740
 4895SOL     OW26317   3.867   1.310   0.737  0.1520 -0.0699 -0.7437
 4895SOL    HW126318   3.788   1.256   0.733 -0.1108  0.3878 -1.6766
 4895SOL    HW226319   3.831   1.397   0.718  0.7422  0.2036 -0.6132
 4896SOL     OW26320   3.599   0.210   2.175 -0.2437  0.4357  0.2944
 4896SOL    HW126321   3.565   0.154   2.245 -1.3731  1.8139  0.8529
 4896SOL    HW226322   3.638   0.283   2.221 -1.0734  0.7345  0.5253
 4897SOL     OW26323   0.277   3.754   6.346 -0.1220 -0.1451  0.3988
 4897SOL    HW126324   0.189   3.790   6.334 -0.9832 -3.0642 -1.9156
 4897SOL    HW226325   0.252   3.665   6.370  2.2606 -1.2152 -1.1036
 4898SOL     OW26326   3.964   1.714   3.091 -0.6291 -0.3387  0.4628
 4898SOL    HW126327   4.037   1.680   3.039 -0.8289 -0.4534  0.2550
 4898SOL    HW226328   3.984   1.808   3.092 -0.4228 -0.3724 -0.4006
 4899SOL     OW26329   2.575   1.238   4.827 -0.2380  0.6157 -0.2721
 4899SOL    HW126330   2.572   1.261   4.919 -1.5544 -0.1341 -0.1240
 4899SOL    HW226331   2.529   1.307   4.780 -1.5719  1.2392  1.9851
 4900SOL     OW26332   1.027   4.086  14.003  0.2127 -0.2102 -0.3385
 4900SOL    HW126333   1.013   4.160  13.944  0.7512 -0.6452 -1.0275
 4900SOL    HW226334   1.091   4.037  13.950  2.0172  1.8392 -0.0683
 4901SOL     OW26335   4.551   3.597  10.690  0.4772  0.2804  0.0339
 4901SOL    HW126336   4.493   3.611  10.615  1.9756  0.5599 -1.0727
 4901SOL    HW226337   4.555   3.682  10.734  2.4939  0.0386  0.2915
 4902SOL     OW26338   3.775   0.405   5.507 -0.2866 -0.3840 -0.2552
 4902SOL    HW126339   3.798   0.467   5.576 -2.8007  0.2490  0.0285
 4902SOL    HW226340   3.696   0.370   5.548 -0.7608 -2.5990 -3.0101
 4903SOL     OW26341   3.080   3.430  15.968 -0.9235 -0.2487 -0.1435
 4903SOL    HW126342   3.046   3.378  15.896  0.8201 -0.5922 -0.7279
 4903SOL    HW226343   3.018   3.502  15.962  0.2178  0.8242  0.8295
 4904SOL     OW26344   0.805   2.553  10.912 -0.3270 -0.2188 -0.8771
 4904SOL    HW126345   0.762   2.517  10.834  0.7829  1.2485 -2.1789
 4904SOL    HW226346   0.835   2.474  10.957  1.1057  1.0034  0.3035
 4905SOL     OW26347   0.218   2.647  10.073  0.1354  0.0372  0.5694
 4905SOL    HW126348   0.291   2.662  10.133 -0.0013  2.1988  0.1647
 4905SOL    HW226349   0.243   2.710  10.006  1.8999 -0.8100  0.4510
 4906SOL     OW26350   3.033   2.616  14.056 -0.6221  0.2065  0.7541
 4906SOL    HW126351   2.963   2.561  14.091 -1.9184 -0.5902 -3.0763
 4906SOL    HW226352   2.981   2.685  14.016  1.4132 -0.0193 -2.3082
 4907SOL     OW26353   0.476   2.168   3.880 -0.4600 -0.4140  0.1307
 4907SOL    HW126354   0.419   2.126   3.945 -0.5404 -0.7192 -0.1405
 4907SOL    HW226355   0.556   2.123   3.905  0.3024  0.8360 -0.0995
 4908SOL     OW26356   0.751   2.801   9.618  0.1443 -0.5690 -0.0635
 4908SOL    HW126357   0.726   2.831   9.530 -0.1058  0.9682  0.5371
 4908SOL    HW226358   0.695   2.723   9.621 -0.4100 -0.0351  2.8726
 4909SOL     OW26359   4.457   3.848  15.491 -0.1431  0.1723 -0.2846
 4909SOL    HW126360   4.512   3.781  15.450  0.3112  0.6191 -0.4121
 4909SOL    HW226361   4.413   3.901  15.424  3.3069  4.1117  0.5371
 4910SOL     OW26362   1.392   1.626   7.674 -0.2847 -0.3468 -0.6904
 4910SOL    HW126363   1.483   1.647   7.693 -1.1105 -0.6736  3.6008
 4910SOL    HW226364   1.348   1.685   7.735 -1.5488 -0.0342 -1.9003
 4911SOL     OW26365   4.136   0.105   3.966  0.4117  0.2855 -0.0450
 4911SOL    HW126366   4.218   0.066   3.938 -0.3455 -1.5776  0.3332
 4911SOL    HW226367   4.162   0.186   4.011 -0.1180  0.9576 -0.9362
 4912SOL     OW26368   2.316   3.251   2.887 -0.1734 -1.0432 -0.6924
 4912SOL    HW126369   2.316   3.257   2.791 -0.1530 -1.2184 -0.7043
 4912SOL    HW226370   2.330   3.345   2.900  2.0045 -1.2599 -1.3702
 4913SOL     OW26371   3.394   1.355   4.947 -0.4579 -0.1258 -0.7594
 4913SOL    HW126372   3.409   1.377   5.039  0.6629 -0.1824 -0.9202
 4913SOL    HW226373   3.368   1.263   4.949  0.3915 -0.4062 -2.4464
 4914SOL     OW26374   1.210   0.354   0.315 -0.3328  0.7148 -0.0518
 4914SOL    HW126375   1.120   0.328   0.294 -0.7677  1.4741  0.8862
 4914SOL    HW226376   1.200   0.358   0.410 -0.9491  1.2682 -0.1373
 4915SOL     OW26377   2.774   3.090   4.124 -0.1656 -0.1517 -0.7109
 4915SOL    HW126378   2.737   3.005   4.098 -2.9747  0.9954 -0.4666
 4915SOL    HW226379   2.770   3.084   4.220  1.8069  1.1988 -0.5549
 4916SOL     OW26380   4.351   3.240   9.446 -0.2520 -0.4536 -0.5112
 4916SOL    HW126381   4.294   3.271   9.376  0.0422  2.5507  0.5658
 4916SOL    HW226382   4.433   3.271   9.407 -0.9537  1.4020 -0.5073
 4917SOL     OW26383   0.923   4.566  15.498 -0.0913 -0.4308  0.7036
 4917SOL    HW126384   0.843   4.546  15.450  0.3492  0.0586 -0.2372
 4917SOL    HW226385   0.890   4.653  15.520 -0.2004 -0.5259  0.9142
 4918SOL     OW26386   1.330   4.072  15.481 -0.1375 -0.0335 -0.7372
 4918SOL    HW126387   1.315   4.056  15.387 -0.7272 -2.1695 -0.2894
 4918SOL    HW226388   1.390   4.000  15.500  2.2192  2.0515 -0.2850
 4919SOL     OW26389   0.648   2.221   9.213 -0.0198 -0.2348  0.0292
 4919SOL    HW126390   0.610   2.283   9.275 -1.0379 -0.0026 -0.8263
 4919SOL    HW226391   0.733   2.264   9.211 -0.1206 -0.0186  0.3427
 4920SOL     OW26392   1.899   1.658   3.257  0.1468  0.1051  0.2268
 4920SOL    HW126393   1.981   1.630   3.297  0.6012  0.3323 -0.5565
 4920SOL    HW226394   1.841   1.611   3.317 -2.1980 -0.0834 -2.1853
 4921SOL     OW26395   1.206   0.961   6.726 -0.1978  0.0847  0.3187
 4921SOL    HW126396   1.219   1.041   6.676 -1.6134  1.1090  1.5736
 4921SOL    HW226397   1.122   0.979   6.770 -0.5477 -1.4244  0.2838
 4922SOL     OW26398   1.937   2.798   6.018 -0.1090 -0.4586 -0.2301
 4922SOL    HW126399   1.913   2.834   5.933 -1.0102  0.8450  0.5958
 4922SOL    HW226400   2.025   2.763   6.000 -1.1496 -2.8274 -0.7317
 4923SOL     OW26401   3.887   1.633   8.521  0.0053 -0.0739 -0.3133
 4923SOL    HW126402   3.828   1.594   8.457  1.2059 -1.8850 -0.3226
 4923SOL    HW226403   3.857   1.722   8.507  0.1047  0.1141  0.6706
 4924SOL     OW26404   2.837   4.365  15.193 -0.1030 -0.2649  0.2199
 4924SOL    HW126405   2.920   4.352  15.239  0.1688  1.5776  0.2568
 4924SOL    HW226406   2.805   4.278  15.170  0.3777 -0.5131  0.4900
 4925SOL     OW26407   2.062   1.704  10.568 -0.3988 -0.4243 -0.1241
 4925SOL    HW126408   2.048   1.615  10.536 -1.9847 -1.2443  2.8281
 4925SOL    HW226409   2.102   1.751  10.495  0.9995 -0.2740  0.7385
 4926SOL     OW26410   0.558   4.210   1.467 -0.2742  0.6047  0.1624
 4926SOL    HW126411   0.478   4.158   1.469 -0.6230  1.1758  0.8280
 4926SOL    HW226412   0.544   4.280   1.530 -0.0552  1.4054 -0.6809
 4927SOL     OW26413   1.180   3.086   5.228 -0.3036 -0.1717  0.4254
 4927SOL    HW126414   1.125   3.033   5.286 -0.3654  0.4065  0.9036
 4927SOL    HW226415   1.248   3.024   5.203 -0.2108  0.1774 -0.1893
 4928SOL     OW26416   3.821   1.470  12.789  0.6500 -0.1535  0.9093
 4928SOL    HW126417   3.842   1.552  12.835  3.2906 -0.2308 -0.1111
 4928SOL    HW226418   3.885   1.476  12.717 -0.3653 -0.4521 -0.0147
 4929SOL     OW26419   4.165   0.921   0.274 -0.1128 -0.8285  0.2800
 4929SOL    HW126420   4.084   0.966   0.249  1.3883  0.4121 -2.2687
 4929SOL    HW226421   4.159   0.919   0.370  0.0559  0.1028  0.3057
 4930SOL     OW26422   2.480   3.152  14.162  0.3061 -0.0978  0.2448
 4930SOL    HW126423   2.517   3.070  14.198  0.1117 -0.1668  0.2895
 4930SOL    HW226424   2.560   3.187  14.125  0.1547 -1.3308 -1.2423
 4931SOL     OW26425   0.354   1.756  11.286  0.1674  0.2478 -0.4242
 4931SOL    HW126426   0.274   1.771  11.234  0.2580  0.9035 -0.3695
 4931SOL    HW226427   0.340   1.802  11.369 -0.9839  0.3910 -0.6865
 4932SOL     OW26428   1.280   2.249   5.637 -0.4135 -0.1056 -0.1334
 4932SOL    HW126429   1.264   2.308   5.711 -0.7233 -1.0368  0.5428
 4932SOL    HW226430   1.194   2.206   5.633  0.4047 -1.7993  0.5100
 4933SOL     OW26431   4.553   2.164  14.097  0.1491  0.0980  0.5692
 4933SOL    HW126432   4.498   2.235  14.132 -1.1096 -0.8159  0.4359
 4933SOL    HW226433   4.507   2.164  14.013  1.1864  0.5101  0.0002
 4934SOL     OW26434   4.509   0.922   9.084 -0.0102 -0.2586  0.1856
 4934SOL    HW126435   4.516   0.828   9.073  1.0739 -0.2138  0.5027
 4934SOL    HW226436   4.505   0.948   8.992  0.6339 -1.1952 -0.0938
 4935SOL     OW26437   1.749   0.511   0.366  0.1486  0.5946 -0.0287
 4935SOL    HW126438   1.766   0.464   0.285 -1.2774 -0.1393  0.0963
 4935SOL    HW226439   1.684   0.450   0.401 -0.0704 -0.7453 -2.7845
 4936SOL     OW26440   4.612   2.696   5.432 -0.1758 -0.0644 -0.0425
 4936SOL    HW126441   4.528   2.695   5.477  0.5686  0.1711  1.3709
 4936SOL    HW226442   4.668   2.734   5.501 -0.7889 -0.6774  0.7865
 4937SOL     OW26443   2.920   3.127   4.808 -0.0614  0.3519 -0.0416
 4937SOL    HW126444   2.830   3.127   4.842 -0.0066  2.0599  0.1319
 4937SOL    HW226445   2.916   3.077   4.726 -0.6726  0.6189 -0.1770
 4938SOL     OW26446   1.907   0.222   8.640 -0.3970 -0.0752  0.3129
 4938SOL    HW126447   1.881   0.299   8.589 -0.1521  0.4013  0.9197
 4938SOL    HW226448   2.001   0.235   8.635 -0.9413  3.1521 -1.8554
 4939SOL     OW26449   3.429   4.088  10.092  0.1051  0.1485 -0.0304
 4939SOL    HW126450   3.441   4.008  10.042 -3.0253 -0.4955  0.2755
 4939SOL    HW226451   3.363   4.057  10.154 -0.9164  0.1480 -1.1275
 4940SOL     OW26452   0.737   3.775   7.170  0.6267  0.2071 -0.7627
 4940SOL    HW126453   0.668   3.721   7.133 -0.3927  0.6925  0.4482
 4940SOL    HW226454   0.686   3.833   7.225 -2.6881 -1.8199 -1.7128
 4941SOL     OW26455   3.541   2.553   3.466 -0.0947 -0.2323 -0.5141
 4941SOL    HW126456   3.544   2.644   3.497  0.3898 -0.2243 -0.5884
 4941SOL    HW226457   3.538   2.510   3.552  0.5502 -1.8019 -1.2857
 4942SOL     OW26458   0.857   0.429  13.261 -0.4708 -0.0536 -0.1987
 4942SOL    HW126459   0.884   0.364  13.326 -0.1000  0.6784  0.3762
 4942SOL    HW226460   0.910   0.408  13.184  1.8646  0.1366  1.3700
 4943SOL     OW26461   4.243   0.917  14.100  0.1882 -0.5243  0.1300
 4943SOL    HW126462   4.178   0.854  14.069 -0.5245 -0.0705  0.7331
 4943SOL    HW226463   4.244   0.959  14.014 -0.1396 -0.0411  0.3631
 4944SOL     OW26464   3.062   0.341   0.075 -0.5621  0.1682 -0.0161
 4944SOL    HW126465   3.023   0.377  17.742 -2.1253  1.0018  1.1433
 4944SOL    HW226466   3.154   0.358   0.052 -0.8027  0.4287 -0.7818
 4945SOL     OW26467   1.535   2.129  17.177  0.3887  0.1232 -0.2009
 4945SOL    HW126468   1.563   2.073  17.250  0.5671  0.1615 -0.2395
 4945SOL    HW226469   1.611   2.134  17.120 -0.5640 -2.3272 -1.6938
 4946SOL     OW26470   1.793   2.342  16.707  0.6402 -0.1868  0.8787
 4946SOL    HW126471   1.804   2.248  16.692  1.6340 -0.0612  0.8608
 4946SOL    HW226472   1.700   2.357  16.726 -0.3327 -3.5600 -1.0731
 4947SOL     OW26473   1.661   0.229   7.667  0.0963  0.1957  0.7519
 4947SOL    HW126474   1.606   0.283   7.724 -0.4070 -1.0428  1.4347
 4947SOL    HW226475   1.744   0.260   7.705  1.1378 -1.5929 -0.0716
 4948SOL     OW26476   1.106   4.684   3.590 -0.2454 -0.0628  0.9266
 4948SOL    HW126477   1.112   4.589   3.580 -2.7560 -0.0917 -0.2818
 4948SOL    HW226478   1.180   4.715   3.538 -0.5108 -0.4279  0.3365
 4949SOL     OW26479   2.736   3.457   6.939  0.4247  0.2365 -0.8897
 4949SOL    HW126480   2.790   3.483   7.014 -1.1698 -1.2923  0.7765
 4949SOL    HW226481   2.695   3.542   6.925  2.8059  1.6750  0.8008
 4950SOL     OW26482   3.822   4.099  15.669 -0.4580 -0.0820  0.1378
 4950SOL    HW126483   3.799   4.136  15.754 -1.7437 -1.1422  0.2432
 4950SOL    HW226484   3.854   4.178  15.624  1.9692  0.0550  2.1676
 4951SOL     OW26485   1.593   3.222  15.159  0.5280 -0.2981  0.6335
 4951SOL    HW126486   1.546   3.271  15.092  0.2318 -1.7083 -0.1805
 4951SOL    HW226487   1.611   3.294  15.220 -1.0118  0.6824 -0.0771
 4952SOL     OW26488   3.912   2.372   9.016 -0.0549 -0.3620  0.2990
 4952SOL    HW126489   3.860   2.296   9.044 -0.5258 -0.8389 -1.8538
 4952SOL    HW226490   3.976   2.369   9.087  0.6638 -0.9084 -0.3634
 4953SOL     OW26491   0.335   3.304   9.659 -0.2059 -0.5620  0.0256
 4953SOL    HW126492   0.361   3.226   9.709  0.6794  0.9699  1.9599
 4953SOL    HW226493   0.281   3.344   9.727  0.1217  0.5422 -0.3624
 4954SOL     OW26494   0.079   4.359   7.580  0.1632 -0.1161 -0.5213
 4954SOL    HW126495   4.728   4.395   7.567 -0.8752 -1.3793  2.9982
 4954SOL    HW226496   0.118   4.445   7.596 -1.5349  0.9943 -2.2486
 4955SOL     OW26497   4.128   4.471  14.713  0.2097 -0.3654  0.0156
 4955SOL    HW126498   4.055   4.465  14.775 -0.5107 -2.5671 -1.0555
 4955SOL    HW226499   4.197   4.441  14.773 -0.8483 -3.1914 -0.2076
 4956SOL     OW26500   1.028   0.224   8.171 -0.0822 -0.0043  0.0834
 4956SOL    HW126501   0.953   0.204   8.114 -0.7795 -1.4713  1.4999
 4956SOL    HW226502   1.053   0.139   8.208 -0.4444 -0.2641 -0.2609
 4957SOL     OW26503   3.117   3.494   9.371  0.1117  0.7953  0.4463
 4957SOL    HW126504   3.158   3.540   9.444  2.2438  0.4890 -0.5651
 4957SOL    HW226505   3.134   3.401   9.388  0.7357  0.7947 -0.2089
 4958SOL     OW26506   2.419   4.303  10.038  0.5564 -0.1516  0.1399
 4958SOL    HW126507   2.481   4.305  10.110  1.3813 -0.6325 -0.5509
 4958SOL    HW226508   2.431   4.222   9.989  2.0962 -1.1319  2.1709
 4959SOL     OW26509   2.919   2.977  14.951  0.0978 -0.4136 -0.3089
 4959SOL    HW126510   2.906   3.049  15.012 -1.0469 -2.6177  2.0497
 4959SOL    HW226511   2.832   2.938  14.950  0.0124 -0.2446  0.5045
 4960SOL     OW26512   3.799   2.708  15.419 -0.5860  0.0921  0.0862
 4960SOL    HW126513   3.770   2.633  15.471  1.6539  0.7916  2.3528
 4960SOL    HW226514   3.820   2.771  15.489  1.6982 -0.0009 -0.5212
 4961SOL     OW26515   3.549   2.876   9.023  0.3507 -0.1724 -0.0216
 4961SOL    HW126516   3.574   2.794   9.065  0.4463  0.3998  1.0264
 4961SOL    HW226517   3.462   2.890   9.059  0.1095 -2.5180  0.3112
 4962SOL     OW26518   2.167   0.502  15.929 -0.5641  0.1129 -0.2957
 4962SOL    HW126519   2.221   0.433  15.966 -2.2003 -0.3143  1.2764
 4962SOL    HW226520   2.233   0.563  15.894  0.3877  0.0138  1.3130
 4963SOL     OW26521   1.479   4.284  11.484  0.0582 -0.3068  0.1943
 4963SOL    HW126522   1.470   4.295  11.389 -0.8718 -0.0161  0.3149
 4963SOL    HW226523   1.385   4.279  11.504  0.1918 -0.2453  0.8435
 4964SOL     OW26524   4.223   2.916   3.247  0.2684 -0.3794  0.0392
 4964SOL    HW126525   4.135   2.879   3.257 -0.4899  1.1750 -0.9403
 4964SOL    HW226526   4.274   2.851   3.295  0.0716 -0.7806 -0.2942
 4965SOL     OW26527   3.465   1.300   5.661 -0.0314  0.1543  0.7574
 4965SOL    HW126528   3.389   1.244   5.649  1.0949 -0.5042 -3.2085
 4965SOL    HW226529   3.460   1.346   5.745  0.2994  1.3943  0.1093
 4966SOL     OW26530   0.845   1.157   4.122 -0.0089  0.0693  0.7596
 4966SOL    HW126531   0.899   1.092   4.166 -1.1942 -0.5541  1.3072
 4966SOL    HW226532   0.905   1.231   4.114  1.0530 -0.7812  0.9597
 4967SOL     OW26533   2.055   1.400   4.170  0.4388 -0.5142  0.4249
 4967SOL    HW126534   2.105   1.348   4.233  2.3739 -1.2738 -1.7305
 4967SOL    HW226535   2.068   1.360   4.084  0.1874 -0.5439  0.3999
 4968SOL     OW26536   3.814   4.020   4.843  0.0684  0.1861  0.2576
 4968SOL    HW126537   3.719   4.027   4.852  0.0962  0.4659  0.3122
 4968SOL    HW226538   3.818   4.059   4.755 -1.2053  3.4462  1.6588
 4969SOL     OW26539   0.518   2.961   7.121  0.1925  0.4606 -0.0369
 4969SOL    HW126540   0.589   3.012   7.160  0.1450  0.9156 -0.5496
 4969SOL    HW226541   0.552   2.945   7.033 -2.2288  2.5611 -1.3397
 4970SOL     OW26542   4.101   4.150   5.580 -0.3955 -0.3091 -0.6823
 4970SOL    HW126543   4.113   4.208   5.655  0.0566 -0.4636 -0.6363
 4970SOL    HW226544   4.177   4.167   5.525  0.9547 -1.1429  0.9250
 4971SOL     OW26545   3.342   0.899  10.514 -0.0056  0.9157  0.0679
 4971SOL    HW126546   3.359   0.856  10.598  0.6009  0.0538 -0.4928
 4971SOL    HW226547   3.323   0.821  10.461 -0.3429  0.8426  0.3025
 4972SOL     OW26548   3.985   3.794   4.965 -0.0007 -0.4900  0.0253
 4972SOL    HW126549   4.034   3.868   5.001  0.3397 -0.6577 -0.0905
 4972SOL    HW226550   3.901   3.839   4.954  0.2035 -0.5225 -1.7232
 4973SOL     OW26551   2.738   1.388   2.727 -0.5726 -0.5971 -0.0724
 4973SOL    HW126552   2.754   1.463   2.784 -1.7502  0.1863 -0.7927
 4973SOL    HW226553   2.826   1.361   2.700 -0.3748 -1.0673  1.0567
 4974SOL     OW26554   0.399   0.976   9.556 -0.4887 -0.4228 -0.5043
 4974SOL    HW126555   0.398   1.069   9.531  1.7874  0.3141  2.0957
 4974SOL    HW226556   0.453   0.974   9.635  0.2580  4.1948 -0.8958
 4975SOL     OW26557   3.126   2.373  12.025 -0.0435 -0.4371  0.4928
 4975SOL    HW126558   3.158   2.404  12.110  0.7414 -0.9861  0.4046
 4975SOL    HW226559   3.180   2.299  11.997 -0.5364  0.0566 -1.7629
 4976SOL     OW26560   1.959   2.721  17.008  0.1678  0.3024 -0.1294
 4976SOL    HW126561   1.919   2.764  17.083 -0.2525  1.8122 -1.2233
 4976SOL    HW226562   1.948   2.627  17.018  0.9942 -0.1105 -2.9744
 4977SOL     OW26563   0.313   3.647   3.094 -0.0160 -0.0334 -0.2505
 4977SOL    HW126564   0.381   3.701   3.054 -1.4002 -0.2207 -2.8232
 4977SOL    HW226565   0.371   3.600   3.153 -1.7251 -1.8781 -0.0511
 4978SOL     OW26566   0.783   2.542   5.222  0.1808  0.2286 -0.1201
 4978SOL    HW126567   0.833   2.494   5.156 -0.0626 -0.1959  0.0023
 4978SOL    HW226568   0.779   2.624   5.174 -0.7985  0.2608  0.0098
 4979SOL     OW26569   0.126   3.776   4.473 -0.1993 -0.2025 -0.0421
 4979SOL    HW126570   0.140   3.786   4.567  1.4433 -2.4261 -0.0550
 4979SOL    HW226571   0.075   3.696   4.463 -0.2929 -0.2066  0.4934
 4980SOL     OW26572   4.453   3.495   7.620  0.3172  0.6039 -0.2333
 4980SOL    HW126573   4.520   3.562   7.606  0.0338  0.5785 -1.6923
 4980SOL    HW226574   4.430   3.505   7.712 -2.4466 -0.6862 -0.7997
 4981SOL     OW26575   4.484   1.590   7.418  0.1654 -0.0402  0.3723
 4981SOL    HW126576   4.432   1.662   7.453 -0.4052 -0.9998  1.4734
 4981SOL    HW226577   4.441   1.571   7.334  3.0899 -0.1616 -1.1005
 4982SOL     OW26578   2.249   0.419   6.458 -0.1770  0.1747 -0.1844
 4982SOL    HW126579   2.318   0.420   6.392 -0.1902 -4.4582 -0.2940
 4982SOL    HW226580   2.298   0.419   6.540  1.3698  0.2811 -1.1188
 4983SOL     OW26581   3.992   0.045   6.801 -0.0393  0.4232 -0.2474
 4983SOL    HW126582   3.951   0.054   6.715 -1.0289 -0.9216  0.0903
 4983SOL    HW226583   4.048   0.119   6.776 -0.0274  0.4709 -0.0820
 4984SOL     OW26584   2.285   3.889   9.217  0.1801 -0.4091  0.2104
 4984SOL    HW126585   2.284   3.947   9.141 -1.4002  0.2145  0.7103
 4984SOL    HW226586   2.257   3.945   9.289 -1.2619  1.9306 -2.1681
 4985SOL     OW26587   3.260   3.514  14.464  0.2866 -0.3352 -0.5906
 4985SOL    HW126588   3.313   3.574  14.517 -0.8525  1.1384 -1.1356
 4985SOL    HW226589   3.241   3.454  14.536  0.2897  3.5442  2.6332
 4986SOL     OW26590   2.477   3.873   6.108 -0.6114  0.0945 -0.3647
 4986SOL    HW126591   2.517   3.808   6.166  1.0213 -1.0998 -2.8386
 4986SOL    HW226592   2.446   3.940   6.169  2.0422 -0.9454  2.1347
 4987SOL     OW26593   4.170   3.791  11.305 -0.4443  0.2645 -0.0705
 4987SOL    HW126594   4.142   3.858  11.243 -1.4201 -2.1367 -2.2027
 4987SOL    HW226595   4.124   3.817  11.385 -1.1073  1.5697 -0.8766
 4988SOL     OW26596   2.022   4.544   5.049 -0.1446  0.5727 -0.2070
 4988SOL    HW126597   2.069   4.468   5.013 -1.4547 -1.3802  2.2066
 4988SOL    HW226598   2.014   4.519   5.141  0.4418  1.7218  0.1571
 4989SOL     OW26599   1.358   0.262  11.831  0.6724  0.0632 -0.1956
 4989SOL    HW126600   1.413   0.205  11.885  0.7011  0.5617  0.3049
 4989SOL    HW226601   1.409   0.259  11.750  1.0175  0.2960  0.0122
 4990SOL     OW26602   3.761   2.163   6.331  0.2153 -0.0189 -0.2765
 4990SOL    HW126603   3.807   2.100   6.275 -0.6836  0.3045 -1.3873
 4990SOL    HW226604   3.836   2.198   6.379 -1.1842  1.1640  1.0325
 4991SOL     OW26605   3.239   0.294   6.973  0.0779  0.0569 -0.1376
 4991SOL    HW126606   3.199   0.381   6.980 -1.1760 -0.3528 -2.2742
 4991SOL    HW226607   3.210   0.274   6.884  0.0577  0.3055 -0.1873
 4992SOL     OW26608   0.570   4.217   3.414  0.0125 -0.0867 -0.0872
 4992SOL    HW126609   0.579   4.150   3.481  0.7238  1.9067  1.8024
 4992SOL    HW226610   0.623   4.183   3.342  1.0275 -0.1967  0.7264
 4993SOL     OW26611   2.605   1.849   0.420 -0.1492  0.4064  0.3188
 4993SOL    HW126612   2.566   1.770   0.459 -0.1626  0.1795 -0.1562
 4993SOL    HW226613   2.698   1.834   0.406  0.3025  3.4766  0.0744
 4994SOL     OW26614   2.578   0.604  14.148 -0.2102 -0.5052 -0.1917
 4994SOL    HW126615   2.617   0.580  14.063 -0.3687 -2.6493  0.3556
 4994SOL    HW226616   2.634   0.559  14.211 -0.7470 -0.8977 -0.0055
 4995SOL     OW26617   2.154   3.753   3.625 -0.5430 -0.0568 -0.2669
 4995SOL    HW126618   2.222   3.685   3.626 -0.6349 -0.1745 -2.0226
 4995SOL    HW226619   2.201   3.822   3.579 -0.3441 -0.8786 -1.2806
 4996SOL     OW26620   3.222   4.448   3.309  0.1108  0.6064  0.5029
 4996SOL    HW126621   3.311   4.479   3.323  1.0510 -1.4506 -1.0450
 4996SOL    HW226622   3.179   4.446   3.395  1.6270  0.3813  1.2456
 4997SOL     OW26623   4.189   4.172  17.338  0.4696 -0.0759  0.0100
 4997SOL    HW126624   4.210   4.244  17.279 -1.0202  0.8592  0.6014
 4997SOL    HW226625   4.187   4.095  17.281 -0.4914  1.0342 -1.4640
 4998SOL     OW26626   4.572   2.202   4.122  1.4183 -0.3893 -0.8732
 4998SOL    HW126627   4.530   2.137   4.178  1.0472  2.4034  2.0971
 4998SOL    HW226628   4.574   2.276   4.183 -1.5061 -0.3867 -0.7811
 4999SOL     OW26629   3.374   3.318   5.428  0.4573  1.0291  0.5432
 4999SOL    HW126630   3.457   3.274   5.442  0.4067 -0.5494 -3.9615
 4999SOL    HW226631   3.310   3.249   5.444  1.7723 -0.7895 -1.9966
 5000SOL     OW26632   1.023   1.718   5.883  0.1763  0.1358  0.3860
 5000SOL    HW126633   1.086   1.790   5.895 -1.7047  1.4061  2.5656
 5000SOL    HW226634   1.056   1.666   5.956  0.6899  0.0536  0.0974
 5001SOL     OW26635   0.124   2.106   0.787  0.3413  0.2632 -0.0602
 5001SOL    HW126636   0.046   2.064   0.751  0.3358  0.5747 -0.4050
 5001SOL    HW226637   0.128   2.050   0.865  0.8637  2.3133  1.3933
 5002SOL     OW26638   2.558   1.719   7.170 -0.2984 -0.2957 -0.0964
 5002SOL    HW126639   2.541   1.810   7.192  1.2290 -0.4869  1.8054
 5002SOL    HW226640   2.641   1.729   7.122 -0.7605  0.6595 -0.7088
 5003SOL     OW26641   1.081   4.396  10.304 -0.3317  0.4008 -0.5609
 5003SOL    HW126642   1.056   4.449  10.379 -1.0597  0.1570 -0.6273
 5003SOL    HW226643   1.158   4.445  10.274 -0.7172  2.2932  1.5536
 5004SOL     OW26644   3.195   4.083   3.846 -0.1381  0.5241  0.1538
 5004SOL    HW126645   3.241   4.136   3.911 -0.5527  0.8673  0.1686
 5004SOL    HW226646   3.120   4.052   3.897  0.0292  0.7663  0.5450
 5005SOL     OW26647   1.415   2.294   7.717 -0.6488 -0.5277  0.0629
 5005SOL    HW126648   1.498   2.251   7.697 -1.2013 -0.8838 -1.5058
 5005SOL    HW226649   1.364   2.225   7.758 -0.0628  0.5131  2.5708
 5006SOL     OW26650   0.135   4.551  17.043  0.2823  0.3820 -0.1082
 5006SOL    HW126651   0.204   4.587  17.098 -0.5377 -1.1028  1.8791
 5006SOL    HW226652   0.122   4.479  17.104 -0.4080 -0.7586 -1.6245
 5007SOL     OW26653   1.169   0.218   5.491 -0.6735  0.4647  0.4375
 5007SOL    HW126654   1.170   0.208   5.586 -0.9101  0.4226  0.4372
 5007SOL    HW226655   1.097   0.158   5.467 -0.7489  0.0518  1.7212
 5008SOL     OW26656   1.959   1.658   4.161  0.3528 -0.2457 -0.0279
 5008SOL    HW126657   1.995   1.569   4.164 -1.3453 -0.9695 -1.4408
 5008SOL    HW226658   2.039   1.708   4.175  0.5132 -0.4182 -0.3208
 5009SOL     OW26659   3.849   3.077  10.737  0.3861 -0.4701  0.2964
 5009SOL    HW126660   3.945   3.072  10.734  0.4366  2.7648 -3.4456
 5009SOL    HW226661   3.840   3.172  10.745 -0.9424 -0.4696 -1.1495
 5010SOL     OW26662   3.615   2.065   4.569  0.4674  0.1331  0.4927
 5010SOL    HW126663   3.679   2.003   4.535  0.4815 -0.7295  2.0692
 5010SOL    HW226664   3.659   2.067   4.654  0.3663  3.0674  0.4734
 5011SOL     OW26665   1.995   1.809   7.983 -0.8045 -0.1746 -0.3301
 5011SOL    HW126666   2.066   1.784   8.041 -1.1752 -0.4700 -0.0053
 5011SOL    HW226667   1.933   1.838   8.050  1.9445  0.9354  1.7063
 5012SOL     OW26668   0.431   1.656   7.544  0.2256  0.3145 -0.0203
 5012SOL    HW126669   0.488   1.703   7.483  0.2604 -1.0641 -1.0643
 5012SOL    HW226670   0.371   1.723   7.575  0.0543  1.3463 -2.5966
 5013SOL     OW26671   4.398   3.733   7.231 -0.0054 -0.2281 -0.1503
 5013SOL    HW126672   4.455   3.670   7.274  1.8719  1.3296 -0.3817
 5013SOL    HW226673   4.344   3.676   7.176 -0.5507 -0.8658  1.0373
 5014SOL     OW26674   3.981   1.726  16.809 -0.5833  0.2797  0.0568
 5014SOL    HW126675   4.016   1.726  16.720 -0.7638  1.6017 -0.0169
 5014SOL    HW226676   4.005   1.815  16.833  0.3243  0.1955 -0.5404
 5015SOL     OW26677   3.628   1.205  11.639 -0.7355  0.8435  0.2725
 5015SOL    HW126678   3.667   1.209  11.726 -1.6412  0.5088  0.6950
 5015SOL    HW226679   3.696   1.256  11.595  0.5908  0.7340  2.2166
 5016SOL     OW26680   1.469   3.429  14.470 -0.5701  0.7937 -0.5476
 5016SOL    HW126681   1.485   3.375  14.393 -1.6368 -2.2427  1.3504
 5016SOL    HW226682   1.424   3.370  14.530  1.7376  1.3502  1.7313
 5017SOL     OW26683   2.042   1.376   4.858 -0.2907  0.2057 -0.0230
 5017SOL    HW126684   2.114   1.368   4.922 -0.8667  0.7356  0.6902
 5017SOL    HW226685   2.060   1.465   4.828 -1.5375 -0.1164 -1.7194
 5018SOL     OW26686   3.018   2.151  13.204 -0.0249 -0.1886 -0.6515
 5018SOL    HW126687   3.091   2.139  13.264 -1.4196 -2.7729  0.5785
 5018SOL    HW226688   3.016   2.246  13.205  0.0994 -0.1756 -1.3013
 5019SOL     OW26689   1.897   0.343  16.368  0.3271  0.3623  0.2625
 5019SOL    HW126690   1.887   0.247  16.368  0.6683  0.3210  1.0670
 5019SOL    HW226691   1.960   0.351  16.297  1.1986 -0.4360  0.9329
 5020SOL     OW26692   3.352   4.386   6.590 -0.3794  0.4144  0.5591
 5020SOL    HW126693   3.333   4.321   6.523 -1.8037  1.8867 -0.4564
 5020SOL    HW226694   3.408   4.334   6.648 -1.2254  0.1468  1.1441
 5021SOL     OW26695   1.415   4.661   8.027  0.3425 -0.3730 -0.1843
 5021SOL    HW126696   1.477   4.630   8.093  1.0808 -1.2037 -1.2683
 5021SOL    HW226697   1.401   0.010   8.067 -0.9705 -0.3685 -0.6528
 5022SOL     OW26698   2.311   4.196   7.420  0.1059 -0.7592 -0.5720
 5022SOL    HW126699   2.219   4.186   7.444 -0.3070  1.4614 -1.2288
 5022SOL    HW226700   2.307   4.248   7.340 -0.5099  0.7643  0.4581
 5023SOL     OW26701   0.572   1.087   9.229 -0.5127 -0.2124 -0.1923
 5023SOL    HW126702   0.503   1.116   9.170 -2.1549 -1.0547  1.3301
 5023SOL    HW226703   0.545   1.110   9.318 -0.3840 -2.4149  0.4151
 5024SOL     OW26704   0.092   3.419   6.640 -0.0652  0.7325  0.3213
 5024SOL    HW126705   0.089   3.514   6.653 -0.9709  0.6761  0.5229
 5024SOL    HW226706   0.036   3.393   6.713 -2.4289 -2.3794 -2.5935
 5025SOL     OW26707   0.468   3.848   9.921  0.1243  0.2495 -0.4403
 5025SOL    HW126708   0.467   3.776   9.857 -3.3538  0.3393 -0.4972
 5025SOL    HW226709   0.401   3.817   9.982  1.0598 -0.8076  0.0690
 5026SOL     OW26710   3.257   2.437   8.045  0.5056  0.0456  0.6431
 5026SOL    HW126711   3.169   2.473   8.053  0.2208 -1.1650  3.0560
 5026SOL    HW226712   3.296   2.499   8.106 -0.4342  1.5201 -0.2781
 5027SOL     OW26713   0.907   2.321   3.837 -0.2490  0.1744 -0.3562
 5027SOL    HW126714   0.827   2.292   3.793 -0.0340  0.5139 -0.9656
 5027SOL    HW226715   0.926   2.239   3.883  0.4857  1.0170  0.8361
 5028SOL     OW26716   4.584   1.311   1.673  0.2927  0.2189  0.3872
 5028SOL    HW126717   4.554   1.245   1.736 -2.3391 -0.3591 -1.4796
 5028SOL    HW226718   4.602   1.385   1.731 -1.4526  0.1091  1.0890
 5029SOL     OW26719   4.574   0.146   3.872 -0.2136 -0.1346  0.0115
 5029SOL    HW126720   4.527   0.222   3.838  1.6522  0.0802 -2.1447
 5029SOL    HW226721   4.645   0.143   3.808  0.0831 -1.4810  0.4126
 5030SOL     OW26722   4.325   3.080   4.314  0.2239 -0.1917 -0.0878
 5030SOL    HW126723   4.416   3.110   4.305 -0.2564  1.8963  1.9320
 5030SOL    HW226724   4.303   3.149   4.376  0.3951  0.8899 -1.2194
 5031SOL     OW26725   3.867   2.602   8.659 -0.2001  0.5062 -0.2897
 5031SOL    HW126726   3.886   2.617   8.751  0.2200 -0.0486 -0.2833
 5031SOL    HW226727   3.924   2.670   8.624 -0.1241  0.5455 -0.0876
 5032SOL     OW26728   2.577   1.958   4.342  0.5700 -0.2884  0.2958
 5032SOL    HW126729   2.531   1.887   4.297  0.9720 -1.4962  1.7642
 5032SOL    HW226730   2.565   2.026   4.276  1.1038 -0.4400  0.0460
 5033SOL     OW26731   1.007   0.965   8.918 -0.4466  0.4712 -0.0004
 5033SOL    HW126732   0.916   0.991   8.935 -0.1728  1.0552  0.5867
 5033SOL    HW226733   1.011   0.888   8.974  2.4283  1.7183  1.4742
 5034SOL     OW26734   2.124   2.591   1.742 -0.1474  0.3666 -0.3438
 5034SOL    HW126735   2.042   2.634   1.716 -1.1862 -0.5519  1.3821
 5034SOL    HW226736   2.182   2.611   1.669  0.1431  1.5628  0.2099
 5035SOL     OW26737   0.559   2.527   5.376 -0.2012  0.4159  0.0652
 5035SOL    HW126738   0.643   2.546   5.335  0.0444  0.8902  0.7856
 5035SOL    HW226739   0.576   2.435   5.396 -1.2327  0.5144  1.3660
 5036SOL     OW26740   4.599   3.518  13.215 -0.3869 -0.1423 -0.6866
 5036SOL    HW126741   4.607   3.606  13.250  1.0673  0.2180 -1.9475
 5036SOL    HW226742   4.667   3.519  13.148  1.5169  1.0724  1.2744
 5037SOL     OW26743   3.492   0.357   4.575 -0.4333 -0.4351 -0.0102
 5037SOL    HW126744   3.473   0.340   4.667 -0.0016 -0.9006 -0.0081
 5037SOL    HW226745   3.569   0.412   4.588 -0.4287 -0.5049  0.2513
 5038SOL     OW26746   3.118   0.552   6.944 -0.1562  0.1264  0.2177
 5038SOL    HW126747   3.174   0.629   6.938 -1.4526  1.0817  0.1892
 5038SOL    HW226748   3.087   0.564   6.854 -0.1198  1.1473  0.3403
 5039SOL     OW26749   4.016   4.652   4.119 -0.5218 -0.3297 -0.3952
 5039SOL    HW126750   4.085   4.598   4.158 -0.1075  0.2913 -0.2694
 5039SOL    HW226751   4.055   4.692   4.041  0.1239 -0.5901 -0.2036
 5040SOL     OW26752   4.051   4.453  11.978 -0.2952  0.1611  0.0094
 5040SOL    HW126753   4.110   4.519  11.942  0.3897 -0.3057  0.2787
 5040SOL    HW226754   4.026   4.493  12.062  0.9972 -1.3160  1.1000
 5041SOL     OW26755   0.231   1.465   7.590  0.2818 -0.0016 -0.1578
 5041SOL    HW126756   0.201   1.538   7.535 -0.1242  0.9168  1.2870
 5041SOL    HW226757   0.322   1.496   7.597  0.0855  0.8445 -1.3369
 5042SOL     OW26758   4.016   1.081   7.499 -0.1424  0.3837 -0.0458
 5042SOL    HW126759   4.105   1.107   7.523 -0.6589  0.0180  2.3021
 5042SOL    HW226760   3.971   1.052   7.579 -0.1183 -0.7878 -0.4743
 5043SOL     OW26761   1.479   2.594   2.441  0.2109  0.1406  0.4617
 5043SOL    HW126762   1.458   2.507   2.409 -0.7494  0.4501  0.2482
 5043SOL    HW226763   1.521   2.636   2.365  0.6410  1.3282  1.3485
 5044SOL     OW26764   0.456   0.228   0.793  0.3475 -0.3933 -0.0814
 5044SOL    HW126765   0.390   0.216   0.725 -0.3888  0.0091  0.5589
 5044SOL    HW226766   0.407   0.281   0.856 -1.1248 -0.4128 -1.2067
 5045SOL     OW26767   1.225   1.222  17.592 -0.6533  0.0449 -0.6648
 5045SOL    HW126768   1.199   1.264  17.674 -3.0724  0.6893 -1.7546
 5045SOL    HW226769   1.320   1.213  17.603 -0.7124 -0.3999 -0.5325
 5046SOL     OW26770   4.192   1.816   4.060  0.0153  0.2158  0.0961
 5046SOL    HW126771   4.275   1.856   4.087 -1.8512  2.2879  2.7245
 5046SOL    HW226772   4.233   1.731   4.040  0.5241  0.8272 -1.4439
 5047SOL     OW26773   3.237   0.275  15.322  0.2720  0.0601  0.9674
 5047SOL    HW126774   3.224   0.315  15.408  1.8250 -0.3262  1.3828
 5047SOL    HW226775   3.157   0.222  15.318 -1.6088  2.9550  0.7242
 5048SOL     OW26776   0.981   2.810   6.321  0.0761 -0.0104  0.3764
 5048SOL    HW126777   0.949   2.812   6.412 -1.1959 -0.3052 -0.0658
 5048SOL    HW226778   1.076   2.816   6.322  0.1498 -1.4166  2.4446
 5049SOL     OW26779   1.297   1.172   4.702  0.2243 -0.6603  0.1605
 5049SOL    HW126780   1.387   1.140   4.701 -0.1654 -1.6793 -1.7554
 5049SOL    HW226781   1.252   1.104   4.652  0.6018 -0.1345 -0.8939
 5050SOL     OW26782   1.069   4.220  12.521 -0.2811 -0.1951 -0.2588
 5050SOL    HW126783   1.129   4.152  12.553  0.6307  0.8406  0.2030
 5050SOL    HW226784   1.029   4.178  12.445 -0.5414 -0.5587  0.0784
 5051SOL     OW26785   1.344   0.594  16.967  0.5680  0.2179  1.2587
 5051SOL    HW126786   1.312   0.665  16.911  1.6332 -0.2613  0.0298
 5051SOL    HW226787   1.276   0.531  16.943 -0.2363  1.0953  1.2455
 5052SOL     OW26788   1.145   2.687   9.102  0.0684 -0.1730 -0.4738
 5052SOL    HW126789   1.076   2.631   9.066 -0.4779  0.9232 -1.1338
 5052SOL    HW226790   1.181   2.625   9.165 -1.8927 -1.0120 -0.1688
 5053SOL     OW26791   1.454   2.236  10.021 -0.3194  0.2900 -0.2209
 5053SOL    HW126792   1.365   2.210   9.996 -0.1710 -0.7632  0.3804
 5053SOL    HW226793   1.432   2.303  10.086 -1.1978 -0.6414  0.4422
 5054SOL     OW26794   0.091   2.190   6.877  0.1728  0.1269 -0.2274
 5054SOL    HW126795   0.029   2.169   6.807 -2.0301  3.3908  0.7490
 5054SOL    HW226796   0.101   2.101   6.909 -3.7806 -0.6318 -1.0476
 5055SOL     OW26797   1.004   3.042   2.285 -0.7428 -0.0730 -0.0605
 5055SOL    HW126798   1.015   3.107   2.216 -0.9395 -1.4068 -1.3311
 5055SOL    HW226799   0.992   3.089   2.368 -3.1797 -3.1816  1.3704
 5056SOL     OW26800   4.729   3.940   8.089  0.1739 -0.1445 -0.1594
 5056SOL    HW126801   0.071   3.900   8.053 -1.1380 -0.8781 -2.2100
 5056SOL    HW226802   4.728   3.896   8.175  0.1416  3.3786  1.6272
 5057SOL     OW26803   4.376   3.157   7.496  0.1595 -0.1537 -0.3153
 5057SOL    HW126804   4.367   3.246   7.461  0.9341 -0.3771 -1.0994
 5057SOL    HW226805   4.469   3.159   7.520 -0.0071  0.6134  0.2710
 5058SOL     OW26806   1.030   2.398  13.393  0.3586  0.2512  0.1278
 5058SOL    HW126807   0.950   2.417  13.444  1.2172 -0.4730  1.7360
 5058SOL    HW226808   1.091   2.358  13.455  1.4872  1.9411  0.1254
 5059SOL     OW26809   0.409   3.005  11.312  0.6551 -0.9160 -0.1125
 5059SOL    HW126810   0.479   2.940  11.311  0.8563 -0.6960 -0.2217
 5059SOL    HW226811   0.383   3.005  11.404 -4.0851  1.1506 -1.4394
 5060SOL     OW26812   1.669   1.496   7.624  0.1125 -0.4030  0.3525
 5060SOL    HW126813   1.666   1.558   7.551  1.0318 -0.2268  0.4597
 5060SOL    HW226814   1.607   1.430   7.595 -0.5661  1.2275 -1.9344
 5061SOL     OW26815   3.034   3.181  14.718 -0.6611  0.9826 -0.7483
 5061SOL    HW126816   2.969   3.138  14.774  1.9013 -1.7293  0.1433
 5061SOL    HW226817   2.999   3.177  14.629 -0.1939  2.8698 -1.0079
 5062SOL     OW26818   4.648   2.279   6.075  0.3268  0.1289 -0.2583
 5062SOL    HW126819   4.649   2.373   6.093 -2.2204 -0.0292  0.7441
 5062SOL    HW226820   4.678   2.287   5.984  0.4452  0.5539 -0.1788
 5063SOL     OW26821   1.303   3.929   9.485  0.1512  0.1095  0.1811
 5063SOL    HW126822   1.228   3.914   9.428  0.4245  1.2694 -0.4823
 5063SOL    HW226823   1.254   3.985   9.546  1.7601  1.6702  0.0428
 5064SOL     OW26824   4.441   2.920  17.462 -0.4231  0.3730 -0.4838
 5064SOL    HW126825   4.356   2.964  17.461  0.8568  2.7060 -3.2585
 5064SOL    HW226826   4.427   2.846  17.522 -0.5048  0.7890  0.0068
 5065SOL     OW26827   3.427   1.922   6.789 -0.4909 -0.5221  0.0911
 5065SOL    HW126828   3.423   1.960   6.702  2.2625 -0.6079 -0.0916
 5065SOL    HW226829   3.521   1.926   6.809 -0.1573  1.5361 -1.8408
 5066SOL     OW26830   2.920   2.755   8.188  1.0765 -0.5401 -0.1859
 5066SOL    HW126831   2.851   2.809   8.226  2.7876  1.8087 -0.3514
 5066SOL    HW226832   2.878   2.727   8.107  1.2004 -0.4660 -0.2773
 5067SOL     OW26833   3.898   2.336   5.741 -0.1646 -0.4062  0.0414
 5067SOL    HW126834   3.990   2.319   5.763 -0.6233 -1.7114  0.9462
 5067SOL    HW226835   3.906   2.320   5.647  0.6200 -0.2621  0.0778
 5068SOL     OW26836   2.066   2.468  14.932  0.1196 -0.0560  0.0726
 5068SOL    HW126837   2.058   2.529  15.006  1.7119  0.3761 -0.1037
 5068SOL    HW226838   1.984   2.487  14.886 -0.9031  0.4024  2.0885
 5069SOL     OW26839   2.552   0.486   4.347  0.5920  0.4334  0.0072
 5069SOL    HW126840   2.567   0.438   4.429  1.4508  2.7088  1.1935
 5069SOL    HW226841   2.642   0.493   4.315 -0.3500  1.7548 -2.3246
 5070SOL     OW26842   4.449   0.326   3.515 -0.0854 -0.2462  0.4151
 5070SOL    HW126843   4.523   0.335   3.454 -0.1973 -0.1943  0.2872
 5070SOL    HW226844   4.389   0.393   3.483 -1.1380 -1.1460  0.5278
 5071SOL     OW26845   3.844   2.271  13.672 -0.2560  0.0210 -0.1155
 5071SOL    HW126846   3.906   2.239  13.737  0.4739  0.2923 -0.6823
 5071SOL    HW226847   3.785   2.196  13.682 -0.2742 -0.1584 -1.5201
 5072SOL     OW26848   2.689   1.628   3.445 -0.8881 -0.6013  0.3516
 5072SOL    HW126849   2.645   1.548   3.417 -0.0680 -0.6645 -0.7877
 5072SOL    HW226850   2.678   1.625   3.540  0.1830 -0.3747  0.4766
 5073SOL     OW26851   3.095   1.917   6.195 -0.1390  0.3119  0.1407
 5073SOL    HW126852   3.002   1.912   6.174 -0.3977 -2.8409  1.9523
 5073SOL    HW226853   3.083   1.917   6.290  0.5255  0.9615  0.2190
 5074SOL     OW26854   2.993   2.559   7.719  0.1383 -0.1159 -0.0532
 5074SOL    HW126855   2.973   2.560   7.625  1.7648  1.3799 -0.3915
 5074SOL    HW226856   2.927   2.495   7.743 -0.0904 -0.5325 -1.7460
 5075SOL     OW26857   2.980   2.430   8.507 -0.1758 -0.1197 -0.1748
 5075SOL    HW126858   2.901   2.379   8.491 -1.1777  0.9300  1.3208
 5075SOL    HW226859   3.042   2.391   8.446 -1.3980 -1.2976 -0.6357
 5076SOL     OW26860   1.295   2.701  13.964 -0.0158  0.1658 -0.2205
 5076SOL    HW126861   1.376   2.668  13.926 -0.9611 -0.8303 -1.3661
 5076SOL    HW226862   1.315   2.717  14.056 -1.6280  0.7264  0.0341
 5077SOL     OW26863   3.114   2.109   4.926 -0.1250  0.3647 -0.2970
 5077SOL    HW126864   3.071   2.183   4.883 -0.2889 -0.9355 -2.3410
 5077SOL    HW226865   3.203   2.112   4.892  0.7605  0.1197  1.9564
 5078SOL     OW26866   0.865   1.569   9.082 -0.1203 -0.3744 -0.3483
 5078SOL    HW126867   0.790   1.619   9.113  0.0955 -0.7047  0.7130
 5078SOL    HW226868   0.831   1.480   9.078  1.3662 -0.8949 -1.6281
 5079SOL     OW26869   0.466   1.931   0.772 -0.1633  0.5920 -0.5417
 5079SOL    HW126870   0.408   1.887   0.834  1.2402 -2.0704 -1.0769
 5079SOL    HW226871   0.427   2.018   0.780  0.1463  0.4872  1.9992
 5080SOL     OW26872   2.313   4.356  17.095  0.1133  0.0437 -0.1236
 5080SOL    HW126873   2.306   4.260  17.093 -4.0317  0.3313  0.9419
 5080SOL    HW226874   2.255   4.374  17.169  2.8339  0.4704  1.8681
 5081SOL     OW26875   3.148   0.841   6.636  0.5420 -0.2704  0.4171
 5081SOL    HW126876   3.163   0.892   6.716 -1.0822 -1.0045  1.1961
 5081SOL    HW226877   3.065   0.799   6.657  0.3132 -0.1068 -0.1866
 5082SOL     OW26878   3.040   3.503   7.574 -0.1441 -0.4546 -0.3547
 5082SOL    HW126879   3.111   3.525   7.514  1.3442 -1.0480  1.1795
 5082SOL    HW226880   3.007   3.421   7.537 -0.5631 -0.1166 -0.7288
 5083SOL     OW26881   0.563   0.842   2.087  0.2503  0.0172  0.0970
 5083SOL    HW126882   0.616   0.901   2.033 -0.6547  0.8574  0.1429
 5083SOL    HW226883   0.632   0.778   2.105 -0.3838 -0.3308  1.2678
 5084SOL     OW26884   3.476   1.073   5.412  0.3080  0.8314 -0.3185
 5084SOL    HW126885   3.423   1.039   5.484 -1.2422  2.3143 -0.7826
 5084SOL    HW226886   3.459   1.002   5.350 -0.5586  0.1009  0.7575
 5085SOL     OW26887   0.312   1.233   6.570  0.3866  0.2445  0.6081
 5085SOL    HW126888   0.358   1.193   6.496  0.9272 -0.3717  1.2662
 5085SOL    HW226889   0.372   1.304   6.593  0.1072  1.2209 -1.7391
 5086SOL     OW26890   2.470   0.017   7.063  0.4705 -0.2933  0.0444
 5086SOL    HW126891   2.500   4.682   7.119  0.4105 -0.5938 -0.3070
 5086SOL    HW226892   2.534   0.017   6.992  1.5722 -1.1555  1.0456
 5087SOL     OW26893   0.575   3.697  17.048 -0.0716  0.5900  0.1195
 5087SOL    HW126894   0.592   3.761  17.116  2.2105  0.5631 -0.4428
 5087SOL    HW226895   0.491   3.734  17.021  0.4240  1.5740 -0.0556
 5088SOL     OW26896   0.096   3.702   7.658  0.2489 -0.0906  0.0543
 5088SOL    HW126897   0.123   3.615   7.629 -1.0597 -0.2773 -0.5775
 5088SOL    HW226898   0.029   3.720   7.593  1.0418  1.9843 -0.1925
 5089SOL     OW26899   4.641   1.775  14.592  0.0130  0.3655 -0.2638
 5089SOL    HW126900   4.598   1.737  14.515 -0.4436  0.2444  0.0466
 5089SOL    HW226901   4.697   1.841  14.552  1.2826 -1.0503 -0.8373
 5090SOL     OW26902   1.957   2.468   8.927 -0.0299 -0.0563 -0.3507
 5090SOL    HW126903   2.025   2.521   8.969  0.8276  0.0194 -1.8185
 5090SOL    HW226904   1.942   2.398   8.990 -3.3670  1.1279  0.1614
 5091SOL     OW26905   3.293   3.115   6.290 -0.2897  0.2624  0.4379
 5091SOL    HW126906   3.211   3.127   6.339 -0.7702 -1.9118  0.1487
 5091SOL    HW226907   3.296   3.186   6.226  0.2868 -0.6167 -0.5106
 5092SOL     OW26908   0.475   1.496   8.588 -0.1154 -0.8439 -0.1576
 5092SOL    HW126909   0.524   1.419   8.617  1.4200 -0.3910 -1.5575
 5092SOL    HW226910   0.518   1.515   8.505  0.7433 -1.3336  0.1740
 5093SOL     OW26911   3.662   1.429   1.624 -0.1094  0.5123  0.4824
 5093SOL    HW126912   3.615   1.507   1.596  1.1968  0.2523 -2.4412
 5093SOL    HW226913   3.705   1.454   1.706  0.6495 -0.9488  0.5444
 5094SOL     OW26914   4.718   3.851   2.523 -0.3469 -0.2604 -0.0563
 5094SOL    HW126915   4.647   3.814   2.470  1.0441 -2.0939 -0.6503
 5094SOL    HW226916   4.663   3.903   2.582  0.3367  0.1351  0.2306
 5095SOL     OW26917   4.308   2.532   8.252 -0.4145 -0.3150 -0.5152
 5095SOL    HW126918   4.366   2.462   8.282 -1.2463 -0.8781 -0.2117
 5095SOL    HW226919   4.263   2.554   8.334 -2.2099  2.5340 -2.2711
 5096SOL     OW26920   2.995   3.981   7.494  0.3847 -0.0544 -0.2491
 5096SOL    HW126921   3.020   4.073   7.499  1.5005 -0.3357 -0.5365
 5096SOL    HW226922   2.994   3.965   7.400 -0.2904  2.3083 -0.6437
 5097SOL     OW26923   0.522   0.876   6.339  0.3581  0.3131 -0.2048
 5097SOL    HW126924   0.444   0.866   6.393  0.3179 -1.6976 -0.6529
 5097SOL    HW226925   0.560   0.789   6.341 -0.9337 -0.3138 -2.3854
 5098SOL     OW26926   0.027   3.083   3.439 -0.3005 -0.3960 -0.2923
 5098SOL    HW126927   4.718   3.134   3.505  3.1704  0.6823  1.2910
 5098SOL    HW226928   0.039   3.005   3.493  1.1777  0.7041  0.9570
 5099SOL     OW26929   2.501   3.045   7.286 -0.0321  0.1623 -0.2432
 5099SOL    HW126930   2.437   3.047   7.357  0.1795  1.8835 -0.1056
 5099SOL    HW226931   2.562   3.116   7.304 -0.0228  0.3564 -1.0494
 5100SOL     OW26932   0.692   2.922  15.711 -0.3902 -0.2884 -0.5498
 5100SOL    HW126933   0.786   2.939  15.700 -0.0086 -1.6644  0.6116
 5100SOL    HW226934   0.671   2.996  15.768  1.6108 -0.1084 -0.0234
 5101SOL     OW26935   2.341   1.643   6.410 -0.4469  0.4047  0.0844
 5101SOL    HW126936   2.403   1.653   6.338  1.1092 -0.3524  1.3298
 5101SOL    HW226937   2.371   1.715   6.466 -0.4608  0.5194 -0.0545
 5102SOL     OW26938   2.371   3.601   2.445  0.5345 -0.1744 -0.0118
 5102SOL    HW126939   2.330   3.668   2.390 -0.9219 -1.6410 -0.7236
 5102SOL    HW226940   2.420   3.663   2.499  1.7227 -2.5291  1.6188
 5103SOL     OW26941   0.757   2.634   8.544  0.0884  0.2909 -0.4254
 5103SOL    HW126942   0.691   2.636   8.474 -1.0362 -0.0143  0.6263
 5103SOL    HW226943   0.802   2.719   8.546  1.9624 -0.7371  0.4682
 5104SOL     OW26944   0.789   2.240  12.676 -0.0298 -0.3910 -0.2447
 5104SOL    HW126945   0.841   2.321  12.680  1.0092 -1.0124 -1.2891
 5104SOL    HW226946   0.700   2.272  12.691  0.0092 -0.4224  0.0444
 5105SOL     OW26947   3.860   1.978   2.705  0.2645 -0.1652 -0.0254
 5105SOL    HW126948   3.878   1.884   2.704 -0.9338 -0.4046  1.2964
 5105SOL    HW226949   3.939   2.020   2.672  0.8055  0.2067  1.7439
 5106SOL     OW26950   1.878   3.891  13.103  0.0758 -0.1058  0.0908
 5106SOL    HW126951   1.943   3.871  13.170 -1.4315 -0.3106  1.5070
 5106SOL    HW226952   1.927   3.898  13.021  0.5449  3.8622  0.6915
 5107SOL     OW26953   3.543   1.730  17.030  0.1480  0.8084  0.0703
 5107SOL    HW126954   3.588   1.658  16.986 -1.7120 -0.8592  0.8963
 5107SOL    HW226955   3.543   1.793  16.959 -0.2869  0.5302 -0.1726
 5108SOL     OW26956   1.673   3.718  14.744 -0.2225  0.3425 -0.0641
 5108SOL    HW126957   1.618   3.645  14.769 -0.4468 -0.0086 -1.5504
 5108SOL    HW226958   1.736   3.734  14.815  1.1848  0.1939 -1.2580
 5109SOL     OW26959   4.239   3.029   5.435 -0.1693  0.1724 -0.1875
 5109SOL    HW126960   4.187   3.040   5.515 -0.3676 -0.5517 -0.2188
 5109SOL    HW226961   4.227   3.116   5.395 -4.7190 -0.6155 -0.5938
 5110SOL     OW26962   0.352   4.475   8.701 -0.4473  0.1644 -0.3341
 5110SOL    HW126963   0.260   4.503   8.702 -0.9717 -1.4849 -1.7457
 5110SOL    HW226964   0.353   4.384   8.729 -0.7337  0.9013  2.0307
 5111SOL     OW26965   3.609   1.884   5.393  0.3397 -0.0786 -0.6259
 5111SOL    HW126966   3.572   1.838   5.469 -0.3951 -0.9731 -1.5114
 5111SOL    HW226967   3.689   1.832   5.389  0.2459 -0.1761 -1.2667
 5112SOL     OW26968   3.376   2.397  16.649 -0.8216 -0.2967  0.2876
 5112SOL    HW126969   3.421   2.370  16.729 -1.1838  1.6258  1.1209
 5112SOL    HW226970   3.449   2.449  16.616 -2.4207 -0.1292 -3.0668
 5113SOL     OW26971   3.225   1.549  14.377 -0.1494  0.4204  0.3672
 5113SOL    HW126972   3.183   1.587  14.300  1.3715  1.8627  0.2458
 5113SOL    HW226973   3.316   1.540  14.349 -0.1681 -2.8389  1.3668
 5114SOL     OW26974   2.221   4.523   8.319  0.1848  0.0560 -0.0761
 5114SOL    HW126975   2.299   4.574   8.339  1.3187 -1.0214 -1.7487
 5114SOL    HW226976   2.187   4.502   8.406  0.5620 -0.8417 -0.1433
 5115SOL     OW26977   4.065   4.257   8.671  0.2588  0.6487  0.5004
 5115SOL    HW126978   4.093   4.238   8.581  0.3754  3.4950 -0.0807
 5115SOL    HW226979   4.089   4.350   8.677 -2.7609  1.5112 -0.9521
 5116SOL     OW26980   1.065   3.760  16.112  0.0831  0.0297 -0.3857
 5116SOL    HW126981   1.009   3.706  16.056  0.1440 -0.0461 -0.3731
 5116SOL    HW226982   1.017   3.754  16.195 -0.2662  0.3440 -0.5635
 5117SOL     OW26983   0.513   2.378   5.029  0.3237  0.0656  0.3602
 5117SOL    HW126984   0.538   2.344   4.943 -0.1618  0.4175  0.0839
 5117SOL    HW226985   0.592   2.348   5.075 -0.4249  0.5067  1.9212
 5118SOL     OW26986   3.046   0.208   5.562 -0.0626 -0.3287 -0.0212
 5118SOL    HW126987   3.080   0.273   5.624  1.0495 -1.1954  0.2663
 5118SOL    HW226988   3.124   0.175   5.517 -0.5769 -2.2097  0.4706
 5119SOL     OW26989   1.506   3.033   6.659 -0.3812  0.1725  0.3473
 5119SOL    HW126990   1.476   2.944   6.678  2.3309 -0.6048  1.0355
 5119SOL    HW226991   1.514   3.031   6.564 -1.3877 -0.3147  0.2756
 5120SOL     OW26992   0.478   0.178  16.068 -0.7140 -0.3061  0.1230
 5120SOL    HW126993   0.505   0.255  16.118 -1.0061  0.4835 -0.9467
 5120SOL    HW226994   0.562   0.155  16.028  0.5067  2.0834  1.3411
 5121SOL     OW26995   1.468   4.673   6.113 -0.0345  0.1905  0.3205
 5121SOL    HW126996   1.460   4.660   6.018  1.0626 -0.0012  0.2566
 5121SOL    HW226997   1.380   4.696   6.141  0.8993  4.4683 -0.2097
 5122SOL     OW26998   2.128   3.240   7.021  0.1835 -0.4006 -0.0772
 5122SOL    HW126999   2.183   3.162   7.018  1.7723  0.8334 -3.5225
 5122SOL    HW227000   2.115   3.236   7.115 -0.7110  1.7831 -0.1063
 5123SOL     OW27001   1.385   2.671   6.574 -0.1125 -0.3158  0.0896
 5123SOL    HW127002   1.331   2.607   6.621 -0.8775 -1.4113 -2.2475
 5123SOL    HW227003   1.382   2.738   6.641 -1.2518  0.0798 -0.3545
 5124SOL     OW27004   0.016   2.554   6.073  0.1945 -0.9339 -0.6379
 5124SOL    HW127005   0.087   2.560   6.010 -0.3391  0.4719 -1.1108
 5124SOL    HW227006   4.693   2.624   6.046  0.5533 -1.2893 -2.3906
 5125SOL     OW27007   2.891   2.680   5.439  0.3628  0.4929 -0.3479
 5125SOL    HW127008   2.867   2.685   5.532 -1.7626 -0.2142 -0.8627
 5125SOL    HW227009   2.892   2.771   5.410  1.8508  0.3349 -0.8154
 5126SOL     OW27010   0.894   4.701   1.835 -0.0118 -0.4856  0.2385
 5126SOL    HW127011   0.822   0.009   1.790 -0.7404 -0.3597  1.5125
 5126SOL    HW227012   0.933   0.037   1.884 -0.0140 -0.5640  0.3556
 5127SOL     OW27013   0.385   3.752  12.210  0.5787  0.6139 -0.0842
 5127SOL    HW127014   0.349   3.719  12.291  1.9964 -2.9236 -0.9185
 5127SOL    HW227015   0.479   3.736  12.219  0.0744 -2.2041 -0.0131
 5128SOL     OW27016   0.668   1.255   3.143 -0.0482 -0.3548  0.2705
 5128SOL    HW127017   0.607   1.285   3.210 -1.3671 -0.4507 -0.8969
 5128SOL    HW227018   0.615   1.180   3.116  0.1603 -0.3726 -0.0908
 5129SOL     OW27019   0.506   2.393   3.759 -0.0639 -0.0061  0.8496
 5129SOL    HW127020   0.497   2.310   3.807 -0.5605  0.7825  2.1058
 5129SOL    HW227021   0.414   2.409   3.742  0.5972  3.6566  0.8674
 5130SOL     OW27022   2.179   0.013   5.525  0.4116  0.3309 -0.0134
 5130SOL    HW127023   2.216   0.084   5.473 -0.9931  2.1344  1.4707
 5130SOL    HW227024   2.250   4.707   5.572  0.2336 -1.8862 -1.7347
 5131SOL     OW27025   1.033   2.455   7.567  0.4602  0.6271  0.6524
 5131SOL    HW127026   0.955   2.510   7.580 -0.3541 -0.4114  0.1536
 5131SOL    HW227027   1.106   2.514   7.548  0.6982  1.5292  4.4374
 5132SOL     OW27028   4.342   2.396   6.492  0.2033 -0.2818 -0.3291
 5132SOL    HW127029   4.304   2.341   6.559  0.0052 -0.3335 -0.4843
 5132SOL    HW227030   4.333   2.344   6.412 -1.2753 -1.7972  0.8537
 5133SOL     OW27031   0.515   2.291   2.266  0.2347 -0.1779  0.2546
 5133SOL    HW127032   0.594   2.255   2.227 -0.5911 -0.4971 -1.0946
 5133SOL    HW227033   0.439   2.254   2.221  0.6301  0.3182 -0.8227
 5134SOL     OW27034   0.557   0.438   5.041 -0.3099 -0.3066 -0.2701
 5134SOL    HW127035   0.462   0.431   5.030 -0.2308 -1.3860 -0.2905
 5134SOL    HW227036   0.585   0.397   4.959  0.0847 -2.3656  0.8948
 5135SOL     OW27037   2.906   3.861  12.964  0.1385 -0.4892 -0.8487
 5135SOL    HW127038   2.923   3.868  12.870 -2.2064 -0.2092 -1.2407
 5135SOL    HW227039   2.900   3.766  12.969 -0.4289 -0.2965  2.2404
 5136SOL     OW27040   0.385   3.811   3.440 -0.3310  0.6100  0.4750
 5136SOL    HW127041   0.292   3.827   3.457 -0.3629 -0.5484  1.3450
 5136SOL    HW227042   0.390   3.725   3.399 -0.1420  0.0231  1.7536
 5137SOL     OW27043   4.599   0.585   5.506  0.3829 -0.5633 -0.0371
 5137SOL    HW127044   4.672   0.526   5.485  2.1880  1.3708  0.7247
 5137SOL    HW227045   4.538   0.512   5.512 -1.5564  0.9105 -1.6118
 5138SOL     OW27046   4.175   1.786   7.804  1.0547 -0.4766 -0.5499
 5138SOL    HW127047   4.222   1.819   7.880 -0.3946  1.5839 -0.5373
 5138SOL    HW227048   4.209   1.699   7.781  0.4072 -0.9751  0.4100
 5139SOL     OW27049   3.902   4.489  15.727  0.7833 -0.1858  1.1002
 5139SOL    HW127050   3.941   4.417  15.678  0.4247  1.0522 -0.9880
 5139SOL    HW227051   3.960   4.562  15.704 -0.4899  1.6692  3.7859
 5140SOL     OW27052   0.392   0.436   1.339  0.2161  0.2587 -0.3834
 5140SOL    HW127053   0.302   0.402   1.338 -0.7093  2.6833 -0.8746
 5140SOL    HW227054   0.384   0.506   1.275 -1.5885  0.5225  0.1055
 5141SOL     OW27055   3.679   3.655   3.966  0.0947 -0.3971 -0.2923
 5141SOL    HW127056   3.603   3.709   3.944 -0.1475 -0.3422  0.6907
 5141SOL    HW227057   3.726   3.720   4.018 -0.3681 -2.1248  2.2763
 5142SOL     OW27058   2.819   0.304   3.423  0.7684  0.2251 -0.3465
 5142SOL    HW127059   2.751   0.365   3.397  0.4612  0.0544  0.0482
 5142SOL    HW227060   2.895   0.360   3.440 -0.3968  2.4360 -2.5373
 5143SOL     OW27061   3.086   4.195  12.924 -0.1979 -0.2422  0.3087
 5143SOL    HW127062   3.044   4.171  12.842  0.7587 -3.5392  0.7424
 5143SOL    HW227063   3.041   4.277  12.944 -1.3658 -0.4433 -1.5661
 5144SOL     OW27064   3.172   3.938   4.275 -0.4586 -0.2862 -0.0706
 5144SOL    HW127065   3.085   3.938   4.316 -0.6417  0.0099 -0.4635
 5144SOL    HW227066   3.155   4.026   4.241 -0.9637 -0.1186  0.5977
 5145SOL     OW27067   3.124   1.567   3.587 -0.7724  0.7343  0.2587
 5145SOL    HW127068   3.164   1.486   3.618 -0.7844 -0.2717 -2.3175
 5145SOL    HW227069   3.177   1.623   3.643  0.8960 -0.1202 -0.4570
 5146SOL     OW27070   2.682   0.023   1.887 -0.1337 -0.4699  0.3055
 5146SOL    HW127071   2.658   4.706   1.962 -1.5549 -0.1088  0.1181
 5146SOL    HW227072   2.721   0.101   1.926  1.7202 -0.6627 -1.1520
 5147SOL     OW27073   3.443   2.820   4.782 -0.4883  0.6940 -1.0513
 5147SOL    HW127074   3.530   2.847   4.754 -0.8142  1.4127 -1.3659
 5147SOL    HW227075   3.425   2.752   4.717 -0.3651  0.8534 -1.2545
 5148SOL     OW27076   2.102   1.084  12.950 -0.0473 -0.3541 -0.4429
 5148SOL    HW127077   2.024   1.090  13.005  0.5354 -1.6864  0.5485
 5148SOL    HW227078   2.168   1.070  13.018  0.2878 -1.2913 -0.9584
 5149SOL     OW27079   4.159   0.433  15.520 -0.0364  0.0351 -0.0092
 5149SOL    HW127080   4.137   0.526  15.517  0.1929  0.1700  2.3922
 5149SOL    HW227081   4.254   0.433  15.510 -0.2299  1.7126 -1.7433
 5150SOL     OW27082   3.708   0.780   0.047 -0.4606  0.1522 -0.5507
 5150SOL    HW127083   3.757   0.832  17.729  0.1196 -1.5987 -1.5430
 5150SOL    HW227084   3.784   0.739   0.088 -0.4189  0.0638 -0.7149
 5151SOL     OW27085   2.684   0.939  13.540 -0.0010 -0.2601 -0.3884
 5151SOL    HW127086   2.619   0.925  13.472 -0.2924 -1.4266  0.1434
 5151SOL    HW227087   2.664   1.032  13.552 -0.1212 -0.0341 -2.2799
 5152SOL     OW27088   1.303   4.280   1.543  0.2626  0.2586 -0.0511
 5152SOL    HW127089   1.393   4.270   1.512 -0.2586 -0.2715 -1.3944
 5152SOL    HW227090   1.312   4.313   1.632 -0.3257 -0.1836  0.1715
 5153SOL     OW27091   3.052   1.195  15.484  0.3107  0.2723 -0.1411
 5153SOL    HW127092   3.146   1.205  15.492  0.2381  0.6889  0.1639
 5153SOL    HW227093   3.036   1.244  15.403  0.3393 -0.4231 -0.5722
 5154SOL     OW27094   2.622   2.358   7.046  0.0410 -0.5433  0.3155
 5154SOL    HW127095   2.637   2.361   6.951 -1.9848  1.0740  0.0540
 5154SOL    HW227096   2.651   2.269   7.067 -1.5257 -1.3231 -0.8635
 5155SOL     OW27097   4.167   1.306  12.555 -0.0792 -0.0102  0.2667
 5155SOL    HW127098   4.197   1.351  12.477  3.5655  1.0956  2.2857
 5155SOL    HW227099   4.188   1.369  12.625  0.3790  0.5762 -0.4045
 5156SOL     OW27100   4.185   1.062   1.099  0.2236  0.4053 -0.0521
 5156SOL    HW127101   4.128   1.139   1.103 -0.1063  0.1696 -0.2579
 5156SOL    HW227102   4.275   1.095   1.109  1.0507 -1.9477  0.3439
 5157SOL     OW27103   3.877   4.536   4.387  0.3491  0.3011  0.3151
 5157SOL    HW127104   3.930   4.557   4.310 -0.6254  1.3378 -0.0702
 5157SOL    HW227105   3.799   4.591   4.383 -1.0850 -1.7373  0.3516
 5158SOL     OW27106   2.662   2.208  12.203  0.3736  0.0487 -0.2118
 5158SOL    HW127107   2.731   2.257  12.158  2.9811 -2.2543  1.2758
 5158SOL    HW227108   2.700   2.179  12.286  2.8160  0.8454 -1.0584
 5159SOL     OW27109   2.990   2.292   4.774 -0.5851 -0.0526 -0.2408
 5159SOL    HW127110   2.913   2.350   4.773 -0.6625 -0.1306  1.4288
 5159SOL    HW227111   3.059   2.344   4.733 -0.0435  0.6677  1.5843
 5160SOL     OW27112   2.565   3.999   7.036  0.4400  0.6994  0.0806
 5160SOL    HW127113   2.503   4.069   7.016  1.2762  1.6390  0.7350
 5160SOL    HW227114   2.608   3.991   6.952  0.3840  0.2614  0.0967
 5161SOL     OW27115   3.223   1.164   8.471 -0.2231 -0.0706  0.2978
 5161SOL    HW127116   3.211   1.167   8.566  0.5940  1.4467  0.3456
 5161SOL    HW227117   3.303   1.112   8.461 -0.9716 -1.5706  2.1035
 5162SOL     OW27118   2.484   2.871   5.943  0.2996  0.3445 -0.2977
 5162SOL    HW127119   2.563   2.925   5.946  1.4374 -1.2627 -0.5584
 5162SOL    HW227120   2.442   2.917   5.871  2.1429 -2.1615 -3.0224
 5163SOL     OW27121   4.722   1.446   8.528  0.0550 -0.3347 -0.5665
 5163SOL    HW127122   0.038   1.526   8.532 -1.2862  0.4484  1.6777
 5163SOL    HW227123   0.041   1.370   8.543  0.8595  0.7214  1.7425
 5164SOL     OW27124   1.482   0.357   2.051  0.1290 -0.3884  0.7319
 5164SOL    HW127125   1.556   0.371   2.111  1.1783  1.5329 -1.0072
 5164SOL    HW227126   1.510   0.286   1.994  1.6014  0.1444  0.7792
 5165SOL     OW27127   2.293   3.519  13.726 -0.3939 -0.2609  0.4301
 5165SOL    HW127128   2.252   3.605  13.722  1.1361  0.5033  1.1106
 5165SOL    HW227129   2.322   3.505  13.636 -1.6414  0.9649 -0.1586
 5166SOL     OW27130   3.503   4.109   8.521  0.0987  0.0954  1.0851
 5166SOL    HW127131   3.555   4.108   8.602  2.4598 -0.5463 -0.4444
 5166SOL    HW227132   3.529   4.025   8.482 -1.1830  0.4000 -0.4064
 5167SOL     OW27133   2.336   0.409   3.930  0.5305 -0.1416 -0.3061
 5167SOL    HW127134   2.277   0.345   3.890 -1.4142  0.7322  1.1876
 5167SOL    HW227135   2.352   0.364   4.013  0.2000 -0.5680 -0.4721
 5168SOL     OW27136   3.936   0.633   6.659  0.5785  0.0721  0.5201
 5168SOL    HW127137   3.917   0.630   6.565  0.6525 -2.3185  0.5888
 5168SOL    HW227138   3.936   0.541   6.685 -1.3552 -0.1826 -0.3978
 5169SOL     OW27139   0.281   4.505   6.039  0.1255  0.4279  0.5935
 5169SOL    HW127140   0.368   4.466   6.050  0.6009  0.9100 -1.4680
 5169SOL    HW227141   0.247   4.494   6.128  3.7628 -3.2456  1.5202
 5170SOL     OW27142   1.458   0.163   8.160 -0.3968  0.2897 -0.1806
 5170SOL    HW127143   1.399   0.120   8.221 -1.6497  0.8634 -0.9739
 5170SOL    HW227144   1.402   0.240   8.147  0.0092  0.6474  0.1817
 5171SOL     OW27145   4.024   4.278   7.516  0.2967  0.2368 -0.2764
 5171SOL    HW127146   3.971   4.204   7.547 -0.1296  0.4861 -0.3992
 5171SOL    HW227147   4.110   4.238   7.522 -0.9285 -2.4983 -0.5518
 5172SOL     OW27148   1.144   2.793   9.408  0.2890 -0.1998  0.3215
 5172SOL    HW127149   1.181   2.836   9.330  0.4874 -0.0614  0.4916
 5172SOL    HW227150   1.086   2.863   9.435  2.7616  0.7984  3.0365
 5173SOL     OW27151   1.984   0.331  14.354  0.0844  0.2964 -0.0234
 5173SOL    HW127152   2.053   0.350  14.417 -0.8265  0.3964  0.9367
 5173SOL    HW227153   2.013   0.386  14.281  0.6807 -1.8562 -1.4376
 5174SOL     OW27154   3.565   2.310   4.847 -0.0786 -0.1745 -0.6435
 5174SOL    HW127155   3.636   2.247   4.836 -0.0645  0.0025 -1.5868
 5174SOL    HW227156   3.601   2.380   4.794  0.7009 -1.1948 -1.4605
 5175SOL     OW27157   1.247   3.742   9.814  0.0118 -0.2188 -0.2342
 5175SOL    HW127158   1.270   3.677   9.748  0.1497 -0.3217 -0.0858
 5175SOL    HW227159   1.331   3.786   9.826  0.5447 -1.5636  0.9487
 5176SOL     OW27160   1.880   0.088  16.661  0.3123  0.1007 -0.1712
 5176SOL    HW127161   1.805   0.127  16.705  1.7689  2.3366  0.3656
 5176SOL    HW227162   1.834   0.048  16.587 -1.1128 -0.7000  1.1597
 5177SOL     OW27163   3.354   1.971   2.036  0.2013 -0.1660 -0.4432
 5177SOL    HW127164   3.372   1.895   1.981 -0.2622 -0.2645 -0.4657
 5177SOL    HW227165   3.373   1.929   2.120 -1.1116 -2.1982 -1.1424
 5178SOL     OW27166   4.590   2.127  16.512  0.1726  0.4873 -0.0643
 5178SOL    HW127167   4.611   2.131  16.418 -0.6438  3.3738 -0.1476
 5178SOL    HW227168   4.667   2.169  16.550  0.2245 -0.7732  1.2132
 5179SOL     OW27169   0.987   0.587  16.223 -0.1936 -0.5544  0.2686
 5179SOL    HW127170   0.929   0.586  16.147  0.9844  1.2566 -0.6548
 5179SOL    HW227171   1.036   0.665  16.196 -3.7484  0.9382 -1.8523
 5180SOL     OW27172   3.160   2.877  14.863  0.3119 -0.3696 -0.6635
 5180SOL    HW127173   3.092   2.934  14.899  2.3200  2.1819 -0.9012
 5180SOL    HW227174   3.113   2.835  14.791  0.3917 -1.0013 -0.3437
 5181SOL     OW27175   2.696   0.266  15.159  0.3056  0.0607  0.7979
 5181SOL    HW127176   2.706   0.255  15.253  0.3854  0.9788  0.9050
 5181SOL    HW227177   2.606   0.295  15.145  0.5697 -0.0705 -1.1692
 5182SOL     OW27178   4.554   3.459   8.121 -0.2534  0.2178 -0.0518
 5182SOL    HW127179   4.519   3.545   8.142 -1.0342  0.2107 -1.3359
 5182SOL    HW227180   4.526   3.416   8.202  1.9160  0.9081  1.0482
 5183SOL     OW27181   1.635   3.481   8.903 -0.1991  0.4845 -0.7450
 5183SOL    HW127182   1.666   3.391   8.911 -1.1850  0.4160  2.4576
 5183SOL    HW227183   1.557   3.470   8.849 -2.8017 -1.6768  3.4988
 5184SOL     OW27184   4.706   1.365   4.503  0.4056 -0.8324 -0.1525
 5184SOL    HW127185   4.690   1.456   4.530 -0.3626 -1.9105  3.0371
 5184SOL    HW227186   4.618   1.330   4.513  0.7712 -0.2420  4.8740
 5185SOL     OW27187   1.781   0.433  10.339 -0.0215  0.0947 -0.1616
 5185SOL    HW127188   1.743   0.380  10.409  1.5051  0.0609  0.6457
 5185SOL    HW227189   1.708   0.489  10.311  1.5777  2.0644 -0.4414
 5186SOL     OW27190   0.304   3.084  14.142 -0.0810 -0.4467 -0.2192
 5186SOL    HW127191   0.325   3.045  14.227 -0.9856 -1.5342 -0.5028
 5186SOL    HW227192   0.245   3.155  14.167  2.0287  1.2269  0.0611
 5187SOL     OW27193   3.379   2.116  16.445 -0.1332 -0.5531  0.4023
 5187SOL    HW127194   3.356   2.066  16.367  0.7348  1.2694 -1.0282
 5187SOL    HW227195   3.326   2.073  16.512  0.4718 -0.1046  1.1761
 5188SOL     OW27196   1.157   4.148   6.589 -0.3699 -0.2430  0.2390
 5188SOL    HW127197   1.251   4.137   6.605  0.2457 -0.9343 -3.9113
 5188SOL    HW227198   1.116   4.081   6.644 -1.9103 -1.1346 -1.9856
 5189SOL     OW27199   3.191   2.947   1.644  1.0665 -0.0517  0.3896
 5189SOL    HW127200   3.189   2.945   1.740 -0.4767 -1.1153  0.3257
 5189SOL    HW227201   3.195   3.041   1.628 -2.1042 -0.1398 -0.9219
 5190SOL     OW27202   3.408   2.842   7.339 -0.8261 -0.0391  0.1477
 5190SOL    HW127203   3.431   2.889   7.419  0.0589  0.3278 -0.3256
 5190SOL    HW227204   3.348   2.781   7.382 -0.3488 -1.6927 -1.5252
 5191SOL     OW27205   3.403   3.824   4.791 -0.2641 -0.6564 -0.3994
 5191SOL    HW127206   3.409   3.789   4.880  1.5446 -2.3962 -1.1997
 5191SOL    HW227207   3.488   3.797   4.757 -0.0116 -0.0735 -0.2244
 5192SOL     OW27208   0.685   0.519  14.972  0.7186 -0.4580 -0.3067
 5192SOL    HW127209   0.738   0.443  14.995 -0.5190 -0.9516  0.9697
 5192SOL    HW227210   0.597   0.483  14.983 -1.3033  4.1799 -1.3574
 5193SOL     OW27211   0.075   1.702   3.015  0.4206 -0.0828 -0.5781
 5193SOL    HW127212   0.003   1.729   2.958 -1.3925 -0.6917  1.4527
 5193SOL    HW227213   0.059   1.611   3.038  0.8824  0.7724  3.0288
 5194SOL     OW27214   0.280   1.615  17.355  0.5848 -0.2876  0.1053
 5194SOL    HW127215   0.232   1.640  17.434  1.7511 -0.9612  1.0347
 5194SOL    HW227216   0.227   1.544  17.319  1.3055 -0.1158 -1.3284
 5195SOL     OW27217   2.105   2.607   3.906 -0.0208 -0.0952 -0.4350
 5195SOL    HW127218   2.025   2.658   3.896 -1.1748 -1.7365  0.4326
 5195SOL    HW227219   2.084   2.525   3.861 -1.1945 -0.4963  0.8805
 5196SOL     OW27220   3.769   2.069   3.071  0.2661 -0.0965  0.2327
 5196SOL    HW127221   3.742   2.107   2.988  1.0626 -0.9429 -0.4099
 5196SOL    HW227222   3.863   2.057   3.054  0.1372 -0.0427 -0.5222
 5197SOL     OW27223   1.921   3.249   6.010 -0.0616 -0.3868  0.8938
 5197SOL    HW127224   1.830   3.222   6.014 -0.5630  1.0359 -0.9445
 5197SOL    HW227225   1.959   3.165   6.035  0.4849 -0.6429 -0.8266
 5198SOL     OW27226   2.624   2.500   7.286  0.1280 -0.2031  0.7035
 5198SOL    HW127227   2.592   2.585   7.256  1.0405  0.4052  1.4663
 5198SOL    HW227228   2.631   2.454   7.203  0.3772  1.3146 -0.1117
 5199SOL     OW27229   1.198   0.248   8.817  0.2057 -0.5177  0.2091
 5199SOL    HW127230   1.154   0.277   8.737  1.4201  2.5240  0.6546
 5199SOL    HW227231   1.287   0.275   8.796 -0.2857 -0.8287 -2.3220
 5200SOL     OW27232   3.982   1.440   2.734  0.1987  0.0686 -0.3355
 5200SOL    HW127233   4.053   1.434   2.798 -0.3411 -1.0581  0.1491
 5200SOL    HW227234   4.016   1.381   2.667 -0.9364 -0.6129 -0.3108
 5201SOL     OW27235   0.502   2.421   8.330  0.0191 -0.0331  0.2952
 5201SOL    HW127236   0.557   2.348   8.358  0.9211  0.0153 -1.3286
 5201SOL    HW227237   0.425   2.390   8.377 -0.3878 -0.7050 -0.8160
 5202SOL     OW27238   4.218   0.242  10.450  0.1681  0.4000 -0.1435
 5202SOL    HW127239   4.200   0.174  10.514 -2.3446  1.2476  0.0447
 5202SOL    HW227240   4.199   0.323  10.497 -1.2884 -0.7984  1.3430
 5203SOL     OW27241   2.550   4.688   4.726  0.2756 -0.3794 -0.4479
 5203SOL    HW127242   2.473   0.008   4.724  0.5399  0.0223  0.5888
 5203SOL    HW227243   2.615   0.013   4.760  1.3978 -3.0247  2.2279
 5204SOL     OW27244   2.221   3.555   6.104  0.2888  0.0569 -0.3204
 5204SOL    HW127245   2.201   3.495   6.032 -1.8984 -1.6025  1.6833
 5204SOL    HW227246   2.220   3.641   6.062 -0.8764  0.5072  0.6341
 5205SOL     OW27247   4.228   3.363   4.804 -0.8830  0.8681 -0.0354
 5205SOL    HW127248   4.261   3.327   4.722 -2.9141  0.2705 -0.5933
 5205SOL    HW227249   4.138   3.331   4.803 -0.8560  0.6923  3.5715
 5206SOL     OW27250   0.340   2.133  14.337  0.0607  0.1162  0.2472
 5206SOL    HW127251   0.296   2.050  14.320  0.1824  0.2302 -0.5965
 5206SOL    HW227252   0.277   2.197  14.305 -2.0421 -2.7645 -1.3498
 5207SOL     OW27253   1.678   4.143  11.622  0.4211  0.0153  0.2170
 5207SOL    HW127254   1.613   4.177  11.560  1.5762 -1.4326 -1.7815
 5207SOL    HW227255   1.626   4.113  11.697  0.6707  1.2009  0.8707
 5208SOL     OW27256   1.118   3.611   9.351 -0.4672  0.3785 -0.0228
 5208SOL    HW127257   1.024   3.623   9.339 -0.9015 -2.1730  0.6314
 5208SOL    HW227258   1.134   3.562   9.270  0.8143  0.5604  0.1303
 5209SOL     OW27259   4.226   3.449  11.936 -0.1238  0.0006  0.1203
 5209SOL    HW127260   4.266   3.536  11.940 -0.9398  0.4526 -1.5368
 5209SOL    HW227261   4.222   3.436  11.841 -1.1291 -0.3613  0.2138
 5210SOL     OW27262   3.032   0.662   1.902  0.6027 -0.5219  0.1958
 5210SOL    HW127263   3.125   0.664   1.927  0.2920  0.2744  1.3036
 5210SOL    HW227264   2.997   0.614   1.977  1.3191 -0.7106  0.4150
 5211SOL     OW27265   1.548   2.465  11.486  0.6078  0.1565 -0.7144
 5211SOL    HW127266   1.459   2.496  11.468  0.2550 -0.8949 -0.8353
 5211SOL    HW227267   1.563   2.502  11.572  1.8004 -0.6902 -0.5608
 5212SOL     OW27268   0.695   3.594  17.589  0.2453  0.1191  0.0973
 5212SOL    HW127269   0.780   3.626  17.558 -1.2217 -0.3090 -4.2913
 5212SOL    HW227270   0.718   3.549  17.671  2.6494 -1.2984 -1.3624
 5213SOL     OW27271   4.168   4.189   4.750  0.3812 -0.1867  0.2591
 5213SOL    HW127272   4.120   4.240   4.685  1.4301  0.9466  0.3954
 5213SOL    HW227273   4.236   4.155   4.693  0.6293 -0.4586  0.7119
 5214SOL     OW27274   1.168   3.488   6.539 -0.3219 -0.5052  0.4577
 5214SOL    HW127275   1.105   3.543   6.493  2.1689  2.6233  0.7664
 5214SOL    HW227276   1.169   3.528   6.626 -1.2753  1.4179 -0.4115
 5215SOL     OW27277   2.482   0.243  16.617 -0.3776 -0.0368 -0.0252
 5215SOL    HW127278   2.394   0.207  16.612  0.2688 -1.6231  0.0765
 5215SOL    HW227279   2.462   0.283  16.702  1.0276  3.4554 -1.3022
 5216SOL     OW27280   3.673   3.719  11.657 -0.1603  0.2331 -0.3504
 5216SOL    HW127281   3.621   3.694  11.733 -0.4722  0.0184 -0.6389
 5216SOL    HW227282   3.650   3.811  11.644  1.0839  0.5231 -0.5614
 5217SOL     OW27283   2.597   3.432   2.327  0.1022 -0.0158 -0.0276
 5217SOL    HW127284   2.653   3.395   2.258 -1.7631 -1.4496 -0.7834
 5217SOL    HW227285   2.650   3.461   2.401  0.1924  1.3116 -0.6050
 5218SOL     OW27286   0.099   2.185   3.785  0.2846 -0.5142  0.4378
 5218SOL    HW127287   0.182   2.212   3.826 -0.3546  0.5158  1.0442
 5218SOL    HW227288   0.129   2.111   3.733 -1.8797 -2.6025  2.2137
 5219SOL     OW27289   3.374   2.182   8.381  0.4734  0.5280  0.3608
 5219SOL    HW127290   3.464   2.207   8.360 -0.2312  1.4874 -1.4044
 5219SOL    HW227291   3.379   2.184   8.477  0.7905 -2.6996  0.4191
 5220SOL     OW27292   2.709   4.161   9.570  0.0487  0.0550 -0.1469
 5220SOL    HW127293   2.729   4.249   9.602 -1.2891  0.6817 -1.0612
 5220SOL    HW227294   2.614   4.152   9.573 -0.1238  1.7937 -0.8731
 5221SOL     OW27295   3.321   0.836  15.946  0.0445 -0.0961 -0.7453
 5221SOL    HW127296   3.230   0.834  15.917  0.2614  0.2090 -1.4621
 5221SOL    HW227297   3.355   0.806  15.861 -2.6008 -3.2996 -0.7063
 5222SOL     OW27298   2.905   3.563  12.631  0.2066  0.4152  0.0247
 5222SOL    HW127299   2.844   3.492  12.609  0.2332 -0.0303  1.3778
 5222SOL    HW227300   2.850   3.641  12.628 -0.4405  0.0478  2.5410
 5223SOL     OW27301   3.355   2.121   4.801 -0.8233  0.2261 -0.0894
 5223SOL    HW127302   3.350   2.117   4.705 -1.1398 -0.6151 -0.0410
 5223SOL    HW227303   3.425   2.185   4.818 -1.1727  0.7092 -0.4872
 5224SOL     OW27304   3.346   2.947   6.087  0.2838 -0.5116  0.1135
 5224SOL    HW127305   3.323   3.001   6.162  0.5531 -0.5851  0.2513
 5224SOL    HW227306   3.442   2.947   6.088  0.3042  0.3312 -2.1067
 5225SOL     OW27307   0.281   3.263   3.714 -0.2589  0.6711  0.5033
 5225SOL    HW127308   0.290   3.271   3.809  1.0535 -0.9681  0.5169
 5225SOL    HW227309   0.185   3.258   3.705  0.0316 -1.1978 -1.5910
 5226SOL     OW27310   4.607   2.038   9.075  0.1069 -0.3582  0.8755
 5226SOL    HW127311   4.630   2.106   9.139 -0.1474 -0.2382  0.8429
 5226SOL    HW227312   4.519   2.018   9.109 -0.1463  1.1360  1.1453
 5227SOL     OW27313   3.516   2.169  15.603 -0.8809  0.0311  0.0463
 5227SOL    HW127314   3.611   2.168  15.590 -1.0492 -0.0013 -1.1700
 5227SOL    HW227315   3.486   2.229  15.534 -0.5601  0.4346  0.2523
 5228SOL     OW27316   4.658   3.740   5.027 -0.2010 -0.3913  0.0056
 5228SOL    HW127317   4.563   3.741   5.034 -0.1763  0.8643  0.2738
 5228SOL    HW227318   4.672   3.720   4.934  0.6614  0.7261 -0.1124
 5229SOL     OW27319   4.692   2.971   7.003  0.2351  0.0081  0.2837
 5229SOL    HW127320   0.009   2.980   6.924  0.6088  0.7590  0.6248
 5229SOL    HW227321   0.008   2.919   7.063  3.3119  0.2688 -2.1732
 5230SOL     OW27322   4.495   0.580   7.096 -0.6898  0.1592  0.0269
 5230SOL    HW127323   4.446   0.602   7.175  0.2055 -1.7788  1.1362
 5230SOL    HW227324   4.568   0.641   7.102 -0.6907  0.1590  0.0400
 5231SOL     OW27325   0.961   0.160  16.502 -1.1043 -0.4350  0.1899
 5231SOL    HW127326   1.007   0.218  16.442 -0.4860 -1.8142 -0.6833
 5231SOL    HW227327   1.014   0.158  16.582  1.1242  2.4460 -1.2199
 5232SOL     OW27328   0.441   4.152   3.020  0.0516 -0.0389  0.0128
 5232SOL    HW127329   0.503   4.143   2.948 -0.4798 -1.0722 -0.3199
 5232SOL    HW227330   0.487   4.097   3.084  1.8079 -0.4472 -1.5925
 5233SOL     OW27331   2.621   3.608  10.515  0.2099 -0.5286 -0.0188
 5233SOL    HW127332   2.689   3.664  10.552  0.0362  0.5839 -1.4134
 5233SOL    HW227333   2.594   3.548  10.585  1.2854 -1.0337 -0.0363
 5234SOL     OW27334   3.632   2.337  14.307  0.0201  0.2186 -0.0032
 5234SOL    HW127335   3.695   2.291  14.363 -2.2381 -1.5236  1.0830
 5234SOL    HW227336   3.572   2.372  14.372  1.0714 -0.2222  1.2068
 5235SOL     OW27337   0.234   1.075  11.153  0.4086 -0.2592  0.3081
 5235SOL    HW127338   0.200   1.159  11.184 -0.3042 -0.4861  0.1355
 5235SOL    HW227339   0.296   1.110  11.089 -1.7435  2.5999 -0.2097
 5236SOL     OW27340   0.041   0.054  14.944  0.1724 -0.1832  0.5357
 5236SOL    HW127341   4.690   0.074  14.976 -0.4143 -0.6892 -0.7532
 5236SOL    HW227342   0.026   4.696  14.944 -0.3580 -0.0944 -1.3581
 5237SOL     OW27343   2.472   1.126   5.758 -0.3480 -0.2080  0.2976
 5237SOL    HW127344   2.491   1.038   5.790 -0.2837 -0.3821 -0.2241
 5237SOL    HW227345   2.502   1.173   5.836  1.1341 -0.3637 -0.1842
 5238SOL     OW27346   1.422   3.305  10.798  0.0531  0.1527 -0.0917
 5238SOL    HW127347   1.438   3.216  10.768  0.4459  0.4460 -0.7597
 5238SOL    HW227348   1.456   3.343  10.717  2.2058  0.2441  0.8628
 5239SOL     OW27349   2.027   0.062   1.786  0.0007  0.5048  0.1524
 5239SOL    HW127350   1.999   0.012   1.863 -1.2366  1.2507  0.1883
 5239SOL    HW227351   2.121   0.043   1.788 -0.2078 -0.4716  0.6533
 5240SOL     OW27352   2.035   4.482   6.478  0.1418  0.7439  0.5286
 5240SOL    HW127353   1.971   4.547   6.450 -0.9252 -0.5778 -0.1214
 5240SOL    HW227354   1.969   4.444   6.536 -0.3296 -0.5212 -0.8418
 5241SOL     OW27355   0.351   1.846   2.717  0.0247 -0.4124 -0.0031
 5241SOL    HW127356   0.445   1.841   2.702  0.0989 -2.7688  1.2408
 5241SOL    HW227357   0.331   1.901   2.641  1.8299  1.5888  0.9882
 5242SOL     OW27358   0.973   2.935   6.935 -0.5027 -0.1175  0.0866
 5242SOL    HW127359   1.053   2.987   6.934 -0.4024 -0.2614  0.8540
 5242SOL    HW227360   1.008   2.853   6.970 -0.2475 -0.4424 -0.9113
 5243SOL     OW27361   3.085   3.716   3.878  0.3508  0.1181  0.2709
 5243SOL    HW127362   3.061   3.801   3.841 -2.8592 -1.1513 -0.5361
 5243SOL    HW227363   3.057   3.657   3.808  3.1842 -0.2898 -0.5177
 5244SOL     OW27364   0.137   4.126   5.196  0.1072 -0.5239  0.7840
 5244SOL    HW127365   0.217   4.152   5.242 -0.7894 -0.0324  2.0750
 5244SOL    HW227366   0.130   4.042   5.241 -0.8955  0.1524  1.9148
 5245SOL     OW27367   3.675   3.041   0.901  0.2251  0.3207 -0.6321
 5245SOL    HW127368   3.595   3.093   0.905 -0.6064 -0.9429 -0.7016
 5245SOL    HW227369   3.703   3.031   0.992  0.9948 -0.1552 -0.9219
 5246SOL     OW27370   0.312   0.947   1.741 -0.1462 -0.2254 -0.0586
 5246SOL    HW127371   0.265   1.017   1.695  1.8228  0.4034 -1.0841
 5246SOL    HW227372   0.345   0.994   1.818  1.0666 -2.4837  0.7839
 5247SOL     OW27373   0.884   3.336   8.452 -0.3040 -0.6406  0.2358
 5247SOL    HW127374   0.956   3.285   8.416 -2.4099 -2.8340 -0.8310
 5247SOL    HW227375   0.928   3.404   8.504 -0.8463 -1.3906  1.6661
 5248SOL     OW27376   3.020   0.859   4.035  0.4349 -0.4118 -0.3766
 5248SOL    HW127377   3.035   0.776   3.991  2.9406 -0.1472  0.0190
 5248SOL    HW227378   3.103   0.905   4.025  1.3200 -1.6029  1.5399
 5249SOL     OW27379   2.193   2.211   9.171 -0.2964 -0.2675  0.0861
 5249SOL    HW127380   2.157   2.174   9.090  1.0238 -1.9035  0.2486
 5249SOL    HW227381   2.164   2.143   9.232  1.0550 -0.5730  0.3974
 5250SOL     OW27382   3.415   4.567  12.915 -0.5385  0.4695 -0.4321
 5250SOL    HW127383   3.393   4.480  12.947  3.5551 -1.2063 -2.1730
 5250SOL    HW227384   3.439   4.613  12.996  1.6166 -3.2446  1.0524
 5251SOL     OW27385   2.327   2.665   0.706  0.2987  0.4061 -0.2689
 5251SOL    HW127386   2.391   2.595   0.709 -0.7488 -0.6082 -1.5714
 5251SOL    HW227387   2.379   2.746   0.705  1.8685 -0.6190 -0.4857
 5252SOL     OW27388   1.153   3.747   2.277  0.0547  0.3699  0.1008
 5252SOL    HW127389   1.104   3.695   2.341 -1.1110 -0.9835 -1.8807
 5252SOL    HW227390   1.085   3.809   2.251  0.5389  1.2326  0.9268
 5253SOL     OW27391   4.547   1.137  15.638 -0.1212 -0.3181  0.0561
 5253SOL    HW127392   4.551   1.189  15.719 -0.4909 -1.8722  1.0827
 5253SOL    HW227393   4.486   1.191  15.588 -2.4775 -1.8881  1.2095
 5254SOL     OW27394   0.552   4.678   1.504 -0.0762 -0.1929 -0.6523
 5254SOL    HW127395   0.615   4.625   1.551 -0.0971 -0.0525 -0.4675
 5254SOL    HW227396   0.596   0.025   1.493 -1.0126  0.4513  0.5008
 5255SOL     OW27397   0.652   0.040   4.325  0.1969 -0.0841 -0.0815
 5255SOL    HW127398   0.623   0.053   4.416  0.1848 -0.1906 -0.0700
 5255SOL    HW227399   0.617   4.687   4.320  1.8642 -0.6522 -1.4757
 5256SOL     OW27400   0.484   2.694   8.401 -0.0479  0.2274  0.2222
 5256SOL    HW127401   0.497   2.607   8.362  2.4136  0.0667  1.3959
 5256SOL    HW227402   0.497   2.748   8.324 -2.1274  0.1921 -0.1341
 5257SOL     OW27403   2.715   3.436  13.672  0.3325  0.3419 -0.0523
 5257SOL    HW127404   2.758   3.480  13.599 -3.1123  0.9975 -1.7178
 5257SOL    HW227405   2.782   3.383  13.714 -0.1560  0.0065  0.3052
 5258SOL     OW27406   0.195   1.851  15.591 -0.2675  0.2903  0.0599
 5258SOL    HW127407   0.186   1.768  15.544  0.5176  0.4465 -0.3750
 5258SOL    HW227408   0.206   1.919  15.523  0.0532 -0.3427 -0.5257
 5259SOL     OW27409   1.248   1.379   0.073 -0.9112  0.2367  0.2910
 5259SOL    HW127410   1.281   1.466   0.051  1.6416 -1.3090 -1.9096
 5259SOL    HW227411   1.202   1.399   0.154  0.1170 -0.5399  1.0530
 5260SOL     OW27412   0.608   0.302  15.398 -0.2174 -0.5758 -0.2243
 5260SOL    HW127413   0.676   0.243  15.367 -0.4064 -0.6286 -0.5331
 5260SOL    HW227414   0.541   0.234  15.407  0.9381 -1.6943 -0.0424
 5261SOL     OW27415   1.017   2.559   8.121 -0.2941 -0.5835 -0.0877
 5261SOL    HW127416   1.002   2.636   8.176  0.4932 -0.7899  0.4167
 5261SOL    HW227417   0.939   2.569   8.067 -0.6298 -0.2891  0.4462
 5262SOL     OW27418   0.115   0.898  10.471  0.3263  0.0631  0.9004
 5262SOL    HW127419   0.173   0.971  10.450  0.0925  0.0283  0.1058
 5262SOL    HW227420   0.117   0.839  10.395 -2.2878 -0.6907  1.3968
 5263SOL     OW27421   0.481   0.529   8.414  0.4003 -0.2529 -0.3065
 5263SOL    HW127422   0.447   0.458   8.468 -0.3148 -0.0096 -0.4466
 5263SOL    HW227423   0.474   0.498   8.324  2.7858  0.2393 -0.6802
 5264SOL     OW27424   3.900   1.970   6.603 -0.6087 -0.3416 -0.2218
 5264SOL    HW127425   3.865   2.047   6.649  0.8024  0.0658  0.1921
 5264SOL    HW227426   3.832   1.903   6.602 -1.0605  0.1008  0.3889
 5265SOL     OW27427   3.026   3.190   6.444  0.0847  0.3149  0.3247
 5265SOL    HW127428   3.041   3.284   6.457  2.2966  0.3032 -2.1097
 5265SOL    HW227429   2.970   3.154   6.512 -0.0407 -0.9170 -0.4254
 5266SOL     OW27430   0.252   1.495   3.611  0.0095  0.1106  0.7028
 5266SOL    HW127431   0.157   1.497   3.626 -0.6133  0.5056 -3.1522
 5266SOL    HW227432   0.264   1.582   3.573  3.0358 -1.2630 -1.5309
 5267SOL     OW27433   3.880   2.389  15.750  0.0945  0.1460  0.1842
 5267SOL    HW127434   3.883   2.357  15.840 -0.4611  0.8060  0.4328
 5267SOL    HW227435   3.968   2.421  15.731  0.0542 -0.8773 -1.7525
 5268SOL     OW27436   1.148   1.924   4.471  0.5460 -0.1646  0.6764
 5268SOL    HW127437   1.058   1.948   4.491  0.7821  0.4151  1.0452
 5268SOL    HW227438   1.148   1.850   4.410 -3.3735 -0.5153  1.1214
 5269SOL     OW27439   2.173   2.451   8.138 -0.5687 -0.6869 -0.7789
 5269SOL    HW127440   2.124   2.532   8.127  0.5190 -0.1568 -1.7666
 5269SOL    HW227441   2.173   2.429   8.045  0.6377  0.5099 -1.0594
 5270SOL     OW27442   3.125   1.407   9.215 -0.0835 -0.1242  0.2473
 5270SOL    HW127443   3.103   1.434   9.126 -2.5355 -0.2942  0.8042
 5270SOL    HW227444   3.141   1.488   9.263 -2.8344  0.7526 -0.3400
 5271SOL     OW27445   3.061   1.746  12.282 -0.1264 -0.1716  0.1869
 5271SOL    HW127446   3.130   1.680  12.270  1.0433  0.9050  0.9931
 5271SOL    HW227447   3.094   1.804  12.351  0.7382  1.2147 -1.3857
 5272SOL     OW27448   0.326   2.401   1.957 -0.0516 -0.1825 -0.1174
 5272SOL    HW127449   0.273   2.479   1.939  0.7444  1.0558  2.7886
 5272SOL    HW227450   0.405   2.449   1.984 -1.1124  1.7867 -0.5398
 5273SOL     OW27451   2.127   3.028   5.937  0.4491  0.4051  0.0083
 5273SOL    HW127452   2.119   3.116   5.901 -2.7539  1.5058  3.3369
 5273SOL    HW227453   2.124   2.978   5.856 -0.8945 -0.3098  0.4990
 5274SOL     OW27454   1.716   0.334   4.336  0.7209 -0.8127  0.6476
 5274SOL    HW127455   1.762   0.362   4.257 -2.3262  0.6611 -0.6322
 5274SOL    HW227456   1.671   0.262   4.291  2.5757 -1.9385  0.6013
 5275SOL     OW27457   0.671   2.427  17.190 -0.2267 -0.9375 -0.4585
 5275SOL    HW127458   0.740   2.472  17.238  0.0099 -0.8346 -0.8911
 5275SOL    HW227459   0.706   2.437  17.101 -0.2449 -2.8931 -0.6819
 5276SOL     OW27460   0.143   0.683  15.939  0.1381  0.1068  0.4446
 5276SOL    HW127461   0.054   0.646  15.941 -0.0803  0.7721  2.7688
 5276SOL    HW227462   0.135   0.760  15.996  0.5463 -0.0290  0.6891
 5277SOL     OW27463   4.232   3.567   2.738 -0.1499  0.2997 -0.3975
 5277SOL    HW127464   4.325   3.588   2.724  0.1858 -2.7473 -2.9483
 5277SOL    HW227465   4.232   3.481   2.697 -1.1451  0.1371 -0.0377
 5278SOL     OW27466   2.917   0.981   3.426  0.0008  0.4405  0.0733
 5278SOL    HW127467   2.920   0.887   3.404  3.0159  0.7925 -1.1588
 5278SOL    HW227468   2.930   0.978   3.521 -1.3720  1.1065  0.2660
 5279SOL     OW27469   4.300   2.249  12.476 -0.2677 -0.5019 -0.1761
 5279SOL    HW127470   4.336   2.292  12.399  1.1669 -1.0746  0.1879
 5279SOL    HW227471   4.263   2.171  12.436  1.7398 -1.1893 -0.6426
 5280SOL     OW27472   2.813   1.032   5.904  0.0702  0.2709  0.1151
 5280SOL    HW127473   2.747   1.098   5.928 -0.3931 -0.2380  0.2416
 5280SOL    HW227474   2.767   0.960   5.947  1.4963 -0.0684  1.0711
 5281SOL     OW27475   0.097   2.207   8.275 -0.4112  0.4160 -0.2301
 5281SOL    HW127476   0.054   2.125   8.300 -0.5874  0.8695  1.0016
 5281SOL    HW227477   0.088   2.199   8.180  0.3325  1.2761 -0.3692
 5282SOL     OW27478   2.164   1.510  10.086 -0.3932 -0.3341 -0.1402
 5282SOL    HW127479   2.258   1.502  10.101 -0.8414 -0.2084  2.7646
 5282SOL    HW227480   2.153   1.432  10.032  1.7509  0.3223 -1.5280
 5283SOL     OW27481   1.080   1.474   2.577 -0.1777 -0.2290  0.1975
 5283SOL    HW127482   1.079   1.481   2.672 -0.5893 -2.2478  0.3320
 5283SOL    HW227483   1.165   1.510   2.552 -0.1362 -0.3067  0.2282
 5284SOL     OW27484   1.940   4.082  17.311 -0.0851 -0.4666  0.0555
 5284SOL    HW127485   1.864   4.139  17.324  0.5089 -0.0210  1.6106
 5284SOL    HW227486   1.977   4.072  17.399 -0.5125  2.1403  0.5135
 5285SOL     OW27487   3.016   0.492  17.602  0.1886  0.5503 -0.0628
 5285SOL    HW127488   2.971   0.446  17.531 -2.1805  0.8402  1.2609
 5285SOL    HW227489   3.105   0.509  17.572  1.3612 -2.2297  1.7802
 5286SOL     OW27490   2.201   0.419  14.479  0.0436  0.2798 -0.0371
 5286SOL    HW127491   2.176   0.487  14.541 -1.2996 -1.2227  1.0568
 5286SOL    HW227492   2.274   0.383  14.529 -0.9581 -1.5494  0.0798
 5287SOL     OW27493   3.504   1.180   2.690  0.3668  0.4176 -0.0289
 5287SOL    HW127494   3.539   1.092   2.699  1.9473  1.1249  0.9152
 5287SOL    HW227495   3.581   1.230   2.719 -0.0136  1.1555 -0.2753
 5288SOL     OW27496   4.287   0.811  12.772  0.0841  0.3639 -0.0525
 5288SOL    HW127497   4.266   0.887  12.718 -2.3581 -0.0527  0.3032
 5288SOL    HW227498   4.198   0.779  12.786 -0.3100  2.0207  1.1742
 5289SOL     OW27499   4.729   4.717   8.325  0.0022 -0.1664  0.2272
 5289SOL    HW127500   4.734   4.659   8.401 -0.5393 -0.4777  0.0251
 5289SOL    HW227501   0.076   4.706   8.280  0.3871  0.3265  0.8151
 5290SOL     OW27502   4.226   0.290   5.200 -0.2412 -0.3413 -0.4251
 5290SOL    HW127503   4.215   0.344   5.279  2.2613 -1.5306  0.7391
 5290SOL    HW227504   4.145   0.242   5.186  0.6963 -1.7495 -1.0410
 5291SOL     OW27505   3.059   0.799   1.452  0.6742 -0.5767  0.1282
 5291SOL    HW127506   3.055   0.798   1.356  0.5817 -1.6589  0.1364
 5291SOL    HW227507   3.034   0.887   1.479  0.1406 -0.6158 -0.2282
 5292SOL     OW27508   1.358   3.769   6.493 -0.3206 -0.1973  0.2107
 5292SOL    HW127509   1.448   3.739   6.504  0.6135  2.5212 -0.0085
 5292SOL    HW227510   1.312   3.692   6.527  0.9432 -1.3606 -0.7105
 5293SOL     OW27511   1.390   3.418   5.979  0.0380 -0.3473 -0.1038
 5293SOL    HW127512   1.329   3.492   5.971 -2.2042 -2.1344  0.2505
 5293SOL    HW227513   1.351   3.360   5.913  0.2975 -3.0312  2.1008
 5294SOL     OW27514   0.694   0.869  12.040 -0.1557  0.0080  0.1237
 5294SOL    HW127515   0.782   0.877  12.005  0.1929  1.6325  1.3840
 5294SOL    HW227516   0.698   0.779  12.074 -0.9063  0.1311  0.5431
 5295SOL     OW27517   0.842   2.757   8.219  0.0083  0.0958  0.0487
 5295SOL    HW127518   0.759   2.777   8.177 -1.7158 -4.5079  1.2634
 5295SOL    HW227519   0.829   2.777   8.311  0.7309  0.6637  0.0320
 5296SOL     OW27520   0.049   3.955   5.682 -0.6820 -0.1065 -0.3676
 5296SOL    HW127521   0.096   3.983   5.760  1.3891 -1.0037 -1.2837
 5296SOL    HW227522   0.113   3.910   5.626 -1.8804 -0.4128 -1.4932
 5297SOL     OW27523   1.068   4.243   3.558 -0.3557 -0.6304  0.2931
 5297SOL    HW127524   1.106   4.192   3.486 -0.3693 -0.4983  0.1928
 5297SOL    HW227525   0.999   4.182   3.587  0.8796 -2.2053 -0.0742
 5298SOL     OW27526   4.626   2.889   9.871  0.6149 -0.0795 -0.6166
 5298SOL    HW127527   4.561   2.958   9.885 -2.6666 -3.7364  2.2469
 5298SOL    HW227528   4.659   2.893   9.782  0.2234  1.1686 -0.7050
 5299SOL     OW27529   3.430   3.915   1.844 -0.1315  0.6042  0.5278
 5299SOL    HW127530   3.381   3.836   1.867 -0.2362  1.1730  2.2904
 5299SOL    HW227531   3.381   3.983   1.892  0.1136  0.0293  1.5876
 5300SOL     OW27532   2.530   0.817   4.575  0.3932  0.0111  0.7672
 5300SOL    HW127533   2.453   0.870   4.595  0.9405  1.0358  0.1908
 5300SOL    HW227534   2.596   0.863   4.627  0.4296  0.3710  0.4060
 5301SOL     OW27535   1.615   1.935   7.312  0.3209  0.1624 -0.2775
 5301SOL    HW127536   1.636   1.842   7.301  1.4686  0.5945 -1.7852
 5301SOL    HW227537   1.659   1.959   7.394 -2.0000 -2.3278  1.7054
 5302SOL     OW27538   4.496   2.638   9.867  0.2261  0.6338  0.2792
 5302SOL    HW127539   4.528   2.570   9.927 -3.7201 -0.8269  0.7688
 5302SOL    HW227540   4.555   2.712   9.877  0.1828  0.5533  1.2029
 5303SOL     OW27541   0.306   4.350   7.180 -0.1122 -0.5754  0.3317
 5303SOL    HW127542   0.266   4.427   7.139 -2.9055 -1.5552  1.1895
 5303SOL    HW227543   0.384   4.378   7.227  0.4010 -0.8395 -0.3785
 5304SOL     OW27544   4.302   1.180   3.935 -0.0344  0.2965  0.1438
 5304SOL    HW127545   4.255   1.237   3.996 -1.0031 -0.6832  0.3182
 5304SOL    HW227546   4.347   1.138   4.008 -0.0740 -1.8469 -1.0729
 5305SOL     OW27547   4.579   0.027   4.284  0.0130  0.3354  0.3619
 5305SOL    HW127548   4.583   4.685   4.229 -1.2221  0.2529  0.3783
 5305SOL    HW227549   4.603   4.730   4.370  0.4386  1.8515  0.8405
 5306SOL     OW27550   3.898   1.027   2.242  0.0853 -0.0162  0.2352
 5306SOL    HW127551   3.898   0.966   2.168 -0.8217  1.3060 -0.8457
 5306SOL    HW227552   3.920   0.966   2.312  0.6714 -0.3325 -0.2154
 5307SOL     OW27553   4.002   1.912  17.707 -0.3626 -0.3318 -0.3576
 5307SOL    HW127554   4.031   1.937   0.049  1.5470 -2.3799 -0.3952
 5307SOL    HW227555   4.038   1.981  17.651 -1.2704 -0.4324 -1.0613
 5308SOL     OW27556   0.167   1.397   5.723 -0.4885 -0.5777 -0.7410
 5308SOL    HW127557   0.197   1.343   5.796 -0.8494 -0.0442 -0.1914
 5308SOL    HW227558   0.238   1.374   5.663  0.5433  0.7938 -0.0387
 5309SOL     OW27559   3.394   0.808   5.348 -0.6978  0.2998 -0.0628
 5309SOL    HW127560   3.453   0.755   5.401  1.1986  1.2360 -1.2564
 5309SOL    HW227561   3.398   0.754   5.269 -0.7496 -0.6267  0.5726
 5310SOL     OW27562   1.078   0.194   6.429  0.0764  0.5454 -0.1134
 5310SOL    HW127563   0.992   0.232   6.447 -0.6865 -0.6241 -1.2315
 5310SOL    HW227564   1.135   0.252   6.479  2.8676 -2.9021  0.6657
 5311SOL     OW27565   3.097   1.718   9.277 -0.1947  0.1041 -0.0356
 5311SOL    HW127566   3.119   1.763   9.358 -0.5571  3.0931 -1.5836
 5311SOL    HW227567   3.008   1.686   9.289  0.4535 -2.0902 -1.0370
 5312SOL     OW27568   0.197   1.522  11.041 -0.2536  0.4500 -0.3392
 5312SOL    HW127569   0.108   1.499  11.015 -0.8359  1.2804  0.9673
 5312SOL    HW227570   0.211   1.484  11.128 -2.7789  0.5416  0.0909
 5313SOL     OW27571   3.064   3.598  16.505 -0.3754 -0.3995  0.0848
 5313SOL    HW127572   3.112   3.520  16.476  1.2104  0.9619 -0.9234
 5313SOL    HW227573   3.048   3.634  16.418 -0.4462  2.4115  1.2580
 5314SOL     OW27574   2.859   1.914  15.193  0.0333 -0.0319 -0.0587
 5314SOL    HW127575   2.806   1.842  15.159 -0.6632  0.9402 -1.0427
 5314SOL    HW227576   2.847   1.903  15.287 -2.6068  0.8012 -0.2929
 5315SOL     OW27577   1.509   3.796  11.571  0.0788 -0.1922 -0.4169
 5315SOL    HW127578   1.416   3.807  11.589 -0.0279 -3.4369  1.0090
 5315SOL    HW227579   1.505   3.752  11.486  0.2324 -1.2662  0.1381
 5316SOL     OW27580   3.722   0.086  14.396 -0.2016 -0.2750  0.0903
 5316SOL    HW127581   3.654   0.018  14.397  0.5668 -1.0551 -0.3753
 5316SOL    HW227582   3.665   0.148  14.350  1.2818  1.6874  0.9191
 5317SOL     OW27583   4.243   4.127   7.554  0.3467  0.0975  0.5355
 5317SOL    HW127584   4.279   4.141   7.641  2.4812  1.7812 -0.6307
 5317SOL    HW227585   4.278   4.041   7.534  0.0496 -0.1730  1.1750
 5318SOL     OW27586   3.300   1.199   6.585 -0.3750  0.3211 -0.9133
 5318SOL    HW127587   3.316   1.110   6.555 -1.9761 -0.7070  1.2376
 5318SOL    HW227588   3.333   1.200   6.675  0.5760  0.0988 -1.2670
 5319SOL     OW27589   2.433   1.212   7.643 -0.0029  0.2421  0.2237
 5319SOL    HW127590   2.410   1.119   7.636 -0.0921  0.0568  3.2072
 5319SOL    HW227591   2.346   1.246   7.664 -0.4918 -1.4336  0.9807
 5320SOL     OW27592   4.174   0.752   2.536 -0.5253  0.2519 -0.2418
 5320SOL    HW127593   4.202   0.764   2.626 -0.7631  1.3140 -0.3153
 5320SOL    HW227594   4.254   0.759   2.485  0.2130 -1.7038  0.6295
 5321SOL     OW27595   3.507   3.961   7.362 -0.1821 -0.1874  0.5236
 5321SOL    HW127596   3.504   4.057   7.355  0.0545 -0.1461  0.9998
 5321SOL    HW227597   3.528   3.923   7.277 -0.0621  2.4719 -0.6526
 5322SOL     OW27598   0.427   3.922   6.486 -0.1212 -0.3115  0.1746
 5322SOL    HW127599   0.360   3.870   6.443 -1.6724  2.1720 -0.4297
 5322SOL    HW227600   0.409   4.013   6.460  0.2398 -0.7959 -1.7901
 5323SOL     OW27601   2.274   3.853   1.773  0.2974 -0.1618 -0.3688
 5323SOL    HW127602   2.278   3.915   1.846  0.7052  0.7092 -1.1202
 5323SOL    HW227603   2.182   3.869   1.751  0.1232  0.7607  0.9995
 5324SOL     OW27604   4.407   1.174  11.449  0.4671 -0.1722  0.0083
 5324SOL    HW127605   4.450   1.260  11.444  3.8502 -1.8680 -0.2054
 5324SOL    HW227606   4.462   1.133  11.515 -1.3504 -1.5253  0.6983
 5325SOL     OW27607   0.804   2.867  10.362  0.6446  0.2695  0.1339
 5325SOL    HW127608   0.844   2.870  10.275  0.5298  0.5794  0.0926
 5325SOL    HW227609   0.729   2.817  10.329  0.8147  0.4261 -0.4995
 5326SOL     OW27610   4.192   3.962  15.008 -0.3322 -0.1741  0.1712
 5326SOL    HW127611   4.153   3.989  14.925 -0.5103 -4.0643 -1.0000
 5326SOL    HW227612   4.117   3.939  15.063  1.7691 -1.4108  2.5450
 5327SOL     OW27613   0.001   2.658   2.720 -0.1430 -0.3272 -0.1299
 5327SOL    HW127614   0.048   2.737   2.748 -0.0342 -1.4871  3.0344
 5327SOL    HW227615   0.039   2.635   2.635 -0.4064 -0.7973 -0.1200
 5328SOL     OW27616   3.410   0.032   6.963 -0.1385  0.4881 -0.6294
 5328SOL    HW127617   3.363   0.049   6.881  0.5440 -0.2349 -1.1724
 5328SOL    HW227618   3.475   0.101   6.965  1.3612 -0.9523  0.4684
 5329SOL     OW27619   3.070   3.691  14.855  0.6394  0.1285  0.1551
 5329SOL    HW127620   3.094   3.620  14.796  0.2831  1.4875 -1.6311
 5329SOL    HW227621   3.017   3.639  14.916  0.0059  1.4696  0.7575
 5330SOL     OW27622   0.154   4.007   7.303 -0.0939  0.1029 -0.4834
 5330SOL    HW127623   0.107   4.088   7.284  1.5170  1.0302 -0.5018
 5330SOL    HW227624   0.083   3.944   7.289 -1.0944  0.7911  1.5269
 5331SOL     OW27625   2.096   0.669  13.917 -0.6290  0.6826  0.1306
 5331SOL    HW127626   2.104   0.742  13.855 -3.3149 -0.7615 -1.8889
 5331SOL    HW227627   2.164   0.611  13.881 -1.3204 -1.0027  1.5567
 5332SOL     OW27628   3.291   3.763   8.395 -0.1426 -0.4397 -0.3744
 5332SOL    HW127629   3.241   3.804   8.466  0.4522  1.8768 -1.2644
 5332SOL    HW227630   3.364   3.724   8.443  0.8325 -1.6352 -2.8586
 5333SOL     OW27631   3.297   3.516   1.785  0.7202 -0.3490  0.6945
 5333SOL    HW127632   3.337   3.438   1.825  1.2300 -0.1126  0.6424
 5333SOL    HW227633   3.367   3.561   1.738 -1.6220  0.5983 -1.8729
 5334SOL     OW27634   2.026   4.392   2.009  0.2578 -0.4161  0.7735
 5334SOL    HW127635   1.995   4.302   2.017 -1.8920  0.3609  1.1940
 5334SOL    HW227636   2.121   4.380   2.016  0.7443  2.1926 -1.4125
 5335SOL     OW27637   3.348   2.840   8.610  0.1037 -0.0493 -0.4093
 5335SOL    HW127638   3.269   2.878   8.571  1.3221  1.2493 -1.6224
 5335SOL    HW227639   3.309   2.779   8.672 -0.8654  0.8362 -0.1412
 5336SOL     OW27640   0.535   1.222   3.914 -0.6879 -0.3451  0.0155
 5336SOL    HW127641   0.591   1.297   3.896  0.1891 -0.8940  0.4173
 5336SOL    HW227642   0.453   1.249   3.874 -1.8306  0.8747  3.2949
 5337SOL     OW27643   2.861   0.316   5.389 -0.0268 -0.6286 -0.3441
 5337SOL    HW127644   2.919   0.286   5.459  1.2385  1.0702 -0.6641
 5337SOL    HW227645   2.806   0.242   5.363  2.2364 -2.7717  0.8905
 5338SOL     OW27646   1.947   2.581   4.834  0.5361  0.5195 -0.0777
 5338SOL    HW127647   2.027   2.530   4.818  0.3360  0.5897 -1.3530
 5338SOL    HW227648   1.985   2.659   4.875  3.3432 -0.0691 -1.4855
 5339SOL     OW27649   3.412   0.627   3.837 -1.3575  0.4696  0.0168
 5339SOL    HW127650   3.504   0.651   3.845 -1.3734  1.4666 -2.8564
 5339SOL    HW227651   3.390   0.596   3.925  0.7466 -1.2544 -0.0791
 5340SOL     OW27652   1.992   2.362   3.772 -0.3784 -0.1893 -0.2701
 5340SOL    HW127653   2.000   2.266   3.770  3.3032  0.0898  1.1476
 5340SOL    HW227654   2.030   2.397   3.692 -2.0510  1.2654 -0.4149
 5341SOL     OW27655   2.993   0.767   4.318 -0.4143 -0.2298  0.1876
 5341SOL    HW127656   2.992   0.783   4.224  1.1763  0.7780  0.3311
 5341SOL    HW227657   2.932   0.834   4.350 -0.7949 -0.0235 -0.9885
 5342SOL     OW27658   3.314   1.309  11.368  0.4839  0.3184 -0.5048
 5342SOL    HW127659   3.369   1.272  11.299  0.4026  1.1986 -1.0445
 5342SOL    HW227660   3.291   1.231  11.419  1.4728 -0.1177 -0.7212
 5343SOL     OW27661   1.830   3.519   7.324 -0.4901 -0.3086  0.0584
 5343SOL    HW127662   1.915   3.525   7.367 -0.4524  1.2693 -0.2180
 5343SOL    HW227663   1.776   3.519   7.403  1.3571  0.7771  1.3234
 5344SOL     OW27664   0.926   0.379   8.359  0.0524 -0.5149  0.1993
 5344SOL    HW127665   0.894   0.453   8.309  2.0298 -1.2194 -2.1116
 5344SOL    HW227666   0.974   0.322   8.299 -0.0639 -0.2661 -0.1281
 5345SOL     OW27667   1.561   1.255   2.149 -0.3426  0.2692 -0.1371
 5345SOL    HW127668   1.599   1.248   2.062 -2.4740 -3.2395 -0.7563
 5345SOL    HW227669   1.515   1.172   2.158 -0.3462  0.2577 -0.2700
 5346SOL     OW27670   1.199   0.110   2.089  0.0576 -0.6078 -0.0587
 5346SOL    HW127671   1.187   0.171   2.162  0.4149 -1.3754  0.6448
 5346SOL    HW227672   1.111   0.096   2.053 -0.1932 -0.1429  0.3627
 5347SOL     OW27673   1.918   4.726   7.038  0.4543 -0.2990  0.6146
 5347SOL    HW127674   1.979   4.654   7.026  0.9549  0.1197  0.6837
 5347SOL    HW227675   1.929   0.046   6.962 -1.8077  0.1338  0.5889
 5348SOL     OW27676   3.239   3.071   9.376 -0.6628 -0.4477  0.5416
 5348SOL    HW127677   3.233   2.992   9.430  3.6938 -2.2132 -1.5393
 5348SOL    HW227678   3.271   3.132   9.442 -0.6776  1.2852 -1.0753
 5349SOL     OW27679   2.169   1.772   9.091  0.3030  0.1755 -0.0986
 5349SOL    HW127680   2.125   1.712   9.151  0.6273  0.2582  0.2270
 5349SOL    HW227681   2.257   1.771   9.129 -0.0324 -3.1172  0.5933
 5350SOL     OW27682   2.606   0.550   8.544  0.1615  0.2188 -0.0975
 5350SOL    HW127683   2.660   0.623   8.574 -0.5788  0.6562  0.1860
 5350SOL    HW227684   2.634   0.547   8.453 -1.2746  1.3967 -0.5694
 5351SOL     OW27685   2.721   2.785  16.810 -0.6088 -0.1583 -0.0258
 5351SOL    HW127686   2.794   2.722  16.804 -0.5794 -0.0930 -0.3466
 5351SOL    HW227687   2.738   2.821  16.897  0.8692  1.7863 -1.1312
 5352SOL     OW27688   4.232   4.075  15.409  0.2678  0.0395  0.5447
 5352SOL    HW127689   4.315   4.117  15.431  0.6572  0.7421 -2.1957
 5352SOL    HW227690   4.184   4.061  15.490  1.6940  0.0913  1.3946
 5353SOL     OW27691   2.104   1.986  10.985  0.5714 -0.5586 -0.0306
 5353SOL    HW127692   2.018   1.969  11.025 -0.5533  2.6416 -1.0468
 5353SOL    HW227693   2.157   1.916  11.021  0.7487 -0.4806 -0.1404
 5354SOL     OW27694   3.835   3.849   4.065  0.3908  0.2710  0.1665
 5354SOL    HW127695   3.803   3.935   4.092  0.3091  0.6332 -1.0681
 5354SOL    HW227696   3.890   3.882   3.993 -2.3323  1.4018 -1.3789
 5355SOL     OW27697   3.609   3.152  11.141 -0.2827  0.1930  0.3855
 5355SOL    HW127698   3.703   3.168  11.138 -0.2777  0.4324  1.7289
 5355SOL    HW227699   3.608   3.070  11.191 -0.7716 -1.0517 -1.6777
 5356SOL     OW27700   0.234   1.307   8.251 -0.5553  0.3811 -0.0753
 5356SOL    HW127701   0.276   1.224   8.228 -1.1175  0.4931 -1.5138
 5356SOL    HW227702   0.312   1.359   8.268 -1.7749  1.8090  1.0612
 5357SOL     OW27703   0.554   1.737  15.628  0.6041 -0.3011  0.0651
 5357SOL    HW127704   0.565   1.831  15.643  1.0012 -0.3604  0.1495
 5357SOL    HW227705   0.646   1.711  15.635  0.1092 -1.4477  2.3650
 5358SOL     OW27706   3.624   3.192   5.435 -0.0931 -0.2418 -0.8857
 5358SOL    HW127707   3.567   3.120   5.462  0.3522 -0.6128 -0.9309
 5358SOL    HW227708   3.666   3.152   5.358  2.8471 -0.7876  1.0165
 5359SOL     OW27709   3.455   1.028   8.435 -0.4411  0.6559 -0.0675
 5359SOL    HW127710   3.500   1.067   8.360 -0.9659  2.8250  0.7453
 5359SOL    HW227711   3.463   0.936   8.412  2.0409  0.7928  0.2291
 5360SOL     OW27712   2.726   1.888   3.539 -0.8150 -0.3970 -0.1649
 5360SOL    HW127713   2.639   1.926   3.545  0.1555  1.8818 -0.4129
 5360SOL    HW227714   2.709   1.809   3.489  1.2644 -1.1067  0.2348
 5361SOL     OW27715   4.078   3.987  15.606  1.3327  0.0650 -0.4905
 5361SOL    HW127716   4.011   3.924  15.579  1.4116  0.3324 -1.3010
 5361SOL    HW227717   4.016   4.045  15.649  0.5572 -0.8481 -0.3716
 5362SOL     OW27718   2.571   2.784  11.530  0.1065  0.2787 -0.1228
 5362SOL    HW127719   2.541   2.846  11.596  1.0996 -0.1335  0.7164
 5362SOL    HW227720   2.568   2.701  11.579  1.6636  0.1883 -0.2033
 5363SOL     OW27721   4.177   0.101  11.204 -0.1200 -0.1285  0.1504
 5363SOL    HW127722   4.262   0.076  11.167 -0.3631  1.6249 -1.5744
 5363SOL    HW227723   4.112   0.093  11.134  1.0287 -1.4259 -0.7821
 5364SOL     OW27724   1.797   0.245   3.862 -0.9414 -0.1317  0.5310
 5364SOL    HW127725   1.783   0.315   3.927  0.0408  1.4547 -0.9639
 5364SOL    HW227726   1.705   0.223   3.850 -1.3032  1.4603  0.2990
 5365SOL     OW27727   0.667   0.119   1.703 -0.5559 -0.2854 -0.3195
 5365SOL    HW127728   0.590   0.173   1.683 -0.8424 -0.0305  1.5276
 5365SOL    HW227729   0.705   0.112   1.615  0.7209 -0.0960  0.2180
 5366SOL     OW27730   0.763   2.483   6.565 -0.0548  0.0182 -0.5661
 5366SOL    HW127731   0.713   2.427   6.506 -0.0013  1.0781 -1.6080
 5366SOL    HW227732   0.691   2.545   6.577 -0.0304 -0.0599  0.0260
 5367SOL     OW27733   1.809   3.405   4.376  0.0089  0.0285  0.4106
 5367SOL    HW127734   1.771   3.428   4.461 -1.1903  1.8217 -0.6202
 5367SOL    HW227735   1.855   3.486   4.352 -0.5442  0.2266  0.0289
 5368SOL     OW27736   0.708   3.645   5.896 -0.5787 -0.0363 -0.6058
 5368SOL    HW127737   0.696   3.738   5.877 -1.2589 -0.0238 -0.0751
 5368SOL    HW227738   0.700   3.609   5.807  2.4301 -0.9061 -0.5541
 5369SOL     OW27739   2.651   0.893   8.649 -0.2759 -0.4644 -0.2785
 5369SOL    HW127740   2.721   0.845   8.605  1.0490  1.3870 -0.1796
 5369SOL    HW227741   2.685   0.981   8.633 -2.3701  0.5492  0.9301
 5370SOL     OW27742   0.527   2.493   7.574 -0.0322 -0.3923 -0.3405
 5370SOL    HW127743   0.433   2.481   7.562 -0.1272 -0.0898  0.1477
 5370SOL    HW227744   0.529   2.588   7.579 -0.4349 -0.3415 -1.1157
 5371SOL     OW27745   4.264   1.489  12.372 -0.5063  0.4410  0.1756
 5371SOL    HW127746   4.272   1.484  12.277 -0.9276 -0.9846  0.2204
 5371SOL    HW227747   4.277   1.584  12.374  2.2674  0.0589 -0.4548
 5372SOL     OW27748   0.681   0.281   5.224 -0.0538  0.6996 -0.1271
 5372SOL    HW127749   0.760   0.237   5.190 -0.8430 -0.2984 -0.6571
 5372SOL    HW227750   0.658   0.344   5.156  0.8777  0.4368 -0.6938
 5373SOL     OW27751   1.104   3.016   3.242  0.4375 -0.1790 -0.6000
 5373SOL    HW127752   1.061   2.969   3.314 -1.0403  1.4045 -0.4628
 5373SOL    HW227753   1.127   2.952   3.175  0.4792 -1.0744  0.2590
 5374SOL     OW27754   4.165   1.650   2.622 -0.2697  0.8450 -0.1278
 5374SOL    HW127755   4.219   1.671   2.545  0.2164 -3.7570 -1.0801
 5374SOL    HW227756   4.169   1.554   2.615 -2.1486  0.7112  0.8386
 5375SOL     OW27757   3.601   1.044   3.541  0.4014 -0.0489  0.5988
 5375SOL    HW127758   3.659   0.996   3.601  3.0905  2.0048 -0.3500
 5375SOL    HW227759   3.649   1.045   3.458 -0.2541 -1.8355  0.1940
 5376SOL     OW27760   2.532   4.282   1.822  0.0541 -0.1360 -1.0837
 5376SOL    HW127761   2.596   4.243   1.881  0.1953  1.2724 -0.3054
 5376SOL    HW227762   2.586   4.330   1.759  0.1840 -0.8725 -1.5318
 5377SOL     OW27763   0.036   2.484   4.958  0.3590 -0.5341 -0.3625
 5377SOL    HW127764   0.102   2.423   4.989  0.1164 -0.7996 -0.3745
 5377SOL    HW227765   0.003   2.518   5.042  0.4526 -1.8862  0.2108
 5378SOL     OW27766   4.666   1.736   6.808 -0.7352 -0.3630 -0.0166
 5378SOL    HW127767   4.704   1.759   6.724 -0.2061  0.5422  0.4690
 5378SOL    HW227768   4.579   1.775   6.804 -0.4733  0.0084 -2.0801
 5379SOL     OW27769   1.912   1.638   7.325  0.2809 -0.2673  0.5437
 5379SOL    HW127770   1.933   1.554   7.367 -1.2380 -2.2419 -2.5918
 5379SOL    HW227771   1.817   1.632   7.328  0.2731 -1.9035 -2.6975
 5380SOL     OW27772   2.295   0.332   1.673  0.4769  0.2283  0.1390
 5380SOL    HW127773   2.339   0.411   1.641  1.3815 -0.4828 -0.3620
 5380SOL    HW227774   2.265   0.293   1.592  1.7549  0.9681 -0.6927
 5381SOL     OW27775   2.881   3.512   3.955 -0.5321  0.1199 -0.0012
 5381SOL    HW127776   2.925   3.427   3.946 -2.1534 -0.5318 -1.6998
 5381SOL    HW227777   2.892   3.545   3.866  0.5922 -0.0223  0.0920
 5382SOL     OW27778   4.260   1.848   6.528 -0.2415  0.0119 -0.2303
 5382SOL    HW127779   4.330   1.830   6.466  1.2094 -1.4212  1.7906
 5382SOL    HW227780   4.182   1.820   6.481 -1.6108  1.4119  1.1964
 5383SOL     OW27781   2.788   4.380   4.944  0.2826 -0.0944  0.5038
 5383SOL    HW127782   2.862   4.360   5.001  0.9802 -0.7829 -0.6614
 5383SOL    HW227783   2.831   4.374   4.859 -1.4647 -0.4456 -0.3476
 5384SOL     OW27784   1.125   1.480   4.920  0.1785  0.1720 -0.0040
 5384SOL    HW127785   1.126   1.479   5.015  1.9857 -0.0535 -0.0193
 5384SOL    HW227786   1.204   1.532   4.905  0.4895  0.2238  1.8237
 5385SOL     OW27787   1.281   3.193   7.885  0.0066  0.3366 -0.1828
 5385SOL    HW127788   1.220   3.267   7.885 -0.1557  0.2019 -0.9707
 5385SOL    HW227789   1.226   3.125   7.923 -1.1944  0.3549 -1.8931
 5386SOL     OW27790   2.490   1.746   5.741  0.0134 -0.5242 -0.4352
 5386SOL    HW127791   2.483   1.716   5.650 -1.2063 -1.3109 -0.0956
 5386SOL    HW227792   2.400   1.729   5.769 -0.2584 -1.0157 -1.5816
 5387SOL     OW27793   4.483   2.711   2.747  0.1037 -0.1059  0.0983
 5387SOL    HW127794   4.470   2.758   2.829 -0.3157  1.4725 -0.8773
 5387SOL    HW227795   4.578   2.708   2.734  0.0872 -0.1150 -0.0282
 5388SOL     OW27796   3.238   2.096   7.187 -0.3737  0.1788 -0.1971
 5388SOL    HW127797   3.299   2.130   7.252 -0.2984  2.3905 -1.4032
 5388SOL    HW227798   3.151   2.105   7.224 -0.6203  0.0327 -0.7332
 5389SOL     OW27799   2.186   2.869   2.642 -0.2868  0.7445  0.8949
 5389SOL    HW127800   2.137   2.950   2.643  1.0240  1.5246  1.7050
 5389SOL    HW227801   2.182   2.834   2.731 -0.6536  0.8897  0.9353
 5390SOL     OW27802   3.562   0.161   6.128  0.3164 -0.3713 -0.2472
 5390SOL    HW127803   3.466   0.163   6.136  0.1400 -1.8636 -1.8066
 5390SOL    HW227804   3.591   0.243   6.089  0.0128  0.5924  1.5792
 5391SOL     OW27805   4.168   3.668   5.956 -0.1478  0.2827 -0.0856
 5391SOL    HW127806   4.250   3.664   5.907 -0.3398  0.4823 -0.4288
 5391SOL    HW227807   4.119   3.736   5.908  2.7509  1.1683 -1.7695
 5392SOL     OW27808   1.210   4.035   7.758  0.0147 -0.3493 -0.1741
 5392SOL    HW127809   1.231   4.124   7.729  0.4098  0.0753  1.3936
 5392SOL    HW227810   1.261   3.990   7.692 -0.0262  1.5340 -1.4869
 5393SOL     OW27811   0.393   1.209   9.463  0.1129  0.0428 -0.0287
 5393SOL    HW127812   0.402   1.303   9.478 -0.2592  0.1968 -0.7651
 5393SOL    HW227813   0.307   1.204   9.421 -0.6384  0.3446  1.4686
 5394SOL     OW27814   3.318   1.795  15.841  0.1477 -0.6779  0.3551
 5394SOL    HW127815   3.323   1.719  15.784  2.2194  0.1889 -0.6074
 5394SOL    HW227816   3.395   1.850  15.825  0.2156 -0.8278  0.1711
 5395SOL     OW27817   3.479   0.572   0.327  0.7039 -0.3225 -0.1428
 5395SOL    HW127818   3.542   0.507   0.296 -1.5297 -0.5564 -4.2825
 5395SOL    HW227819   3.395   0.535   0.298  1.1885 -1.2137 -0.4321
 5396SOL     OW27820   1.620   3.662   1.490  0.4172 -0.1339 -0.8082
 5396SOL    HW127821   1.615   3.698   1.402 -0.1233 -0.1847 -0.8008
 5396SOL    HW227822   1.531   3.627   1.490 -0.4167  1.9780 -0.3030
 5397SOL     OW27823   2.442   0.448   3.328 -0.4950 -0.0892  0.0019
 5397SOL    HW127824   2.364   0.471   3.278 -1.6310 -2.1698  0.8232
 5397SOL    HW227825   2.512   0.463   3.265  1.5792  0.0877  2.3769
 5398SOL     OW27826   4.021   1.163   0.556  0.2367  0.4677  0.0360
 5398SOL    HW127827   3.969   1.201   0.627 -1.2746 -2.7243  0.6221
 5398SOL    HW227828   4.090   1.229   0.549  0.1307  0.2737 -2.9581
 5399SOL     OW27829   1.400   2.091   2.870  0.1331 -0.0684 -0.1294
 5399SOL    HW127830   1.495   2.102   2.871  0.1481 -0.0228 -1.7111
 5399SOL    HW227831   1.375   2.181   2.893 -0.5514 -0.1751 -0.4651
 5400SOL     OW27832   0.037   2.912  10.413  0.0953 -0.2029 -0.0880
 5400SOL    HW127833   0.039   2.888  10.321  2.4439  1.3227 -0.4192
 5400SOL    HW227834   4.683   2.886  10.430 -0.4678  1.4103 -0.6568
 5401SOL     OW27835   2.839   0.326   4.579 -0.2613  0.2235 -0.3376
 5401SOL    HW127836   2.919   0.274   4.576  0.6523  1.5788  0.7811
 5401SOL    HW227837   2.861   0.400   4.522  1.8040  0.9451  1.4178
 5402SOL     OW27838   0.523   0.831  15.274  0.0540  0.2261  0.1367
 5402SOL    HW127839   0.574   0.854  15.352 -0.9152  4.7303 -0.5439
 5402SOL    HW227840   0.530   0.736  15.280  0.1320  0.1894 -0.5765
 5403SOL     OW27841   1.348   2.198   5.973 -0.1072 -0.8178 -0.2068
 5403SOL    HW127842   1.271   2.237   5.931  0.6117 -0.0892 -0.8503
 5403SOL    HW227843   1.333   2.226   6.063  4.6258  0.9673  0.0332
 5404SOL     OW27844   4.707   0.643   5.887 -0.1194  0.0824  0.4414
 5404SOL    HW127845   4.631   0.680   5.842  1.2776  2.0490 -0.2623
 5404SOL    HW227846   4.658   0.575   5.935 -1.5673  2.2314  1.9922
 5405SOL     OW27847   1.411   3.512   3.509  0.3507 -0.4432 -0.1136
 5405SOL    HW127848   1.501   3.477   3.510 -0.0220 -1.3905  0.5218
 5405SOL    HW227849   1.425   3.602   3.541 -4.9418 -0.8852  3.4690
 5406SOL     OW27850   0.698   3.985   4.529 -0.1369 -0.0876  0.6491
 5406SOL    HW127851   0.742   3.989   4.443  1.8424 -1.5208  1.6043
 5406SOL    HW227852   0.662   3.897   4.534 -1.3385  0.2930 -1.1832
 5407SOL     OW27853   2.919   3.915   7.745  0.2814 -0.5916 -0.1546
 5407SOL    HW127854   3.014   3.905   7.753  0.5699  1.0984 -1.3909
 5407SOL    HW227855   2.916   3.942   7.653 -0.3380  0.5479  0.1918
 5408SOL     OW27856   2.478   2.166  17.101  0.3923 -0.1939 -0.2417
 5408SOL    HW127857   2.409   2.230  17.119  1.3885  1.1926 -1.4222
 5408SOL    HW227858   2.513   2.191  17.016  1.8778 -0.0157  0.4291
 5409SOL     OW27859   2.444   4.287   1.226  0.2697 -0.0886  0.0156
 5409SOL    HW127860   2.516   4.331   1.180 -0.1409 -0.4727 -0.9934
 5409SOL    HW227861   2.373   4.349   1.210  2.1573  1.5134 -2.2707
 5410SOL     OW27862   1.510   2.953   1.808 -0.5809 -0.4430  0.2154
 5410SOL    HW127863   1.417   2.971   1.798 -0.5239  0.0771  0.6059
 5410SOL    HW227864   1.527   2.984   1.719  1.6594 -0.8455  0.5109
 5411SOL     OW27865   3.580   0.234   4.275 -0.1705 -0.4336  0.0587
 5411SOL    HW127866   3.530   0.307   4.312  1.1822  0.0410  0.9673
 5411SOL    HW227867   3.607   0.252   4.186  0.4332  1.8970  0.7271
 5412SOL     OW27868   3.925   0.455   1.350 -0.1745 -0.6657 -0.3461
 5412SOL    HW127869   3.891   0.539   1.320  2.0767  0.5992  0.6060
 5412SOL    HW227870   3.988   0.443   1.279  0.2956 -0.7165  0.0813
 5413SOL     OW27871   2.568   1.048   8.358  0.0159  0.2940  0.1095
 5413SOL    HW127872   2.476   1.058   8.333  0.5200 -0.5063 -1.9944
 5413SOL    HW227873   2.570   1.095   8.442 -0.8898  0.4955  0.0148
 5414SOL     OW27874   2.781   3.423   3.132  0.6255  0.0362 -0.4644
 5414SOL    HW127875   2.717   3.403   3.063 -2.1771  2.1351  1.5096
 5414SOL    HW227876   2.775   3.518   3.123 -2.8705  0.0612  1.8764
 5415SOL     OW27877   2.340   3.603   4.664 -0.8301 -0.5764  0.1891
 5415SOL    HW127878   2.429   3.627   4.691 -0.2894  0.8574 -2.8933
 5415SOL    HW227879   2.359   3.611   4.571  1.9326  1.1180  0.8997
 5416SOL     OW27880   4.202   2.417   2.394 -0.1701  0.5113  0.0378
 5416SOL    HW127881   4.269   2.468   2.438  1.4601 -0.4953 -1.2777
 5416SOL    HW227882   4.125   2.474   2.395 -0.3845  0.2268 -0.0327
 5417SOL     OW27883   4.353   3.660  11.814 -0.5009  0.3458  0.2724
 5417SOL    HW127884   4.411   3.683  11.887  0.3849 -0.8474 -0.0690
 5417SOL    HW227885   4.409   3.619  11.748 -0.6354  2.5288 -1.2315
 5418SOL     OW27886   4.338   2.740   7.269 -0.9810 -0.5242 -0.5360
 5418SOL    HW127887   4.375   2.781   7.347 -0.0140 -2.3052 -0.0505
 5418SOL    HW227888   4.247   2.770   7.260 -0.0878  2.6613  0.9934
 5419SOL     OW27889   2.134   1.127   2.941 -0.0675 -0.8393  0.3279
 5419SOL    HW127890   2.061   1.187   2.956  0.7225  0.1566  0.1896
 5419SOL    HW227891   2.091   1.052   2.899 -1.8930  0.2821  0.1957
 5420SOL     OW27892   1.525   0.560   4.821  0.1210 -0.5720 -0.3802
 5420SOL    HW127893   1.461   0.565   4.892 -0.7881  1.2361 -1.3407
 5420SOL    HW227894   1.592   0.496   4.846  2.7572  2.3467 -0.0191
 5421SOL     OW27895   1.625   3.872   4.949 -0.0992 -0.4941  0.2422
 5421SOL    HW127896   1.702   3.912   4.909 -1.6749 -0.8727 -3.2032
 5421SOL    HW227897   1.661   3.812   5.014 -1.5703  0.2053  1.6833
 5422SOL     OW27898   3.856   3.769   2.044  0.0130  0.2895  0.2427
 5422SOL    HW127899   3.872   3.862   2.063 -1.6867  0.8355 -1.0144
 5422SOL    HW227900   3.902   3.735   2.120  1.9758  0.6334 -0.7910
 5423SOL     OW27901   1.918   2.315   9.147 -0.6066  0.1550 -0.3154
 5423SOL    HW127902   1.844   2.298   9.204  0.5128 -1.1454  0.7655
 5423SOL    HW227903   1.996   2.269   9.178 -0.4271  0.3354 -0.4997
 5424SOL     OW27904   0.161   0.124  12.925 -0.0764  0.0841  0.2895
 5424SOL    HW127905   0.211   0.104  13.004  0.9260  1.2087 -0.0544
 5424SOL    HW227906   0.109   0.192  12.969  1.5850  1.4180  0.1957
 5425SOL     OW27907   4.471   3.566   2.027  0.2230 -0.7353  0.8209
 5425SOL    HW127908   4.387   3.520   2.024 -1.1491  1.8099 -0.0011
 5425SOL    HW227909   4.459   3.612   2.110  3.1741  0.6824  0.4540
 5426SOL     OW27910   2.247   4.716   7.393 -0.2115  0.3435 -0.4860
 5426SOL    HW127911   2.318   4.695   7.454  1.0373 -2.2605 -2.7944
 5426SOL    HW227912   2.184   4.645   7.403  0.9925 -0.6545 -0.0188
 5427SOL     OW27913   3.069   3.780   4.596  0.3737 -0.2101 -0.3108
 5427SOL    HW127914   3.127   3.856   4.591  0.1988 -0.1236 -1.0143
 5427SOL    HW227915   3.063   3.759   4.689  2.5498 -0.4198 -0.2002
 5428SOL     OW27916   1.506   4.651   5.854  0.2553 -0.3279 -0.9700
 5428SOL    HW127917   1.461   4.585   5.801 -1.0833 -1.4169  1.5609
 5428SOL    HW227918   1.586   4.663   5.803  0.2691 -1.0355 -1.1173
 5429SOL     OW27919   1.434   2.604   1.823 -0.4698 -0.2358 -0.6368
 5429SOL    HW127920   1.376   2.677   1.799 -2.1576 -0.7679  1.7958
 5429SOL    HW227921   1.484   2.603   1.741  1.9929  0.6552  0.8629
 5430SOL     OW27922   3.229   1.135  15.123  0.1279  0.5304 -0.1535
 5430SOL    HW127923   3.319   1.110  15.103 -0.2415 -0.0517 -1.0579
 5430SOL    HW227924   3.237   1.222  15.162  0.7078 -0.3666  1.7270
 5431SOL     OW27925   4.659   1.277   3.659  0.1795 -0.0816 -0.2366
 5431SOL    HW127926   4.598   1.225   3.607  1.2519 -2.0619  0.5163
 5431SOL    HW227927   4.631   1.257   3.748  0.4824 -0.9739 -0.3502
 5432SOL     OW27928   3.622   3.972   3.623 -0.0999  0.7047  0.6318
 5432SOL    HW127929   3.668   3.889   3.609  1.4571  1.8795 -1.2766
 5432SOL    HW227930   3.645   4.015   3.541  0.9639  0.8921  1.0319
 5433SOL     OW27931   1.649   2.309  11.779  0.6701  0.7328 -0.3638
 5433SOL    HW127932   1.669   2.221  11.811  2.2180  1.2168 -0.0184
 5433SOL    HW227933   1.733   2.332  11.738  0.4311  4.0441  0.9962
 5434SOL     OW27934   2.738   0.889  12.322 -0.1577 -0.0798  0.0229
 5434SOL    HW127935   2.667   0.942  12.286  2.7848  2.4328 -2.1150
 5434SOL    HW227936   2.797   0.879  12.248  1.6258  1.3395  1.2284
 5435SOL     OW27937   3.782   1.324   5.287  0.1159 -0.5536  0.2549
 5435SOL    HW127938   3.829   1.396   5.245  0.4322 -2.0561 -1.9877
 5435SOL    HW227939   3.850   1.260   5.311  1.0784 -0.5089 -2.3174
 5436SOL     OW27940   1.673   0.964   5.046  0.1379 -0.4879  0.2336
 5436SOL    HW127941   1.698   1.055   5.055 -0.1892 -0.5678  1.8858
 5436SOL    HW227942   1.588   0.966   5.002  0.2318 -0.1262  0.0739
 5437SOL     OW27943   1.656   1.033   5.899  0.3968  0.3724 -0.0113
 5437SOL    HW127944   1.608   0.955   5.874 -1.2110  1.0031  1.0596
 5437SOL    HW227945   1.591   1.093   5.937  0.1518  1.7561 -2.6143
 5438SOL     OW27946   3.760   0.746   4.836 -0.6717  0.0477  0.0391
 5438SOL    HW127947   3.801   0.689   4.902 -0.5009 -1.0122 -0.9818
 5438SOL    HW227948   3.759   0.827   4.887  0.4524  0.7529 -1.0565
 5439SOL     OW27949   2.284   4.594   3.781 -0.7800 -0.2526 -0.2084
 5439SOL    HW127950   2.238   4.526   3.830  0.3540 -0.0987  1.0809
 5439SOL    HW227951   2.372   4.599   3.817 -0.9381 -0.8984  0.2614
 5440SOL     OW27952   3.159   3.761   2.787 -0.2311 -0.2087  0.0010
 5440SOL    HW127953   3.225   3.775   2.854 -1.0017 -0.3585  0.7978
 5440SOL    HW227954   3.209   3.744   2.708 -1.0357 -0.6890 -0.4108
 5441SOL     OW27955   2.423   4.464   9.212 -0.0002 -0.8764 -0.3705
 5441SOL    HW127956   2.448   4.543   9.165 -2.6768 -0.7167 -1.5369
 5441SOL    HW227957   2.506   4.433   9.249  0.8234  0.4528 -1.1071
 5442SOL     OW27958   3.134   4.646   9.067  0.1551 -0.6460 -0.4499
 5442SOL    HW127959   3.054   4.623   9.021  0.0738 -0.4488 -0.4079
 5442SOL    HW227960   3.159   4.565   9.110  0.0843 -0.6628 -0.4397
 5443SOL     OW27961   3.997   1.832   8.879 -0.4952  0.9456 -0.1372
 5443SOL    HW127962   4.091   1.835   8.895 -0.2680  0.2458 -1.3863
 5443SOL    HW227963   3.956   1.889   8.944  1.7657 -0.3930  2.4191
 5444SOL     OW27964   1.444   2.870   7.815  0.5792  0.2834 -0.1125
 5444SOL    HW127965   1.466   2.931   7.886  1.5731 -1.1063  0.7757
 5444SOL    HW227966   1.389   2.804   7.857  2.6833 -0.8938  0.8240
 5445SOL     OW27967   3.922   0.302   3.189  0.6507 -0.1196 -0.1331
 5445SOL    HW127968   3.933   0.397   3.187  0.2599 -0.0663  0.1651
 5445SOL    HW227969   3.835   0.283   3.153  0.6788  0.0229 -0.2771
 5446SOL     OW27970   4.401   3.416   5.001 -0.1197 -0.6373  0.1462
 5446SOL    HW127971   4.331   3.403   4.937  0.7132 -0.0281 -0.8677
 5446SOL    HW227972   4.353   3.445   5.079 -0.5168 -0.2318 -0.2534
 5447SOL     OW27973   0.883   3.529   0.077 -0.5805 -0.0811  0.7091
 5447SOL    HW127974   0.920   3.441   0.084 -0.0420  0.0966 -0.0155
 5447SOL    HW227975   0.924   3.557  17.741 -2.9007  1.7762  0.1758
 5448SOL     OW27976   0.757   3.662  15.444  0.3140 -0.1737 -0.5966
 5448SOL    HW127977   0.684   3.716  15.414  0.7622  1.8441  1.9970
 5448SOL    HW227978   0.829   3.719  15.416 -0.3558  0.6777 -0.5675
 5449SOL     OW27979   0.308   3.015   4.918 -0.2632  0.2701 -0.1224
 5449SOL    HW127980   0.352   3.080   4.863  0.9501  1.3026  2.0873
 5449SOL    HW227981   0.263   3.070   4.981  1.2110  1.4831 -0.1388
 5450SOL     OW27982   0.786   1.821   8.078  0.5303 -0.1668  0.3037
 5450SOL    HW127983   0.851   1.792   8.142 -0.9315  1.6947  2.6274
 5450SOL    HW227984   0.745   1.888   8.133  1.7007  1.7676 -1.1742
 5451SOL     OW27985   3.030   2.825   9.799  0.2183 -0.4237  0.5125
 5451SOL    HW127986   2.952   2.878   9.816  1.0138  1.4559 -1.6533
 5451SOL    HW227987   3.001   2.737   9.821  0.9770 -1.2424 -1.8782
 5452SOL     OW27988   2.974   0.736  16.748 -0.6242 -0.2859  0.3159
 5452SOL    HW127989   2.927   0.657  16.725  0.6503 -0.4281 -1.8236
 5452SOL    HW227990   2.971   0.736  16.844 -0.8064 -0.7635  0.3092
 5453SOL     OW27991   3.593   0.760   0.788 -0.1966  0.0209  0.0350
 5453SOL    HW127992   3.611   0.802   0.704 -0.1917 -3.7292 -1.8750
 5453SOL    HW227993   3.511   0.718   0.762  0.6205 -0.8951 -1.0860
 5454SOL     OW27994   0.125   3.025   2.091 -0.0303 -0.4332  0.6889
 5454SOL    HW127995   0.088   3.113   2.082 -2.3881 -1.4747  0.3482
 5454SOL    HW227996   0.194   3.029   2.025  1.6489  2.1752  2.6250
 5455SOL     OW27997   0.199   3.466   4.676 -0.0865 -0.1872  0.2227
 5455SOL    HW127998   0.272   3.483   4.736  0.2963 -3.5849  0.6881
 5455SOL    HW227999   0.146   3.546   4.672 -0.3694 -0.5612 -3.1374
 5456SOL     OW28000   2.002   0.004   8.420  0.4033 -0.0200  0.4242
 5456SOL    HW128001   2.047   4.716   8.501  4.2015  1.5122 -1.2226
 5456SOL    HW228002   2.062   0.068   8.382 -0.3137  0.4951  0.1544
 5457SOL     OW28003   1.769   3.460   2.127  0.3106  0.1393  0.4456
 5457SOL    HW128004   1.732   3.534   2.174 -1.4703 -0.8018  0.5268
 5457SOL    HW228005   1.787   3.495   2.040 -1.8019  2.6250  1.0029
 5458SOL     OW28006   2.233   3.394   8.100  0.3113  0.2486 -0.3534
 5458SOL    HW128007   2.270   3.463   8.155 -0.0042  0.1677 -0.0345
 5458SOL    HW228008   2.313   3.363   8.059  0.7561  0.9415  0.0002
 5459SOL     OW28009   4.459   2.439  12.337 -0.5592 -0.0820 -0.6857
 5459SOL    HW128010   4.449   2.487  12.255 -2.6212  1.0231  0.2040
 5459SOL    HW228011   4.537   2.474  12.380 -0.5775  0.0494 -0.7594
 5460SOL     OW28012   1.859   3.575   4.608 -0.4346 -0.0611  0.4948
 5460SOL    HW128013   1.808   3.532   4.676  3.3687 -2.4372  1.8648
 5460SOL    HW228014   1.929   3.607   4.665  1.5431 -0.6596 -1.5999
 5461SOL     OW28015   1.454   3.907   9.828  0.7997  0.3447 -0.4257
 5461SOL    HW128016   1.530   3.929   9.775  2.4304 -2.1586  0.8565
 5461SOL    HW228017   1.382   3.944   9.777  0.0858  0.7313  0.8548
 5462SOL     OW28018   0.573   0.622   3.432  0.0095 -0.0745 -0.2060
 5462SOL    HW128019   0.501   0.578   3.477  0.5548 -1.5676 -0.7810
 5462SOL    HW228020   0.637   0.642   3.501  2.5361 -0.3634 -2.4307
 5463SOL     OW28021   1.704   0.697   8.714 -0.4234 -0.4534 -1.1000
 5463SOL    HW128022   1.650   0.676   8.638  0.9231 -0.3744 -2.0862
 5463SOL    HW228023   1.671   0.779   8.751 -1.4716 -1.3181 -0.1408
 5464SOL     OW28024   1.030   2.291   6.351  0.1585  0.6418  0.0571
 5464SOL    HW128025   0.998   2.374   6.317 -0.6939 -0.2258 -1.2712
 5464SOL    HW228026   0.998   2.304   6.440  0.4228  0.1782  0.2208
 5465SOL     OW28027   1.568   1.937  10.646  0.6181 -0.6047 -0.0403
 5465SOL    HW128028   1.617   1.857  10.627 -1.3676 -2.2784  1.8687
 5465SOL    HW228029   1.555   1.926  10.740 -0.4795  0.5996 -0.0563
 5466SOL     OW28030   4.346   3.521   3.676 -0.0844 -0.5492  0.3216
 5466SOL    HW128031   4.267   3.484   3.716 -0.8267  1.6706  0.8589
 5466SOL    HW228032   4.317   3.494   3.589  3.9490 -0.7218 -0.9817
 5467SOL     OW28033   1.309   2.830   5.180  0.2403  0.3227 -0.3663
 5467SOL    HW128034   1.385   2.790   5.138  0.9785 -0.2445  1.4933
 5467SOL    HW228035   1.243   2.805   5.115  1.8274  2.1209 -2.6814
 5468SOL     OW28036   2.408   1.710  10.017  0.5650  0.0619  0.9525
 5468SOL    HW128037   2.364   1.696  10.101  0.6132 -1.0134  0.8103
 5468SOL    HW228038   2.347   1.772   9.979 -1.6423 -2.5060  0.2939
 5469SOL     OW28039   1.001   4.456   8.231 -0.0661 -0.7849  0.1812
 5469SOL    HW128040   1.059   4.384   8.253  0.5928 -0.3620 -0.1505
 5469SOL    HW228041   1.032   4.527   8.287  0.5479  0.0291 -1.1847
 5470SOL     OW28042   1.842   3.520   8.594  0.1282  0.0454 -0.1407
 5470SOL    HW128043   1.933   3.545   8.579 -0.1991  0.3958 -1.5047
 5470SOL    HW228044   1.799   3.600   8.623 -0.2485 -0.4698  0.7257
 5471SOL     OW28045   1.334   3.706  15.093  0.4094 -0.7219  0.4673
 5471SOL    HW128046   1.342   3.680  15.185 -1.4088 -1.2280  0.4813
 5471SOL    HW228047   1.253   3.666  15.061 -0.4551  2.0164 -0.7507
 5472SOL     OW28048   3.576   2.454  16.933  0.4164  0.4836 -0.3876
 5472SOL    HW128049   3.581   2.359  16.941 -1.4281  0.7040  3.2016
 5472SOL    HW228050   3.638   2.470  16.862 -1.4435  0.9422 -1.9078
 5473SOL     OW28051   0.314   3.209   7.193  0.3697 -0.5216 -0.3826
 5473SOL    HW128052   0.405   3.204   7.166  0.4517 -0.0559 -0.1965
 5473SOL    HW228053   0.274   3.237   7.111 -2.6515 -0.9576  0.9487
 5474SOL     OW28054   0.026   1.456   3.117  0.0382  0.1948  0.5743
 5474SOL    HW128055   0.042   1.421   3.205  2.4182  1.1542  0.5205
 5474SOL    HW228056   0.098   1.413   3.071 -0.8714 -0.7469  0.0159
 5475SOL     OW28057   2.263   4.428   2.375  0.2013  0.6027  0.0129
 5475SOL    HW128058   2.176   4.414   2.336  1.0449  1.1444 -2.0785
 5475SOL    HW228059   2.309   4.353   2.336 -0.6046  0.5912 -0.9190
 5476SOL     OW28060   4.546   1.610   2.501  0.2573  0.5681 -0.3784
 5476SOL    HW128061   4.456   1.640   2.486 -0.5401 -1.6179 -0.0006
 5476SOL    HW228062   4.584   1.683   2.551 -0.8666  0.2069  1.0021
 5477SOL     OW28063   0.145   0.904   4.624  0.6796  0.0154  0.3830
 5477SOL    HW128064   0.117   0.813   4.619 -2.2690  0.8901  0.9719
 5477SOL    HW228065   0.234   0.891   4.658 -0.0916 -0.5108  2.2167
 5478SOL     OW28066   2.200   0.926   6.816 -0.2369 -0.6622  0.3287
 5478SOL    HW128067   2.211   0.991   6.747  0.4924 -1.2650 -0.1200
 5478SOL    HW228068   2.115   0.891   6.791 -0.4336  0.2435 -0.2744
 5479SOL     OW28069   1.902   3.856   2.456 -0.3391  0.2016  0.0685
 5479SOL    HW128070   1.870   3.774   2.418  0.3985 -0.4885  0.9408
 5479SOL    HW228071   1.984   3.817   2.486 -0.0465 -0.2117 -1.2718
 5480SOL     OW28072   0.557   1.170   6.060 -0.3182  0.4244  0.1137
 5480SOL    HW128073   0.573   1.185   6.153 -0.5090 -0.2303  0.2479
 5480SOL    HW228074   0.501   1.092   6.060 -0.0530  0.2359  1.6203
 5481SOL     OW28075   2.139   1.589   7.777  0.2029 -0.1240  0.2199
 5481SOL    HW128076   2.046   1.587   7.756  0.4441 -0.0625 -0.8691
 5481SOL    HW228077   2.134   1.654   7.847  1.6748  1.0935 -0.7941
 5482SOL     OW28078   0.553   0.036   5.316  0.1175  0.3006 -0.2086
 5482SOL    HW128079   0.607   0.114   5.301 -1.5028  1.4378 -0.2200
 5482SOL    HW228080   0.587   0.003   5.398  2.1417  2.8317 -0.0131
 5483SOL     OW28081   2.659   0.823   5.977 -0.0875  0.7735 -0.3242
 5483SOL    HW128082   2.594   0.843   5.910  0.1657  2.0169 -0.2029
 5483SOL    HW228083   2.656   0.728   5.975 -0.5398  0.8126 -2.3456
 5484SOL     OW28084   1.118   1.541   6.645 -0.1289  0.3927  0.0153
 5484SOL    HW128085   1.171   1.592   6.706  1.9234  1.3346 -2.5251
 5484SOL    HW228086   1.133   1.595   6.567 -0.8009  0.8308  0.1980
 5485SOL     OW28087   4.064   3.716   8.665  0.0861  0.0547 -0.2619
 5485SOL    HW128088   3.991   3.720   8.603  1.2881  0.2906 -1.6520
 5485SOL    HW228089   4.083   3.806   8.690 -0.9459 -0.0397  0.8569
 5486SOL     OW28090   0.184   3.364   3.348  0.0694 -0.1193 -0.0330
 5486SOL    HW128091   0.100   3.354   3.394  0.0733 -0.2132 -0.0454
 5486SOL    HW228092   0.213   3.442   3.395  0.2286  0.3534 -0.9215
 5487SOL     OW28093   1.081   0.215  16.059  0.5882 -0.2255  0.4116
 5487SOL    HW128094   1.041   0.128  16.064 -0.5323  0.2574 -0.0489
 5487SOL    HW228095   1.115   0.220  15.970  2.0790  1.4586  1.0681
 5488SOL     OW28096   1.714   4.609   2.190  0.1365 -0.0654  0.3154
 5488SOL    HW128097   1.673   4.695   2.199  1.5035  0.8139 -1.8779
 5488SOL    HW228098   1.676   4.554   2.258  0.6262  0.6095  1.1344
 5489SOL     OW28099   4.362   2.815  16.828  0.0847 -0.0536  0.1586
 5489SOL    HW128100   4.341   2.884  16.765 -2.0710 -1.2313 -0.4086
 5489SOL    HW228101   4.430   2.854  16.884  0.0494  2.3777 -1.4494
 5490SOL     OW28102   3.618   1.128   7.140 -0.1199  0.3686 -0.6416
 5490SOL    HW128103   3.555   1.122   7.212  0.4027  2.1322 -0.0431
 5490SOL    HW228104   3.655   1.215   7.153  1.6442 -0.2976 -1.1436
 5491SOL     OW28105   0.897   1.347   2.971  0.1252  0.9283 -0.2154
 5491SOL    HW128106   0.816   1.322   3.016 -0.7751  0.3816 -2.1771
 5491SOL    HW228107   0.901   1.284   2.900 -2.0284  0.2303  0.2920
 5492SOL     OW28108   3.541   2.596  14.208  0.4589 -0.1985 -0.2898
 5492SOL    HW128109   3.475   2.603  14.138  1.7126  1.2425 -1.3395
 5492SOL    HW228110   3.611   2.540  14.173  2.5897  3.2403 -1.5893
 5493SOL     OW28111   1.692   1.001   8.432 -0.3782 -0.7491 -0.2720
 5493SOL    HW128112   1.777   1.039   8.457 -0.6848 -0.8565  0.9186
 5493SOL    HW228113   1.639   1.010   8.511  0.6889  2.3191  0.0859
 5494SOL     OW28114   2.809   1.207   9.007  0.4713 -0.1373  0.5843
 5494SOL    HW128115   2.852   1.290   9.027  0.4392  0.0188  0.0045
 5494SOL    HW228116   2.725   1.206   9.054  0.7474 -1.2641  1.0520
 5495SOL     OW28117   3.107   0.486   4.640 -0.1379 -0.2282 -0.3142
 5495SOL    HW128118   3.090   0.396   4.611 -0.1236 -0.6667  1.0229
 5495SOL    HW228119   3.024   0.512   4.678 -0.3642 -0.3772 -0.7147
 5496SOL     OW28120   3.850   1.955   4.958 -0.3778  0.6519 -0.7984
 5496SOL    HW128121   3.934   1.911   4.945 -0.4469 -0.0320  1.1404
 5496SOL    HW228122   3.794   1.877   4.962 -0.7111  0.9615  0.4963
 5497SOL     OW28123   2.518   0.869  13.076 -0.2058  0.1069  0.3932
 5497SOL    HW128124   2.595   0.884  13.130 -0.4534 -1.3493  1.1681
 5497SOL    HW228125   2.558   0.904  12.997  0.6454 -1.8541 -0.0432
 5498SOL     OW28126   0.931   0.058  10.322 -0.3013 -0.3222 -0.7648
 5498SOL    HW128127   0.869   0.033  10.253 -2.6567 -0.5537  1.3928
 5498SOL    HW228128   1.009   0.003  10.322  1.0947  1.7048 -0.8362
 5499SOL     OW28129   1.480   4.221   4.916  0.8209  0.3345  0.0431
 5499SOL    HW128130   1.433   4.202   4.835  2.4220  1.7032 -1.2079
 5499SOL    HW228131   1.570   4.220   4.884  0.6601 -3.7573 -0.2829
 5500SOL     OW28132   3.125   0.156   9.371  0.1132 -0.3014 -0.3872
 5500SOL    HW128133   3.191   0.162   9.302  4.1758  0.3026  3.5250
 5500SOL    HW228134   3.180   0.121   9.441 -0.4101 -0.9536 -0.3003
 5501SOL     OW28135   3.624   2.904   5.610 -0.6015  0.1519 -0.7525
 5501SOL    HW128136   3.541   2.927   5.568 -0.1504  1.0219 -1.1704
 5501SOL    HW228137   3.684   2.928   5.539  1.5382 -0.5095  0.8371
 5502SOL     OW28138   3.562   2.333   0.137 -0.9569  0.2662 -0.1623
 5502SOL    HW128139   3.599   2.302   0.220 -1.6127 -0.7866 -0.2615
 5502SOL    HW228140   3.640   2.375   0.100 -0.9372  1.3529  1.1180
 5503SOL     OW28141   2.138   0.159   6.616  0.2066 -0.1701 -0.4109
 5503SOL    HW128142   2.106   0.242   6.652 -1.6175  0.2849 -3.0477
 5503SOL    HW228143   2.165   0.189   6.530 -3.1852  0.7700 -1.1693
 5504SOL     OW28144   0.045   0.275   7.075 -0.5053 -0.2774  0.4953
 5504SOL    HW128145   0.030   0.327   6.996  1.1492  1.4992  1.3767
 5504SOL    HW228146   0.085   0.342   7.129  0.3918  0.6460 -1.3229
 5505SOL     OW28147   3.920   1.103   5.647 -0.3862 -0.8795  0.0994
 5505SOL    HW128148   3.838   1.127   5.606 -0.6659 -2.2926 -0.1558
 5505SOL    HW228149   3.968   1.186   5.650 -0.0106 -1.0717 -0.6198
 5506SOL     OW28150   3.984   1.810   2.465 -0.0533 -0.3996 -0.1746
 5506SOL    HW128151   4.068   1.814   2.512  0.8147 -1.2494 -1.6671
 5506SOL    HW228152   4.000   1.742   2.399 -1.3660 -1.6075  0.7513
 5507SOL     OW28153   2.036   0.913   9.674 -0.4236  0.2867  0.3076
 5507SOL    HW128154   2.120   0.937   9.712  0.2058 -0.9900 -0.2711
 5507SOL    HW228155   2.051   0.831   9.627 -1.3053  1.1998 -1.5793
 5508SOL     OW28156   4.082   4.073   4.259 -0.4339  0.0136 -0.2200
 5508SOL    HW128157   4.024   4.013   4.306 -2.3585  0.4119 -2.1275
 5508SOL    HW228158   4.122   4.023   4.188 -1.6981 -1.5729  0.1924
 5509SOL     OW28159   2.608   0.735  16.010  0.1678 -0.8447 -0.8952
 5509SOL    HW128160   2.618   0.759  16.102 -2.5030  0.4150 -0.9168
 5509SOL    HW228161   2.514   0.752  16.002  0.4495 -0.5512 -3.5735
 5510SOL     OW28162   2.979   3.543   5.577 -0.7218  0.4116  0.0716
 5510SOL    HW128163   2.987   3.466   5.521  0.7969 -0.7594  1.8679
 5510SOL    HW228164   3.009   3.611   5.517  0.5956 -0.1608  0.0703
 5511SOL     OW28165   3.224   1.780   6.894  0.2389  0.1640  0.1514
 5511SOL    HW128166   3.244   1.704   6.840  0.0016 -0.7356  1.3270
 5511SOL    HW228167   3.302   1.832   6.874  1.7603 -1.6945  1.3005
 5512SOL     OW28168   3.686   4.521   5.813  0.7665 -0.1551 -0.0169
 5512SOL    HW128169   3.647   4.481   5.735  0.2846  0.8599 -0.2905
 5512SOL    HW228170   3.614   4.518   5.876  0.7453  0.2295 -0.0251
 5513SOL     OW28171   4.564   4.426   6.779  0.4167 -0.7925 -0.3370
 5513SOL    HW128172   4.659   4.422   6.771  0.6342  0.4987  1.4769
 5513SOL    HW228173   4.562   4.392   6.869 -2.6714 -0.8161 -0.3945
 5514SOL     OW28174   0.307   3.002   3.010  0.0614  0.1113  0.3046
 5514SOL    HW128175   0.339   2.920   3.048 -1.0088 -0.0692  0.8380
 5514SOL    HW228176   0.358   3.022   2.932  0.7471 -0.2826  0.6558
 5515SOL     OW28177   0.267   3.842   5.800 -0.1142  0.3961  0.2064
 5515SOL    HW128178   0.328   3.848   5.873  1.7632 -0.9084 -1.2245
 5515SOL    HW228179   0.287   3.751   5.780 -1.8813  0.0029  0.2263
 5516SOL     OW28180   2.355   0.106   2.443  0.1866 -0.3608  0.2324
 5516SOL    HW128181   2.310   0.024   2.426  1.0811 -0.9986  0.9183
 5516SOL    HW228182   2.305   0.166   2.388  1.7398  1.1617  0.4695
 5517SOL     OW28183   4.059   0.837  13.150  0.5269  0.1321 -0.0568
 5517SOL    HW128184   4.083   0.928  13.164 -1.3337  0.3350  1.8021
 5517SOL    HW228185   4.066   0.804  13.240 -1.3192 -1.3967 -0.4691
 5518SOL     OW28186   1.166   0.278   1.007 -0.2882 -0.3995  0.2966
 5518SOL    HW128187   1.122   0.240   0.930 -0.8850 -0.9587  0.9119
 5518SOL    HW228188   1.115   0.234   1.075 -1.3928 -0.8133 -0.7960
 5519SOL     OW28189   1.116   4.668  14.390  0.2763  0.4346  0.1204
 5519SOL    HW128190   1.182   0.001  14.383  2.6378 -1.7553  0.4789
 5519SOL    HW228191   1.075   4.681  14.305  1.2869  0.5955 -0.3511
 5520SOL     OW28192   3.963   0.727  17.314 -0.6023  0.1514 -0.3627
 5520SOL    HW128193   3.891   0.788  17.331 -1.6286 -1.1536 -0.0391
 5520SOL    HW228194   3.922   0.673  17.246 -0.0492 -2.0717  1.0682
 5521SOL     OW28195   0.400   3.543   2.022  0.9277  0.4644 -0.7810
 5521SOL    HW128196   0.385   3.494   2.103  0.2054  0.2617 -1.0388
 5521SOL    HW228197   0.316   3.549   1.976 -0.8736  3.1621  2.7901
 5522SOL     OW28198   1.661   1.889   2.567 -0.6830  0.1059 -0.0106
 5522SOL    HW128199   1.741   1.853   2.607  0.0755  0.0206 -1.6274
 5522SOL    HW228200   1.689   1.968   2.520 -0.7834  0.1172 -0.0516
 5523SOL     OW28201   1.822   2.870   2.322  0.0238 -0.1720  0.6977
 5523SOL    HW128202   1.910   2.908   2.316 -0.3438  0.9189  2.0452
 5523SOL    HW228203   1.798   2.835   2.236 -0.0717 -0.4522  0.8396
 5524SOL     OW28204   1.585   1.807  16.706  0.4435  0.5840  0.0210
 5524SOL    HW128205   1.530   1.804  16.627 -2.3536 -2.0341  2.0502
 5524SOL    HW228206   1.529   1.758  16.766 -1.4233  2.7628  0.0575
 5525SOL     OW28207   3.011   3.457   2.831 -0.3156  0.1222 -0.2943
 5525SOL    HW128208   3.010   3.364   2.855 -0.2206 -0.1778 -1.4499
 5525SOL    HW228209   3.085   3.493   2.880 -1.1237  0.5183  0.6320
 5526SOL     OW28210   2.395   3.613   5.812 -0.1873 -0.5368 -0.2013
 5526SOL    HW128211   2.310   3.651   5.792 -1.9955 -4.3538  0.3190
 5526SOL    HW228212   2.394   3.543   5.746 -1.0351 -0.9977  0.3029
 5527SOL     OW28213   4.431   4.549   4.109 -0.2778  0.1230 -0.0393
 5527SOL    HW128214   4.360   4.610   4.091  0.9805  1.1101 -1.7072
 5527SOL    HW228215   4.443   4.500   4.027  4.4728 -1.5858  1.6531
 5528SOL     OW28216   1.486   3.461  14.104 -0.2160 -0.2564 -0.0519
 5528SOL    HW128217   1.547   3.400  14.146  0.5318 -0.4115 -1.3768
 5528SOL    HW228218   1.414   3.399  14.090 -1.8137  1.9269 -1.4740
 5529SOL     OW28219   1.297   4.273   3.711  0.4814 -0.2109  0.2308
 5529SOL    HW128220   1.374   4.288   3.656  1.0397  0.6204  1.2352
 5529SOL    HW228221   1.224   4.259   3.650 -1.5519  0.6082  2.4810
 5530SOL     OW28222   2.573   4.203   4.690 -0.1063  0.4079 -0.0109
 5530SOL    HW128223   2.511   4.273   4.708 -1.6855 -0.8007 -0.7190
 5530SOL    HW228224   2.639   4.265   4.659  1.0344  0.7274  3.0475
 5531SOL     OW28225   1.239   1.809   9.431 -0.3663 -0.5210 -0.5996
 5531SOL    HW128226   1.160   1.814   9.377  0.6755  0.2418 -2.0636
 5531SOL    HW228227   1.205   1.769   9.511 -0.2136  0.8328  0.1374
 5532SOL     OW28228   1.592   3.979   4.648 -0.0056  0.5215 -0.6222
 5532SOL    HW128229   1.536   3.903   4.661 -0.5146  0.7270 -1.6152
 5532SOL    HW228230   1.651   3.987   4.723 -1.0922 -2.8481  0.5597
 5533SOL     OW28231   4.388   1.228  16.266  0.0846  0.5500 -0.2000
 5533SOL    HW128232   4.477   1.213  16.235 -0.1155  0.7251 -0.8463
 5533SOL    HW228233   4.367   1.135  16.279  0.1207  0.5391 -0.2183
 5534SOL     OW28234   1.429   4.488   3.892  0.2254  0.0373  0.0503
 5534SOL    HW128235   1.450   4.423   3.825  1.3840  0.3715  0.0928
 5534SOL    HW228236   1.499   4.552   3.880  1.0147 -1.2605 -2.3460
 5535SOL     OW28237   3.865   3.943   3.041 -0.2256 -0.0184 -0.1184
 5535SOL    HW128238   3.770   3.935   3.026 -0.2248 -1.4300  0.5809
 5535SOL    HW228239   3.889   3.885   2.969  0.1768  0.2095 -0.1644
 5536SOL     OW28240   1.752   4.279  17.398  0.5555 -0.2871  0.1276
 5536SOL    HW128241   1.658   4.298  17.404  0.8037  1.1635 -0.6499
 5536SOL    HW228242   1.786   4.345  17.337 -1.8447  2.8830  2.2575
 5537SOL     OW28243   2.607   1.884   6.882  0.3824 -0.1670  0.3532
 5537SOL    HW128244   2.628   1.821   6.813  2.4025  0.4906  0.3522
 5537SOL    HW228245   2.512   1.891   6.876  0.4556  0.6226  0.0339
 5538SOL     OW28246   3.416   4.614   2.826  0.0200  0.3370 -0.2224
 5538SOL    HW128247   3.505   4.613   2.790  0.4602  0.7329  0.8493
 5538SOL    HW228248   3.416   4.674   2.900  0.2307 -0.1706  0.1933
 5539SOL     OW28249   1.724   0.784   3.839 -0.4972  0.0156 -0.1095
 5539SOL    HW128250   1.707   0.808   3.748 -0.5807  1.6403  0.3240
 5539SOL    HW228251   1.813   0.752   3.827 -0.6842  0.0260 -1.4948
 5540SOL     OW28252   0.926   3.678  10.027  0.5429 -0.3271 -0.3712
 5540SOL    HW128253   0.982   3.752  10.054  1.1289 -1.5528  1.7754
 5540SOL    HW228254   0.841   3.721  10.038 -0.0855 -1.6508 -0.0662
 5541SOL     OW28255   1.282   2.848   8.121  0.0072 -0.0725 -0.1755
 5541SOL    HW128256   1.217   2.832   8.190  2.9812 -0.1319  2.5782
 5541SOL    HW228257   1.363   2.885   8.156  1.1163 -2.6406 -0.0990
 5542SOL     OW28258   2.792   2.169   0.388 -0.2787  0.3237 -0.1996
 5542SOL    HW128259   2.874   2.217   0.398  0.3917 -1.0481  0.8076
 5542SOL    HW228260   2.816   2.077   0.397  0.1537  0.3713 -0.8450
 5543SOL     OW28261   1.888   1.423   2.227  0.6272  0.2669 -0.7999
 5543SOL    HW128262   1.849   1.510   2.228 -0.4896 -0.2044 -2.7034
 5543SOL    HW228263   1.825   1.378   2.283  0.6709  1.0481 -0.1423
 5544SOL     OW28264   3.342   3.445   7.406  0.0463 -0.1359  0.3558
 5544SOL    HW128265   3.398   3.402   7.343 -1.3234 -2.0291  0.4393
 5544SOL    HW228266   3.396   3.524   7.408  2.1286 -1.5829  0.3776
 5545SOL     OW28267   1.571   1.975   0.829 -0.0286  0.1819  0.3992
 5545SOL    HW128268   1.532   2.040   0.770  2.0422  0.1990 -0.9533
 5545SOL    HW228269   1.647   1.942   0.780  0.4014  1.7392  0.0056
 5546SOL     OW28270   3.444   1.146   7.346  0.0467  0.4779 -0.1320
 5546SOL    HW128271   3.358   1.183   7.329 -0.6955 -1.0929  0.2890
 5546SOL    HW228272   3.480   1.230   7.377 -0.5333  0.7354 -0.1723
 5547SOL     OW28273   1.666   3.826   2.023  0.1849  0.3099 -0.2360
 5547SOL    HW128274   1.616   3.784   2.093  1.2794 -0.3453  0.1620
 5547SOL    HW228275   1.745   3.798   2.069  0.9682 -1.9709 -2.9821
 5548SOL     OW28276   0.785   1.490   7.496  0.0290  0.0177 -0.2368
 5548SOL    HW128277   0.782   1.561   7.432 -2.3149  0.8681  0.8325
 5548SOL    HW228278   0.864   1.520   7.541 -0.1725 -1.8701  1.3660
 5549SOL     OW28279   2.695   0.898   6.665  0.5858  0.5035  0.2171
 5549SOL    HW128280   2.743   0.862   6.739  1.3098 -2.5642 -1.7685
 5549SOL    HW228281   2.608   0.866   6.691  0.5976  0.5645  0.3297
 5550SOL     OW28282   2.022   2.974   7.148  0.1435 -0.4086  0.4064
 5550SOL    HW128283   1.964   2.912   7.104 -0.1684  1.5069 -1.9258
 5550SOL    HW228284   2.104   2.931   7.173  0.4254 -0.2296 -0.2004
 5551SOL     OW28285   3.537   3.303   4.346 -0.6196 -0.0486  0.2643
 5551SOL    HW128286   3.505   3.370   4.284  2.1797 -0.5084 -1.6851
 5551SOL    HW228287   3.527   3.223   4.295  2.1240  0.0529 -0.4132
 5552SOL     OW28288   0.636   1.965   0.540  0.3492 -0.2622 -0.0205
 5552SOL    HW128289   0.559   1.946   0.595 -0.2444  3.6195  0.4927
 5552SOL    HW228290   0.691   1.889   0.558 -0.3168 -1.1321 -1.7184
 5553SOL     OW28291   0.539   1.539   8.901  0.1804 -0.0339 -0.0280
 5553SOL    HW128292   0.540   1.550   8.996 -0.2116  0.5015 -0.0840
 5553SOL    HW228293   0.514   1.447   8.903  1.9169 -0.4648  1.1402
 5554SOL     OW28294   2.218   1.160   3.622 -0.2339 -0.1435  0.0606
 5554SOL    HW128295   2.255   1.165   3.710 -1.5589 -1.5532  0.7010
 5554SOL    HW228296   2.212   1.065   3.607 -2.1939 -0.3716  2.3289
 5555SOL     OW28297   0.079   0.167   9.522 -0.9517 -0.2592  0.0941
 5555SOL    HW128298   0.049   0.101   9.459 -1.4453  0.6292 -0.6120
 5555SOL    HW228299   0.042   0.137   9.605  0.7023 -0.1760  0.8544
 5556SOL     OW28300   0.924   0.837   5.855  0.3023  0.4773  0.2254
 5556SOL    HW128301   0.992   0.771   5.859 -0.9758 -0.7564  1.9861
 5556SOL    HW228302   0.961   0.893   5.786  0.6448 -0.0560 -0.0162
 5557SOL     OW28303   4.357   4.264   5.518 -0.3191  0.2527 -0.2322
 5557SOL    HW128304   4.341   4.333   5.583 -0.0783  1.7417 -1.7455
 5557SOL    HW228305   4.450   4.243   5.528 -0.0355  1.7672  0.4098
 5558SOL     OW28306   4.193   1.422   4.806  0.3023  0.1895  0.1087
 5558SOL    HW128307   4.172   1.513   4.785  1.0092  0.7773  1.9253
 5558SOL    HW228308   4.205   1.419   4.901  0.3476 -1.7792  0.0486
 5559SOL     OW28309   0.893   3.560   4.325 -0.1010 -0.2802 -0.7281
 5559SOL    HW128310   0.900   3.623   4.254  0.7097 -0.9468 -1.2368
 5559SOL    HW228311   0.811   3.516   4.303  0.0635 -0.5033 -0.9043
 5560SOL     OW28312   1.847   1.286   8.683  0.5778 -0.8087 -0.0605
 5560SOL    HW128313   1.902   1.364   8.675  0.7482 -0.7477  1.5940
 5560SOL    HW228314   1.792   1.315   8.756  2.2601  0.9687  0.4940
 5561SOL     OW28315   0.754   0.032  14.994  0.4094 -0.1798  0.6265
 5561SOL    HW128316   0.803   0.112  14.976  2.4440 -1.7062 -0.6206
 5561SOL    HW228317   0.819   4.704  14.969 -0.4572 -0.5546 -0.6481
 5562SOL     OW28318   3.203   1.298   3.100 -0.4494  0.2156  0.5707
 5562SOL    HW128319   3.226   1.219   3.050 -1.0931  1.0154 -0.9983
 5562SOL    HW228320   3.176   1.265   3.185  0.3402 -0.5348  0.5320
 5563SOL     OW28321   2.815   4.496   9.496 -0.8731 -0.0391 -0.3889
 5563SOL    HW128322   2.753   4.551   9.447  1.0116  1.5988 -0.9280
 5563SOL    HW228323   2.801   4.514   9.589 -0.5683 -2.0585  0.0481
 5564SOL     OW28324   1.888   0.298   7.786 -0.0604 -0.2891 -0.5742
 5564SOL    HW128325   1.852   0.348   7.859 -0.8462  1.2918 -2.0383
 5564SOL    HW228326   1.940   0.366   7.742 -1.3756  1.5974  0.8094
 5565SOL     OW28327   1.462   1.393   6.825 -0.6091  0.3690 -0.1405
 5565SOL    HW128328   1.537   1.403   6.766 -0.3558 -1.5135 -0.1548
 5565SOL    HW228329   1.511   1.418   6.904 -0.7920  1.7028 -0.4458
 5566SOL     OW28330   3.443   1.118  10.410  0.0088 -0.5302  0.8495
 5566SOL    HW128331   3.410   1.129  10.321 -2.6387 -1.1864  1.7533
 5566SOL    HW228332   3.435   1.026  10.434  1.0646 -1.0467 -0.7638
 5567SOL     OW28333   0.696   4.210  14.752 -0.3186 -0.5573 -0.0294
 5567SOL    HW128334   0.777   4.175  14.788 -1.2079 -2.0034  0.5334
 5567SOL    HW228335   0.722   4.222  14.660  1.7603 -0.6226  0.5577
 5568SOL     OW28336   0.018   0.434   6.851 -0.4107  0.7423  0.7038
 5568SOL    HW128337   0.032   0.523   6.884 -1.2345  1.5581 -1.1118
 5568SOL    HW228338   4.716   0.454   6.766  0.7622 -0.9270 -0.2232
 5569SOL     OW28339   3.514   1.823   8.799 -0.1591  0.0910  0.0650
 5569SOL    HW128340   3.592   1.876   8.813  0.3783 -0.5743 -0.3678
 5569SOL    HW228341   3.455   1.889   8.764 -1.6512 -0.4666  1.5449
 5570SOL     OW28342   2.601   3.872   0.601  0.1189 -0.5803 -0.5247
 5570SOL    HW128343   2.547   3.930   0.654 -1.3650 -1.0696 -1.4949
 5570SOL    HW228344   2.635   3.928   0.531  1.3119 -2.0701 -1.1564
 5571SOL     OW28345   3.764   2.507  16.710 -0.7504 -0.0948  0.2221
 5571SOL    HW128346   3.795   2.549  16.630  2.7623  1.8396  2.6433
 5571SOL    HW228347   3.836   2.453  16.740 -1.7902 -0.4306  2.0879
 5572SOL     OW28348   2.912   4.586   4.617  0.2568  0.3406  0.5660
 5572SOL    HW128349   2.900   4.529   4.692 -1.0573 -0.1108  0.0147
 5572SOL    HW228350   2.924   4.672   4.657 -1.3555  0.4023  0.9291
 5573SOL     OW28351   2.752   3.691   7.665 -0.2930  0.7186  0.2676
 5573SOL    HW128352   2.676   3.688   7.606  0.6063 -1.4538 -0.7747
 5573SOL    HW228353   2.779   3.777   7.634  1.9964 -0.6893 -1.5468
 5574SOL     OW28354   3.478   2.783  16.657  0.3420 -0.0997  0.5280
 5574SOL    HW128355   3.517   2.727  16.590  0.0720  2.0084 -1.3813
 5574SOL    HW228356   3.453   2.856  16.600 -1.1976 -2.7470 -2.2120
 5575SOL     OW28357   0.328   2.013  11.166  0.8005  0.5177 -0.0937
 5575SOL    HW128358   0.266   1.949  11.132 -0.3860  2.6132 -1.8725
 5575SOL    HW228359   0.342   1.995  11.259  5.1343  2.5473 -0.3561
 5576SOL     OW28360   0.548   0.061   4.584 -0.0055 -0.0052 -0.2804
 5576SOL    HW128361   0.499   4.719   4.610 -0.1210  0.1725  0.0341
 5576SOL    HW228362   0.477   0.093   4.528 -0.7868  2.3226  2.0578
 5577SOL     OW28363   0.698   1.160   8.366 -0.5754  0.5693  0.1523
 5577SOL    HW128364   0.718   1.246   8.329  0.9098 -0.6676 -1.9146
 5577SOL    HW228365   0.782   1.146   8.410  0.6725  0.8036 -2.1653
 5578SOL     OW28366   2.613   4.444   1.522 -0.0608  0.5066  0.5239
 5578SOL    HW128367   2.540   4.504   1.508  1.5190  2.1640 -0.5549
 5578SOL    HW228368   2.611   4.387   1.445 -0.4908 -0.0661  0.9572
 5579SOL     OW28369   3.111   2.938  16.734  0.0588  0.0685  0.1981
 5579SOL    HW128370   3.107   2.920  16.828 -0.3384 -1.5279 -0.1281
 5579SOL    HW228371   3.156   2.861  16.700 -0.6411 -0.8658  1.3532
 5580SOL     OW28372   0.023   0.329   7.994  0.0993  0.6506  0.1700
 5580SOL    HW128373   4.724   0.414   7.967  1.0984  0.9081 -0.3284
 5580SOL    HW228374   0.016   0.325   8.089 -1.7578 -0.8144 -0.0077
 5581SOL     OW28375   3.389   2.717   4.132  0.4340  0.3976 -0.3693
 5581SOL    HW128376   3.333   2.735   4.057 -0.3192 -0.0424  0.0894
 5581SOL    HW228377   3.315   2.711   4.192 -0.9704 -0.9281 -2.2431
 5582SOL     OW28378   3.046   3.839   9.233 -0.1145 -0.1286 -0.0577
 5582SOL    HW128379   3.042   3.744   9.220  2.3346 -0.3899  1.0296
 5582SOL    HW228380   2.989   3.841   9.310 -0.8040 -1.9383 -0.5128
 5583SOL     OW28381   1.020   3.726   1.533  0.0812 -0.4664 -0.1914
 5583SOL    HW128382   0.999   3.660   1.599  1.8419  1.3322  2.1972
 5583SOL    HW228383   0.936   3.729   1.489  1.5631  0.0568 -2.9902
 5584SOL     OW28384   2.795   3.870  13.668 -0.6980  0.4540 -0.1131
 5584SOL    HW128385   2.877   3.858  13.620 -0.1596  1.2851  0.6126
 5584SOL    HW228386   2.809   3.941  13.730  1.6308 -1.0174  1.0345
 5585SOL     OW28387   0.333   4.146   4.908 -0.2597 -0.1596  0.0758
 5585SOL    HW128388   0.293   4.062   4.931  1.1179 -0.2954  1.9892
 5585SOL    HW228389   0.388   4.111   4.839 -0.3314 -0.3957  0.1392
 5586SOL     OW28390   1.144   1.397  10.184 -0.0400 -0.2935  0.3878
 5586SOL    HW128391   1.239   1.381  10.182 -0.0562 -0.1817 -1.1540
 5586SOL    HW228392   1.116   1.330  10.247 -0.6612  0.8407  1.3040
 5587SOL     OW28393   0.380   3.354   1.688 -0.4491 -0.0569 -0.0887
 5587SOL    HW128394   0.414   3.409   1.616  1.2148 -1.2940 -0.2464
 5587SOL    HW228395   0.331   3.414   1.744  1.9033  0.5045  1.3565
 5588SOL     OW28396   3.662   0.586   7.450  0.1948 -0.8659  0.0880
 5588SOL    HW128397   3.715   0.665   7.446  0.7320 -1.2546 -0.4968
 5588SOL    HW228398   3.578   0.626   7.428 -0.1896 -1.1728  0.9848
 5589SOL     OW28399   3.428   2.399   7.810 -0.3379  0.1235  0.6647
 5589SOL    HW128400   3.363   2.334   7.783  0.7028 -0.3278 -0.7846
 5589SOL    HW228401   3.416   2.407   7.904 -1.3336  2.3792  0.3472
 5590SOL     OW28402   4.270   3.177   7.988 -0.3396 -0.3141 -0.3802
 5590SOL    HW128403   4.302   3.112   8.051 -0.1891  0.9824  0.8768
 5590SOL    HW228404   4.340   3.179   7.923  2.9734  3.4029  3.3388
 5591SOL     OW28405   2.637   3.727   6.819 -0.0485  0.9834 -0.1931
 5591SOL    HW128406   2.595   3.812   6.806  1.0710  1.6385  0.4627
 5591SOL    HW228407   2.618   3.685   6.735  0.6888 -0.7952  0.5123
 5592SOL     OW28408   1.447   1.910  11.129  0.8783 -0.2115 -0.2351
 5592SOL    HW128409   1.497   1.877  11.204  0.6579 -0.7672 -0.3288
 5592SOL    HW228410   1.479   2.000  11.126  1.0949 -0.2704  0.2123
 5593SOL     OW28411   1.229   2.104   7.927  0.2200 -0.0997 -0.2907
 5593SOL    HW128412   1.196   2.184   7.886 -0.0437  0.4717  1.0358
 5593SOL    HW228413   1.144   2.060   7.921 -0.3531  0.7597  1.3067
 5594SOL     OW28414   2.091   3.464   7.451  0.3881 -0.6193  0.2095
 5594SOL    HW128415   2.138   3.526   7.394  0.1515  0.2918  0.9950
 5594SOL    HW228416   2.106   3.382   7.404 -0.0775 -0.5119 -0.1300
 5595SOL     OW28417   0.499   1.460   9.491 -0.0701 -0.1221  0.4102
 5595SOL    HW128418   0.540   1.435   9.573  2.2133 -0.8481 -0.9577
 5595SOL    HW228419   0.566   1.522   9.463  0.9286 -0.8062  1.2925
 5596SOL     OW28420   3.330   0.197  11.643 -0.6581  0.2745 -0.9516
 5596SOL    HW128421   3.247   0.197  11.595 -1.5935 -0.9381  0.6615
 5596SOL    HW228422   3.384   0.258  11.594 -0.3727  0.4275 -0.4481
 5597SOL     OW28423   1.437   3.147   5.566  0.8006  0.3392  0.2096
 5597SOL    HW128424   1.392   3.075   5.521  1.7467 -0.8868  1.2361
 5597SOL    HW228425   1.521   3.145   5.519  0.6437 -0.4239 -0.0412
 5598SOL     OW28426   4.185   3.408   2.244 -0.5335  0.0731 -0.2217
 5598SOL    HW128427   4.265   3.357   2.252 -0.1654  0.5153 -1.0241
 5598SOL    HW228428   4.117   3.368   2.298  2.3386 -4.4851  0.0244
 5599SOL     OW28429   0.908   2.093   4.509 -0.3736 -0.9492 -0.3639
 5599SOL    HW128430   0.842   2.034   4.473  0.2732 -2.7551  1.4363
 5599SOL    HW228431   0.872   2.181   4.494  2.0466 -0.0477 -0.9159
 5600SOL     OW28432   1.803   3.622  16.535 -0.6625 -0.4605  0.0833
 5600SOL    HW128433   1.801   3.718  16.533 -0.8518 -0.4637  0.1052
 5600SOL    HW228434   1.723   3.609  16.586 -0.6107 -1.2241 -0.0416
 5601SOL     OW28435   0.541   0.723   1.482 -0.3693 -0.0067  0.3600
 5601SOL    HW128436   0.495   0.700   1.402  0.8789  0.5449 -0.5118
 5601SOL    HW228437   0.578   0.803   1.446  1.7707 -1.7241 -1.3318
 5602SOL     OW28438   2.388   4.591  15.019  0.2054 -0.1479  0.3407
 5602SOL    HW128439   2.480   4.570  15.031  0.3482 -1.3016 -2.6954
 5602SOL    HW228440   2.388   4.678  15.059 -0.3153 -0.3426  0.7691
 5603SOL     OW28441   0.296   0.993  16.234 -0.1204  0.2967 -0.4540
 5603SOL    HW128442   0.218   0.945  16.262  1.1937 -2.0904 -0.9187
 5603SOL    HW228443   0.250   1.030  16.158  0.4963 -0.4740 -1.2012
 5604SOL     OW28444   4.261   2.807   7.687  0.0362  0.2446  0.0589
 5604SOL    HW128445   4.277   2.809   7.781 -3.2674 -0.0197  0.6311
 5604SOL    HW228446   4.204   2.731   7.698 -0.2627  0.4129 -0.3155
 5605SOL     OW28447   3.955   1.739  12.727 -0.5183  0.6392 -0.4740
 5605SOL    HW128448   3.867   1.744  12.764 -1.6080 -0.2397 -2.9533
 5605SOL    HW228449   3.995   1.822  12.755  1.5126 -0.4338 -0.1530
 5606SOL     OW28450   4.433   4.383   6.546  0.4780 -0.2724  0.5259
 5606SOL    HW128451   4.498   4.405   6.613  0.8419  1.7293 -0.4636
 5606SOL    HW228452   4.404   4.301   6.584 -0.2495  0.1822  0.9530
 5607SOL     OW28453   4.712   3.945   1.188 -0.3333 -0.2271 -0.0122
 5607SOL    HW128454   4.650   3.893   1.239  1.6922 -0.8409  1.8372
 5607SOL    HW228455   0.043   3.969   1.251  0.4800 -3.1398  0.2019
 5608SOL     OW28456   3.213   3.120  13.472 -0.0660  0.0200  0.4604
 5608SOL    HW128457   3.252   3.047  13.424 -0.9636  1.0040 -1.7480
 5608SOL    HW228458   3.296   3.154  13.507 -0.0714  1.0204 -0.5005
 5609SOL     OW28459   0.755   0.783   2.841 -0.0035  0.0116  0.1486
 5609SOL    HW128460   0.749   0.691   2.865 -3.2751  0.3051  0.4281
 5609SOL    HW228461   0.700   0.790   2.763 -2.2447 -1.2385  1.6170
 5610SOL     OW28462   4.194   4.299  12.295  0.4923  0.1371 -0.6837
 5610SOL    HW128463   4.115   4.292  12.349  1.0711 -0.9302  0.0336
 5610SOL    HW228464   4.236   4.367  12.348  0.7369 -2.9087  2.9852
 5611SOL     OW28465   1.262   1.179  13.668  0.2941  0.1224 -0.1124
 5611SOL    HW128466   1.285   1.214  13.754  0.5590  1.3270 -0.6693
 5611SOL    HW228467   1.204   1.251  13.643 -0.1618  0.3735  1.6854
 5612SOL     OW28468   1.254   4.100   7.046  0.3134 -0.4036  0.1427
 5612SOL    HW128469   1.181   4.117   7.106 -0.7523 -2.8135 -0.4782
 5612SOL    HW228470   1.320   4.161   7.079 -0.8628  0.5889  0.6857
 5613SOL     OW28471   3.098   3.663   4.177 -0.2125 -0.2077 -0.1021
 5613SOL    HW128472   3.075   3.679   4.085 -0.6898  0.6883  0.1790
 5613SOL    HW228473   3.130   3.751   4.194 -0.4678 -0.1130 -0.1127
 5614SOL     OW28474   4.664   2.993   5.759  0.1763 -0.2000  0.0935
 5614SOL    HW128475   4.692   3.029   5.844  0.0632 -1.5096  0.6913
 5614SOL    HW228476   4.583   2.951   5.788 -1.4777  1.9194 -1.4053
 5615SOL     OW28477   0.509   3.620   7.061  0.4693 -0.0162  0.1317
 5615SOL    HW128478   0.475   3.563   6.991  1.5706 -1.3776  0.6999
 5615SOL    HW228479   0.434   3.666   7.098  0.7250  2.2922 -2.2057
 5616SOL     OW28480   2.939   0.513   8.269  0.2963 -0.0133 -0.1218
 5616SOL    HW128481   2.997   0.448   8.308  1.6426  1.0785 -0.3031
 5616SOL    HW228482   2.989   0.572   8.213 -1.5640  1.1336 -0.5629
 5617SOL     OW28483   2.925   1.411   3.491  0.6657 -0.9151  0.0177
 5617SOL    HW128484   2.905   1.359   3.568  0.1716 -1.2999 -0.3741
 5617SOL    HW228485   2.993   1.467   3.528  0.0778 -0.1804 -0.0008
 5618SOL     OW28486   3.949   3.387   5.745 -0.0375  0.0402 -0.3226
 5618SOL    HW128487   3.868   3.361   5.702 -0.3961 -0.3938  0.6159
 5618SOL    HW228488   3.980   3.442   5.674 -0.0677 -0.9875 -1.1218
 5619SOL     OW28489   3.091   1.873   4.026  0.0143 -0.2246 -0.0566
 5619SOL    HW128490   3.052   1.950   3.984 -0.1548  1.0958  2.5015
 5619SOL    HW228491   3.157   1.915   4.082 -1.5521  0.4746  1.2598
 5620SOL     OW28492   4.457   2.460   5.871  0.2461  0.2945  0.2564
 5620SOL    HW128493   4.453   2.532   5.934 -1.4844  1.0861 -0.7710
 5620SOL    HW228494   4.527   2.487   5.812  0.5261 -0.5655  0.1830
 5621SOL     OW28495   0.592   2.341   6.438  0.0091 -0.0121  0.0341
 5621SOL    HW128496   0.619   2.297   6.358 -0.3961  1.2884 -0.8047
 5621SOL    HW228497   0.511   2.380   6.405 -0.3444  0.1467  1.0718
 5622SOL     OW28498   2.720   3.596  15.353  0.5233 -0.3036 -0.3666
 5622SOL    HW128499   2.686   3.644  15.278  0.2712  0.9211  0.5186
 5622SOL    HW228500   2.769   3.660  15.405 -0.6030  0.9952 -0.9021
 5623SOL     OW28501   4.061   4.147   5.246 -0.1168  0.1199 -0.2270
 5623SOL    HW128502   4.040   4.147   5.152  0.4864 -0.6310 -0.3530
 5623SOL    HW228503   4.072   4.052   5.248 -0.7929  0.0693  0.8530
 5624SOL     OW28504   3.248   3.575  16.884  0.2316  0.2759  0.1304
 5624SOL    HW128505   3.171   3.528  16.854  0.8282 -0.9363  0.5044
 5624SOL    HW228506   3.248   3.667  16.856 -0.8793  0.9904  2.5357
 5625SOL     OW28507   4.086   3.414   3.207 -0.1365  0.6729  0.2783
 5625SOL    HW128508   4.134   3.460   3.138 -0.1969 -0.5623 -0.5876
 5625SOL    HW228509   4.092   3.328   3.166 -0.4698 -0.6522  2.9826
 5626SOL     OW28510   0.892   3.192   3.379  0.3278  0.4463 -0.1219
 5626SOL    HW128511   0.964   3.224   3.433  2.7136 -2.2326 -1.7001
 5626SOL    HW228512   0.845   3.135   3.441  0.4429  1.5953  1.0177
 5627SOL     OW28513   3.973   1.284   1.017 -0.0275  0.5121  0.1608
 5627SOL    HW128514   4.003   1.374   1.005 -0.5095  0.6289 -0.1789
 5627SOL    HW228515   3.945   1.275   0.926  1.9745 -0.7161 -0.3427
 5628SOL     OW28516   2.941   3.064  13.434  0.5572  0.3607  0.4573
 5628SOL    HW128517   2.932   3.145  13.385  2.5813 -1.4542 -2.8488
 5628SOL    HW228518   3.036   3.067  13.443  0.5762  1.2818 -0.0753
 5629SOL     OW28519   3.851   1.602   9.263 -0.6302 -0.2789  0.0076
 5629SOL    HW128520   3.917   1.671   9.268 -1.4668  0.5385 -0.3944
 5629SOL    HW228521   3.908   1.529   9.287  0.3014  1.1854  2.2404
 5630SOL     OW28522   3.038   2.504   2.651  0.6882  0.7835 -0.4177
 5630SOL    HW128523   2.989   2.503   2.733  0.9869  0.7109 -0.2421
 5630SOL    HW228524   3.040   2.412   2.623  0.4900 -0.2914  3.0655
 5631SOL     OW28525   3.710   2.798   7.695  0.7013 -0.4908 -0.3067
 5631SOL    HW128526   3.747   2.738   7.760  0.5377 -2.3737 -1.9296
 5631SOL    HW228527   3.651   2.729   7.664  1.9448 -0.5816 -2.4485
 5632SOL     OW28528   2.826   0.461  12.694 -0.8829 -0.2550  0.9193
 5632SOL    HW128529   2.759   0.407  12.652 -1.1792 -0.9847  2.3649
 5632SOL    HW228530   2.837   0.520  12.619  1.3996  0.2858  1.6983
 5633SOL     OW28531   3.719   1.675   2.918 -0.4042 -0.6553  0.1565
 5633SOL    HW128532   3.797   1.659   2.971 -0.7123  0.6736  1.0294
 5633SOL    HW228533   3.756   1.696   2.833  2.5625 -1.1005  1.3426
 5634SOL     OW28534   1.680   0.308   0.074 -0.2883 -0.4896 -0.3659
 5634SOL    HW128535   1.585   0.318   0.070 -0.3593 -1.2776 -0.5364
 5634SOL    HW228536   1.677   0.231   0.131  1.7738 -0.8948 -0.8031
 5635SOL     OW28537   3.050   1.133   7.468  0.2280  0.4333 -0.0836
 5635SOL    HW128538   2.982   1.131   7.536  0.0793  1.7168 -0.1879
 5635SOL    HW228539   3.072   1.041   7.451  0.3437  0.5641 -0.6205
 5636SOL     OW28540   0.377   3.091  15.174  0.4896 -0.4590 -0.1995
 5636SOL    HW128541   0.443   3.133  15.229 -0.8075 -0.0398  1.0191
 5636SOL    HW228542   0.345   3.025  15.235 -1.1473 -0.4980 -1.0886
 5637SOL     OW28543   1.414   0.066   4.333 -0.6404  0.5092 -0.2154
 5637SOL    HW128544   1.339   0.122   4.353 -0.5506  0.4317  0.3162
 5637SOL    HW228545   1.365   4.729   4.298  0.0403  0.0583 -0.2148
 5638SOL     OW28546   3.543   3.832  11.247  0.4691 -0.2700  0.0948
 5638SOL    HW128547   3.593   3.768  11.297 -1.3967 -0.4309  1.7690
 5638SOL    HW228548   3.601   3.850  11.174  0.9245 -2.6351 -0.1197
 5639SOL     OW28549   4.025   0.268   8.036 -0.1126 -0.3190 -0.7175
 5639SOL    HW128550   4.000   0.236   7.949 -0.0567 -1.4927 -0.3027
 5639SOL    HW228551   3.958   0.336   8.038  0.1912 -0.0013 -1.3888
 5640SOL     OW28552   3.976   1.821  13.389  0.5460  0.3762  0.1759
 5640SOL    HW128553   3.899   1.807  13.335  1.6328  0.5030 -1.4085
 5640SOL    HW228554   3.967   1.745  13.447  0.9122  0.3276  0.1692
 5641SOL     OW28555   4.557   4.536   8.931  0.0538  0.5944  0.6569
 5641SOL    HW128556   4.481   4.479   8.925 -0.3041  1.0626  0.6896
 5641SOL    HW228557   4.513   4.621   8.929  2.4118  1.8068  0.4329
 5642SOL     OW28558   0.056   2.067  14.191 -0.5805 -0.8185  0.0196
 5642SOL    HW128559   4.703   2.099  14.191 -1.6193 -3.7347 -2.7196
 5642SOL    HW228560   0.088   2.094  14.105  0.1135 -0.4237  0.3966
 5643SOL     OW28561   4.676   2.689   7.803 -0.2959  0.5103 -0.0246
 5643SOL    HW128562   4.672   2.783   7.823  1.3942  0.3144  1.1936
 5643SOL    HW228563   4.591   2.679   7.759 -0.4381 -0.6961  0.5369
 5644SOL     OW28564   4.121   3.055   0.517 -0.0935 -0.4762 -0.4255
 5644SOL    HW128565   4.164   3.061   0.432 -2.3707  2.4465 -1.3916
 5644SOL    HW228566   4.159   3.126   0.569 -2.1014  0.9949 -0.9409
 5645SOL     OW28567   1.165   1.684   6.417 -0.4787 -0.5086  0.0331
 5645SOL    HW128568   1.097   1.706   6.353 -2.0982 -0.8216  1.6570
 5645SOL    HW228569   1.216   1.765   6.429 -0.9033  0.0060 -1.5073
 5646SOL     OW28570   2.844   2.944   5.845  0.5738  0.5882  0.3258
 5646SOL    HW128571   2.913   2.939   5.910  1.4306  1.1729 -0.5417
 5646SOL    HW228572   2.772   2.967   5.904  0.8695  2.0612  0.0988
 5647SOL     OW28573   0.102   1.933   5.082 -0.7256  0.1328  0.0869
 5647SOL    HW128574   0.118   1.883   5.001 -3.9224 -1.5838  0.5185
 5647SOL    HW228575   0.117   2.015   5.035  0.5236  0.0269  0.2878
 5648SOL     OW28576   2.789   2.662   4.127 -0.2378 -0.0101 -0.0477
 5648SOL    HW128577   2.864   2.720   4.141 -0.1601 -0.2685  0.6224
 5648SOL    HW228578   2.734   2.735   4.099  1.7488  1.3317 -0.4402
 5649SOL     OW28579   3.171   3.900  14.994 -0.7039 -0.7181  0.3722
 5649SOL    HW128580   3.258   3.862  15.004  0.1970  0.8876 -1.0980
 5649SOL    HW228581   3.132   3.838  14.932 -0.2552 -1.8316  1.2209
 5650SOL     OW28582   1.434   0.864   5.789  0.5780  0.4098  0.0359
 5650SOL    HW128583   1.422   0.921   5.866 -1.0803  0.4464 -0.2565
 5650SOL    HW228584   1.449   0.776   5.823 -0.4023  0.1742 -0.1400
 5651SOL     OW28585   3.848   3.003   3.083  0.0358 -0.4174 -0.0921
 5651SOL    HW128586   3.825   2.927   3.029  0.6243 -0.9392  0.4023
 5651SOL    HW228587   3.771   3.058   3.068 -0.1631 -0.6675  0.0140
 5652SOL     OW28588   3.771   0.587  12.728 -0.0258  0.6266 -0.1195
 5652SOL    HW128589   3.805   0.663  12.680 -3.7310  1.3207 -1.6675
 5652SOL    HW228590   3.792   0.623  12.814  0.5329  0.7079 -0.2931
 5653SOL     OW28591   3.488   0.521   4.343 -0.8968 -0.0659 -0.7787
 5653SOL    HW128592   3.448   0.466   4.411  0.5037 -0.3183 -0.1658
 5653SOL    HW228593   3.526   0.586   4.401 -2.9672  0.3036  0.1595
 5654SOL     OW28594   3.364   0.828  12.894  0.3223  0.3511 -0.2871
 5654SOL    HW128595   3.439   0.788  12.938 -0.4601 -0.8141 -0.0075
 5654SOL    HW228596   3.386   0.818  12.802 -1.1118 -2.9389 -0.2602
 5655SOL     OW28597   4.085   3.123   3.119 -0.1813 -0.0417  0.0970
 5655SOL    HW128598   4.006   3.070   3.123 -0.2090  0.0576  0.8675
 5655SOL    HW228599   4.142   3.058   3.162 -2.7741 -1.9859  0.5768
 5656SOL     OW28600   3.228   2.884   7.523 -0.0478 -0.0466 -0.0277
 5656SOL    HW128601   3.154   2.944   7.532  1.1829  1.2735  1.3683
 5656SOL    HW228602   3.204   2.812   7.581 -0.6164 -0.5561 -0.8998
 5657SOL     OW28603   0.477   1.458   8.290  0.4302 -0.6868  0.0446
 5657SOL    HW128604   0.531   1.394   8.244 -1.9155 -2.3769 -0.3544
 5657SOL    HW228605   0.505   1.542   8.254  0.3103 -1.0550 -0.8862
 5658SOL     OW28606   0.056   1.245   4.207 -0.1982 -0.4264  0.2287
 5658SOL    HW128607   0.113   1.312   4.169 -0.0495 -1.3005 -1.0971
 5658SOL    HW228608   4.736   1.300   4.260 -1.8286 -2.4313  0.5438
 5659SOL     OW28609   4.001   1.720   4.595 -0.6261  0.5171  1.1262
 5659SOL    HW128610   4.081   1.703   4.546 -0.8541  1.0636  0.5600
 5659SOL    HW228611   3.956   1.637   4.583  0.2205  0.4413 -1.6440
 5660SOL     OW28612   1.260   4.339  16.267  0.8244  0.1050 -0.0852
 5660SOL    HW128613   1.183   4.328  16.323 -0.4590  1.5471 -1.5562
 5660SOL    HW228614   1.315   4.270  16.305  1.0701  0.7188  0.6681
 5661SOL     OW28615   2.198   2.175   5.015  0.1063 -0.2354  0.1021
 5661SOL    HW128616   2.197   2.096   5.069 -0.1873 -0.2438  0.0843
 5661SOL    HW228617   2.289   2.159   4.990  0.2315 -0.2652  0.5667
 5662SOL     OW28618   4.489   0.754   4.097  0.2546 -0.0865  0.3896
 5662SOL    HW128619   4.500   0.715   4.183 -0.0491 -1.9020 -0.3970
 5662SOL    HW228620   4.442   0.685   4.050 -1.7351  0.4198  1.6217
 5663SOL     OW28621   0.408   2.754   1.786  0.1665  0.3334  0.6424
 5663SOL    HW128622   0.340   2.697   1.822  0.0969 -0.4986 -0.7960
 5663SOL    HW228623   0.476   2.705   1.832  0.7874 -2.5260 -3.3595
 5664SOL     OW28624   3.743   3.537   6.943  0.3901 -0.0707 -0.0322
 5664SOL    HW128625   3.763   3.630   6.949  1.0089 -0.1863 -0.3530
 5664SOL    HW228626   3.829   3.495   6.942  0.9530  1.0648  0.6907
 5665SOL     OW28627   3.286   1.516   8.595 -0.2205  0.0906 -0.9672
 5665SOL    HW128628   3.334   1.518   8.678  1.9545  0.5803 -2.2204
 5665SOL    HW228629   3.266   1.609   8.586 -1.8707  0.0129  1.7692
 5666SOL     OW28630   0.276   2.396  15.066 -0.0903  0.1125 -0.2494
 5666SOL    HW128631   0.265   2.486  15.036  0.3858 -0.4188 -2.0591
 5666SOL    HW228632   0.371   2.385  15.063 -0.2753 -1.1728 -1.8924
 5667SOL     OW28633   2.163   1.471   8.164  0.3605  0.3924  0.1231
 5667SOL    HW128634   2.176   1.565   8.153 -0.7442  0.2729 -2.3174
 5667SOL    HW228635   2.204   1.437   8.084  0.1150  1.9845 -0.6867
 5668SOL     OW28636   2.008   1.277   4.603 -0.1017 -1.0581  0.3751
 5668SOL    HW128637   2.012   1.363   4.562  0.7918 -1.4509 -0.3487
 5668SOL    HW228638   2.051   1.286   4.688 -0.4778 -2.6581  0.7425
 5669SOL     OW28639   3.630   0.718   8.232 -0.0832  0.7184  0.5343
 5669SOL    HW128640   3.547   0.761   8.216 -1.7554 -3.0059 -0.7845
 5669SOL    HW228641   3.606   0.639   8.280  2.0034 -0.8652 -1.0021
 5670SOL     OW28642   2.579   4.715  16.633 -0.5849 -0.1771  0.1772
 5670SOL    HW128643   2.503   4.712  16.575 -0.6226 -0.3148  0.2329
 5670SOL    HW228644   2.605   0.066  16.606 -0.5506  0.5202  2.4702
 5671SOL     OW28645   1.633   2.017  17.389  0.0607 -0.5669  0.0412
 5671SOL    HW128646   1.714   2.064  17.372  0.2668 -0.9089  0.0843
 5671SOL    HW228647   1.623   2.028  17.484  0.4217 -0.6772  0.0899
 5672SOL     OW28648   0.234   1.520   7.939 -0.6529 -0.6817 -1.0662
 5672SOL    HW128649   0.257   1.570   7.861 -2.3789  1.1512 -0.3679
 5672SOL    HW228650   0.279   1.442   7.905 -0.3298 -0.8998 -0.1457
 5673SOL     OW28651   4.058   3.270   2.869  0.2652  0.0349 -0.2548
 5673SOL    HW128652   4.150   3.268   2.844  0.2581 -2.5851 -0.0931
 5673SOL    HW228653   4.063   3.217   2.948  1.4379  0.7975  0.1785
 5674SOL     OW28654   1.201   0.987   4.530 -0.0748 -0.0818  0.1984
 5674SOL    HW128655   1.259   0.960   4.460  1.3814  1.3222  0.8580
 5674SOL    HW228656   1.141   0.913   4.536 -1.3735  0.8720 -1.1724
 5675SOL     OW28657   1.924   0.404  16.673  0.6560 -0.5051 -0.1872
 5675SOL    HW128658   1.908   0.371  16.584  0.1337  3.2626 -1.4957
 5675SOL    HW228659   1.853   0.355  16.715  1.1244 -0.6757  0.4051
 5676SOL     OW28660   1.977   2.236   7.303  0.1235 -0.7337 -0.2489
 5676SOL    HW128661   1.911   2.235   7.372 -1.1552  0.5131 -1.4699
 5676SOL    HW228662   1.934   2.201   7.225  1.2862  4.0906 -3.0841
 5677SOL     OW28663   2.547   0.332   6.094  0.4210  0.4157 -0.0251
 5677SOL    HW128664   2.588   0.304   6.176 -0.6892  0.0654  0.4090
 5677SOL    HW228665   2.494   0.260   6.059  1.8550  0.3647 -2.0787
 5678SOL     OW28666   4.004   0.689  15.121  0.1763  0.1261  0.3215
 5678SOL    HW128667   3.925   0.682  15.175 -2.0484  0.5555 -2.9047
 5678SOL    HW228668   4.062   0.734  15.183 -0.8013  1.6517  0.1516
 5679SOL     OW28669   1.097   4.630   6.830  0.7265 -0.0310  0.3240
 5679SOL    HW128670   1.018   4.663   6.786  0.4464 -0.8891  0.1989
 5679SOL    HW228671   1.115   4.544   6.794  3.3780  1.3946 -1.7749
 5680SOL     OW28672   2.833   1.519   6.696  0.4446 -0.3255 -0.0615
 5680SOL    HW128673   2.869   1.432   6.677  0.3362 -0.6480  1.1839
 5680SOL    HW228674   2.830   1.509   6.792 -1.1078 -1.1674 -0.2027
 5681SOL     OW28675   0.875   0.502  13.708 -0.2327 -0.1616  0.8646
 5681SOL    HW128676   0.870   0.545  13.794 -1.5975 -0.8983  1.1651
 5681SOL    HW228677   0.946   0.441  13.730 -2.0892 -2.4784  0.4769
 5682SOL     OW28678   0.983   0.403   6.823 -0.0563  0.3579 -0.5636
 5682SOL    HW128679   0.966   0.488   6.783  0.2759  1.9384  2.6027
 5682SOL    HW228680   1.034   0.363   6.753  2.1211 -0.9327  1.7780
 5683SOL     OW28681   2.087   0.267  11.973 -0.1424  0.6372 -0.2738
 5683SOL    HW128682   2.175   0.302  11.982 -1.1643  3.8966 -2.8396
 5683SOL    HW228683   2.050   0.309  12.050  2.3009  1.0757  0.6490
 5684SOL     OW28684   1.270   1.995   9.712  0.1670 -1.1042  0.0401
 5684SOL    HW128685   1.223   2.028   9.635  0.6403 -0.4813  0.0144
 5684SOL    HW228686   1.248   2.061   9.778  1.0840  0.3098 -1.0498
 5685SOL     OW28687   0.208   4.452  16.318 -0.0732 -0.1401 -0.1183
 5685SOL    HW128688   0.149   4.506  16.266 -0.8485 -1.4484 -0.6103
 5685SOL    HW228689   0.166   4.368  16.338 -0.6554  0.2736  0.3982
 5686SOL     OW28690   2.983   2.997  11.801 -0.1158  0.1266  0.3521
 5686SOL    HW128691   3.022   2.918  11.762  0.9306 -0.3148  2.3140
 5686SOL    HW228692   3.044   3.064  11.771 -1.6710  1.1535 -0.4675
 5687SOL     OW28693   2.810   2.171   8.243  0.7932 -0.1854  0.0612
 5687SOL    HW128694   2.784   2.263   8.246 -0.4620 -0.5347 -0.4660
 5687SOL    HW228695   2.891   2.172   8.295  0.7952 -1.1313  0.0732
 5688SOL     OW28696   4.655   2.484  17.028 -0.2699 -0.6124 -0.5734
 5688SOL    HW128697   4.625   2.518  16.944  2.8261  0.8125 -1.0987
 5688SOL    HW228698   4.576   2.498  17.081  1.7303 -0.9232  2.4620
 5689SOL     OW28699   2.296   4.033  15.745 -0.3644 -0.3827 -0.3119
 5689SOL    HW128700   2.355   4.075  15.683 -0.5717 -2.2121 -1.7300
 5689SOL    HW228701   2.224   4.097  15.738 -1.7242 -1.8662  0.1314
 5690SOL     OW28702   1.546   1.482   7.104  0.0389 -0.1530 -0.3282
 5690SOL    HW128703   1.544   1.422   7.179 -1.1097  1.2584  0.7639
 5690SOL    HW228704   1.639   1.475   7.082  0.3435 -0.7831  1.1332
 5691SOL     OW28705   2.867   4.474  16.472  0.0007  0.0544 -0.3242
 5691SOL    HW128706   2.852   4.383  16.498  1.9259 -0.6598 -1.6608
 5691SOL    HW228707   2.789   4.517  16.439 -0.3073  0.7615  1.3227
 5692SOL     OW28708   0.912   2.144   7.689 -0.1989 -0.1862 -0.7791
 5692SOL    HW128709   0.923   2.068   7.748  0.6043  0.6334  0.1317
 5692SOL    HW228710   0.839   2.191   7.728  1.6547  2.0219  0.0003
 5693SOL     OW28711   0.764   1.049  15.263  0.4715  0.3539  0.1318
 5693SOL    HW128712   0.796   0.959  15.268  2.5427  0.8997 -3.1608
 5693SOL    HW228713   0.730   1.055  15.352 -0.3390 -0.4008 -0.1229
 5694SOL     OW28714   0.151   0.411   4.862  0.4638  0.0043 -0.7337
 5694SOL    HW128715   0.074   0.457   4.829  0.6447 -0.0897 -1.2814
 5694SOL    HW228716   0.109   0.325   4.869 -0.0256  0.4149  1.2778
 5695SOL     OW28717   2.253   1.733   7.564  0.7180  0.1787  0.0436
 5695SOL    HW128718   2.312   1.756   7.636  0.8633  0.5579 -0.1936
 5695SOL    HW228719   2.190   1.672   7.600 -1.4691  0.3578 -3.5060
 5696SOL     OW28720   2.392   1.452   0.914  0.1372 -0.4388  0.6797
 5696SOL    HW128721   2.398   1.515   0.986  1.0168 -1.7692  1.7887
 5696SOL    HW228722   2.479   1.448   0.874 -0.1823  1.9467 -0.2145
 5697SOL     OW28723   0.927   4.511   7.730  0.0138  0.0116 -0.1564
 5697SOL    HW128724   1.011   4.500   7.775 -1.3457 -0.8454  2.1799
 5697SOL    HW228725   0.938   4.589   7.676  0.4349 -0.6790 -1.0580
 5698SOL     OW28726   2.485   0.298   9.372  0.9364  0.2299 -0.3993
 5698SOL    HW128727   2.466   0.310   9.279  1.1895  0.2846 -0.4430
 5698SOL    HW228728   2.458   0.207   9.384 -0.6356  0.8527  0.8180
 5699SOL     OW28729   1.292   3.343   2.535 -0.0050  0.0389 -0.3819
 5699SOL    HW128730   1.288   3.325   2.441  1.9585  3.4521 -1.1225
 5699SOL    HW228731   1.258   3.262   2.574 -0.2422  0.6070  0.5798
 5700SOL     OW28732   0.315   4.087   5.700  0.1709 -0.1770  0.2012
 5700SOL    HW128733   0.291   4.005   5.743 -0.5310  0.6506  1.3883
 5700SOL    HW228734   0.258   4.146   5.751  0.3088 -0.1530  0.3258
 5701SOL     OW28735   3.267   2.891   3.332  0.1041  0.5309  0.1310
 5701SOL    HW128736   3.288   2.889   3.426  0.9128 -0.1976 -0.0608
 5701SOL    HW228737   3.307   2.975   3.310  0.5035 -0.3238 -2.3838
 5702SOL     OW28738   1.935   1.613   5.969  0.4253 -0.0211 -0.3698
 5702SOL    HW128739   1.844   1.598   5.944 -1.0588  1.2824  4.3800
 5702SOL    HW228740   1.949   1.682   5.904 -0.4338  1.1434  0.6970
 5703SOL     OW28741   3.229   3.437   5.223  0.2467 -0.4100 -0.2352
 5703SOL    HW128742   3.211   3.531   5.230 -3.9880 -1.2512  0.2841
 5703SOL    HW228743   3.293   3.412   5.289 -0.5815 -0.7194  0.4467
 5704SOL     OW28744   1.386   1.695   5.836 -0.7567  0.8170 -0.1017
 5704SOL    HW128745   1.343   1.635   5.897  0.4625 -0.0735 -0.1314
 5704SOL    HW228746   1.345   1.776   5.868  1.0897  1.7143 -0.0482
 5705SOL     OW28747   1.593   0.947  14.692  0.4933  0.0537 -0.0555
 5705SOL    HW128748   1.598   0.973  14.784  0.1829 -1.3371  0.3552
 5705SOL    HW228749   1.502   0.920  14.679  0.6536 -0.3939 -0.2799
 5706SOL     OW28750   1.824   2.278   8.286  0.3231 -0.8086  0.2418
 5706SOL    HW128751   1.855   2.232   8.364  1.0650 -0.7947 -0.0444
 5706SOL    HW228752   1.771   2.346   8.326 -2.0313  0.2159 -4.6075
 5707SOL     OW28753   2.568   1.658   3.781 -0.0323  0.1445  0.4312
 5707SOL    HW128754   2.660   1.682   3.794  1.2698 -3.1598 -2.7090
 5707SOL    HW228755   2.530   1.692   3.862  0.6916 -0.0935  0.8713
 5708SOL     OW28756   0.733   0.330   2.443  0.2179  0.2249  0.2944
 5708SOL    HW128757   0.814   0.380   2.434  0.2650 -0.2497 -1.7929
 5708SOL    HW228758   0.676   0.385   2.390  1.6126 -0.2874 -1.7348
 5709SOL     OW28759   3.792   3.921   5.972 -0.2452 -0.1748 -0.7391
 5709SOL    HW128760   3.785   3.872   5.891  1.5917 -0.6018 -0.6442
 5709SOL    HW228761   3.850   3.868   6.027 -2.1959 -1.7341 -0.1757
 5710SOL     OW28762   3.982   1.786  14.766  0.0073 -0.0141  0.1686
 5710SOL    HW128763   4.061   1.834  14.789  0.6304 -0.4347 -1.0692
 5710SOL    HW228764   3.952   1.736  14.841 -0.0861  0.1267  0.2238
 5711SOL     OW28765   0.794   2.355  14.119  0.6087  0.3061  0.3236
 5711SOL    HW128766   0.736   2.430  14.108  0.0649 -0.2800 -0.7939
 5711SOL    HW228767   0.730   2.292  14.087  3.1141 -2.5263  0.8798
 5712SOL     OW28768   3.279   2.010   4.132 -0.3604  0.5112  0.1318
 5712SOL    HW128769   3.359   1.974   4.095  0.1730  0.4245  1.3923
 5712SOL    HW228770   3.303   2.099   4.103  0.8218  0.0199 -0.3916
 5713SOL     OW28771   1.018   4.713   4.565  0.1517 -0.3133  0.3387
 5713SOL    HW128772   1.021   4.623   4.597 -1.9263 -0.6188 -0.2771
 5713SOL    HW228773   1.022   4.698   4.470 -0.2712  0.1460  0.2465
 5714SOL     OW28774   3.293   1.323   3.411 -0.4098 -0.3950  0.4351
 5714SOL    HW128775   3.215   1.310   3.358 -1.3326  0.8684  1.4678
 5714SOL    HW228776   3.313   1.247   3.464 -0.1614 -0.2269  0.5826
 5715SOL     OW28777   2.175   1.788   4.297 -1.1715 -0.0926  0.0105
 5715SOL    HW128778   2.193   1.848   4.370  0.4101 -1.6842  0.9168
 5715SOL    HW228779   2.264   1.773   4.268 -1.2928  0.7731 -0.8036
 5716SOL     OW28780   1.423   1.921   2.364 -0.4913  0.5180  0.2616
 5716SOL    HW128781   1.358   1.990   2.381 -1.9438 -0.7787 -0.0096
 5716SOL    HW228782   1.496   1.959   2.413  0.5686 -0.8413 -0.2569
 5717SOL     OW28783   2.202   1.078   3.978  0.1337  0.4539 -0.1107
 5717SOL    HW128784   2.153   1.146   3.931 -1.0340  1.6302  2.8685
 5717SOL    HW228785   2.186   1.008   3.915 -0.4686  1.4341 -1.0506
 5718SOL     OW28786   0.012   4.685   0.657 -0.7171  0.4765  0.0700
 5718SOL    HW128787   0.038   4.724   0.573 -1.2822  1.3815  0.3050
 5718SOL    HW228788   4.653   4.690   0.650 -0.6969 -2.5179 -1.9369
 5719SOL     OW28789   2.041   3.888  13.346  0.1506 -0.6018 -0.2001
 5719SOL    HW128790   2.061   3.973  13.385  2.8119 -1.9568  1.3713
 5719SOL    HW228791   1.989   3.851  13.417 -0.4840  3.0286  1.2725
 5720SOL     OW28792   3.916   2.297  16.024  0.7262 -0.5135  0.2730
 5720SOL    HW128793   3.859   2.235  16.069 -0.6555 -0.1551 -0.9349
 5720SOL    HW228794   3.932   2.359  16.095 -0.5337 -0.4133  0.4779
 5721SOL     OW28795   3.254   1.450  15.019 -0.1840  1.0466 -0.1333
 5721SOL    HW128796   3.332   1.417  14.974  0.4296  1.5533  0.5569
 5721SOL    HW228797   3.277   1.538  15.048 -0.1564  0.9321  0.1889
 5722SOL     OW28798   0.552   0.178   2.566  0.7742  0.5968  0.1103
 5722SOL    HW128799   0.580   0.133   2.646  1.5859  1.9932  0.6127
 5722SOL    HW228800   0.630   0.219   2.528  1.1357 -0.0245  0.1806
 5723SOL     OW28801   0.655   2.767   4.551 -0.5305 -0.5025  0.2254
 5723SOL    HW128802   0.633   2.813   4.470  1.7616  1.0722  0.5116
 5723SOL    HW228803   0.598   2.691   4.536  1.1894 -1.5353 -1.0414
 5724SOL     OW28804   1.002   3.222   6.041  0.4584 -0.1991  0.5216
 5724SOL    HW128805   1.053   3.141   6.036  2.5172  1.0280  1.6696
 5724SOL    HW228806   0.927   3.202   6.097  1.0521 -2.7498  0.4292
 5725SOL     OW28807   0.870   0.330   5.695 -0.0558  0.0163 -0.5315
 5725SOL    HW128808   0.915   0.345   5.778 -2.4957 -3.9467  1.4967
 5725SOL    HW228809   0.895   0.399   5.634  1.3364  1.7347  1.9850
 5726SOL     OW28810   1.228   1.564   6.025  1.0618 -0.0848 -0.0012
 5726SOL    HW128811   1.273   1.608   6.097  0.1041  2.0125 -0.6869
 5726SOL    HW228812   1.243   1.470   6.036  3.1715  0.1854 -0.4794
 5727SOL     OW28813   0.186   3.759   9.839  0.4594 -0.5305 -0.3089
 5727SOL    HW128814   0.170   3.738   9.931 -0.5183 -3.6919 -1.2376
 5727SOL    HW228815   0.113   3.815   9.813  0.1859 -1.1850 -0.9499
 5728SOL     OW28816   2.013   4.712   2.319 -0.3023  0.2039  0.1884
 5728SOL    HW128817   1.988   0.044   2.380 -0.6950  0.9429 -0.8147
 5728SOL    HW228818   2.083   0.025   2.278 -1.1331  3.2671  2.5515
 5729SOL     OW28819   3.256   2.152   5.667 -0.0586  0.6983  0.5345
 5729SOL    HW128820   3.203   2.075   5.645  1.1055  0.4274 -1.2521
 5729SOL    HW228821   3.347   2.123   5.663  0.2227  1.4911  1.2518
 5730SOL     OW28822   3.800   3.048   7.126  0.4813 -0.6062  0.4366
 5730SOL    HW128823   3.879   3.088   7.162 -0.5653  1.5861  0.2632
 5730SOL    HW228824   3.763   3.125   7.084 -0.5445 -3.3534 -3.6583
 5731SOL     OW28825   4.392   1.129   7.309  0.6551  0.5266 -0.6165
 5731SOL    HW128826   4.392   1.060   7.243  2.1521 -0.7549  0.7302
 5731SOL    HW228827   4.360   1.206   7.261 -1.1936  0.2074  0.1052
 5732SOL     OW28828   0.236   1.699  12.973 -0.5478  0.2431  0.1985
 5732SOL    HW128829   0.323   1.664  12.992 -0.7617 -0.9216 -0.9557
 5732SOL    HW228830   0.233   1.737  13.061 -3.1754 -0.4423  0.4027
 5733SOL     OW28831   1.140   2.738   4.998 -0.1706  0.9056  0.7649
 5733SOL    HW128832   1.062   2.762   5.048 -2.0799 -0.6625 -1.4572
 5733SOL    HW228833   1.095   2.672   4.945 -0.9223  0.6262  1.7449
 5734SOL     OW28834   4.612   2.268   7.839  0.2586 -0.1772 -0.3170
 5734SOL    HW128835   4.629   2.335   7.772 -0.4215 -1.4588 -1.7759
 5734SOL    HW228836   4.552   2.219   7.782 -0.0027 -1.0498  0.7142
 5735SOL     OW28837   4.518   4.143   5.162  0.0938 -0.0401  0.0342
 5735SOL    HW128838   4.607   4.175   5.157  0.1658 -0.5687 -1.9845
 5735SOL    HW228839   4.486   4.186   5.083 -0.2001  0.8336  0.6217
 5736SOL     OW28840   1.690   3.046   5.258  0.1066 -0.3877 -0.2079
 5736SOL    HW128841   1.698   3.048   5.163  1.2429  0.5308 -0.1009
 5736SOL    HW228842   1.656   2.958   5.273 -0.5396 -0.1342 -0.2018
 5737SOL     OW28843   4.116   4.333   5.774  0.0174 -0.0444  0.5167
 5737SOL    HW128844   4.139   4.413   5.821  0.3068  0.5514 -0.6409
 5737SOL    HW228845   4.045   4.299   5.828 -1.2794 -0.9602 -1.7353
 5738SOL     OW28846   0.657   2.204  15.295 -0.2780 -0.1763  0.8222
 5738SOL    HW128847   0.738   2.165  15.263 -1.3027  0.0471 -2.0575
 5738SOL    HW228848   0.611   2.133  15.341  0.1940  0.3105  2.0225
 5739SOL     OW28849   4.728   2.126  11.268 -0.5759 -0.0627  0.2969
 5739SOL    HW128850   4.710   2.034  11.289 -0.9069 -0.0750 -0.0505
 5739SOL    HW228851   0.044   2.153  11.343  1.7123  1.2306 -1.7568
 5740SOL     OW28852   4.039   1.763  12.350 -0.4289 -0.2265  0.2656
 5740SOL    HW128853   4.028   1.668  12.347 -0.5591 -0.2031  0.0448
 5740SOL    HW228854   3.969   1.787  12.411  0.9204 -1.3528  2.2380
 5741SOL     OW28855   4.637   3.315  17.108 -0.0604 -0.6057  1.0004
 5741SOL    HW128856   4.572   3.380  17.136 -2.6296 -2.2992 -1.0620
 5741SOL    HW228857   4.636   3.245  17.173  2.4398  0.0006  1.7010
 5742SOL     OW28858   4.333   2.049   2.526 -0.3241  0.3009 -0.1288
 5742SOL    HW128859   4.260   2.111   2.532 -1.0255 -0.5007 -0.4953
 5742SOL    HW228860   4.316   2.000   2.446  1.4827  0.7098 -0.7855
 5743SOL     OW28861   3.480   2.313   5.129 -0.2304 -0.0462  0.4461
 5743SOL    HW128862   3.486   2.321   5.034  0.2918 -1.5682  0.3475
 5743SOL    HW228863   3.388   2.329   5.148 -0.9086 -1.8622 -1.2750
 5744SOL     OW28864   0.154   0.627   6.544  0.2402  0.0777  0.0288
 5744SOL    HW128865   0.131   0.598   6.456  2.2844 -0.4716 -0.3365
 5744SOL    HW228866   0.071   0.631   6.590 -0.7928 -1.2871 -1.7030
 5745SOL     OW28867   1.313   2.386   4.553 -0.0005 -0.3584  0.3679
 5745SOL    HW128868   1.312   2.303   4.600 -2.5298 -0.5758 -0.0678
 5745SOL    HW228869   1.262   2.352   4.479 -0.3209  3.8996 -1.3646
 5746SOL     OW28870   0.076   2.589   9.577  0.5470  0.6880 -0.7509
 5746SOL    HW128871   4.730   2.550   9.548 -0.6378  1.9485  0.9742
 5746SOL    HW228872   0.042   2.670   9.615  2.9598  1.4396 -0.1699
 5747SOL     OW28873   2.815   1.887  10.062  0.6425 -0.5367  0.4225
 5747SOL    HW128874   2.746   1.834  10.101 -1.1366  1.1003 -0.5049
 5747SOL    HW228875   2.887   1.866  10.122  1.4374  2.7804  0.6326
 5748SOL     OW28876   1.144   4.187   8.456 -0.0813 -0.3861  0.3422
 5748SOL    HW128877   1.059   4.144   8.445  0.2994 -1.0415 -0.0686
 5748SOL    HW228878   1.202   4.111   8.469  1.0504  0.4059 -0.0349
 5749SOL     OW28879   1.262   0.679   5.992 -0.0465  0.2068  0.0140
 5749SOL    HW128880   1.354   0.703   6.001  0.5333 -1.1873 -2.2546
 5749SOL    HW228881   1.255   0.598   6.042 -3.3873 -0.0038 -0.7487
 5750SOL     OW28882   2.536   2.528   8.035 -0.2789 -0.2620 -0.4737
 5750SOL    HW128883   2.553   2.620   8.055 -1.5253  0.2183 -1.5689
 5750SOL    HW228884   2.527   2.511   7.941 -1.1298 -0.4172 -0.3613
 5751SOL     OW28885   4.139   1.455   0.273 -0.3953 -0.3124 -0.3463
 5751SOL    HW128886   4.128   1.376   0.220 -1.6207 -1.1799  1.2155
 5751SOL    HW228887   4.231   1.475   0.254 -0.6134  1.4573  0.4290
 5752SOL     OW28888   3.396   3.632   8.642 -0.3470  0.3629 -0.0694
 5752SOL    HW128889   3.360   3.546   8.623 -0.7517 -0.1376  2.8879
 5752SOL    HW228890   3.348   3.656   8.721  0.3251  1.4049  0.0282
 5753SOL     OW28891   4.242   3.144  12.691  0.6731  0.4790 -0.5731
 5753SOL    HW128892   4.301   3.219  12.698  0.2966  0.8437 -1.2662
 5753SOL    HW228893   4.198   3.149  12.606 -1.8526 -1.5799  0.6319
 5754SOL     OW28894   0.588   3.835   8.089 -0.2259  0.0878  0.2389
 5754SOL    HW128895   0.602   3.876   8.004  2.4671 -0.9038  0.2178
 5754SOL    HW228896   0.504   3.872   8.115 -0.2461  0.7222 -0.7206
 5755SOL     OW28897   2.574   3.177   6.701 -1.0192  0.2824  0.4429
 5755SOL    HW128898   2.607   3.200   6.787 -0.6647  2.0328 -0.1513
 5755SOL    HW228899   2.523   3.098   6.721 -1.1402  0.9514  2.7519
 5756SOL     OW28900   4.368   1.988   4.475  0.8507 -0.3978 -0.4075
 5756SOL    HW128901   4.320   2.071   4.477 -0.2456 -1.0773  1.9315
 5756SOL    HW228902   4.295   1.927   4.466  1.6303 -1.6125  1.5129
 5757SOL     OW28903   4.121   2.801   5.370 -0.3704  0.1320  0.1046
 5757SOL    HW128904   4.033   2.837   5.381 -0.9829 -1.0708 -0.8251
 5757SOL    HW228905   4.173   2.881   5.377  0.7577 -0.5729 -0.2931
 5758SOL     OW28906   1.550   2.654   6.354  1.0329  0.0400 -0.1276
 5758SOL    HW128907   1.470   2.668   6.405  2.3604  0.7620  1.7366
 5758SOL    HW228908   1.615   2.629   6.419  1.5570  2.0227  0.1103
 5759SOL     OW28909   3.231   2.575   7.360 -0.0092  0.0122  0.3141
 5759SOL    HW128910   3.304   2.531   7.317 -0.1046 -1.4053  1.6195
 5759SOL    HW228911   3.180   2.603   7.284 -1.3891  0.0041  1.2465
 5760SOL     OW28912   3.292   2.220   6.939  0.0607  0.4101 -0.1469
 5760SOL    HW128913   3.253   2.179   7.017 -1.1057  1.5055 -0.1437
 5760SOL    HW228914   3.355   2.154   6.912 -2.6168 -2.2390  0.0712
 5761SOL     OW28915   1.406   2.298   7.386  0.5126 -0.2242 -0.1267
 5761SOL    HW128916   1.486   2.285   7.437  0.3476  0.8352  0.4033
 5761SOL    HW228917   1.352   2.350   7.447  0.2339  1.8147 -2.1188
 5762SOL     OW28918   2.963   0.635   6.716 -0.0698 -0.6328 -0.3140
 5762SOL    HW128919   2.927   0.573   6.652 -3.1757  0.8340  0.0554
 5762SOL    HW228920   2.883   0.659   6.762  0.2263 -1.1020  0.4498
 5763SOL     OW28921   4.618   3.729   7.462 -0.0286  0.3557 -0.6286
 5763SOL    HW128922   4.642   3.745   7.371  0.1697 -0.8070 -0.7798
 5763SOL    HW228923   4.578   3.810   7.494 -0.7517 -0.0047 -0.6326
 5764SOL     OW28924   0.658   1.162   0.292 -0.2285  0.2071  0.5356
 5764SOL    HW128925   0.732   1.221   0.280 -2.0859  2.4615  0.1840
 5764SOL    HW228926   0.693   1.073   0.287 -1.8004 -0.3815  0.1374
 5765SOL     OW28927   4.097   2.176   6.013  0.1373 -0.3795 -0.0782
 5765SOL    HW128928   4.125   2.098   5.965  0.9470 -1.0542  1.4845
 5765SOL    HW228929   4.170   2.239   6.007  0.0453 -0.3413 -0.7139
 5766SOL     OW28930   4.195   2.846  11.321 -0.4714  0.1547  1.0974
 5766SOL    HW128931   4.131   2.868  11.253  0.1861 -0.2945  0.3424
 5766SOL    HW228932   4.220   2.934  11.350  1.2839 -0.1050  0.3529
 5767SOL     OW28933   4.677   0.417  16.156  0.1378  0.2790  0.7830
 5767SOL    HW128934   4.723   0.340  16.190  1.6176  0.4957 -0.7323
 5767SOL    HW228935   4.589   0.402  16.190 -0.3054  0.6897 -0.1959
 5768SOL     OW28936   4.289   4.191  16.379 -0.0244  0.1124  0.3181
 5768SOL    HW128937   4.242   4.254  16.324  1.5960  0.1230 -1.0670
 5768SOL    HW228938   4.369   4.187  16.326  1.1505  3.4096  1.9035
 5769SOL     OW28939   1.852   4.725   9.193  0.1330  0.0070 -0.2577
 5769SOL    HW128940   1.897   4.695   9.272 -0.0386 -1.7351 -0.8166
 5769SOL    HW228941   1.772   0.010   9.241  0.9044 -1.9764  1.9304
 5770SOL     OW28942   2.558   1.978   5.285 -1.0446 -0.3649  0.0395
 5770SOL    HW128943   2.652   1.962   5.281 -0.4197  3.1880  0.1006
 5770SOL    HW228944   2.528   1.978   5.194  1.4138 -0.5659 -0.7833
 5771SOL     OW28945   4.329   0.615   7.682 -0.0529  0.0513  0.4000
 5771SOL    HW128946   4.393   0.674   7.722 -0.4799  0.3673  0.6109
 5771SOL    HW228947   4.313   0.554   7.754  1.4588 -1.0719 -0.2154
 5772SOL     OW28948   3.062   2.271   2.498 -0.2619 -0.1578  0.3822
 5772SOL    HW128949   3.130   2.205   2.486  0.8915  0.4754  3.2850
 5772SOL    HW228950   3.057   2.317   2.414 -0.6467  0.9790  1.0220
 5773SOL     OW28951   1.536   4.334  16.532  0.2324  0.4472 -0.1822
 5773SOL    HW128952   1.616   4.300  16.572 -0.4048 -0.1892  0.5497
 5773SOL    HW228953   1.523   4.257  16.477 -1.3026 -0.7851  1.8919
 5774SOL     OW28954   4.488   0.625  14.970 -0.4309  0.6629  0.3840
 5774SOL    HW128955   4.396   0.609  14.991  0.0067 -0.1271  1.6885
 5774SOL    HW228956   4.485   0.717  14.942  2.7448 -0.0487 -2.2716
 5775SOL     OW28957   1.949   0.121   4.260 -0.3314  0.3040  0.1597
 5775SOL    HW128958   1.902   0.051   4.215  0.0265  1.4521 -1.9608
 5775SOL    HW228959   1.979   0.077   4.340 -2.8225  1.5252  1.7777
 5776SOL     OW28960   1.770   1.203   7.827 -0.6479 -0.0729  0.4088
 5776SOL    HW128961   1.844   1.249   7.865 -1.8432  0.9243  1.5386
 5776SOL    HW228962   1.698   1.240   7.879 -1.4128  1.3925 -1.6603
 5777SOL     OW28963   2.624   0.322   9.923  0.0654 -0.0861 -0.3097
 5777SOL    HW128964   2.596   0.404   9.883  1.2341  0.8327  0.7291
 5777SOL    HW228965   2.682   0.291   9.853 -1.2692 -0.8942 -1.0490
 5778SOL     OW28966   0.909   3.069   7.198  0.0518  0.1369 -0.1373
 5778SOL    HW128967   0.922   3.160   7.226 -0.5821 -0.2263  1.3772
 5778SOL    HW228968   0.954   3.060   7.114 -0.1629 -1.8948 -0.0257
 5779SOL     OW28969   0.744   3.823   3.286  0.3665  0.3118 -0.1616
 5779SOL    HW128970   0.742   3.793   3.377 -0.0300  1.3286  0.1750
 5779SOL    HW228971   0.809   3.764   3.249  0.2492  0.7904 -1.1429
 5780SOL     OW28972   3.368   1.080   8.952 -0.0100  0.7340  0.2407
 5780SOL    HW128973   3.317   1.056   9.030 -0.7563 -1.5998 -0.9717
 5780SOL    HW228974   3.456   1.092   8.987 -0.0754  0.5846  0.4599
 5781SOL     OW28975   3.739   2.200   2.829 -0.3068  0.1516 -0.2490
 5781SOL    HW128976   3.733   2.249   2.747  0.4659 -0.8862 -0.9344
 5781SOL    HW228977   3.767   2.116   2.792  2.3408  1.2865 -0.7888
 5782SOL     OW28978   2.024   3.933   3.828  0.3012 -0.4720 -0.6980
 5782SOL    HW128979   2.057   3.914   3.916 -0.8612 -1.9037 -0.5612
 5782SOL    HW228980   2.095   3.886   3.784 -2.3922 -1.7858 -3.6964
 5783SOL     OW28981   1.792   0.734   5.988 -0.2736 -0.8566  0.0299
 5783SOL    HW128982   1.853   0.744   5.915  0.7372  2.1617  1.2886
 5783SOL    HW228983   1.750   0.650   5.970 -2.2601  0.0988  0.2888
 5784SOL     OW28984   2.233   1.333   2.493  0.3779 -0.0660 -0.1999
 5784SOL    HW128985   2.281   1.278   2.431  0.0755  0.0005 -0.4887
 5784SOL    HW228986   2.172   1.266   2.524  0.1313  0.5525  0.6696
 5785SOL     OW28987   3.245   1.621   4.883 -0.0790  0.1456  0.2165
 5785SOL    HW128988   3.328   1.642   4.928 -0.1499 -1.2251  0.9775
 5785SOL    HW228989   3.271   1.592   4.796  0.0877  1.3025 -0.1174
 5786SOL     OW28990   3.200   2.721   7.759  0.1447  0.4779  0.4186
 5786SOL    HW128991   3.205   2.735   7.853  3.4428 -0.9365  0.4711
 5786SOL    HW228992   3.130   2.659   7.743  0.8301 -0.6957  2.0390
 5787SOL     OW28993   4.215   2.659   2.004  0.3682  0.4549  0.4455
 5787SOL    HW128994   4.281   2.727   2.016  0.3512  0.6913 -0.7639
 5787SOL    HW228995   4.244   2.618   1.922 -0.4486  2.2602 -0.7226
 5788SOL     OW28996   3.783   1.877   4.472  0.1389 -0.0185 -0.0539
 5788SOL    HW128997   3.872   1.849   4.490 -0.0610 -1.6261 -1.5012
 5788SOL    HW228998   3.752   1.788   4.455  0.1043 -0.4109  2.1454
 5789SOL     OW28999   4.409   4.228   1.372  0.0754 -0.2572  0.4938
 5789SOL    HW129000   4.406   4.255   1.280 -0.8978 -0.5246  0.4428
 5789SOL    HW229001   4.499   4.198   1.384 -0.0417  0.1264  2.3833
 5790SOL     OW29002   0.584   4.458  10.050 -0.5110 -0.2896  0.2592
 5790SOL    HW129003   0.579   4.496  10.138 -2.0793  0.6871 -0.2474
 5790SOL    HW229004   0.579   4.367  10.079  0.1668 -0.4721 -0.1937
 5791SOL     OW29005   2.762   4.571   4.257 -0.0606  0.1533 -0.3493
 5791SOL    HW129006   2.826   4.614   4.313 -0.5888 -1.1414  1.2423
 5791SOL    HW229007   2.748   4.642   4.194  1.9345 -0.3414 -1.3367
 5792SOL     OW29008   1.321   0.181   9.739  0.0566 -0.4957 -0.3886
 5792SOL    HW129009   1.247   0.138   9.695 -0.8139  0.7810 -0.1688
 5792SOL    HW229010   1.321   0.265   9.693 -2.2506 -0.7912 -0.9252
 5793SOL     OW29011   3.507   2.615   5.046  0.6149 -0.0055  0.2128
 5793SOL    HW129012   3.576   2.606   4.980 -0.9195  1.7973 -1.6324
 5793SOL    HW229013   3.548   2.556   5.109 -1.2871 -1.4439  0.1171
 5794SOL     OW29014   4.375   3.573   9.261 -0.5821  0.2793 -0.0349
 5794SOL    HW129015   4.322   3.500   9.291  0.8497 -0.4246  0.7222
 5794SOL    HW229016   4.355   3.569   9.167  0.7769 -2.1424 -0.2170
 5795SOL     OW29017   3.643   1.181   0.672  0.0051  0.3148 -0.4323
 5795SOL    HW129018   3.565   1.199   0.619 -0.9151  2.0982  1.5582
 5795SOL    HW229019   3.699   1.141   0.605  0.2301  4.4037 -2.6575
 5796SOL     OW29020   1.818   4.333   4.619 -0.3064 -0.1693  0.1149
 5796SOL    HW129021   1.827   4.422   4.651 -1.2658  0.5604 -1.6718
 5796SOL    HW229022   1.797   4.285   4.700  0.5693  2.1234  1.7056
 5797SOL     OW29023   2.651   0.797   9.811 -0.3427  0.3474  0.1586
 5797SOL    HW129024   2.670   0.868   9.872  1.1484  0.7157 -0.7318
 5797SOL    HW229025   2.717   0.815   9.744 -2.2388 -0.8511 -2.0082
 5798SOL     OW29026   3.105   3.024  15.684  0.0493 -0.3186  0.2621
 5798SOL    HW129027   3.149   2.951  15.729  0.3560 -0.7268 -0.6905
 5798SOL    HW229028   3.069   2.966  15.617  1.0166 -2.5548  1.6762
 5799SOL     OW29029   1.508   2.526   4.398  0.2519  0.0962  0.1550
 5799SOL    HW129030   1.438   2.484   4.448  0.2375  0.3219  0.3272
 5799SOL    HW229031   1.575   2.474   4.443  0.2672 -0.9388 -1.0663
 5800SOL     OW29032   1.278   2.253   5.024 -0.4132 -0.1808 -0.1014
 5800SOL    HW129033   1.283   2.174   4.971 -3.2395 -0.6694  0.3735
 5800SOL    HW229034   1.370   2.252   5.051 -0.5365 -0.3178  0.3227
 5801SOL     OW29035   3.072   4.165  12.085 -0.2624 -0.0544 -0.3370
 5801SOL    HW129036   3.128   4.092  12.110 -1.6512 -1.6041 -1.7360
 5801SOL    HW229037   3.089   4.210  12.168 -0.8571  1.6027 -1.0963
 5802SOL     OW29038   3.225   1.767   8.611 -0.3026 -0.7019  0.3872
 5802SOL    HW129039   3.263   1.855   8.603  0.9011 -1.2062  0.6039
 5802SOL    HW229040   3.135   1.799   8.598 -0.1253  0.2374  1.4191
 5803SOL     OW29041   4.716   1.206   2.192  0.3587 -0.0935 -0.5371
 5803SOL    HW129042   0.024   1.282   2.229 -1.0197  0.2475  0.4190
 5803SOL    HW229043   4.724   1.149   2.268 -0.2881 -2.1199 -2.0044
 5804SOL     OW29044   2.070   4.043   8.085  0.5571 -0.3298  0.1260
 5804SOL    HW129045   2.123   4.122   8.078  2.4862 -1.7280 -0.8992
 5804SOL    HW229046   1.984   4.085   8.088  0.1131 -1.4257  2.4367
 5805SOL     OW29047   3.794   3.034   7.586  0.1287 -0.7077  0.5199
 5805SOL    HW129048   3.752   2.953   7.615 -2.1488  0.0762 -0.5831
 5805SOL    HW229049   3.869   3.044   7.646  2.5193 -2.5854 -2.1639
 5806SOL     OW29050   2.841   1.352   7.778  0.1846 -0.7195  0.3952
 5806SOL    HW129051   2.814   1.275   7.727 -0.4000 -1.8109  2.3542
 5806SOL    HW229052   2.886   1.409   7.715 -0.8745 -0.9781 -0.5968
 5807SOL     OW29053   1.778   2.096  10.593 -0.8344 -0.8115 -0.1966
 5807SOL    HW129054   1.702   2.040  10.610 -1.2441 -0.7783 -1.9034
 5807SOL    HW229055   1.767   2.105  10.498 -0.8247 -1.0242 -0.2173
 5808SOL     OW29056   0.941   2.076   5.898 -0.0645  0.1717  0.2533
 5808SOL    HW129057   0.984   2.124   5.828  0.3902 -0.5884  0.0095
 5808SOL    HW229058   0.871   2.029   5.852  1.2597 -4.2495  2.7778
 5809SOL     OW29059   3.879   2.203   9.275  0.0673  0.1882  0.6945
 5809SOL    HW129060   3.970   2.232   9.263  0.8218 -1.9253  1.4427
 5809SOL    HW229061   3.861   2.211   9.368  0.7586  0.8869  0.7699
 5810SOL     OW29062   3.260   1.859   5.809 -0.2424  0.2524  0.2089
 5810SOL    HW129063   3.280   1.940   5.856 -0.2824  0.1591  0.3852
 5810SOL    HW229064   3.170   1.875   5.782 -0.3160  2.2038  1.5975
 5811SOL     OW29065   4.153   1.697   1.877  0.4174  0.0072  0.0378
 5811SOL    HW129066   4.211   1.717   1.803 -0.5790  3.2460  0.1520
 5811SOL    HW229067   4.174   1.606   1.896  0.0835  0.0391  0.5283
 5812SOL     OW29068   2.044   4.136   7.418  0.2586  0.0079 -0.2843
 5812SOL    HW129069   1.989   4.202   7.376 -1.0468 -1.7400 -1.2971
 5812SOL    HW229070   1.985   4.061   7.419  0.5853 -0.2515 -0.8993
 5813SOL     OW29071   4.385   2.380   3.953  0.2465 -0.2870  0.0137
 5813SOL    HW129072   4.461   2.343   3.999  0.2628  2.0037  1.8125
 5813SOL    HW229073   4.373   2.309   3.890  0.8527 -0.0023 -0.4130
 5814SOL     OW29074   2.551   1.023   4.333 -0.4506  0.0871  0.4945
 5814SOL    HW129075   2.517   0.945   4.377  1.2358 -1.2304 -0.5673
 5814SOL    HW229076   2.469   1.055   4.295 -0.5283  1.0152  1.4369
 5815SOL     OW29077   0.099   2.899   3.898  0.4048  0.3279 -0.1249
 5815SOL    HW129078   0.088   2.804   3.903 -3.0507  0.6257 -1.5810
 5815SOL    HW229079   0.024   2.936   3.945  0.6882 -0.7704  1.1693
 5816SOL     OW29080   2.307   3.719   7.880 -0.4729 -0.1180 -0.7212
 5816SOL    HW129081   2.274   3.756   7.962  3.7065 -0.9793  1.3279
 5816SOL    HW229082   2.363   3.791   7.850  0.7135 -0.6625  0.1796
 5817SOL     OW29083   4.246   0.782   0.026  0.0831 -0.6128  0.4603
 5817SOL    HW129084   4.341   0.773   0.014  0.2156  1.3358  0.0161
 5817SOL    HW229085   4.251   0.831   0.108  0.2706 -0.2614  0.2408
 5818SOL     OW29086   1.991   1.164   2.178 -0.3955 -0.1542 -0.0357
 5818SOL    HW129087   2.042   1.163   2.097 -0.1975 -0.4800  0.0944
 5818SOL    HW229088   1.976   1.257   2.193 -0.0951 -0.0874 -0.1728
 5819SOL     OW29089   0.920   2.589   3.196  0.0782 -0.5104  0.4725
 5819SOL    HW129090   0.890   2.590   3.287 -0.3881  1.1636  0.2919
 5819SOL    HW229091   0.914   2.497   3.170 -0.7457 -0.1414 -0.6405
 5820SOL     OW29092   4.602   2.483   9.429 -0.2571  0.1523 -0.3741
 5820SOL    HW129093   4.601   2.500   9.334 -2.0129 -0.5539 -0.4883
 5820SOL    HW229094   4.518   2.521   9.453 -0.3395  0.8391 -1.7437
 5821SOL     OW29095   4.484   0.050  10.556  0.4113  0.1649 -0.4615
 5821SOL    HW129096   4.392   0.077  10.554  0.8431  1.6677 -0.3862
 5821SOL    HW229097   4.525   0.131  10.588 -1.7377  1.6769 -1.5140
 5822SOL     OW29098   0.260   2.404  10.926 -0.6209  0.2278 -0.0860
 5822SOL    HW129099   0.221   2.363  10.849 -1.6651  1.2643 -0.1081
 5822SOL    HW229100   0.219   2.350  10.993 -2.7355  1.1340 -0.6218
 5823SOL     OW29101   0.793   0.067   9.581  0.0783 -0.0323  0.4818
 5823SOL    HW129102   0.782   0.025   9.495 -0.4277 -1.7858  1.4064
 5823SOL    HW229103   0.848   0.143   9.564  1.6913 -1.0519  1.1176
 5824SOL     OW29104   3.927   0.557   8.359  0.5752 -0.1947  0.2536
 5824SOL    HW129105   3.891   0.547   8.447  1.6710  1.9763  0.9449
 5824SOL    HW229106   4.009   0.515   8.387  1.4946  1.4903  0.0958
 5825SOL     OW29107   0.569   2.210   3.179 -0.2899 -0.2571  0.0155
 5825SOL    HW129108   0.478   2.204   3.150  0.1034  0.5969 -1.4031
 5825SOL    HW229109   0.608   2.212   3.092 -0.6785  1.7604 -0.1123
 5826SOL     OW29110   0.572   0.806   7.216  0.7345 -0.2377 -0.8814
 5826SOL    HW129111   0.561   0.895   7.248  0.9036 -0.8020  0.7062
 5826SOL    HW229112   0.648   0.775   7.264 -0.8099 -2.5653  0.0688
 5827SOL     OW29113   2.461   4.666   1.158  0.4969  0.5595  0.5051
 5827SOL    HW129114   2.538   4.722   1.167  0.0222  0.8788  2.6557
 5827SOL    HW229115   2.474   4.618   1.077  1.8079 -0.2004  1.1704
 5828SOL     OW29116   4.128   1.310   4.149  0.3542 -0.0070  0.5527
 5828SOL    HW129117   4.173   1.336   4.229 -1.0621  1.4117  0.8965
 5828SOL    HW229118   4.074   1.239   4.183 -0.7021 -0.3591 -1.8700
 5829SOL     OW29119   3.017   0.877   7.099 -0.7101  0.5164  0.1593
 5829SOL    HW129120   3.094   0.923   7.133 -0.7424 -0.5459  1.6940
 5829SOL    HW229121   2.981   0.851   7.184 -1.4460 -1.0659 -0.6303
 5830SOL     OW29122   2.300   0.465  12.397 -0.1457  0.1605  0.4597
 5830SOL    HW129123   2.360   0.393  12.377 -0.9325 -0.0915 -0.9182
 5830SOL    HW229124   2.281   0.459  12.491 -1.8069  2.0395  0.2293
 5831SOL     OW29125   0.215   3.121   7.924 -0.2217  0.4483  0.0645
 5831SOL    HW129126   0.287   3.181   7.938  0.2288 -0.0930  0.0758
 5831SOL    HW229127   0.261   3.037   7.917 -3.4394 -1.3644  0.3703
 5832SOL     OW29128   3.812   1.078   8.402 -0.4767  0.0282 -0.0793
 5832SOL    HW129129   3.904   1.057   8.385 -1.3242 -4.1368  0.4057
 5832SOL    HW229130   3.780   0.992   8.429 -0.9132  0.1451 -0.2278
 5833SOL     OW29131   1.296   4.095   2.710  0.5540  0.2650  0.8034
 5833SOL    HW129132   1.338   4.026   2.660  3.1339 -0.5283  4.0535
 5833SOL    HW229133   1.348   4.083   2.790  0.6235 -0.7163  0.6036
 5834SOL     OW29134   2.253   3.618   4.967 -0.1546 -0.1884  0.2047
 5834SOL    HW129135   2.233   3.580   4.881 -1.1169 -0.1457  0.4046
 5834SOL    HW229136   2.348   3.616   4.964 -0.2226 -1.9903 -1.1710
 5835SOL     OW29137   2.488   0.536   0.180 -0.4184  0.1880  0.2520
 5835SOL    HW129138   2.558   0.579   0.229 -1.3386  1.3656  0.5265
 5835SOL    HW229139   2.447   0.480   0.245  1.0712  0.7032  1.6376
 5836SOL     OW29140   0.095   4.275   5.528 -0.1046 -0.2162 -0.5284
 5836SOL    HW129141   0.129   4.265   5.617 -1.0366  2.1957  0.0976
 5836SOL    HW229142   0.174   4.296   5.478  0.4248  0.7270  0.6997
 5837SOL     OW29143   3.261   1.197  13.463  0.5083 -0.2301 -0.0053
 5837SOL    HW129144   3.234   1.229  13.549  0.2293 -2.5149  0.7664
 5837SOL    HW229145   3.300   1.277  13.428  0.0704 -0.8546 -1.8871
 5838SOL     OW29146   4.591   2.202  10.283  0.3351  0.3162 -0.5687
 5838SOL    HW129147   4.496   2.189  10.287  0.0906  2.7765  1.9952
 5838SOL    HW229148   4.620   2.155  10.205 -0.2687 -2.2446  0.7390
 5839SOL     OW29149   0.880   2.791   0.941  0.2639  0.0592 -0.3018
 5839SOL    HW129150   0.849   2.881   0.955 -1.3961 -0.1858 -2.4124
 5839SOL    HW229151   0.935   2.797   0.863  2.4122  0.7181  1.2891
 5840SOL     OW29152   0.140   4.614   1.621 -0.1807  0.0704 -0.2264
 5840SOL    HW129153   0.068   4.586   1.565 -0.4737 -1.7428  1.0524
 5840SOL    HW229154   0.162   4.542   1.680  1.1945  0.7209  0.0440
 5841SOL     OW29155   0.097   1.216   6.700 -0.1413 -0.1615  0.1195
 5841SOL    HW129156   0.044   1.293   6.678 -0.7095 -0.0348  1.9467
 5841SOL    HW229157   0.176   1.233   6.647 -0.3741 -0.8256 -0.4303
 5842SOL     OW29158   4.203   0.446   2.484  1.0474  0.2750 -0.5382
 5842SOL    HW129159   4.218   0.497   2.405  1.5231 -2.5881 -2.3032
 5842SOL    HW229160   4.153   0.366   2.464 -1.5042  2.0317 -1.2640
 5843SOL     OW29161   0.735   1.878  15.844  0.7299 -0.1010 -0.1112
 5843SOL    HW129162   0.715   1.785  15.855 -1.2506  0.0336 -2.6271
 5843SOL    HW229163   0.823   1.878  15.881  0.9897  1.1564 -0.7442
 5844SOL     OW29164   4.441   0.957   2.059  0.1654  0.0726  0.3185
 5844SOL    HW129165   4.443   1.010   2.139  3.9739  1.3889 -0.6734
 5844SOL    HW229166   4.531   0.925   2.063 -0.3116 -1.2498  0.3811
 5845SOL     OW29167   3.736   1.862   8.520 -0.4731 -0.1970 -0.0148
 5845SOL    HW129168   3.807   1.924   8.504  0.1840 -0.8324  0.4183
 5845SOL    HW229169   3.675   1.908   8.578 -1.1581  2.4347 -2.8527
 5846SOL     OW29170   3.644   4.348   4.184 -0.2881  0.0191  0.1469
 5846SOL    HW129171   3.593   4.302   4.251  1.9499  0.7694  2.3543
 5846SOL    HW229172   3.733   4.360   4.217 -0.5145  0.7354  0.5060
 5847SOL     OW29173   1.427   3.733   4.699 -0.0374  0.3089 -0.0571
 5847SOL    HW129174   1.385   3.788   4.766  1.9902  1.0369  0.6267
 5847SOL    HW229175   1.469   3.668   4.755  1.3310  1.1211 -0.1355
 5848SOL     OW29176   3.726   0.093  11.565  0.6321 -0.5741  0.5011
 5848SOL    HW129177   3.646   0.042  11.573  0.5031 -0.4951 -0.2830
 5848SOL    HW229178   3.773   0.071  11.645  1.2685  1.3899  0.6897
 5849SOL     OW29179   3.761   4.344  11.409  0.1929 -0.3466  0.5195
 5849SOL    HW129180   3.776   4.250  11.404  0.5728 -0.2316 -0.4868
 5849SOL    HW229181   3.849   4.379  11.394  0.4001 -1.3263 -0.5372
 5850SOL     OW29182   0.844   3.010  14.591 -0.2984 -0.1569  0.4939
 5850SOL    HW129183   0.787   3.006  14.668 -0.4303 -2.2687  0.3001
 5850SOL    HW229184   0.887   2.925  14.598 -0.5202 -0.4043 -1.1216
 5851SOL     OW29185   3.825   4.535  15.289  0.0380  0.1871  0.7856
 5851SOL    HW129186   3.775   4.454  15.291  0.9503 -0.3547  1.2954
 5851SOL    HW229187   3.812   4.554  15.196 -0.6100  0.9892  1.0411
 5852SOL     OW29188   0.371   1.956   7.837  0.7526 -0.1277  0.0344
 5852SOL    HW129189   0.316   1.910   7.774  0.0350  1.3676 -0.4478
 5852SOL    HW229190   0.442   2.006   7.797  1.3634 -0.9552  0.1030
 5853SOL     OW29191   1.855   2.395   5.144 -0.0673 -0.5421  0.0795
 5853SOL    HW129192   1.780   2.401   5.084 -0.2416 -0.7578  0.2749
 5853SOL    HW229193   1.900   2.479   5.139  2.2215 -1.7546  0.4150
 5854SOL     OW29194   4.312   0.659   4.505  0.0945 -0.0518  0.1651
 5854SOL    HW129195   4.395   0.613   4.491  0.1313 -0.5558  1.9447
 5854SOL    HW229196   4.309   0.672   4.600  2.8357  0.4764  0.1628
 5855SOL     OW29197   4.520   0.412   4.619 -0.3539  0.4940  0.6101
 5855SOL    HW129198   4.615   0.416   4.613 -0.4281 -0.1121 -0.9483
 5855SOL    HW229199   4.500   0.472   4.691 -3.4982  0.8033 -0.5231
 5856SOL     OW29200   4.628   1.628   4.463 -0.6656 -0.1383  0.8173
 5856SOL    HW129201   4.678   1.696   4.418 -1.3661 -0.5104 -0.5498
 5856SOL    HW229202   4.568   1.673   4.521  0.2476  0.5557  1.2182
 5857SOL     OW29203   2.660   3.743   9.537 -0.2694  0.4788 -0.4439
 5857SOL    HW129204   2.596   3.808   9.565  0.9195  2.2001 -1.6623
 5857SOL    HW229205   2.614   3.730   9.454 -0.8450 -0.5140  0.0362
 5858SOL     OW29206   2.868   2.072  10.966  0.1500 -0.1733 -0.1770
 5858SOL    HW129207   2.879   2.146  11.026  1.1342 -1.3537  1.1168
 5858SOL    HW229208   2.779   2.042  10.984  0.2978 -2.0980 -2.6766
 5859SOL     OW29209   1.518   3.468   6.912 -0.3810 -0.4163 -0.1106
 5859SOL    HW129210   1.543   3.379   6.885  0.7138 -0.4535  1.0169
 5859SOL    HW229211   1.605   3.492   6.944 -0.1280 -0.7340 -0.5522
 5860SOL     OW29212   0.323   2.741  16.230  0.6196  1.0128 -0.0265
 5860SOL    HW129213   0.262   2.813  16.216 -0.1678  0.4195  0.3042
 5860SOL    HW229214   0.358   2.725  16.142 -0.8916  1.1423 -0.6449
 5861SOL     OW29215   1.671   2.618   8.536 -0.5104 -0.0199 -0.0740
 5861SOL    HW129216   1.708   2.597   8.621  1.5442 -1.3897 -1.3052
 5861SOL    HW229217   1.649   2.710   8.549 -1.1007 -0.4066  1.6741
 5862SOL     OW29218   2.356   2.278  12.185  0.1617 -0.3471 -0.0381
 5862SOL    HW129219   2.366   2.357  12.132  0.7722  0.7036  1.6473
 5862SOL    HW229220   2.448   2.260  12.206 -0.2521 -2.2310  0.1724
 5863SOL     OW29221   0.931   1.804   6.316  0.0460  0.3837 -0.6280
 5863SOL    HW129222   0.933   1.884   6.263 -2.4819  1.5586  1.0247
 5863SOL    HW229223   0.940   1.850   6.399  2.0340 -1.2769  0.0519
 5864SOL     OW29224   3.261   1.558  16.993  0.3461 -0.0999  0.0190
 5864SOL    HW129225   3.302   1.512  16.920  1.3602  0.4963  0.2161
 5864SOL    HW229226   3.321   1.541  17.065  0.3956  4.2903  0.9905
 5865SOL     OW29227   1.977   3.072   9.180  0.2116 -0.5973 -0.1470
 5865SOL    HW129228   2.003   2.986   9.214  0.1643 -0.3792  0.4424
 5865SOL    HW229229   1.892   3.054   9.140  0.5269 -0.4966 -0.8556
 5866SOL     OW29230   3.226   2.524   3.658  0.7643  0.5883 -0.1993
 5866SOL    HW129231   3.153   2.478   3.700 -0.4338  1.7571 -0.9996
 5866SOL    HW229232   3.222   2.477   3.575  1.4699  1.6017 -0.8069
 5867SOL     OW29233   1.033   0.639   8.683 -0.2429  0.7220  0.2035
 5867SOL    HW129234   0.968   0.708   8.667  1.0756  1.7888 -0.5153
 5867SOL    HW229235   1.091   0.647   8.608 -1.7137  1.2767 -0.8828
 5868SOL     OW29236   0.967   2.511   6.121  0.4750  0.2834 -0.5517
 5868SOL    HW129237   0.964   2.606   6.125  1.7396  0.3565 -1.3653
 5868SOL    HW229238   1.060   2.503   6.102  0.4350  0.9765 -1.0262
 5869SOL     OW29239   2.108   2.351   7.621  0.1741  0.5187  0.2715
 5869SOL    HW129240   2.126   2.265   7.584 -2.1961 -0.0920  0.5303
 5869SOL    HW229241   2.188   2.400   7.600  0.0310  1.4605  1.9278
 5870SOL     OW29242   3.390   1.409   4.378  0.7605 -0.7150  0.5666
 5870SOL    HW129243   3.423   1.487   4.333  0.8447 -0.4762  1.0470
 5870SOL    HW229244   3.319   1.392   4.316  2.2369 -3.1249 -0.4495
 5871SOL     OW29245   0.547   3.455   7.309 -0.4545 -0.0435 -0.5500
 5871SOL    HW129246   0.451   3.463   7.311 -0.1415  2.6554  2.2505
 5871SOL    HW229247   0.562   3.510   7.232 -0.4624 -0.4141 -0.8203
 5872SOL     OW29248   3.169   3.338   8.177  0.5745  0.5252  0.3304
 5872SOL    HW129249   3.214   3.422   8.186  0.4463  0.5476  0.7730
 5872SOL    HW229250   3.245   3.283   8.160 -1.8236 -2.6128 -0.2989
 5873SOL     OW29251   3.466   0.090   2.431 -0.5778  0.2171 -0.5392
 5873SOL    HW129252   3.411   0.038   2.490 -0.2590  0.3826 -0.0952
 5873SOL    HW229253   3.551   0.054   2.454 -0.6641  1.1323  1.2088
 5874SOL     OW29254   3.705   3.971  12.977  0.2411 -0.1792  0.5194
 5874SOL    HW129255   3.763   3.961  13.053  0.4112 -0.8963  0.2904
 5874SOL    HW229256   3.769   3.947  12.911  0.7174 -1.7016  1.5401
 5875SOL     OW29257   3.056   3.102   8.779 -0.1018  0.6346 -0.3728
 5875SOL    HW129258   3.127   3.041   8.759 -0.5162  0.2006 -0.5079
 5875SOL    HW229259   2.978   3.053   8.755  1.2571 -1.4919 -0.4832
 5876SOL     OW29260   2.795   2.204   2.963  0.6191 -0.0087 -0.0234
 5876SOL    HW129261   2.810   2.141   3.033  1.1503 -2.3441 -2.2794
 5876SOL    HW229262   2.805   2.162   2.878 -0.4052 -0.7850  0.2390
 5877SOL     OW29263   2.466   0.275   8.217  0.9660  0.4097  0.5045
 5877SOL    HW129264   2.520   0.321   8.282  1.8854 -0.6417  0.4965
 5877SOL    HW229265   2.426   0.208   8.272  1.1216 -0.4721 -0.4617
 5878SOL     OW29266   3.219   1.921  10.475 -0.1881 -0.1101  0.3312
 5878SOL    HW129267   3.261   2.005  10.491  0.7247 -1.1085  3.3788
 5878SOL    HW229268   3.292   1.859  10.464  0.8766  0.9475  1.4402
 5879SOL     OW29269   0.315   1.670   0.022  0.1987 -0.3596  0.1934
 5879SOL    HW129270   0.410   1.673   0.035  0.3297 -2.6982 -0.1230
 5879SOL    HW229271   0.294   1.584  17.730  0.7053 -0.3329 -0.1594
 5880SOL     OW29272   1.288   2.236   6.708 -0.0112  0.0177 -0.0631
 5880SOL    HW129273   1.288   2.332   6.705 -0.1186  0.0167 -0.0808
 5880SOL    HW229274   1.268   2.226   6.801  1.1961  0.1992  0.2180
 5881SOL     OW29275   2.615   4.437   6.999  0.5411 -0.5162  0.9212
 5881SOL    HW129276   2.560   4.366   7.033  0.0083 -1.2428 -1.4121
 5881SOL    HW229277   2.590   4.504   7.062 -1.4045 -0.8971  0.5747
 5882SOL     OW29278   0.152   4.674  16.164  0.4358 -0.4380  0.4745
 5882SOL    HW129279   0.219   4.707  16.223  0.1007  1.6258 -0.3132
 5882SOL    HW229280   0.171   4.734  16.092  0.0527 -1.5195 -0.5298
 5883SOL     OW29281   4.420   0.964   0.762  0.1526  0.2807 -0.4123
 5883SOL    HW129282   4.331   1.000   0.769 -0.4208 -1.0427 -0.7736
 5883SOL    HW229283   4.426   0.963   0.667 -1.1988  2.1375 -0.5184
 5884SOL     OW29284   1.403   2.901   1.330 -0.4311 -0.2523  0.2440
 5884SOL    HW129285   1.315   2.887   1.297  0.0718 -1.3881 -0.6153
 5884SOL    HW229286   1.452   2.819   1.321  0.0430  0.0651 -0.0900
 5885SOL     OW29287   2.528   4.344   8.243  0.0156 -0.0963 -0.3665
 5885SOL    HW129288   2.477   4.334   8.163 -2.3421  1.0857  0.9949
 5885SOL    HW229289   2.480   4.278   8.293 -1.9587  0.7298 -1.1647
 5886SOL     OW29290   3.664   4.396   5.345  0.4177  0.3507 -0.2428
 5886SOL    HW129291   3.747   4.358   5.375 -0.6490 -1.1175  0.8346
 5886SOL    HW229292   3.693   4.417   5.256  0.6724 -1.6789 -0.6394
 5887SOL     OW29293   3.950   1.573  16.531  0.1079  0.1913 -0.4786
 5887SOL    HW129294   3.950   1.667  16.511 -2.4584  0.2772 -0.0812
 5887SOL    HW229295   4.041   1.554  16.553 -0.2177 -1.7584 -0.7551
 5888SOL     OW29296   3.336   3.948   3.657 -0.0353 -0.4131  0.2131
 5888SOL    HW129297   3.320   4.014   3.724 -1.0090 -0.9618  0.5200
 5888SOL    HW229298   3.430   3.954   3.640  0.0629 -0.8598  0.5970
 5889SOL     OW29299   3.934   2.184   0.155 -0.4409  0.1418  0.4178
 5889SOL    HW129300   4.028   2.196   0.144 -0.1590 -1.7230  0.7985
 5889SOL    HW229301   3.907   2.163   0.065 -0.1707 -0.6204  0.5154
 5890SOL     OW29302   0.305   3.984   6.918  0.2057  0.4448  0.0665
 5890SOL    HW129303   0.212   3.978   6.939 -0.3654  1.1243 -2.2772
 5890SOL    HW229304   0.340   4.054   6.973 -0.9586  0.1445  1.2118
 5891SOL     OW29305   1.912   3.673   4.272  0.6152 -0.1762 -0.6019
 5891SOL    HW129306   1.938   3.708   4.357 -2.2301  1.5454 -0.4253
 5891SOL    HW229307   1.874   3.749   4.229  1.3084  1.3262  1.4399
 5892SOL     OW29308   0.409   1.484   6.639  0.4948  0.8256 -0.0084
 5892SOL    HW129309   0.334   1.542   6.627  0.0528  0.4870  1.1351
 5892SOL    HW229310   0.442   1.515   6.723 -0.6090 -1.2703  1.2001
 5893SOL     OW29311   2.936   1.339   6.243  0.2454  0.3382 -0.0974
 5893SOL    HW129312   2.925   1.434   6.234 -2.1458  0.2751  2.0040
 5893SOL    HW229313   3.027   1.329   6.271 -0.2643  0.3572  1.5540
 5894SOL     OW29314   3.877   4.654   9.765 -0.3828  0.2883  0.3422
 5894SOL    HW129315   3.821   4.594   9.814 -1.7059  0.4567 -0.9597
 5894SOL    HW229316   3.912   4.700   9.841 -2.0843  1.0641  0.6724
 5895SOL     OW29317   1.528   1.486   8.504  0.2040  0.0687  0.4192
 5895SOL    HW129318   1.443   1.520   8.534  0.6168 -1.2789  3.0424
 5895SOL    HW229319   1.515   1.391   8.506 -0.9465  0.2007 -0.5565
 5896SOL     OW29320   1.218   0.618  17.190  0.1723  0.3280 -0.3083
 5896SOL    HW129321   1.286   0.615  17.123  0.5240 -0.1803  0.0747
 5896SOL    HW229322   1.142   0.640  17.136  0.7057 -0.2271 -1.2916
 5897SOL     OW29323   1.839   1.642   4.734  0.1603 -0.0718 -0.0141
 5897SOL    HW129324   1.864   1.630   4.825  0.2856 -2.3912 -0.3529
 5897SOL    HW229325   1.810   1.733   4.745  1.6892  0.1383  2.1996
 5898SOL     OW29326   1.283   2.177   6.981 -0.0634  0.2867  0.7544
 5898SOL    HW129327   1.364   2.183   7.032 -0.2332 -1.9779  1.2788
 5898SOL    HW229328   1.218   2.168   7.051 -0.7176 -1.1256 -0.0464
 5899SOL     OW29329   3.331   0.100   9.146  0.5853  0.0055 -0.6553
 5899SOL    HW129330   3.359   0.102   9.054  2.0986 -2.8608 -0.2710
 5899SOL    HW229331   3.270   0.026   9.140 -0.4677  0.8009  0.2979
 5900SOL     OW29332   0.576   2.304  13.625  0.4764  0.1847  0.2322
 5900SOL    HW129333   0.532   2.389  13.625 -1.0743 -0.6080  1.7854
 5900SOL    HW229334   0.582   2.281  13.533 -3.6763  1.0013 -0.2626
 5901SOL     OW29335   4.506   1.665  15.341  0.0764  1.0068 -0.2103
 5901SOL    HW129336   4.463   1.670  15.256 -0.2881  0.2297 -0.0725
 5901SOL    HW229337   4.444   1.622  15.400  3.4594 -1.4274  1.5562
 5902SOL     OW29338   4.513   3.772   6.178 -0.7194 -0.4443 -0.1977
 5902SOL    HW129339   4.443   3.822   6.220 -1.2444 -0.2983 -1.2435
 5902SOL    HW229340   4.595   3.811   6.208 -2.6352  3.1684  0.3138
 5903SOL     OW29341   3.043   3.473   2.527 -0.8604 -0.1375  0.3598
 5903SOL    HW129342   3.054   3.560   2.565  0.0326 -0.2365  0.3380
 5903SOL    HW229343   3.065   3.415   2.600 -1.6994 -0.3887  0.4194
 5904SOL     OW29344   1.047   0.821  15.053  0.6973  0.4984  0.0156
 5904SOL    HW129345   0.954   0.819  15.077  0.1306  0.3397 -2.2270
 5904SOL    HW229346   1.078   0.833  15.143 -0.2233  1.5380  0.1837
 5905SOL     OW29347   0.307   4.594   1.983 -0.1864  0.2810  0.1684
 5905SOL    HW129348   0.269   4.528   1.925 -0.4770  0.3767  0.2520
 5905SOL    HW229349   0.396   4.574   1.954 -0.5636 -0.3784 -0.5496
 5906SOL     OW29350   4.625   4.608   9.550 -0.0736  0.5125  0.0931
 5906SOL    HW129351   4.688   4.600   9.622  3.7420  1.6688 -3.1452
 5906SOL    HW229352   4.678   4.664   9.495 -0.7649  1.9587  0.8984
 5907SOL     OW29353   1.576   2.064   9.469 -0.3600  0.1089 -0.2782
 5907SOL    HW129354   1.564   1.980   9.514  0.1271  0.4250  0.4443
 5907SOL    HW229355   1.487   2.073   9.435  0.1110  1.0632 -1.2655
 5908SOL     OW29356   3.446   0.823  13.279 -0.4468  0.2101  0.7153
 5908SOL    HW129357   3.450   0.728  13.276  0.3811  0.1899  2.1834
 5908SOL    HW229358   3.508   0.845  13.211 -1.5738  2.6274  0.4744
 5909SOL     OW29359   3.268   4.115   2.706 -0.1388 -0.5256  0.3529
 5909SOL    HW129360   3.266   4.210   2.714 -0.7502 -0.6116  1.1572
 5909SOL    HW229361   3.321   4.088   2.781  0.7792 -0.1099 -0.1469
 5910SOL     OW29362   3.039   0.314   4.344 -0.6102 -0.8548  0.6395
 5910SOL    HW129363   3.049   0.260   4.266  1.6962 -0.0067  0.3403
 5910SOL    HW229364   3.098   0.259   4.394  0.8659 -1.7944 -2.1568
 5911SOL     OW29365   0.867   4.643   3.886  0.3304  0.3580 -0.2602
 5911SOL    HW129366   0.911   4.724   3.862 -0.8931  1.6460  1.7923
 5911SOL    HW229367   0.888   4.639   3.980  0.1034 -0.8678 -0.2574
 5912SOL     OW29368   3.482   2.088   5.508 -0.6957 -0.3369  0.1096
 5912SOL    HW129369   3.417   2.122   5.447  1.0208 -0.0606 -1.5964
 5912SOL    HW229370   3.522   2.031   5.442  0.7358  0.8274 -0.0439
 5913SOL     OW29371   3.078   2.542   4.182  0.3019  0.0621 -0.0334
 5913SOL    HW129372   3.048   2.494   4.104 -0.3158  1.7608 -0.8257
 5913SOL    HW229373   3.048   2.480   4.249  2.9672  0.3899  1.4272
 5914SOL     OW29374   2.923   1.454   4.142  0.0732  0.2854  0.3998
 5914SOL    HW129375   2.991   1.424   4.081 -1.9585  0.1387 -1.7946
 5914SOL    HW229376   2.895   1.365   4.166 -0.9010  0.9341  1.6496
 5915SOL     OW29377   1.213   2.313  15.046  0.4670  0.0770 -0.1499
 5915SOL    HW129378   1.307   2.325  15.053  0.6627 -2.3471  1.6589
 5915SOL    HW229379   1.198   2.242  15.109  0.0069 -0.1221 -0.4803
 5916SOL     OW29380   4.048   0.989  13.430 -0.2339 -0.3183 -0.0376
 5916SOL    HW129381   4.126   0.939  13.406 -0.5645 -2.1049  2.5287
 5916SOL    HW229382   4.065   1.072  13.386 -0.9109 -0.9998 -1.5841
 5917SOL     OW29383   4.416   0.701   2.428 -0.2020  0.0218 -0.4883
 5917SOL    HW129384   4.441   0.632   2.367 -1.0723  1.5188 -2.5086
 5917SOL    HW229385   4.460   0.674   2.509 -0.1134  0.4182 -0.4044
 5918SOL     OW29386   0.740   0.747   8.913 -0.1180 -0.1929  0.3310
 5918SOL    HW129387   0.690   0.691   8.972  0.0720 -0.3006  0.3918
 5918SOL    HW229388   0.718   0.696   8.835 -0.3010  1.3121 -0.6026
 5919SOL     OW29389   3.989   2.190   4.414  0.1336 -0.5013  0.0249
 5919SOL    HW129390   4.050   2.212   4.485 -0.3113  2.3307 -0.4630
 5919SOL    HW229391   3.997   2.099   4.387 -1.9340 -0.8544  0.6872
 5920SOL     OW29392   3.887   3.797  10.486 -0.2220  0.2900  0.2789
 5920SOL    HW129393   3.897   3.844  10.568  0.7330  2.5251 -1.1279
 5920SOL    HW229394   3.802   3.835  10.462  0.1289  1.9197  1.5911
 5921SOL     OW29395   2.731   3.776  12.680  0.1527  0.0613 -0.0516
 5921SOL    HW129396   2.685   3.828  12.746 -1.9244  0.2755 -1.6803
 5921SOL    HW229397   2.705   3.837  12.611 -1.3118  0.7884  1.1484
 5922SOL     OW29398   2.011   3.402   9.019  0.3307 -0.3590  0.1332
 5922SOL    HW129399   2.053   3.462   9.080  1.6276 -0.7726 -0.3344
 5922SOL    HW229400   1.973   3.459   8.953  0.2794  0.1482  0.6032
 5923SOL     OW29401   3.233   0.189   2.824  0.6311 -0.0405 -0.3444
 5923SOL    HW129402   3.260   0.192   2.916  1.8355 -2.4434 -0.6280
 5923SOL    HW229403   3.162   0.125   2.821  0.1105  0.5473 -0.5335
 5924SOL     OW29404   4.408   2.216   1.573  0.0183  0.2148  0.3726
 5924SOL    HW129405   4.360   2.234   1.654 -2.7283  0.8402 -1.4093
 5924SOL    HW229406   4.498   2.236   1.601  1.1324 -1.6807 -1.8084
 5925SOL     OW29407   4.521   3.749   2.351 -0.4382  0.4978  0.4933
 5925SOL    HW129408   4.515   3.842   2.331 -0.9966 -0.0011 -1.6524
 5925SOL    HW229409   4.441   3.713   2.312  2.0843 -1.4559 -2.8732
 5926SOL     OW29410   4.089   2.860  12.067 -0.2379  0.6976 -0.4312
 5926SOL    HW129411   4.047   2.803  12.132 -1.7834  0.1062 -1.9529
 5926SOL    HW229412   4.116   2.798  11.999 -1.1755  0.3236 -0.4684
 5927SOL     OW29413   1.796   0.695   3.044  0.3203 -0.8466  0.1764
 5927SOL    HW129414   1.802   0.703   2.949 -1.5183 -2.0647 -0.0204
 5927SOL    HW229415   1.737   0.768   3.062  1.7164  0.9437 -2.3870
 5928SOL     OW29416   1.048   2.502  11.108 -0.3698  0.0291  0.0470
 5928SOL    HW129417   0.959   2.469  11.097  0.6709 -2.6818 -0.3221
 5928SOL    HW229418   1.103   2.439  11.062 -0.1164  0.3278 -0.0572
 5929SOL     OW29419   4.231   2.599   6.626  0.3556  0.6744 -0.3449
 5929SOL    HW129420   4.218   2.687   6.592 -1.0579  0.8463  0.6617
 5929SOL    HW229421   4.238   2.541   6.550  1.0375  0.6073 -0.2293
 5930SOL     OW29422   3.324   4.457   7.837  0.4402  0.0316  0.4216
 5930SOL    HW129423   3.265   4.384   7.820 -0.4494  0.7788  0.2959
 5930SOL    HW229424   3.411   4.417   7.836 -0.3227 -1.5948 -1.2273
 5931SOL     OW29425   0.017   1.045   6.286  0.0733 -0.1369  0.2649
 5931SOL    HW129426   0.050   1.022   6.374  0.6879  0.7351  0.2586
 5931SOL    HW229427   4.662   1.070   6.296  0.7585  1.4700  2.5914
 5932SOL     OW29428   3.414   0.232  13.538 -0.2145 -0.5818 -0.3828
 5932SOL    HW129429   3.454   0.316  13.518  0.4713  0.1701  4.0393
 5932SOL    HW229430   3.323   0.261  13.526 -0.6635 -1.8275 -0.0168
 5933SOL     OW29431   3.641   1.691   1.688  0.0251  0.3618 -0.1792
 5933SOL    HW129432   3.649   1.778   1.648 -0.8564  1.1532  1.3497
 5933SOL    HW229433   3.725   1.689   1.734 -0.4592 -5.9913  0.3369
 5934SOL     OW29434   2.801   3.921  16.961  0.4832 -0.4796  0.4083
 5934SOL    HW129435   2.853   3.858  16.910 -1.0205  0.0961 -1.8270
 5934SOL    HW229436   2.845   3.927  17.046  1.3655 -1.3571  0.0169
 5935SOL     OW29437   1.681   2.097   8.601  0.0583 -0.1867 -0.4694
 5935SOL    HW129438   1.640   2.083   8.515 -2.1947 -0.3100  0.6120
 5935SOL    HW229439   1.617   2.061   8.663  0.5737  0.2317  0.3064
 5936SOL     OW29440   1.859   4.650   3.576  0.4937 -0.2478  0.2503
 5936SOL    HW129441   1.949   4.660   3.545  0.4432  0.6303  0.3759
 5936SOL    HW229442   1.875   4.624   3.667 -0.9872  0.3039  0.6726
 5937SOL     OW29443   0.170   0.629   7.967  0.0572 -0.2422 -0.2293
 5937SOL    HW129444   0.189   0.593   7.880  4.2269  0.6080  0.3137
 5937SOL    HW229445   0.078   0.606   7.974 -0.5099  1.9228 -0.7064
 5938SOL     OW29446   1.887   0.631   4.804 -0.0563 -0.3674  0.2375
 5938SOL    HW129447   1.807   0.683   4.799  0.9238  0.9792 -1.6327
 5938SOL    HW229448   1.845   0.558   4.758  1.3271 -1.0714  0.0968
 5939SOL     OW29449   1.826   2.049   7.494  0.1791 -0.4477 -0.3881
 5939SOL    HW129450   1.846   2.010   7.580  0.0384  0.7890  0.2066
 5939SOL    HW229451   1.903   2.013   7.452  1.0029 -0.3385  1.0148
 5940SOL     OW29452   1.309   0.145   1.828  0.2906  0.0589 -0.4679
 5940SOL    HW129453   1.290   0.058   1.794  0.9473 -0.0132 -0.6477
 5940SOL    HW229454   1.273   0.134   1.916  1.7118 -0.2179  0.0875
 5941SOL     OW29455   3.623   1.297   3.037  0.7652  0.1301  0.2594
 5941SOL    HW129456   3.576   1.220   3.071  0.0897 -0.1971 -1.3844
 5941SOL    HW229457   3.563   1.365   3.067  0.2432  0.7753 -2.2938
 5942SOL     OW29458   0.606   3.425   5.384 -0.6235  0.2045  0.1332
 5942SOL    HW129459   0.608   3.505   5.332 -1.0190 -0.1690 -0.4602
 5942SOL    HW229460   0.683   3.381   5.348 -2.1150 -2.6586  0.4340
 5943SOL     OW29461   1.086   1.892  12.720  0.3154 -0.3527  0.0255
 5943SOL    HW129462   1.076   1.862  12.810 -1.1502 -0.7136 -0.2610
 5943SOL    HW229463   1.046   1.979  12.723  1.0718  0.0232 -0.5738
 5944SOL     OW29464   3.505   0.589   1.552 -0.6609 -0.4283  0.7832
 5944SOL    HW129465   3.513   0.494   1.568  1.7649 -0.2819  0.4758
 5944SOL    HW229466   3.594   0.619   1.572  0.6929 -2.9883 -1.4257
 5945SOL     OW29467   2.884   3.567   6.466  0.0748 -0.0262  0.5656
 5945SOL    HW129468   2.909   3.533   6.552  0.4646  1.2972  0.9851
 5945SOL    HW229469   2.825   3.497   6.439  3.6170 -2.7772 -0.0081
 5946SOL     OW29470   1.201   1.465  16.829  0.4166  0.6367  0.1923
 5946SOL    HW129471   1.192   1.431  16.740 -1.2031  1.2642  0.1311
 5946SOL    HW229472   1.114   1.499  16.847  0.0554  0.0390 -0.4380
 5947SOL     OW29473   1.474   1.001  11.567  0.6257 -0.3785  0.0157
 5947SOL    HW129474   1.557   0.995  11.614  0.0116  1.7617  1.3552
 5947SOL    HW229475   1.484   1.075  11.507 -0.9634 -1.2493 -1.3237
 5948SOL     OW29476   1.540   3.028   6.276  0.5520  0.6494 -0.5912
 5948SOL    HW129477   1.536   2.973   6.198  1.6635  1.7337 -1.4092
 5948SOL    HW229478   1.614   2.983   6.316  0.7871  2.6082  1.1901
 5949SOL     OW29479   3.093   1.254   7.965  0.0704 -0.5669  0.7659
 5949SOL    HW129480   3.080   1.340   8.005 -0.7601 -0.6195  0.6016
 5949SOL    HW229481   3.003   1.229   7.944  0.3474 -1.0751  0.1916
 5950SOL     OW29482   4.074   3.501  16.149 -0.2421 -0.0003  0.0757
 5950SOL    HW129483   4.022   3.421  16.136 -2.0241  1.1160  0.3456
 5950SOL    HW229484   4.061   3.505  16.244 -1.3222  0.2202 -0.0841
 5951SOL     OW29485   0.303   4.082   3.348 -0.1778  0.2530  0.5539
 5951SOL    HW129486   0.277   3.991   3.365  1.3712 -0.4195 -0.6032
 5951SOL    HW229487   0.388   4.061   3.309 -1.9718 -1.9651 -2.2295
 5952SOL     OW29488   0.712   1.874   6.891 -0.3373  0.5168 -0.0409
 5952SOL    HW129489   0.689   1.839   6.804  0.8436 -0.0736 -0.1142
 5952SOL    HW229490   0.791   1.924   6.872  1.8616 -2.5643  0.9409
 5953SOL     OW29491   3.861   1.513   9.795 -0.7503 -0.5242 -0.0786
 5953SOL    HW129492   3.852   1.418   9.795 -1.9154 -0.4089  0.2962
 5953SOL    HW229493   3.845   1.539   9.704  2.0360  0.1460 -0.3977
 5954SOL     OW29494   3.797   0.807   4.563 -0.1437  0.1105  0.6154
 5954SOL    HW129495   3.813   0.803   4.657  0.2218 -2.8514  0.4319
 5954SOL    HW229496   3.858   0.738   4.536 -0.0343  0.1952  0.6418
 5955SOL     OW29497   1.191   0.421   6.612 -0.5065  0.3851 -0.4385
 5955SOL    HW129498   1.220   0.484   6.547 -1.9637  2.5528  1.0179
 5955SOL    HW229499   1.266   0.407   6.669 -1.0120  0.0431  0.1502
 5956SOL     OW29500   0.227   4.317   2.947 -0.3921 -0.0723  0.0465
 5956SOL    HW129501   0.239   4.373   2.870 -0.2056 -1.7368 -1.1257
 5956SOL    HW229502   0.286   4.244   2.931 -0.1295  0.5472 -1.7487
 5957SOL     OW29503   3.370   0.383   9.136  0.5801  0.0758 -0.1800
 5957SOL    HW129504   3.370   0.288   9.134 -0.5131  0.0448  1.6118
 5957SOL    HW229505   3.427   0.394   9.212  0.0933  1.0058  0.0510
 5958SOL     OW29506   4.022   2.518   8.024 -0.7805 -0.1766  0.3027
 5958SOL    HW129507   4.005   2.573   8.101  0.2833  0.3207  0.1844
 5958SOL    HW229508   4.067   2.444   8.065 -1.0054 -1.0764 -1.0902
 5959SOL     OW29509   2.513   0.675   2.683  0.0293  0.1907  0.4698
 5959SOL    HW129510   2.591   0.678   2.628 -0.1122  0.5426  0.2886
 5959SOL    HW229511   2.554   0.696   2.766  1.5436  1.0346 -0.4926
 5960SOL     OW29512   2.556   1.972   7.275  0.1488 -0.4822 -0.3600
 5960SOL    HW129513   2.463   1.997   7.272  0.4338  0.4005 -2.0493
 5960SOL    HW229514   2.588   2.055   7.309 -0.4491 -0.5501  0.3741
 5961SOL     OW29515   4.413   0.662   1.649 -0.1487 -0.2290  0.5450
 5961SOL    HW129516   4.384   0.725   1.715 -2.4353 -1.1856  0.4475
 5961SOL    HW229517   4.335   0.607   1.640  0.4019 -1.1291  1.2200
 5962SOL     OW29518   4.245   3.865  12.113  0.5579  0.0686  0.5515
 5962SOL    HW129519   4.176   3.801  12.095  1.4573 -0.9839  0.8756
 5962SOL    HW229520   4.318   3.828  12.065 -0.1624 -1.6852  0.8229
 5963SOL     OW29521   0.836   1.088   8.611  0.1859  0.2412 -0.0777
 5963SOL    HW129522   0.869   0.999   8.609 -1.8119 -0.5123  0.0822
 5963SOL    HW229523   0.766   1.075   8.675  0.0479 -0.9228 -0.4578
 5964SOL     OW29524   3.730   3.899   0.655  0.0687 -0.2409 -0.3147
 5964SOL    HW129525   3.691   3.859   0.732 -2.2088 -0.3776 -1.5458
 5964SOL    HW229526   3.735   3.991   0.682  2.0411 -0.7945  1.2141
 5965SOL     OW29527   3.741   0.838   1.701  0.5155  0.4197 -0.4975
 5965SOL    HW129528   3.736   0.885   1.618 -2.9071 -1.5992 -1.4291
 5965SOL    HW229529   3.652   0.801   1.701  0.3163  0.9073  0.1907
 5966SOL     OW29530   0.933   2.551  10.143  0.0391 -0.6756  0.2081
 5966SOL    HW129531   0.966   2.544  10.054  2.3408 -1.0100  1.0804
 5966SOL    HW229532   0.967   2.473  10.188  2.9020 -0.4533 -1.5481
 5967SOL     OW29533   2.184   0.355   1.897 -0.0662 -0.2597  0.1417
 5967SOL    HW129534   2.239   0.368   1.820 -0.6973 -0.5239 -0.3470
 5967SOL    HW229535   2.155   0.266   1.881  0.7588 -0.2314 -1.4461
 5968SOL     OW29536   0.323   1.302   3.777  0.0821  0.3276  0.1868
 5968SOL    HW129537   0.301   1.369   3.712  2.0551  0.4556 -0.3558
 5968SOL    HW229538   0.273   1.230   3.740 -0.1913  1.1124 -0.9737
 5969SOL     OW29539   4.288   2.823   4.435 -0.3863  0.5406  0.9686
 5969SOL    HW129540   4.347   2.791   4.367 -0.5675  1.2033  0.5033
 5969SOL    HW229541   4.275   2.914   4.407 -1.3214 -0.7074 -2.6347
 5970SOL     OW29542   0.043   3.232   4.777 -0.0586 -0.2228 -0.6720
 5970SOL    HW129543   0.060   3.315   4.733  0.3350 -0.4696 -0.9929
 5970SOL    HW229544   4.692   3.216   4.742 -1.2240  2.5405  1.0720
 5971SOL     OW29545   2.496   3.765   2.616  0.0261 -0.5745 -0.0210
 5971SOL    HW129546   2.490   3.837   2.553 -4.2447 -1.6110 -0.7881
 5971SOL    HW229547   2.587   3.736   2.610  0.3377  0.0262  1.6322
 5972SOL     OW29548   1.984   2.926  15.272  0.3311  0.0394 -0.1446
 5972SOL    HW129549   2.004   2.859  15.337  1.3733  0.2965 -0.1875
 5972SOL    HW229550   1.897   2.960  15.292  0.1786 -0.1668 -0.4611
 5973SOL     OW29551   0.897   4.355   6.377 -0.1261 -0.7445  0.0702
 5973SOL    HW129552   0.966   4.356   6.310 -0.0920  1.9155  0.1582
 5973SOL    HW229553   0.827   4.309   6.330  1.1290 -0.6792 -1.8840
 5974SOL     OW29554   2.056   1.604   7.074  0.6164  0.0499  0.5004
 5974SOL    HW129555   2.143   1.628   7.108  0.7133 -0.3472  0.5405
 5974SOL    HW229556   2.023   1.583   7.161 -1.6816 -0.2067 -0.4565
 5975SOL     OW29557   3.875   1.963  15.096 -0.2436  0.0705  0.4416
 5975SOL    HW129558   3.878   1.867  15.090 -1.2781  0.0338  0.5523
 5975SOL    HW229559   3.928   1.978  15.017  0.7569  3.5476  1.8040
 5976SOL     OW29560   0.905   0.898   3.045 -0.1350 -0.1809  0.1875
 5976SOL    HW129561   0.839   0.843   3.002  0.0847 -1.3733  1.3588
 5976SOL    HW229562   0.859   0.894   3.129 -0.6193  0.1474 -0.0594
 5977SOL     OW29563   1.918   2.218   9.863  0.6749  0.3573  0.8634
 5977SOL    HW129564   1.963   2.143   9.901 -2.6226 -0.9434  2.1721
 5977SOL    HW229565   1.826   2.193   9.869  0.3509  1.6981  1.5265
 5978SOL     OW29566   1.341   0.261  10.220  0.8127 -0.2864  0.3615
 5978SOL    HW129567   1.280   0.277  10.148 -1.1598 -1.7181  1.6715
 5978SOL    HW229568   1.339   0.165  10.213  1.2838 -0.2727  0.0847
 5979SOL     OW29569   4.008   4.477   2.108 -0.1319 -0.0008  0.4411
 5979SOL    HW129570   4.015   4.455   2.015 -3.0641 -1.8452  0.6405
 5979SOL    HW229571   4.041   4.399   2.153 -1.1743 -0.7632 -0.0962
 5980SOL     OW29572   2.460   1.856  16.911  0.3941 -0.1371  0.0182
 5980SOL    HW129573   2.489   1.912  16.839 -0.3039  2.8959  2.1357
 5980SOL    HW229574   2.370   1.887  16.916  0.9057  1.5802 -1.7053
 5981SOL     OW29575   0.690   3.237   9.148  0.1618 -0.1463 -0.1171
 5981SOL    HW129576   0.746   3.242   9.226 -0.7641  0.7706  0.4840
 5981SOL    HW229577   0.638   3.316   9.159 -0.4391 -0.6137  0.3672
 5982SOL     OW29578   0.948   2.386   1.527 -0.4221 -0.1791 -0.2961
 5982SOL    HW129579   0.999   2.324   1.579  3.1136  1.6131 -1.6044
 5982SOL    HW229580   0.961   2.468   1.576  0.3310 -2.1207  2.7344
 5983SOL     OW29581   0.113   4.323   0.114 -0.3213 -0.2232  0.1250
 5983SOL    HW129582   0.021   4.304   0.132 -0.5174  1.9163  1.3982
 5983SOL    HW229583   0.127   4.367   0.197  0.3340 -1.5541  0.7279
 5984SOL     OW29584   1.117   3.117   0.255 -0.2457 -1.0201  0.3929
 5984SOL    HW129585   1.172   3.039   0.243  3.3324  1.6423 -0.4905
 5984SOL    HW229586   1.057   3.084   0.323  0.7606  0.1108  1.8203
 5985SOL     OW29587   3.381   1.896  16.284  0.0064 -0.2701 -0.1836
 5985SOL    HW129588   3.336   1.817  16.252  0.0189  0.4011 -1.8522
 5985SOL    HW229589   3.406   1.927  16.197  2.1109 -0.6257  0.3078
 5986SOL     OW29590   3.113   1.879   8.890 -0.2820 -0.0975 -0.2822
 5986SOL    HW129591   3.195   1.843   8.856  0.4321 -0.7477  2.1003
 5986SOL    HW229592   3.052   1.812   8.861  0.1749 -0.3284 -0.7062
 5987SOL     OW29593   2.610   0.402   5.359  0.0439  0.2886 -0.1110
 5987SOL    HW129594   2.704   0.419   5.355  0.3611 -1.6864 -1.1812
 5987SOL    HW229595   2.579   0.447   5.280  1.0144  0.4844 -0.3839
 5988SOL     OW29596   0.468   0.080   8.360 -0.8380 -0.3697  0.6815
 5988SOL    HW129597   0.379   0.100   8.331 -0.4127  3.0332  1.6737
 5988SOL    HW229598   0.522   0.120   8.291 -1.2802  0.5374  0.8539
 5989SOL     OW29599   3.145   3.245   6.816  0.5290 -0.2607 -0.3884
 5989SOL    HW129600   3.186   3.162   6.790 -0.1886 -0.3480 -1.2396
 5989SOL    HW229601   3.222   3.301   6.818  0.4405 -0.1580  0.0803
 5990SOL     OW29602   4.224   1.260   7.969  0.2313  0.1887  0.6984
 5990SOL    HW129603   4.242   1.308   8.050 -0.6877 -1.0854  1.6551
 5990SOL    HW229604   4.267   1.322   7.910  0.6034  1.6327  2.4962
 5991SOL     OW29605   3.468   0.220   1.930  0.2839 -0.2726 -0.0571
 5991SOL    HW129606   3.516   0.238   2.011 -0.0311  1.9187 -0.3630
 5991SOL    HW229607   3.537   0.234   1.865  1.8219 -3.0707  0.9774
 5992SOL     OW29608   2.535   3.910   4.152 -0.0730 -0.2899 -0.1134
 5992SOL    HW129609   2.573   3.925   4.238 -1.6479  0.1293  0.5178
 5992SOL    HW229610   2.520   3.815   4.160 -0.7692 -0.0794  1.0621
 5993SOL     OW29611   1.121   0.825   8.062  0.4410  0.7731  0.0797
 5993SOL    HW129612   1.106   0.805   7.970  0.2228  0.9577  0.0767
 5993SOL    HW229613   1.215   0.843   8.053  0.5565  0.0334 -0.2059
 5994SOL     OW29614   4.703   4.075   2.990  0.5312  0.0142  0.2778
 5994SOL    HW129615   4.700   4.141   3.059 -1.3046  0.7798 -0.5280
 5994SOL    HW229616   4.652   4.133   2.933 -1.2599 -3.0451 -1.2408
 5995SOL     OW29617   2.235   0.685   7.345 -0.2729 -0.5868 -0.5136
 5995SOL    HW129618   2.278   0.766   7.319 -2.1985  0.3422 -0.7399
 5995SOL    HW229619   2.314   0.630   7.350  1.2275  1.8041  1.6738
 5996SOL     OW29620   3.594   3.261   7.921 -0.0362 -0.1338  0.3297
 5996SOL    HW129621   3.667   3.201   7.936  0.3609  0.0523 -0.8865
 5996SOL    HW229622   3.611   3.298   7.834  2.3371 -2.0137 -0.0079
 5997SOL     OW29623   0.411   3.063   4.517  0.3208 -0.3910  0.0948
 5997SOL    HW129624   0.467   2.991   4.486  1.7582  1.5979 -2.0191
 5997SOL    HW229625   0.321   3.036   4.504  0.1658 -0.2095  0.8229
 5998SOL     OW29626   3.990   3.871   1.673 -0.2047  0.1501  0.0966
 5998SOL    HW129627   3.972   3.930   1.745 -0.9664  0.8466 -0.6639
 5998SOL    HW229628   3.974   3.785   1.712 -0.0763  1.5533  3.1677
 5999SOL     OW29629   0.404   4.176   3.796  0.0517 -0.2890 -0.2418
 5999SOL    HW129630   0.310   4.191   3.794  0.0711 -0.6187 -3.5756
 5999SOL    HW229631   0.417   4.131   3.712  1.4674 -0.0701 -0.1469
 6000SOL     OW29632   0.232   0.546   5.887 -0.1996 -0.7764 -0.5787
 6000SOL    HW129633   0.223   0.521   5.795 -0.3346  0.1552 -0.8133
 6000SOL    HW229634   0.154   0.598   5.905  2.4651  2.4402  1.4860
 6001SOL     OW29635   0.344   2.971  17.742 -0.5718 -0.2258  0.0706
 6001SOL    HW129636   0.248   2.972   0.001 -0.5308 -0.4062  0.9562
 6001SOL    HW229637   0.360   2.919   0.075 -0.7389  0.3914  0.5076
 6002SOL     OW29638   0.517   3.340   6.571  0.0888  0.3328 -0.0224
 6002SOL    HW129639   0.491   3.329   6.663  0.6144  1.8980  0.3182
 6002SOL    HW229640   0.507   3.250   6.542  3.2470 -0.2885  0.8273
 6003SOL     OW29641   2.267   4.026   1.054 -0.1618 -0.4660  0.4698
 6003SOL    HW129642   2.345   4.081   1.059  0.1593 -0.9102  0.3931
 6003SOL    HW229643   2.218   4.095   1.010  1.8685  1.2697  0.9242
 6004SOL     OW29644   1.520   3.704  14.221 -0.3428 -0.1500 -0.4266
 6004SOL    HW129645   1.585   3.687  14.289 -0.2850 -1.3887 -0.7964
 6004SOL    HW229646   1.491   3.619  14.188 -2.1954 -0.8859  3.0477
 6005SOL     OW29647   0.916   0.163   4.041  0.0639  0.2314  0.1196
 6005SOL    HW129648   0.827   0.190   4.017  0.2535 -1.9867 -3.0917
 6005SOL    HW229649   0.962   0.175   3.958 -0.3319 -1.0916 -0.2939
 6006SOL     OW29650   1.512   1.261   7.982  0.3327 -0.3154 -0.1431
 6006SOL    HW129651   1.536   1.354   7.987 -0.7438 -0.0607  0.3327
 6006SOL    HW229652   1.498   1.249   8.076  0.0152  1.9503  0.0933
 6007SOL     OW29653   3.798   3.988  10.659 -0.1460  0.3654 -0.7410
 6007SOL    HW129654   3.734   3.966  10.726 -0.0191  0.2477 -0.6603
 6007SOL    HW229655   3.757   4.058  10.607  1.4234  0.8405 -1.3546
 6008SOL     OW29656   4.720   2.784   8.844  0.6266 -0.0672  0.2822
 6008SOL    HW129657   4.662   2.813   8.914  0.4363 -0.1672  0.1631
 6008SOL    HW229658   0.027   2.706   8.880  0.9840  0.1519  0.3278
 6009SOL     OW29659   1.538   2.745   5.824  0.2512  0.0607  0.6188
 6009SOL    HW129660   1.562   2.652   5.830 -1.3966 -0.3610  0.7496
 6009SOL    HW229661   1.601   2.785   5.765 -0.8405  1.7027  0.5792
 6010SOL     OW29662   4.278   2.925  12.377 -0.1445 -0.2907 -0.5600
 6010SOL    HW129663   4.317   2.899  12.460  1.9463  2.7323 -0.6081
 6010SOL    HW229664   4.225   2.846  12.362  0.2542 -0.4103 -1.3491
 6011SOL     OW29665   2.539   0.617   3.941  0.4765  0.2268  0.0207
 6011SOL    HW129666   2.475   0.549   3.964  1.0245  0.8696  3.3686
 6011SOL    HW229667   2.531   0.682   4.010  0.8669  0.4029 -0.0954
 6012SOL     OW29668   0.816   0.741   4.490 -0.3952 -0.1696  0.4029
 6012SOL    HW129669   0.907   0.718   4.471 -0.3281  0.9714 -0.6160
 6012SOL    HW229670   0.799   0.649   4.513  1.3240 -0.1487  1.7321
 6013SOL     OW29671   1.686   4.500   6.455  0.1864  0.1235 -0.2255
 6013SOL    HW129672   1.686   4.589   6.489  0.7841  0.2870 -0.6585
 6013SOL    HW229673   1.685   4.527   6.363 -1.7270  1.7314  0.2792
 6014SOL     OW29674   3.172   3.998  13.603 -0.5703 -0.6761  0.5321
 6014SOL    HW129675   3.086   4.005  13.564 -0.5810  2.5720  1.0990
 6014SOL    HW229676   3.222   3.940  13.545  2.3912  0.9622  1.4002
 6015SOL     OW29677   1.661   4.332   9.026 -0.6054  0.3019 -0.1942
 6015SOL    HW129678   1.608   4.334   8.946 -0.9671 -0.6173  0.0222
 6015SOL    HW229679   1.714   4.407   8.998 -0.0790 -0.4098 -1.1153
 6016SOL     OW29680   3.691   1.644  14.687  0.3779 -0.4793 -0.9751
 6016SOL    HW129681   3.611   1.598  14.662  0.6715 -0.5514 -1.7824
 6016SOL    HW229682   3.738   1.566  14.716  0.3354 -0.3808 -0.6309
 6017SOL     OW29683   0.067   2.583   3.534 -0.4738  0.7626  0.1396
 6017SOL    HW129684   0.072   2.493   3.502  0.6301  0.5071  1.0093
 6017SOL    HW229685   4.718   2.595   3.575 -0.2629 -3.3876  1.8126
 6018SOL     OW29686   1.228   1.303  13.132  0.0947  0.4548 -0.2087
 6018SOL    HW129687   1.228   1.240  13.204 -4.8252 -2.8176 -3.0614
 6018SOL    HW229688   1.173   1.261  13.065 -0.2347 -0.9656  0.9761
 6019SOL     OW29689   2.971   2.252  16.578 -0.0348 -0.1690  0.1236
 6019SOL    HW129690   2.883   2.286  16.592 -0.0206 -0.9518  2.1332
 6019SOL    HW229691   3.021   2.302  16.643 -0.4210 -0.5993  0.7496
 6020SOL     OW29692   1.101   4.684   7.606  0.0974 -0.5716 -0.0616
 6020SOL    HW129693   1.162   4.680   7.533  2.5053  1.1102  1.8667
 6020SOL    HW229694   1.158   4.634   7.664  0.8249 -1.7967 -1.8506
 6021SOL     OW29695   0.772   3.852   2.939  0.2729  0.5568 -0.2503
 6021SOL    HW129696   0.762   3.816   3.027  0.6617 -2.1900 -1.3125
 6021SOL    HW229697   0.866   3.868   2.929  0.6545 -1.5761 -0.0255
 6022SOL     OW29698   2.278   0.025  12.459  0.0473 -0.1724 -0.1575
 6022SOL    HW129699   2.332   4.683  12.460 -1.9920 -1.5118  2.6067
 6022SOL    HW229700   2.193   4.725  12.435  0.9465 -0.3619 -3.0953
 6023SOL     OW29701   0.460   2.600   0.060 -0.5388 -0.1353 -0.1987
 6023SOL    HW129702   0.437   2.545  17.731 -1.6384  0.6738 -0.4453
 6023SOL    HW229703   0.552   2.578   0.075 -1.1040 -2.3421  0.0223
 6024SOL     OW29704   3.224   0.996   9.156 -0.2169  0.1462  0.4014
 6024SOL    HW129705   3.205   1.055   9.229 -0.8310  0.4627 -0.0185
 6024SOL    HW229706   3.143   0.948   9.141 -0.0319  0.5338 -1.8522
 6025SOL     OW29707   3.046   4.322   1.649 -0.1344 -0.3112 -0.1331
 6025SOL    HW129708   2.990   4.247   1.632 -2.0013  0.5922  1.9725
 6025SOL    HW229709   2.982   4.394   1.646  2.0087  1.5851 -0.1084
 6026SOL     OW29710   2.402   4.285  10.331  0.0955  0.7084  0.2487
 6026SOL    HW129711   2.344   4.217  10.296  1.8004 -0.5074 -0.2007
 6026SOL    HW229712   2.338   4.355  10.342  1.7797  1.6580  3.9159
 6027SOL     OW29713   0.214   2.281   1.109 -0.1682  0.3113 -0.0055
 6027SOL    HW129714   0.307   2.264   1.125  0.1462  1.2776 -0.7959
 6027SOL    HW229715   0.192   2.204   1.057 -0.1448  0.0553  0.3609
 6028SOL     OW29716   1.852   2.159  17.349 -0.5268 -0.0922 -0.5597
 6028SOL    HW129717   1.940   2.123  17.336 -0.2796  0.2206  0.2556
 6028SOL    HW229718   1.841   2.170  17.255  0.9362 -0.0338 -0.7280
 6029SOL     OW29719   1.187   2.420   5.852 -0.0195  0.3147 -0.0940
 6029SOL    HW129720   1.219   2.509   5.867 -0.8901  0.6207 -0.0109
 6029SOL    HW229721   1.093   2.431   5.835  0.1316  1.2184 -0.3456
 6030SOL     OW29722   2.269   0.651   1.164  0.6634 -0.6123  0.2705
 6030SOL    HW129723   2.254   0.557   1.148  1.2809 -0.6495 -0.1137
 6030SOL    HW229724   2.199   0.673   1.225  0.1378 -1.4579 -0.0153
 6031SOL     OW29725   4.158   0.412   6.883  0.2552 -0.1000  0.4486
 6031SOL    HW129726   4.196   0.329   6.855 -0.3515 -0.8554  1.8751
 6031SOL    HW229727   4.070   0.396   6.850  0.1416  1.7224 -0.1292
 6032SOL     OW29728   0.102   0.163   1.025  0.4631 -0.3374 -0.5525
 6032SOL    HW129729   0.037   0.220   1.066  0.9605 -0.9590  1.1096
 6032SOL    HW229730   0.144   0.120   1.099  1.9379  2.3856  0.1832
 6033SOL     OW29731   4.572   4.226   7.962  0.0421  0.0684 -0.1575
 6033SOL    HW129732   4.646   4.165   7.964  0.7138  0.8363 -1.3494
 6033SOL    HW229733   4.618   4.309   7.976 -1.2384  0.7874 -0.1996
 6034SOL     OW29734   0.655   0.924  12.338 -0.3995 -0.2692  0.0425
 6034SOL    HW129735   0.734   0.963  12.302 -1.4263  1.1983 -0.6483
 6034SOL    HW229736   0.596   0.940  12.264 -0.3764  3.1045  0.7099
 6035SOL     OW29737   2.645   0.978   4.764 -0.2117  0.2139  0.0457
 6035SOL    HW129738   2.628   1.069   4.790 -2.6891 -0.3390  0.3525
 6035SOL    HW229739   2.733   0.964   4.798 -0.1923 -0.8084 -0.4394
 6036SOL     OW29740   0.387   3.902  14.688 -0.1787 -0.2212 -0.7920
 6036SOL    HW129741   0.302   3.929  14.722 -0.0016  1.0990 -1.4187
 6036SOL    HW229742   0.412   3.980  14.640 -0.8150 -0.1598 -1.0214
 6037SOL     OW29743   0.306   0.295   9.266 -0.1830 -0.5695  0.3756
 6037SOL    HW129744   0.312   0.391   9.259 -1.1094 -0.4582  1.1240
 6037SOL    HW229745   0.293   0.291   9.361 -0.3147 -1.0527  0.3354
 6038SOL     OW29746   2.673   1.500   5.397  0.1552 -0.2029  1.0463
 6038SOL    HW129747   2.716   1.473   5.316  3.1127  1.4503  2.0867
 6038SOL    HW229748   2.743   1.486   5.459 -0.0847 -2.0581  0.9084
 6039SOL     OW29749   1.970   0.680   3.714 -0.2401  0.0014 -0.4345
 6039SOL    HW129750   1.949   0.593   3.748 -0.2988  0.7127  1.3463
 6039SOL    HW229751   2.013   0.671   3.629  0.5327 -0.3389 -0.0027
 6040SOL     OW29752   3.657   0.302  13.013 -0.0938  0.0618 -0.0048
 6040SOL    HW129753   3.734   0.354  12.991  0.6821 -1.0158  0.1207
 6040SOL    HW229754   3.630   0.342  13.096  0.0925 -1.2473  0.6938
 6041SOL     OW29755   1.276   3.004   6.984  0.3403  0.0825 -0.4390
 6041SOL    HW129756   1.248   3.026   7.073  0.9618 -1.3070  0.0932
 6041SOL    HW229757   1.370   3.022   6.984  0.2157  0.7219 -0.5587
 6042SOL     OW29758   0.229   3.749   5.511 -0.2276  0.2130  0.0683
 6042SOL    HW129759   0.257   3.659   5.497  2.3141  1.0247 -0.0690
 6042SOL    HW229760   0.143   3.749   5.467 -0.8665 -1.8247  1.3369
 6043SOL     OW29761   3.563   3.905   3.073  0.0251  0.0128  0.0932
 6043SOL    HW129762   3.567   3.847   3.148  1.3484 -0.4046 -0.3115
 6043SOL    HW229763   3.515   3.978   3.113 -1.2901 -0.4527 -0.6428
 6044SOL     OW29764   2.157   0.998   5.340 -0.1609 -0.0899 -0.1219
 6044SOL    HW129765   2.232   0.948   5.375 -0.4401  0.1620  0.8442
 6044SOL    HW229766   2.101   1.010   5.417  0.0824  0.9844 -0.1192
 6045SOL     OW29767   0.189   4.596   7.109 -0.0054 -0.3051  0.3883
 6045SOL    HW129768   0.134   4.606   7.187 -2.6357 -2.8379 -1.1107
 6045SOL    HW229769   0.120   4.575   7.047 -0.3036 -0.8076  0.8889
 6046SOL     OW29770   4.374   4.344   8.892  0.8536  0.2531  0.0574
 6046SOL    HW129771   4.445   4.294   8.934  0.1668 -2.6870 -2.3309
 6046SOL    HW229772   4.327   4.273   8.849  1.1256 -1.1221  2.0356
 6047SOL     OW29773   0.082   2.871   3.605  0.0716  0.7508  0.1056
 6047SOL    HW129774   0.090   2.875   3.700  0.5204 -0.5083  0.1260
 6047SOL    HW229775   0.072   2.778   3.586 -0.5179  0.2682  2.8746
 6048SOL     OW29776   4.029   4.421   3.261  0.0850  0.3700 -0.2607
 6048SOL    HW129777   4.048   4.473   3.182 -1.3823  0.7151 -0.3877
 6048SOL    HW229778   4.108   4.438   3.312 -0.5478  0.7253  0.5894
 6049SOL     OW29779   0.077   3.159   7.328  0.5201 -0.3863  0.6166
 6049SOL    HW129780   0.081   3.067   7.354  1.9739 -1.1334 -2.2506
 6049SOL    HW229781   0.154   3.169   7.271 -2.4227  0.1460 -3.2618
 6050SOL     OW29782   1.037   2.801  12.139 -0.9023 -0.1802 -0.1324
 6050SOL    HW129783   1.115   2.747  12.129  0.0984  1.4354 -1.0560
 6050SOL    HW229784   1.053   2.863  12.211  0.2899 -1.6114  0.8313
 6051SOL     OW29785   3.929   4.088  10.860  0.9324  0.5224  0.6636
 6051SOL    HW129786   3.989   4.146  10.812 -2.0578  3.0105 -0.0883
 6051SOL    HW229787   3.895   4.035  10.789  0.1928 -0.4654  1.7504
 6052SOL     OW29788   1.600   0.102   5.407 -0.7979  0.1161  0.2671
 6052SOL    HW129789   1.671   0.059   5.359 -0.2323  0.0693  1.1397
 6052SOL    HW229790   1.650   0.128   5.484 -1.2921 -1.6660  1.2029
 6053SOL     OW29791   3.430   3.668   2.952  0.2088  0.1631 -0.0224
 6053SOL    HW129792   3.470   3.680   3.038  0.2659 -1.1630  0.1492
 6053SOL    HW229793   3.476   3.588   2.926  1.3520  0.7331  0.2398
 6054SOL     OW29794   1.968   2.334   2.816 -0.2077 -0.3645 -0.0701
 6054SOL    HW129795   2.026   2.263   2.790 -0.0886 -0.6046  0.8507
 6054SOL    HW229796   2.009   2.365   2.896 -1.7139 -0.0542  0.5783
 6055SOL     OW29797   1.480   2.678   2.777 -0.2794 -0.4727  0.3984
 6055SOL    HW129798   1.524   2.610   2.724 -1.9165 -0.7162 -0.6514
 6055SOL    HW229799   1.559   2.703   2.825  1.5965  0.8634 -3.4008
 6056SOL     OW29800   2.412   2.457  14.258  0.0698  0.1278  0.0735
 6056SOL    HW129801   2.336   2.491  14.211 -0.0522  0.0155  0.1893
 6056SOL    HW229802   2.392   2.363  14.261  0.7305  0.0139  0.9045
 6057SOL     OW29803   0.099   2.924   1.722  0.3466 -0.7650  0.6297
 6057SOL    HW129804   0.120   2.864   1.651 -2.9943 -1.6556  0.3762
 6057SOL    HW229805   0.097   3.009   1.677  2.7462 -0.7025  0.6908
 6058SOL     OW29806   2.299   1.326   4.959 -0.2268 -0.2054  0.2111
 6058SOL    HW129807   2.336   1.337   4.871  0.7667  1.0280  0.7898
 6058SOL    HW229808   2.304   1.231   4.969  0.0921 -0.0397  1.5837
 6059SOL     OW29809   0.319   3.898   1.858 -0.2002  0.3138  0.0732
 6059SOL    HW129810   0.247   3.852   1.902 -0.9432 -0.2996 -1.7603
 6059SOL    HW229811   0.322   3.859   1.771  0.1242  0.3593  0.0667
 6060SOL     OW29812   3.281   0.648  13.479 -0.7913  0.4576 -0.1162
 6060SOL    HW129813   3.196   0.605  13.474 -0.3506 -0.5489  0.7760
 6060SOL    HW229814   3.262   0.734  13.442 -0.4070  1.3885  1.8426
 6061SOL     OW29815   0.625   4.381   9.174  0.2612  0.0683  0.2953
 6061SOL    HW129816   0.598   4.466   9.142 -1.3053 -1.4947 -2.4908
 6061SOL    HW229817   0.720   4.378   9.188  0.1120  0.0506  1.3330
 6062SOL     OW29818   3.959   2.681   5.820 -0.1926  0.1188  0.0806
 6062SOL    HW129819   3.910   2.686   5.902 -0.7547 -0.8057 -0.1987
 6062SOL    HW229820   3.883   2.645   5.774  0.2788 -2.7507  1.5262
 6063SOL     OW29821   1.393   2.412  10.214 -0.4313  0.5932  0.1061
 6063SOL    HW129822   1.393   2.332  10.266  0.6864 -0.0944 -0.9342
 6063SOL    HW229823   1.480   2.450  10.229  0.5897 -1.9463  0.7421
 6064SOL     OW29824   0.595   4.323   7.337  0.3072 -0.5548 -0.2709
 6064SOL    HW129825   0.535   4.282   7.399  0.6203 -2.5695 -1.2916
 6064SOL    HW229826   0.678   4.319   7.385  0.2151 -1.1963 -0.1606
 6065SOL     OW29827   0.781   0.109   1.451  0.3481  0.2510 -0.2310
 6065SOL    HW129828   0.753   0.142   1.365 -1.2249 -1.5214 -0.4149
 6065SOL    HW229829   0.857   0.051   1.444 -0.1131 -0.3070 -0.6280
 6066SOL     OW29830   1.012   1.873   0.768  0.2314  0.0211 -0.1593
 6066SOL    HW129831   1.061   1.886   0.849 -0.9216  1.6600  0.2772
 6066SOL    HW229832   0.939   1.922   0.807 -0.8991 -1.0722 -0.8843
 6067SOL     OW29833   1.633   1.920  10.124 -0.4381 -0.3825  0.2906
 6067SOL    HW129834   1.704   1.865  10.156 -1.6532 -0.5532  2.7149
 6067SOL    HW229835   1.562   1.857  10.115  0.1468 -0.6674 -2.2265
 6068SOL     OW29836   0.492   2.136  11.005 -0.7110  0.9548 -0.2070
 6068SOL    HW129837   0.435   2.078  11.056 -1.1187  1.8573  0.3757
 6068SOL    HW229838   0.478   2.221  11.049 -1.4866  1.2901 -1.0976
 6069SOL     OW29839   4.111   4.061  14.500  0.0590  0.4131 -0.0721
 6069SOL    HW129840   4.149   4.056  14.588  1.1051 -0.3668 -0.5765
 6069SOL    HW229841   4.169   4.118  14.451 -0.7790  3.4596  2.4441
 6070SOL     OW29842   0.542   0.013   0.444 -0.6317 -0.0304  0.6871
 6070SOL    HW129843   0.589   4.672   0.416  0.7420  1.4702 -1.1724
 6070SOL    HW229844   0.490   4.709   0.514 -0.0453 -2.0859 -0.0927
 6071SOL     OW29845   3.677   3.095  13.706  0.1934 -0.2699 -0.3274
 6071SOL    HW129846   3.767   3.122  13.689  0.0083 -0.2182 -1.2186
 6071SOL    HW229847   3.702   3.021  13.760 -0.1444 -0.5239 -0.5158
 6072SOL     OW29848   4.159   4.001   2.380  0.1356  0.0928  0.7508
 6072SOL    HW129849   4.086   3.981   2.438 -0.6840  0.0214 -0.2980
 6072SOL    HW229850   4.163   4.092   2.407 -4.1242  0.5371 -0.1119
 6073SOL     OW29851   3.283   0.757   3.408  0.2645  0.0182 -0.5850
 6073SOL    HW129852   3.338   0.817   3.357 -1.7341  2.3413 -0.0461
 6073SOL    HW229853   3.261   0.810   3.484 -0.7708 -0.5187 -0.5170
 6074SOL     OW29854   3.625   0.821   6.008 -0.1136  0.4496 -0.1707
 6074SOL    HW129855   3.559   0.773   5.958  0.1286  0.6717 -0.7039
 6074SOL    HW229856   3.666   0.872   5.939 -1.6098  1.0846 -0.5949
 6075SOL     OW29857   2.107   4.552   9.071 -0.2766  0.2971  0.3615
 6075SOL    HW129858   2.083   4.535   9.162 -1.0748  1.0719  0.2948
 6075SOL    HW229859   2.023   4.557   9.024 -0.7430 -2.5758  0.8726
 6076SOL     OW29860   3.339   3.333   3.140  0.0682  0.5742  0.4791
 6076SOL    HW129861   3.359   3.298   3.226 -2.2931 -0.0623  0.7636
 6076SOL    HW229862   3.364   3.257   3.087 -2.1370 -0.1937  0.5590
 6077SOL     OW29863   3.440   2.870   1.333 -0.2804 -0.7734 -0.2665
 6077SOL    HW129864   3.416   2.912   1.251  1.7472 -1.4699 -1.2312
 6077SOL    HW229865   3.356   2.828   1.351 -0.9747 -0.1438 -2.0006
 6078SOL     OW29866   0.093   1.808   3.267 -0.3438 -0.9490 -0.3549
 6078SOL    HW129867   0.102   1.775   3.178 -0.3176  1.7783 -1.3429
 6078SOL    HW229868   0.098   1.903   3.256  1.8489 -0.8978  1.0757
 6079SOL     OW29869   2.761   1.034  12.852  0.0907  0.1009 -0.3580
 6079SOL    HW129870   2.797   1.085  12.780  0.7435 -0.5236 -0.4669
 6079SOL    HW229871   2.832   0.972  12.868  0.7287  0.4906 -1.7227
 6080SOL     OW29872   3.956   2.797   3.262 -0.2252  0.3777 -0.2688
 6080SOL    HW129873   3.933   2.720   3.210  0.0281  2.4015 -3.3348
 6080SOL    HW229874   3.893   2.860   3.227 -0.0474  1.0031  0.5281
 6081SOL     OW29875   2.835   3.109   9.642  0.5625 -0.1907 -0.0381
 6081SOL    HW129876   2.747   3.147   9.650 -0.1392 -1.6066 -1.1307
 6081SOL    HW229877   2.829   3.036   9.704 -0.2214 -1.1864 -1.2816
 6082SOL     OW29878   1.511   3.027   1.536 -0.9941  0.5103 -0.2839
 6082SOL    HW129879   1.488   3.119   1.533 -0.4499  0.7187  1.7210
 6082SOL    HW229880   1.479   2.998   1.451  0.1060 -2.1384  0.2071
 6083SOL     OW29881   4.217   3.991  17.136  0.1286 -0.1442  0.1525
 6083SOL    HW129882   4.240   4.041  17.058 -0.0950 -0.0066  0.1738
 6083SOL    HW229883   4.123   3.978  17.119  0.1998 -0.8902  0.3355
 6084SOL     OW29884   0.916   3.200   3.113 -0.2841 -0.2092 -0.0045
 6084SOL    HW129885   0.928   3.175   3.205  1.2060 -3.5974 -1.0925
 6084SOL    HW229886   0.836   3.155   3.088 -0.1921 -0.8948  0.9602
 6085SOL     OW29887   3.108   1.265   2.595 -0.1722  0.7203  0.0395
 6085SOL    HW129888   3.033   1.302   2.549 -0.8663  1.6620  1.9468
 6085SOL    HW229889   3.097   1.173   2.572 -0.2146  0.4382  1.1629
 6086SOL     OW29890   1.079   4.338   2.074  0.0283  0.1585  0.1521
 6086SOL    HW129891   1.113   4.397   2.008  3.8588  0.3893  2.3032
 6086SOL    HW229892   1.108   4.254   2.038 -0.0881  1.2792 -2.4923
 6087SOL     OW29893   1.750   2.275   6.436 -0.0628 -0.3274  0.5636
 6087SOL    HW129894   1.749   2.292   6.530 -1.6200  1.3446  0.2408
 6087SOL    HW229895   1.844   2.274   6.423  0.0724  0.3900  1.5412
 6088SOL     OW29896   2.891   0.483   2.895 -0.1302 -0.1502  0.2804
 6088SOL    HW129897   2.949   0.461   2.822 -1.4041  2.7128 -1.6001
 6088SOL    HW229898   2.878   0.399   2.941 -1.2077  1.3469  2.7009
 6089SOL     OW29899   2.676   3.395   6.444  0.0452 -0.2364 -0.2826
 6089SOL    HW129900   2.630   3.408   6.527 -0.1216  0.8630 -0.5469
 6089SOL    HW229901   2.618   3.332   6.401  0.0034 -1.2071  1.1905
 6090SOL     OW29902   3.587   4.236   4.922 -0.2555 -0.5337  0.0651
 6090SOL    HW129903   3.649   4.293   4.876  1.0141 -0.8624  1.3613
 6090SOL    HW229904   3.511   4.237   4.864 -0.5333 -0.4657  0.4276
 6091SOL     OW29905   0.962   3.752   3.678 -0.1615  0.5195 -0.0708
 6091SOL    HW129906   0.880   3.754   3.727 -0.8264 -0.7029 -1.1318
 6091SOL    HW229907   0.928   3.704   3.602 -0.1940  0.4811 -0.0314
 6092SOL     OW29908   2.338   2.004   8.673 -0.2455  0.4390 -0.0284
 6092SOL    HW129909   2.289   2.045   8.602 -0.2410 -2.2647 -1.6169
 6092SOL    HW229910   2.425   1.993   8.634 -0.7366  0.1992 -1.0805
 6093SOL     OW29911   2.154   4.462  14.187 -0.5158  0.1628 -1.0914
 6093SOL    HW129912   2.225   4.471  14.123  2.0085 -2.1374  1.4166
 6093SOL    HW229913   2.102   4.390  14.149  0.4773 -0.8462 -0.5360
 6094SOL     OW29914   1.063   1.846  11.645  0.0263 -0.7378  0.3997
 6094SOL    HW129915   1.052   1.908  11.573 -1.8397 -1.3374  0.1734
 6094SOL    HW229916   1.151   1.815  11.629  0.4374  0.8268 -0.4164
 6095SOL     OW29917   1.704   0.763   7.708  0.1062  0.0942  0.8469
 6095SOL    HW129918   1.729   0.805   7.790  2.7081  1.1354 -0.4887
 6095SOL    HW229919   1.773   0.802   7.654 -0.7081  0.3874  0.0294
 6096SOL     OW29920   0.064   0.988   6.552  0.2329  0.2420  0.2482
 6096SOL    HW129921   4.718   0.940   6.551 -0.5672  1.6496 -0.8910
 6096SOL    HW229922   0.047   1.051   6.623 -0.6867  0.4729 -0.1721
 6097SOL     OW29923   2.587   1.825   2.583 -0.1100  0.6033  0.3004
 6097SOL    HW129924   2.570   1.820   2.677 -0.6574  1.5065  0.2511
 6097SOL    HW229925   2.594   1.920   2.578 -0.1024  0.6162  0.5581
 6098SOL     OW29926   1.326   4.045   5.306 -0.2086  0.4612 -0.2188
 6098SOL    HW129927   1.284   4.130   5.308  1.1270  1.0846  1.2370
 6098SOL    HW229928   1.390   4.077   5.242  0.6043  0.1198  0.4216
 6099SOL     OW29929   4.609   4.539  14.390 -0.1548  0.4868  0.0165
 6099SOL    HW129930   4.549   4.479  14.347 -0.3306  0.6790 -0.0036
 6099SOL    HW229931   4.634   4.494  14.471  1.3316  1.0143 -0.1360
 6100SOL     OW29932   2.994   3.102   8.287  0.3258  0.7627 -0.0396
 6100SOL    HW129933   2.960   3.191   8.283 -0.4477  0.5096  0.7591
 6100SOL    HW229934   3.026   3.090   8.198 -0.7467  0.4082 -0.3770
 6101SOL     OW29935   2.979   3.813  10.982  0.2961 -0.2273 -0.3225
 6101SOL    HW129936   2.909   3.774  10.930 -0.1644 -0.5048  0.5048
 6101SOL    HW229937   2.953   3.790  11.071 -1.4332 -1.3236 -1.1304
 6102SOL     OW29938   0.212   4.178   1.207  0.1158  0.5226 -0.0214
 6102SOL    HW129939   0.186   4.166   1.116 -2.6413  1.2369  0.7005
 6102SOL    HW229940   0.128   4.204   1.245  0.4463  2.1704 -0.4266
 6103SOL     OW29941   4.310   0.348  16.426 -0.2336 -0.3525  0.0027
 6103SOL    HW129942   4.329   0.282  16.492 -0.4863 -0.1995  0.2298
 6103SOL    HW229943   4.218   0.329  16.410 -0.1528  0.3990 -1.3960
 6104SOL     OW29944   0.172   3.767   2.247  0.3908  0.2276  0.2981
 6104SOL    HW129945   0.193   3.673   2.251  1.6857  0.5741  1.5615
 6104SOL    HW229946   0.087   3.753   2.290  0.6948  2.4580  1.6108
 6105SOL     OW29947   2.559   0.121   7.800 -0.3872 -0.0345 -0.4043
 6105SOL    HW129948   2.624   0.138   7.868 -0.9011  0.6395 -0.0859
 6105SOL    HW229949   2.491   0.186   7.816 -1.7766 -1.0014 -2.4290
 6106SOL     OW29950   3.945   2.296   7.658  0.3106  0.5210 -0.5870
 6106SOL    HW129951   3.870   2.335   7.704  1.2078  1.2890  0.2169
 6106SOL    HW229952   3.998   2.263   7.730  0.2260  3.4703  0.8151
 6107SOL     OW29953   0.593   3.451   8.527  0.0849  0.6112  0.3513
 6107SOL    HW129954   0.620   3.505   8.453  0.0016  0.0072 -0.1242
 6107SOL    HW229955   0.665   3.388   8.538  1.1180  1.3490 -2.1531
 6108SOL     OW29956   3.246   3.775   7.442  0.0807 -1.2177 -0.1626
 6108SOL    HW129957   3.229   3.706   7.506 -0.1392 -0.2409  0.8337
 6108SOL    HW229958   3.289   3.839   7.499 -1.3152 -2.2305  2.0367
 6109SOL     OW29959   4.112   3.003   7.299  0.4054 -0.1455  0.3406
 6109SOL    HW129960   4.129   3.020   7.392  1.5911 -3.3515  0.7102
 6109SOL    HW229961   4.079   2.913   7.300 -0.4488  0.1615 -0.9788
 6110SOL     OW29962   2.029   1.139   2.649  0.7499  0.2829  0.1620
 6110SOL    HW129963   2.002   1.138   2.557  0.9536 -1.6717  0.1102
 6110SOL    HW229964   1.944   1.156   2.688  0.3009 -0.6460 -0.4055
 6111SOL     OW29965   1.735   0.352  14.463 -0.4552  0.0252 -0.4312
 6111SOL    HW129966   1.749   0.446  14.472  0.2401  0.1602 -2.8091
 6111SOL    HW229967   1.822   0.328  14.433  0.0326 -1.1702  2.0206
 6112SOL     OW29968   3.781   0.735   5.473 -0.0580 -0.0949 -0.0992
 6112SOL    HW129969   3.701   0.765   5.516 -0.1376 -0.1024 -0.2415
 6112SOL    HW229970   3.824   0.707   5.554 -0.9932 -0.4683  0.2704
 6113SOL     OW29971   0.322   3.907   6.110 -0.2547 -0.3163  0.0687
 6113SOL    HW129972   0.413   3.877   6.115 -0.8141 -2.2254 -1.1616
 6113SOL    HW229973   0.284   3.847   6.175 -1.0623  0.6670  0.5096
 6114SOL     OW29974   2.219   0.070   2.160  0.4268 -0.2967  0.5175
 6114SOL    HW129975   2.290   0.134   2.161  1.1456 -1.0828  0.3727
 6114SOL    HW229976   2.246   0.010   2.091 -0.3523 -0.9557  0.7811
 6115SOL     OW29977   0.762   1.428  14.865  0.4742  0.1566  0.3911
 6115SOL    HW129978   0.736   1.351  14.815 -0.7019 -0.6392  2.2121
 6115SOL    HW229979   0.678   1.462  14.896 -0.0548  0.5975 -1.5642
 6116SOL     OW29980   2.147   2.907   2.073  0.2139 -0.0649 -0.2961
 6116SOL    HW129981   2.110   2.848   2.008 -0.2201  0.7816 -0.8246
 6116SOL    HW229982   2.237   2.922   2.044  0.3681  0.7112  0.5560
 6117SOL     OW29983   1.781   3.615   5.893 -0.1862 -0.1421  0.5703
 6117SOL    HW129984   1.744   3.563   5.821 -0.1159  0.2251  0.2677
 6117SOL    HW229985   1.709   3.594   5.952  0.2857 -1.3198  0.7169
 6118SOL     OW29986   3.617   3.773   1.453 -0.0530  0.7773 -0.1715
 6118SOL    HW129987   3.534   3.802   1.491  0.9638 -0.3764  2.9607
 6118SOL    HW229988   3.673   3.845   1.480 -0.2103  0.8781 -0.1108
 6119SOL     OW29989   0.467   0.833   8.958  0.4609  0.2978  0.2498
 6119SOL    HW129990   0.412   0.871   8.889  1.2634 -0.9718 -1.0701
 6119SOL    HW229991   0.412   0.760   8.986 -0.3641  0.2536 -1.5061
 6120SOL     OW29992   4.129   1.930   8.256 -0.1308  0.3497  0.3101
 6120SOL    HW129993   4.222   1.909   8.260 -0.2666 -0.6453 -1.8752
 6120SOL    HW229994   4.122   1.967   8.168 -1.3671 -0.3919  0.1007
 6121SOL     OW29995   4.310   0.667   3.266 -1.0466  0.1197  0.2944
 6121SOL    HW129996   4.393   0.715   3.258  0.4188 -1.9978  2.6707
 6121SOL    HW229997   4.315   0.634   3.356 -0.6438  1.1598  0.6640
 6122SOL     OW29998   4.705   2.068   3.499 -0.0626  0.2200  0.5556
 6122SOL    HW129999   0.003   1.989   3.540 -1.6492 -0.2991  0.8860
 6122SOL    HW230000   4.613   2.045   3.505  0.3513 -1.7850 -0.9890
 6123SOL     OW30001   2.673   1.670   4.846 -0.6932 -0.2491 -0.1449
 6123SOL    HW130002   2.687   1.657   4.753 -0.2311  1.7401 -0.3654
 6123SOL    HW230003   2.597   1.729   4.838  0.9716  2.0209  0.6970
 6124SOL     OW30004   1.242   0.937   8.751 -0.2426  0.1008  0.1859
 6124SOL    HW130005   1.160   0.982   8.771 -0.5358  1.1897 -3.4262
 6124SOL    HW230006   1.238   0.850   8.792 -0.2412 -0.3016 -0.6703
 6125SOL     OW30007   3.133   3.096   0.195 -0.0332 -0.1112  0.0029
 6125SOL    HW130008   3.074   3.137   0.258 -0.9598  0.8508 -1.4618
 6125SOL    HW230009   3.206   3.156   0.184 -0.0941 -0.3651 -1.9157
 6126SOL     OW30010   3.336   0.792   8.301 -0.6081 -0.1883 -0.0960
 6126SOL    HW130011   3.264   0.847   8.270 -1.8081 -1.7968 -0.1594
 6126SOL    HW230012   3.290   0.738   8.366 -0.2853 -2.6299 -1.8853
 6127SOL     OW30013   4.343   0.443  15.923  0.7620  0.1759 -0.2738
 6127SOL    HW130014   4.325   0.381  15.994  0.5694  2.8881  2.0232
 6127SOL    HW230015   4.380   0.390  15.852  0.8698 -0.3211  0.1500
 6128SOL     OW30016   3.758   1.467   8.282 -0.3556  0.0103  0.1146
 6128SOL    HW130017   3.812   1.426   8.214 -1.7538 -1.4282 -0.1253
 6128SOL    HW230018   3.759   1.560   8.257 -1.5550  0.2211  0.8747
 6129SOL     OW30019   3.677   4.011   1.713  0.3826 -0.4626 -0.2519
 6129SOL    HW130020   3.603   3.953   1.732 -0.1135  0.0536 -0.5987
 6129SOL    HW230021   3.747   3.953   1.745  2.2085  2.2389  0.6250
 6130SOL     OW30022   0.797   3.055  10.564  0.4744 -0.3160  0.2873
 6130SOL    HW130023   0.774   3.015  10.647  1.9216 -0.9642  0.3666
 6130SOL    HW230024   0.762   2.996  10.497 -0.7742 -0.4897  1.1031
 6131SOL     OW30025   4.392   4.243   7.332 -0.1709  0.0716  0.7658
 6131SOL    HW130026   4.395   4.216   7.241  0.3810 -2.0851  1.4341
 6131SOL    HW230027   4.299   4.229   7.348 -0.4820 -0.3850 -1.4401
 6132SOL     OW30028   3.460   0.684   0.014 -0.5446 -0.3009 -0.3689
 6132SOL    HW130029   3.541   0.734   0.006  0.7013 -2.3160 -0.2899
 6132SOL    HW230030   3.403   0.745   0.061  0.1441 -1.2030  1.6556
 6133SOL     OW30031   3.857   3.569   4.806  0.1641  0.6909  0.0196
 6133SOL    HW130032   3.901   3.582   4.890  0.5045 -1.6457  0.1999
 6133SOL    HW230033   3.801   3.498   4.839  1.6144 -1.1092 -1.4067
 6134SOL     OW30034   1.562   3.126   3.515  0.5566  0.2904  0.5284
 6134SOL    HW130035   1.539   3.091   3.429  0.3578 -0.3279  0.8317
 6134SOL    HW230036   1.551   3.051   3.574 -1.0207 -0.9269 -1.3040
 6135SOL     OW30037   4.144   3.129   8.960  0.2753 -0.5440  0.0538
 6135SOL    HW130038   4.097   3.087   8.888  0.8834  1.0712 -1.2659
 6135SOL    HW230039   4.076   3.148   9.025 -1.8363  0.6679 -2.4967
 6136SOL     OW30040   0.158   0.406   2.239 -0.2421 -0.3600  0.2709
 6136SOL    HW130041   0.231   0.343   2.238  0.0969  0.0754 -1.7002
 6136SOL    HW230042   0.162   0.440   2.150 -0.7811 -0.5580  0.1708
 6137SOL     OW30043   1.451   0.024   2.141  0.5125 -0.2628  0.1827
 6137SOL    HW130044   1.457   0.038   2.235  2.6105 -1.7976  0.2689
 6137SOL    HW230045   1.367   0.070   2.131  0.0929 -1.1342 -0.3725
 6138SOL     OW30046   4.278   0.378  11.036 -0.0684  0.1866  0.4584
 6138SOL    HW130047   4.357   0.395  11.087  0.1945  1.7119 -0.4383
 6138SOL    HW230048   4.288   0.454  10.978 -1.7360  0.5212  0.6116
 6139SOL     OW30049   0.752   1.662   6.120 -0.6799  0.1534 -0.3796
 6139SOL    HW130050   0.795   1.729   6.173 -2.2603  2.1021 -1.5188
 6139SOL    HW230051   0.661   1.690   6.108 -0.6270  0.4999  0.0535
 6140SOL     OW30052   2.258   0.505   8.259 -0.0119 -0.9219 -0.3533
 6140SOL    HW130053   2.260   0.495   8.354  1.1183  1.3510 -0.1275
 6140SOL    HW230054   2.324   0.572   8.240 -0.8507 -0.3722 -1.2888
 6141SOL     OW30055   3.276   3.468   4.643 -0.7821  0.2850  0.3419
 6141SOL    HW130056   3.270   3.501   4.733 -1.9482 -0.2313  0.4482
 6141SOL    HW230057   3.367   3.464   4.613 -1.5087 -0.9016 -1.6595
 6142SOL     OW30058   4.204   4.595   5.877 -0.0003 -0.0929 -0.1966
 6142SOL    HW130059   4.243   4.613   5.962  0.1326 -0.3671 -0.2014
 6142SOL    HW230060   4.189   4.682   5.838 -2.5882  0.0761  1.1689
 6143SOL     OW30061   4.194   1.910  15.173  0.5900  0.3574 -0.0784
 6143SOL    HW130062   4.204   1.965  15.250 -1.3826  0.1426  0.3127
 6143SOL    HW230063   4.128   1.852  15.211 -0.4929  1.0346 -0.9301
 6144SOL     OW30064   2.651   3.136   5.549  0.1085 -0.2523 -0.0605
 6144SOL    HW130065   2.650   3.201   5.479  2.7917 -0.5186 -0.3376
 6144SOL    HW230066   2.741   3.112   5.569  0.3949  2.1984  1.6331
 6145SOL     OW30067   4.328   0.809   2.766  0.2053  0.1948 -0.1746
 6145SOL    HW130068   4.391   0.746   2.731  0.4494  0.8303 -0.8981
 6145SOL    HW230069   4.307   0.757   2.844  0.2975  0.1493 -0.1795
 6146SOL     OW30070   1.931   3.756   6.167 -0.2728 -0.0872 -0.3038
 6146SOL    HW130071   1.935   3.664   6.140 -0.8891 -0.3658  0.5403
 6146SOL    HW230072   2.005   3.748   6.227  0.6616  0.6744 -1.3521
 6147SOL     OW30073   1.167   2.754   5.531 -0.5192  0.2032 -0.7804
 6147SOL    HW130074   1.142   2.666   5.503 -0.1763 -0.8599  2.1927
 6147SOL    HW230075   1.101   2.811   5.491 -2.7476 -2.7998 -1.3519
 6148SOL     OW30076   0.156   1.782  11.111 -0.1714 -0.3938 -0.0505
 6148SOL    HW130077   0.069   1.817  11.090 -0.6058 -2.3208 -1.3892
 6148SOL    HW230078   0.160   1.701  11.061  0.3169 -0.5932  0.3074
 6149SOL     OW30079   2.274   3.627  16.764 -0.0911  0.6571  0.0799
 6149SOL    HW130080   2.191   3.611  16.809  0.2908 -1.4646 -0.0109
 6149SOL    HW230081   2.278   3.567  16.690  0.4673 -0.1018  0.7382
 6150SOL     OW30082   0.707   0.714  14.043  0.1299 -0.6067 -0.2434
 6150SOL    HW130083   0.636   0.654  14.023 -2.2226  1.9851  0.2927
 6150SOL    HW230084   0.722   0.764  13.963  0.5848  1.1715  0.9259
 6151SOL     OW30085   2.285   2.087   7.989 -0.0304  0.0269 -0.0854
 6151SOL    HW130086   2.329   2.150   7.932  0.3700 -0.1357  0.0467
 6151SOL    HW230087   2.217   2.138   8.034 -1.0383 -2.7385  1.5342
 6152SOL     OW30088   3.632   1.431  17.076  0.0185 -0.5591  0.9916
 6152SOL    HW130089   3.699   1.454  17.141 -1.4038  1.5412  1.7475
 6152SOL    HW230090   3.549   1.458  17.118  0.4124 -0.1101  1.4932
 6153SOL     OW30091   3.372   1.230   4.584  0.5920  0.2468  0.4706
 6153SOL    HW130092   3.370   1.290   4.508  1.1584 -1.3407 -0.7916
 6153SOL    HW230093   3.395   1.301   4.644  0.0034 -0.7012  1.8053
 6154SOL     OW30094   1.521   3.329   7.215 -0.1857 -0.1835 -0.1091
 6154SOL    HW130095   1.566   3.355   7.296 -0.5285 -1.6346  0.5363
 6154SOL    HW230096   1.566   3.384   7.150 -2.4091  1.1115 -0.5386
 6155SOL     OW30097   2.540   1.601   1.130  0.0925 -0.0164 -0.5339
 6155SOL    HW130098   2.564   1.520   1.176  0.2048  0.0373 -0.5001
 6155SOL    HW230099   2.546   1.663   1.203  1.9584  0.1777 -0.8639
 6156SOL     OW30100   0.796   0.068  14.251 -0.2584  1.0833 -0.0968
 6156SOL    HW130101   0.861   0.123  14.207  0.2863 -0.5603 -1.3825
 6156SOL    HW230102   0.798   0.110  14.336  0.6895  1.0845 -0.1221
 6157SOL     OW30103   4.582   3.825  10.076 -0.2566  0.0730 -0.3088
 6157SOL    HW130104   4.492   3.821  10.106  0.2148  1.0778  1.2552
 6157SOL    HW230105   4.611   3.915  10.094 -1.7321  0.5968 -0.5425
 6158SOL     OW30106   1.300   3.333   5.728  0.1175 -0.1138  0.6173
 6158SOL    HW130107   1.348   3.279   5.665  0.9971  0.9058  0.4227
 6158SOL    HW230108   1.249   3.392   5.673  0.4232 -2.0505 -1.7589
 6159SOL     OW30109   1.707   2.239   1.045 -0.2913  0.0333  0.6023
 6159SOL    HW130110   1.660   2.315   1.080 -2.0202 -0.7758  0.0454
 6159SOL    HW230111   1.738   2.275   0.961 -1.7420  0.1146  0.0970
 6160SOL     OW30112   3.718   4.072   7.848  0.4181 -0.0748 -0.0840
 6160SOL    HW130113   3.773   3.998   7.875  0.2688  0.5630  1.9051
 6160SOL    HW230114   3.639   4.049   7.896  0.1032  0.1269 -0.5112
 6161SOL     OW30115   2.813   2.312   6.443  0.3413 -0.3566 -0.1915
 6161SOL    HW130116   2.763   2.388   6.413  1.4342  0.8314  1.0164
 6161SOL    HW230117   2.894   2.312   6.393  0.4468 -1.2265 -0.0197
 6162SOL     OW30118   1.017   1.382  14.910  0.1838  0.1360 -0.4063
 6162SOL    HW130119   0.933   1.395  14.867  0.1988  0.5084 -0.3189
 6162SOL    HW230120   0.979   1.332  14.983  1.2794  0.0243  0.0954
 6163SOL     OW30121   1.607   4.406   2.359 -0.2932 -0.3845 -0.2294
 6163SOL    HW130122   1.526   4.388   2.407 -0.2285  0.3659  0.1547
 6163SOL    HW230123   1.621   4.317   2.325 -0.5735 -1.0751  1.4739
 6164SOL     OW30124   0.493   3.766  15.885  0.1824  0.0543  0.4066
 6164SOL    HW130125   0.428   3.836  15.888  0.0499 -0.0408 -0.1389
 6164SOL    HW230126   0.572   3.818  15.898 -1.7306  2.6989  1.4475
 6165SOL     OW30127   4.582   2.617   8.291 -0.1169  0.7116  0.5176
 6165SOL    HW130128   4.626   2.549   8.343 -2.6046 -1.0188  0.3647
 6165SOL    HW230129   4.490   2.591   8.293 -0.4666  1.9589  0.2132
 6166SOL     OW30130   1.000   2.037   4.151 -0.1808  0.0672 -0.1561
 6166SOL    HW130131   1.090   2.048   4.120 -0.2700  1.5837  0.1238
 6166SOL    HW230132   0.978   1.955   4.106 -0.8170 -0.6261  1.4114
 6167SOL     OW30133   4.408   1.928   0.786  0.3486 -0.1241 -0.1665
 6167SOL    HW130134   4.326   1.936   0.737  0.6811 -1.4279 -0.9379
 6167SOL    HW230135   4.412   2.011   0.834  0.5726 -0.1698 -0.1069
 6168SOL     OW30136   3.502   0.911   3.924  0.5080  0.3912  0.0222
 6168SOL    HW130137   3.527   0.826   3.962  1.4025  1.0420  0.8982
 6168SOL    HW230138   3.420   0.935   3.965  0.5502  0.3160  0.1520
 6169SOL     OW30139   1.999   0.793   9.298 -0.4108  0.7246  0.1768
 6169SOL    HW130140   1.911   0.800   9.260  0.2647  0.0482 -1.5055
 6169SOL    HW230141   2.020   0.706   9.265 -1.5711 -0.3252  2.2707
 6170SOL     OW30142   4.424   3.456  15.236 -0.2329  0.5428  0.4527
 6170SOL    HW130143   4.337   3.483  15.262  0.0808 -0.5691  2.7404
 6170SOL    HW230144   4.470   3.468  15.319  0.4323  2.1196 -0.1548
 6171SOL     OW30145   2.015   0.203   3.714  0.1764 -0.2450 -0.2371
 6171SOL    HW130146   1.978   0.141   3.651 -2.2485 -0.2593  1.1946
 6171SOL    HW230147   1.933   0.237   3.749  0.4519 -0.5646  0.7123
 6172SOL     OW30148   3.898   0.142  12.341  0.2586 -0.7190  0.2912
 6172SOL    HW130149   3.889   0.234  12.365  0.8691 -0.3691 -0.8313
 6172SOL    HW230150   3.809   0.106  12.343  0.1057 -0.4338 -1.0829
 6173SOL     OW30151   1.827   2.463   6.248  0.1579 -0.5993 -0.0235
 6173SOL    HW130152   1.775   2.387   6.275 -0.9800  1.4220  3.4234
 6173SOL    HW230153   1.760   2.523   6.214  1.9519  0.8790 -0.9523
 6174SOL     OW30154   0.008   2.869  10.140  0.3318  0.5817  0.0776
 6174SOL    HW130155   0.062   2.938  10.102 -0.4061  1.7372  1.1643
 6174SOL    HW230156   4.695   2.828  10.069  0.7854  1.5683 -0.8095
 6175SOL     OW30157   3.639   1.314  11.344  0.2845 -0.3927  0.8306
 6175SOL    HW130158   3.636   1.395  11.293  0.6383 -1.8757 -1.5425
 6175SOL    HW230159   3.730   1.320  11.375  1.5768  0.4030 -3.0883
 6176SOL     OW30160   1.510   3.971   6.927 -0.5565  0.5949  0.4837
 6176SOL    HW130161   1.491   3.963   7.020 -0.7125 -0.2579  0.3754
 6176SOL    HW230162   1.604   3.953   6.923 -0.8196 -0.4897 -0.5358
 6177SOL     OW30163   1.056   2.798   3.751  0.0201  0.0045  0.3510
 6177SOL    HW130164   1.147   2.822   3.736  0.2890 -2.4344 -1.9117
 6177SOL    HW230165   1.058   2.705   3.776 -0.7615  0.2498  1.3275
 6178SOL     OW30166   3.989   0.502   4.847  0.8858  0.1462  0.2512
 6178SOL    HW130167   4.029   0.589   4.846  0.9584  0.0998 -0.3835
 6178SOL    HW230168   4.068   0.455   4.821  0.6890  1.0155 -1.9110
 6179SOL     OW30169   4.404   0.938   5.814 -0.0124  0.0458 -0.3076
 6179SOL    HW130170   4.418   0.981   5.898  1.3086  0.8673 -0.9573
 6179SOL    HW230171   4.401   1.015   5.757  1.7770  0.3246 -0.0187
 6180SOL     OW30172   0.807   0.116   0.543  0.3820 -0.0789  0.4163
 6180SOL    HW130173   0.730   0.088   0.495  1.1904  0.6532 -1.3396
 6180SOL    HW230174   0.767   0.171   0.610 -1.0490 -1.2980  0.5333
 6181SOL     OW30175   2.991   0.993  15.683 -0.4127  0.1973 -0.5007
 6181SOL    HW130176   2.944   1.055  15.739 -1.1732  0.1156 -1.0568
 6181SOL    HW230177   3.019   1.048  15.610  0.5863  0.3297 -0.0212
 6182SOL     OW30178   1.123   4.252  17.253  0.4599  0.4571  0.6538
 6182SOL    HW130179   1.053   4.312  17.280 -1.5576 -1.7595  0.4123
 6182SOL    HW230180   1.195   4.315  17.255  0.5196  0.4280 -1.0578
 6183SOL     OW30181   2.434   1.909   3.943  0.0982  0.0048  0.1715
 6183SOL    HW130182   2.529   1.922   3.945 -0.4072  3.6088  0.9049
 6183SOL    HW230183   2.408   1.978   3.882  3.5919  0.9702 -0.2202
 6184SOL     OW30184   4.189   4.178   0.320  0.9554 -0.0833  0.3091
 6184SOL    HW130185   4.115   4.232   0.350  1.5699  0.6218  0.5428
 6184SOL    HW230186   4.229   4.232   0.252 -2.0560  1.2534 -0.4098
 6185SOL     OW30187   3.218   4.279   2.225 -0.1749  0.6983  0.2452
 6185SOL    HW130188   3.148   4.287   2.291 -0.2073  1.4001  0.1229
 6185SOL    HW230189   3.252   4.368   2.220  0.3431  0.4443 -0.6356
 6186SOL     OW30190   2.491   4.334   3.034 -0.0357 -0.2702 -0.3198
 6186SOL    HW130191   2.560   4.269   3.050  0.6705  0.3703 -0.7610
 6186SOL    HW230192   2.456   4.299   2.952  0.2549  1.3448 -1.1209
 6187SOL     OW30193   0.270   3.439   7.368 -0.3293  0.4182  0.0424
 6187SOL    HW130194   0.283   3.352   7.331 -1.4602 -0.4211  1.6519
 6187SOL    HW230195   0.183   3.465   7.338 -0.1362  0.5138 -0.4260
 6188SOL     OW30196   1.317   2.294  12.471  0.0749 -0.4306 -0.0950
 6188SOL    HW130197   1.252   2.315  12.404  1.8281  0.5432 -1.4848
 6188SOL    HW230198   1.376   2.369  12.473  0.8336 -1.0034 -0.7254
 6189SOL     OW30199   4.720   1.205   8.138  0.2737  0.3655  0.1419
 6189SOL    HW130200   0.047   1.237   8.201 -0.3614 -0.2646  1.1060
 6189SOL    HW230201   4.709   1.284   8.085  1.5144 -0.1770 -0.9217
 6190SOL     OW30202   1.859   2.716   3.922 -0.0217 -0.2652 -0.3270
 6190SOL    HW130203   1.765   2.726   3.910  0.1131  0.0886 -1.0766
 6190SOL    HW230204   1.858   2.720   4.018  4.1218  1.3635 -0.3511
 6191SOL     OW30205   2.006   3.567   1.974  0.5131 -0.1273 -0.2973
 6191SOL    HW130206   1.960   3.491   1.939 -0.1111 -0.3249  0.9501
 6191SOL    HW230207   2.022   3.626   1.900 -0.0645  0.9305  0.4303
 6192SOL     OW30208   4.616   3.707   8.243  0.1718  0.6909 -0.1333
 6192SOL    HW130209   4.705   3.673   8.232 -0.5253 -0.5576 -1.8566
 6192SOL    HW230210   4.640   3.770   8.312 -0.6947  0.7901  0.0774
 6193SOL     OW30211   4.575   0.648  12.424 -0.1366  0.0909  0.2577
 6193SOL    HW130212   4.544   0.662  12.513  2.0570 -1.5439  1.2728
 6193SOL    HW230213   4.585   0.554  12.438  0.0001  0.2271  1.0671
 6194SOL     OW30214   0.773   0.992   9.070  0.4200 -0.2636 -0.0008
 6194SOL    HW130215   0.743   0.902   9.085 -1.2759  0.2317 -0.4758
 6194SOL    HW230216   0.727   1.045   9.135  0.4172  0.0150 -0.2313
 6195SOL     OW30217   3.185   1.023   7.766 -0.0724 -0.1025 -0.0169
 6195SOL    HW130218   3.125   1.090   7.731 -1.4303 -1.6786 -0.6934
 6195SOL    HW230219   3.120   0.963   7.803  1.1303 -1.0165  0.5943
 6196SOL     OW30220   2.264   3.321  14.193  0.0412  0.0595  0.4248
 6196SOL    HW130221   2.301   3.380  14.259  0.2035 -2.0902  2.2246
 6196SOL    HW230222   2.344   3.269  14.193  0.2564  0.3877  0.0500
 6197SOL     OW30223   2.453   2.019   0.280 -0.1856 -0.4094 -0.4460
 6197SOL    HW130224   2.371   1.996   0.324  0.8586  0.1062  1.7782
 6197SOL    HW230225   2.507   1.963   0.335 -0.1532  0.5761  0.5379
 6198SOL     OW30226   3.494   1.540   3.667  0.2985  0.3816 -0.0968
 6198SOL    HW130227   3.545   1.490   3.604  0.7720  1.1057 -0.2920
 6198SOL    HW230228   3.560   1.587   3.718  0.0001  1.1291 -0.3890
 6199SOL     OW30229   3.017   2.113  11.276  0.3577  0.5149 -0.4277
 6199SOL    HW130230   3.087   2.050  11.267 -1.2521 -1.1648 -1.2180
 6199SOL    HW230231   2.939   2.057  11.278 -0.4105  1.5830  0.1187
 6200SOL     OW30232   3.101   2.097   3.703 -0.1922 -0.1981 -0.4248
 6200SOL    HW130233   3.075   2.187   3.721 -0.8035 -0.1659 -1.4842
 6200SOL    HW230234   3.192   2.106   3.675 -0.1591  1.6673  0.3044
 6201SOL     OW30235   2.891   0.048   5.911 -0.1585  0.4192  0.3623
 6201SOL    HW130236   2.871   4.700   5.952 -1.5073  0.5766  0.0248
 6201SOL    HW230237   2.921   0.016   5.827 -0.5846  1.1727 -0.0764
 6202SOL     OW30238   3.933   4.081   1.892  0.0487  0.1875 -0.1280
 6202SOL    HW130239   3.851   4.113   1.929  1.5037  3.6766  0.0174
 6202SOL    HW230240   3.983   4.160   1.877  0.8369 -0.3134 -0.1120
 6203SOL     OW30241   1.028   1.775  16.248 -0.7968 -0.3994  0.5747
 6203SOL    HW130242   1.044   1.868  16.260  0.8196 -0.5498 -0.3751
 6203SOL    HW230243   1.065   1.741  16.329 -2.1573 -2.1871  0.4504
 6204SOL     OW30244   2.158   4.340   3.827  0.4172 -0.1685 -0.0908
 6204SOL    HW130245   2.223   4.278   3.795 -1.1274 -1.1936 -1.2350
 6204SOL    HW230246   2.176   4.337   3.921 -2.1662 -0.0048  0.4220
 6205SOL     OW30247   1.221   1.481  14.030  0.4664 -0.0767 -0.2664
 6205SOL    HW130248   1.127   1.497  14.030 -0.1544 -3.6033 -1.5670
 6205SOL    HW230249   1.247   1.537  14.103  3.5532  0.2047 -1.5657
 6206SOL     OW30250   1.785   1.626   5.016 -0.2689  0.2441  0.2173
 6206SOL    HW130251   1.776   1.585   5.102  0.0723  0.0537  0.1611
 6206SOL    HW230252   1.693   1.626   4.989 -0.1304 -3.9559 -0.2814
 6207SOL     OW30253   1.906   3.716   9.431 -0.0619  0.3361  0.0820
 6207SOL    HW130254   1.825   3.708   9.381  1.4855  2.3185 -2.7740
 6207SOL    HW230255   1.907   3.805   9.464 -1.5516  0.4625 -0.1979
 6208SOL     OW30256   2.427   2.707   1.869  0.2734 -0.0510 -0.0912
 6208SOL    HW130257   2.506   2.653   1.866  0.0154 -0.4734  0.8508
 6208SOL    HW230258   2.446   2.766   1.796 -0.1521  0.6557  0.3697
 6209SOL     OW30259   4.070   1.025   4.251  0.4681  0.0021 -0.7714
 6209SOL    HW130260   4.129   0.957   4.283 -1.9963 -1.1946  1.1929
 6209SOL    HW230261   3.998   1.024   4.314 -0.0069  0.3540 -1.3114
 6210SOL     OW30262   3.777   1.228  12.157  0.1975 -0.0430 -0.8685
 6210SOL    HW130263   3.778   1.134  12.174  0.1671  0.1452  0.1898
 6210SOL    HW230264   3.871   1.245  12.158  0.3471 -0.9267  1.3697
 6211SOL     OW30265   1.301   1.722   8.712  0.3371  0.6143  0.5170
 6211SOL    HW130266   1.336   1.633   8.723  2.0269  1.2123 -0.0980
 6211SOL    HW230267   1.209   1.699   8.725  0.2737  0.6493  0.1338
 6212SOL     OW30268   3.373   3.733  15.077 -1.0020  0.5509 -0.8022
 6212SOL    HW130269   3.371   3.670  15.005 -2.8322 -1.7915  1.2808
 6212SOL    HW230270   3.413   3.684  15.149 -0.0969  0.6721 -1.2261
 6213SOL     OW30271   0.971   2.790  13.238 -0.4088  0.4691  0.2678
 6213SOL    HW130272   1.016   2.774  13.321 -1.7013  0.4512  0.9581
 6213SOL    HW230273   0.966   2.698  13.213  0.4025  0.8004 -1.1347
 6214SOL     OW30274   0.222   1.620   5.479 -0.3613 -0.1251  0.0415
 6214SOL    HW130275   0.265   1.537   5.499 -0.2873 -0.5593 -1.9169
 6214SOL    HW230276   0.291   1.660   5.426 -0.3106 -0.5467 -0.2144
 6215SOL     OW30277   0.026   4.634  15.486  0.2735 -0.0865  0.1675
 6215SOL    HW130278   0.087   4.709  15.484 -0.5299  0.5566  0.0618
 6215SOL    HW230279   0.016   4.607  15.395 -1.7220  0.1730  0.3130
 6216SOL     OW30280   0.092   0.288   6.402  0.3846  0.1780  0.1817
 6216SOL    HW130281   0.032   0.214   6.416 -0.7115  0.8331 -1.0736
 6216SOL    HW230282   0.103   0.314   6.494  1.9931  3.0743 -0.8347
 6217SOL     OW30283   0.875   4.175   6.815  0.2790 -0.0336  0.0284
 6217SOL    HW130284   0.872   4.126   6.733  0.3610  0.7730 -0.4673
 6217SOL    HW230285   0.868   4.103   6.877  1.1460  0.3008  0.5236
 6218SOL     OW30286   2.340   0.104   3.441 -0.2356 -0.7674 -1.0202
 6218SOL    HW130287   2.366   0.157   3.366  0.5344  0.7276  0.2837
 6218SOL    HW230288   2.417   0.049   3.460  0.4310  1.0163  1.5159
 6219SOL     OW30289   0.503   0.113   4.985  0.5051 -0.0487 -0.1107
 6219SOL    HW130290   0.555   0.033   4.980 -0.1566 -0.3765 -1.5998
 6219SOL    HW230291   0.550   0.170   4.925  0.2413 -0.0328 -0.3022
 6220SOL     OW30292   2.967   3.848   6.506 -0.0590  0.8658 -0.0345
 6220SOL    HW130293   2.949   3.754   6.514  2.8570  0.4327  1.6961
 6220SOL    HW230294   2.951   3.861   6.413  1.2481 -1.1931 -0.5382
 6221SOL     OW30295   3.039   1.567  10.166 -0.1046  0.4071  0.2346
 6221SOL    HW130296   3.061   1.659  10.183  2.4320  0.0728 -1.1726
 6221SOL    HW230297   3.069   1.542  10.254  1.8786  0.7119 -0.3481
 6222SOL     OW30298   2.631   3.370   9.471  0.0754 -0.1352  0.1322
 6222SOL    HW130299   2.615   3.293   9.525  0.1494  0.4886  1.0246
 6222SOL    HW230300   2.560   3.422   9.509 -0.7037  0.1070 -1.6143
 6223SOL     OW30301   1.579   2.224   6.909  0.0573  0.0409 -0.4005
 6223SOL    HW130302   1.555   2.189   6.994 -3.7889  1.4465 -0.9281
 6223SOL    HW230303   1.606   2.143   6.865 -2.5775 -0.7985 -0.4263
 6224SOL     OW30304   1.088   4.355  16.489  0.1353 -0.7089  0.2969
 6224SOL    HW130305   0.999   4.320  16.489  0.1872 -0.9123  2.9950
 6224SOL    HW230306   1.053   4.444  16.477  2.9082  0.3672  0.1664
 6225SOL     OW30307   0.159   1.264   9.310 -0.0728 -0.5769 -0.7564
 6225SOL    HW130308   0.111   1.183   9.296  0.5554 -0.4453 -3.5875
 6225SOL    HW230309   0.107   1.326   9.258  1.8293  0.2304 -1.7085
 6226SOL     OW30310   4.184   4.355   7.064  0.5969 -0.3143  0.2639
 6226SOL    HW130311   4.115   4.339   7.128  0.7187  0.6844  0.6396
 6226SOL    HW230312   4.157   4.441   7.033  0.6500 -0.8930 -1.4103
 6227SOL     OW30313   1.771   1.776   9.788  0.3008 -0.5148  0.2650
 6227SOL    HW130314   1.741   1.695   9.747  0.3555  0.2237 -1.2360
 6227SOL    HW230315   1.689   1.794   9.836 -0.6423  1.6847 -2.1486
 6228SOL     OW30316   4.130   3.099   6.626  0.9336  0.0712 -0.0738
 6228SOL    HW130317   4.184   3.025   6.599  1.6136  0.3176  0.6032
 6228SOL    HW230318   4.175   3.139   6.701 -0.5828  0.0759  0.8321
 6229SOL     OW30319   2.300   0.966   4.684 -0.4285  0.3656  0.5274
 6229SOL    HW130320   2.247   0.907   4.632 -1.4954  0.3119  1.6610
 6229SOL    HW230321   2.264   1.048   4.651  2.7162  0.3361 -2.9345
 6230SOL     OW30322   1.303   4.112   8.769  0.3696  0.0220 -0.2258
 6230SOL    HW130323   1.393   4.142   8.777 -0.2011  1.6968  0.0021
 6230SOL    HW230324   1.259   4.175   8.827  2.7877  0.6938  0.8961
 6231SOL     OW30325   0.119   0.651  13.137 -0.8842  0.0866 -0.3322
 6231SOL    HW130326   0.193   0.600  13.105 -0.2108  0.8947 -0.0635
 6231SOL    HW230327   0.053   0.649  13.068 -0.7068  0.3340 -0.5106
 6232SOL     OW30328   1.469   3.891   2.588  0.0698  0.0363  0.2297
 6232SOL    HW130329   1.550   3.908   2.539  0.5378  0.5880  1.2006
 6232SOL    HW230330   1.448   3.805   2.552  1.1300 -0.8976  1.8458
 6233SOL     OW30331   3.858   2.015   6.069 -0.0871  0.1394  0.6543
 6233SOL    HW130332   3.790   2.077   6.046  0.5900  0.4312 -0.5735
 6233SOL    HW230333   3.940   2.063   6.054  0.7183 -0.5142  3.0410
 6234SOL     OW30334   0.600   4.319   6.542  0.1580  0.1247  0.3389
 6234SOL    HW130335   0.553   4.249   6.586 -1.5974 -0.2259 -2.0734
 6234SOL    HW230336   0.642   4.284   6.464  2.4230  2.3459  0.5552
 6235SOL     OW30337   2.752   2.891  11.878 -0.6361 -0.7106  0.2469
 6235SOL    HW130338   2.695   2.939  11.818 -1.0163  0.3574  1.4649
 6235SOL    HW230339   2.835   2.919  11.841 -0.1761 -2.3198  0.0547
 6236SOL     OW30340   1.148   2.836  13.774 -0.2409 -0.1274 -0.6949
 6236SOL    HW130341   1.194   2.847  13.691  0.7967  2.3738  0.2376
 6236SOL    HW230342   1.194   2.763  13.817 -1.5918 -1.9936 -2.4059
 6237SOL     OW30343   2.993   2.131   8.894 -1.1033 -0.0927  0.6287
 6237SOL    HW130344   2.930   2.137   8.965 -2.2561 -1.1891 -0.3002
 6237SOL    HW230345   3.019   2.040   8.906  1.1420  0.3487 -0.7653
 6238SOL     OW30346   0.543   1.798  11.857  0.2106  0.1500 -0.0884
 6238SOL    HW130347   0.496   1.774  11.778  0.4379 -0.6532  0.0183
 6238SOL    HW230348   0.611   1.730  11.861  2.1842  2.2054  1.7076
 6239SOL     OW30349   0.446   2.658   3.522  0.1187  0.1215  0.5336
 6239SOL    HW130350   0.402   2.573   3.520  2.3626 -0.9511 -2.5867
 6239SOL    HW230351   0.501   2.650   3.445  0.2388  3.1231  0.3089
 6240SOL     OW30352   1.470   0.303   4.030  0.1382  0.5203  0.5267
 6240SOL    HW130353   1.490   0.301   3.937  1.0994  2.6314  0.6719
 6240SOL    HW230354   1.380   0.273   4.035 -0.7991  3.4756  1.6608
 6241SOL     OW30355   1.676   4.335   3.788  0.5013 -0.2927 -0.4441
 6241SOL    HW130356   1.749   4.328   3.726  0.8341  2.4110 -0.3422
 6241SOL    HW230357   1.686   4.257   3.843 -0.2974 -1.0377 -1.3542
 6242SOL     OW30358   3.110   4.129   3.606  0.3122 -0.1176 -0.1974
 6242SOL    HW130359   3.156   4.099   3.684 -0.9665  0.2285  0.6939
 6242SOL    HW230360   3.019   4.113   3.631  0.9777  1.2853  3.1266
 6243SOL     OW30361   4.651   0.212   2.702  0.1477 -0.4044 -0.1338
 6243SOL    HW130362   4.731   0.249   2.664 -1.4671  3.1936 -0.0840
 6243SOL    HW230363   4.583   0.255   2.650  1.1113 -0.8767 -1.7942
 6244SOL     OW30364   4.347   1.991   1.978  0.1043 -0.1759  0.3475
 6244SOL    HW130365   4.261   1.949   1.978 -0.1775  0.4311 -1.1076
 6244SOL    HW230366   4.330   2.083   1.955  1.2635  0.1892  0.9688
 6245SOL     OW30367   4.717   2.576   5.195 -0.5072  0.5566  0.2416
 6245SOL    HW130368   4.676   2.584   5.282  1.9290  0.8553  1.3546
 6245SOL    HW230369   0.046   2.644   5.207  0.8524 -0.5878 -0.8069
 6246SOL     OW30370   0.387   2.993   1.952  0.1333 -0.4237  0.4562
 6246SOL    HW130371   0.460   3.021   1.897  0.4070  0.7452  1.4069
 6246SOL    HW230372   0.352   2.932   1.888 -0.1426  2.0476 -1.7357
 6247SOL     OW30373   3.500   2.560   6.262  0.6085 -0.6264  0.0792
 6247SOL    HW130374   3.543   2.475   6.257 -0.3377 -1.0640 -0.7033
 6247SOL    HW230375   3.498   2.584   6.355 -0.4751  2.8181 -0.8319
 6248SOL     OW30376   2.612   2.103  17.354  0.1666  0.2746 -0.5497
 6248SOL    HW130377   2.585   2.088  17.263  0.4094  0.0613 -0.5873
 6248SOL    HW230378   2.697   2.061  17.355  1.3496  2.6649 -1.0748
 6249SOL     OW30379   0.431   0.566  13.467 -0.0811 -0.2661 -0.5196
 6249SOL    HW130380   0.337   0.577  13.452  0.0741  1.7226  0.0462
 6249SOL    HW230381   0.459   0.566  13.375  0.2668  0.1498 -0.4122
 6250SOL     OW30382   4.067   3.038  13.213  0.3596  0.0558  0.5850
 6250SOL    HW130383   4.097   3.054  13.123 -1.7631 -1.0352 -0.3194
 6250SOL    HW230384   4.093   2.946  13.219  1.4070  0.3295  0.3501
 6251SOL     OW30385   2.922   3.580   3.690  0.4711 -0.6603  0.3705
 6251SOL    HW130386   2.860   3.513   3.661 -1.2452  1.0130  0.2253
 6251SOL    HW230387   2.979   3.575   3.613 -0.6038 -0.0701 -0.4614
 6252SOL     OW30388   3.714   3.211  13.213  0.1912 -0.1020 -0.3768
 6252SOL    HW130389   3.661   3.190  13.290  0.2902  0.3293 -0.1932
 6252SOL    HW230390   3.665   3.290  13.191 -1.7613 -0.9862  0.7470
 6253SOL     OW30391   1.208   1.035   4.110  0.3151  0.3010 -0.1180
 6253SOL    HW130392   1.283   0.982   4.085 -0.7404 -0.2350 -2.1197
 6253SOL    HW230393   1.254   1.118   4.129  0.5200  0.6121 -1.9945
 6254SOL     OW30394   1.797   4.016   4.808 -0.3965  0.6870 -0.0456
 6254SOL    HW130395   1.876   4.015   4.753  0.4769  0.1549  1.2215
 6254SOL    HW230396   1.783   4.109   4.823 -1.6266  0.2063  1.7092
 6255SOL     OW30397   3.515   0.844   7.544 -0.5617  0.2774  0.7184
 6255SOL    HW130398   3.531   0.938   7.537 -0.2937  0.0709 -1.5995
 6255SOL    HW230399   3.539   0.817   7.633  0.8552 -1.7932 -0.2779
 6256SOL     OW30400   2.768   3.805   7.349 -0.0567 -0.7222 -0.3303
 6256SOL    HW130401   2.847   3.751   7.342 -1.6356 -2.8925 -1.5232
 6256SOL    HW230402   2.732   3.805   7.260 -0.6881  0.1268 -0.0711
 6257SOL     OW30403   0.839   3.370  15.721 -0.1645 -0.6310  0.4415
 6257SOL    HW130404   0.806   3.322  15.798  0.3835 -2.1438 -0.2679
 6257SOL    HW230405   0.810   3.458  15.744 -1.0134 -0.8671  0.2706
 6258SOL     OW30406   3.789   4.685   8.682 -0.2258 -0.5593  0.2452
 6258SOL    HW130407   3.708   4.690   8.733  0.1338  1.1696  0.6536
 6258SOL    HW230408   3.834   4.614   8.728  1.6893  1.7327  1.9026
 6259SOL     OW30409   2.087   2.036   8.995 -0.0386 -0.1561  0.0177
 6259SOL    HW130410   1.993   2.019   8.992 -0.0126 -0.4299  0.8211
 6259SOL    HW230411   2.120   1.948   9.012 -0.1807 -0.1640  0.2425
 6260SOL     OW30412   1.269   1.200   6.979 -0.1521 -0.1724  0.3054
 6260SOL    HW130413   1.201   1.259   7.013  0.8526  0.2708  1.5647
 6260SOL    HW230414   1.346   1.255   6.990 -0.6139  0.2383  1.5116
 6261SOL     OW30415   4.024   1.122   9.235  0.1978 -0.0980  0.3062
 6261SOL    HW130416   3.968   1.123   9.157  1.6571  0.8020 -0.7237
 6261SOL    HW230417   4.092   1.066   9.197 -0.9823 -1.2640 -0.0955
 6262SOL     OW30418   0.804   4.351   7.515 -0.2021  0.2471 -0.0774
 6262SOL    HW130419   0.832   4.418   7.577  2.2500  0.8306 -1.8386
 6262SOL    HW230420   0.860   4.282   7.550 -1.0259  0.6464  2.0383
 6263SOL     OW30421   2.370   4.521   6.030  0.4071  0.2705 -0.4393
 6263SOL    HW130422   2.290   4.569   6.051 -1.1732 -1.8111 -1.7081
 6263SOL    HW230423   2.395   4.568   5.951 -0.0686 -1.6513 -1.7292
 6264SOL     OW30424   1.936   1.171  16.707  0.1863 -0.6987  0.0373
 6264SOL    HW130425   1.928   1.243  16.645 -1.4813 -0.7337  0.2035
 6264SOL    HW230426   1.955   1.102  16.644  2.2459 -0.4202  0.3578
 6265SOL     OW30427   0.004   2.971   7.835 -0.4181 -0.4723 -0.2342
 6265SOL    HW130428   0.090   3.003   7.863 -1.6274  0.9143  1.9277
 6265SOL    HW230429   4.730   3.024   7.756 -1.4253  0.1400  0.3103
 6266SOL     OW30430   3.700   2.200   6.800 -0.2869 -0.3224 -0.1082
 6266SOL    HW130431   3.732   2.290   6.795  0.9631 -0.7345  0.6532
 6266SOL    HW230432   3.667   2.188   6.711 -0.5555  1.7699 -0.2819
 6267SOL     OW30433   0.442   1.612   6.887  0.6580 -0.0849  0.3033
 6267SOL    HW130434   0.412   1.668   6.959 -1.0784  0.1619 -0.6119
 6267SOL    HW230435   0.534   1.596   6.908  1.0187  2.0372  0.3901
 6268SOL     OW30436   1.190   1.410   4.654 -0.2380 -0.0863 -0.0426
 6268SOL    HW130437   1.158   1.439   4.740  0.8616  0.9914 -0.0029
 6268SOL    HW230438   1.231   1.328   4.680  1.7906  0.8281 -0.4215
 6269SOL     OW30439   1.920   2.005   5.851  0.3761  0.0894 -0.0304
 6269SOL    HW130440   1.949   1.920   5.817 -0.6165  0.1985 -1.1567
 6269SOL    HW230441   1.971   2.001   5.932 -0.0117 -1.6616  0.1343
 6270SOL     OW30442   0.552   1.142   7.871  0.9868 -0.2571  0.4855
 6270SOL    HW130443   0.524   1.054   7.846 -2.5832  1.3224 -0.9556
 6270SOL    HW230444   0.583   1.125   7.960  1.6123  1.1333  0.5304
 6271SOL     OW30445   3.031   3.348   4.604 -0.0729  0.1012  0.3508
 6271SOL    HW130446   3.007   3.426   4.554 -0.1067 -0.3406 -0.3211
 6271SOL    HW230447   3.116   3.372   4.642  0.5619 -1.6453  0.0534
 6272SOL     OW30448   0.517   0.304   7.938 -0.2735  0.2527 -0.5191
 6272SOL    HW130449   0.582   0.364   7.902  1.0248 -2.5922 -2.9576
 6272SOL    HW230450   0.453   0.320   7.868 -0.9847 -0.7975 -0.1054
 6273SOL     OW30451   4.639   4.524   5.583  0.1628  0.4619 -0.5256
 6273SOL    HW130452   4.712   4.490   5.634  0.2253 -1.3764 -1.8232
 6273SOL    HW230453   4.650   4.470   5.505  0.2191  2.7264 -2.0807
 6274SOL     OW30454   1.324   2.319  16.224 -0.3020  0.2774 -0.2863
 6274SOL    HW130455   1.383   2.394  16.220 -0.6061  0.5906  0.9701
 6274SOL    HW230456   1.240   2.358  16.200 -0.3398  0.2446 -0.2045
 6275SOL     OW30457   3.778   2.140   4.770  0.1255  0.3020 -0.4851
 6275SOL    HW130458   3.863   2.174   4.799  1.6696 -2.5452 -1.7276
 6275SOL    HW230459   3.780   2.057   4.817  0.7704 -0.3881 -1.7308
 6276SOL     OW30460   1.016   1.749   7.366 -0.1107  0.3695  0.8960
 6276SOL    HW130461   1.107   1.728   7.388 -0.2140 -0.5634  0.4575
 6276SOL    HW230462   1.026   1.780   7.276  2.0620 -0.0729  0.9989
 6277SOL     OW30463   0.941   4.453  10.094 -0.4180  0.2777  0.3623
 6277SOL    HW130464   0.980   4.449  10.181  0.9351 -0.9426 -0.3018
 6277SOL    HW230465   0.889   4.533  10.101 -0.0315  0.4419  1.3416
 6278SOL     OW30466   4.613   1.815   2.839 -0.4022  0.3904 -0.2920
 6278SOL    HW130467   4.587   1.868   2.915  1.4536  0.8451  0.0227
 6278SOL    HW230468   4.535   1.766   2.814 -0.8279  0.4265  0.9875
 6279SOL     OW30469   3.760   0.236   3.449  0.3551 -0.1610  0.6812
 6279SOL    HW130470   3.667   0.224   3.429  0.2426  1.9771 -0.1058
 6279SOL    HW230471   3.796   0.154   3.415 -2.4158 -2.1205  2.4365
 6280SOL     OW30472   0.463   0.326   0.113 -0.1992  0.2805 -0.2047
 6280SOL    HW130473   0.457   0.281   0.029  1.5797 -0.4453  0.0490
 6280SOL    HW230474   0.416   0.268   0.172 -1.4068  0.4876 -0.9800
 6281SOL     OW30475   4.076   0.092   8.511 -0.3969 -0.3098 -0.7383
 6281SOL    HW130476   4.016   0.057   8.577 -1.4187 -1.3465 -2.2081
 6281SOL    HW230477   4.070   0.018   8.451  2.2742 -0.0933 -1.2689
 6282SOL     OW30478   0.721   3.229  13.473 -0.3006 -0.2743  0.2103
 6282SOL    HW130479   0.783   3.218  13.545  0.8978 -1.2720 -0.9767
 6282SOL    HW230480   0.760   3.305  13.429 -0.3959 -0.1159  0.4003
 6283SOL     OW30481   1.753   3.565   2.816 -0.1276  0.1056 -0.3774
 6283SOL    HW130482   1.733   3.515   2.895 -1.8951  0.6361 -0.5060
 6283SOL    HW230483   1.669   3.606   2.799 -0.8282 -1.1437  0.0998
 6284SOL     OW30484   0.945   2.081   2.724  0.4628  0.0745 -0.5840
 6284SOL    HW130485   0.882   2.110   2.790  0.1568 -2.4361  0.2308
 6284SOL    HW230486   0.947   1.988   2.745  0.0434  0.2824  0.3796
 6285SOL     OW30487   1.595   0.721  15.755 -0.7155 -0.1418  0.0909
 6285SOL    HW130488   1.615   0.668  15.678  2.2710  2.0700 -0.6604
 6285SOL    HW230489   1.578   0.803  15.708  1.1137 -0.8992 -1.8989
 6286SOL     OW30490   1.284   1.459   2.875  0.3763 -0.2232 -0.1043
 6286SOL    HW130491   1.287   1.373   2.834 -0.3251 -1.1427  1.7995
 6286SOL    HW230492   1.366   1.495   2.840 -0.2773 -0.2203 -1.6336
 6287SOL     OW30493   2.083   2.361   7.894 -0.3842 -0.6182 -0.2266
 6287SOL    HW130494   2.103   2.358   7.800 -1.8968 -0.6710 -0.5487
 6287SOL    HW230495   1.997   2.400   7.906  0.7825  1.1684  2.1981
 6288SOL     OW30496   0.997   4.204   2.653  0.6501  0.6288  0.2447
 6288SOL    HW130497   1.007   4.296   2.673 -0.5485  1.2026 -1.7317
 6288SOL    HW230498   1.080   4.174   2.689  1.1409 -0.5109 -1.8069
 6289SOL     OW30499   0.693   4.688   9.324  0.0626  0.1343 -0.0404
 6289SOL    HW130500   0.650   4.657   9.244 -0.3948 -2.3483  1.1674
 6289SOL    HW230501   0.760   4.621   9.332  0.9995  1.2871  1.6887
 6290SOL     OW30502   4.166   0.682   4.049  0.0335 -0.0578  0.6230
 6290SOL    HW130503   4.184   0.594   4.080 -0.5412  0.0916  1.3902
 6290SOL    HW230504   4.188   0.741   4.121  0.1877 -0.1044  0.6142
 6291SOL     OW30505   2.747   2.353  16.729 -0.2965 -0.3548  0.3549
 6291SOL    HW130506   2.673   2.315  16.777  0.2932 -0.9135  0.8240
 6291SOL    HW230507   2.735   2.445  16.755 -0.4643  0.0494 -1.1939
 6292SOL     OW30508   3.393   0.583   5.624  0.4039 -0.2298  0.1677
 6292SOL    HW130509   3.451   0.659   5.624 -0.5446  0.4860  1.2842
 6292SOL    HW230510   3.342   0.592   5.543 -0.9771 -1.3731  0.9129
 6293SOL     OW30511   3.982   0.404   0.326 -0.2817  0.0631 -0.2748
 6293SOL    HW130512   4.023   0.381   0.408 -0.9437 -1.0324 -0.2572
 6293SOL    HW230513   4.057   0.434   0.275 -1.7521  0.6799 -2.1138
 6294SOL     OW30514   0.070   0.641   4.648 -0.3435 -0.6973 -0.2061
 6294SOL    HW130515   0.046   0.627   4.739  0.5818 -3.0684 -0.3247
 6294SOL    HW230516   0.059   0.558   4.602  1.4524 -0.5233 -0.9855
 6295SOL     OW30517   1.820   1.513   9.126 -0.2085  0.1758  0.1477
 6295SOL    HW130518   1.794   1.593   9.080 -0.1505  1.1663  1.8728
 6295SOL    HW230519   1.788   1.453   9.058  0.5086 -2.5887  2.2674
 6296SOL     OW30520   0.442   1.420  17.162  0.2485  0.4445 -0.1934
 6296SOL    HW130521   0.468   1.449  17.250 -0.4264  1.9323 -0.4842
 6296SOL    HW230522   0.357   1.382  17.182  0.2528  0.9233  0.7614
 6297SOL     OW30523   1.175   1.425  13.585 -0.0532  0.3057 -0.4953
 6297SOL    HW130524   1.095   1.474  13.569 -1.1056 -1.6471 -1.1026
 6297SOL    HW230525   1.224   1.482  13.646 -0.1600 -0.1384  0.0052
 6298SOL     OW30526   1.675   0.066   0.200  0.1020 -0.2295  0.2626
 6298SOL    HW130527   1.748   0.034   0.147 -0.3126  0.3886 -0.6783
 6298SOL    HW230528   1.629   4.726   0.233 -0.6838  0.7241  1.3721
 6299SOL     OW30529   1.673   1.986   6.855  0.1188 -0.5464  0.4466
 6299SOL    HW130530   1.702   1.939   6.777  0.3758  0.5764 -0.1333
 6299SOL    HW230531   1.656   1.909   6.910 -2.0788  0.5542  1.3472
 6300SOL     OW30532   0.173   0.228   7.554  0.6348  0.3006 -0.3260
 6300SOL    HW130533   0.226   0.304   7.531  2.3229 -1.1757 -1.3283
 6300SOL    HW230534   0.087   0.267   7.540  0.2396  0.0972  1.5564
 6301SOL     OW30535   0.798   2.675  11.286  0.4775 -0.2901  0.6384
 6301SOL    HW130536   0.882   2.649  11.247 -0.1705 -0.5133 -0.6119
 6301SOL    HW230537   0.744   2.596  11.288  1.7592 -1.2027 -0.6082
 6302SOL     OW30538   2.386   0.036   9.359  0.3568 -0.1449  0.1040
 6302SOL    HW130539   2.314   4.726   9.401  0.3338 -0.2591 -0.0647
 6302SOL    HW230540   2.357   0.061   9.272  2.0730 -0.0189 -0.4405
 6303SOL     OW30541   3.587   0.494   8.029  0.0631  0.3143 -0.2650
 6303SOL    HW130542   3.575   0.569   7.970  0.8684  0.9659  0.3845
 6303SOL    HW230543   3.525   0.519   8.097 -0.0159 -0.0860 -0.1910
 6304SOL     OW30544   3.878   4.444   8.194  0.3155  0.4675  0.8291
 6304SOL    HW130545   3.864   4.533   8.161  2.2213  0.8599  1.0578
 6304SOL    HW230546   3.872   4.387   8.117 -0.0018  0.4714  0.8516
 6305SOL     OW30547   0.260   0.090   1.477 -0.2192  0.5404 -0.1355
 6305SOL    HW130548   0.351   0.062   1.470 -0.7075 -0.8521 -0.7935
 6305SOL    HW230549   0.236   0.026   1.544  1.2816 -0.5228 -0.5900
 6306SOL     OW30550   1.358   0.063   0.019  0.1011 -0.0588  0.0143
 6306SOL    HW130551   1.275   0.072   0.065  1.6242  0.5702  2.6570
 6306SOL    HW230552   1.414   0.117   0.074  0.2882  2.6693 -2.8386
 6307SOL     OW30553   1.663   2.249   8.063  0.6280 -0.4569 -0.4415
 6307SOL    HW130554   1.600   2.318   8.082  0.0541  0.1561 -4.6290
 6307SOL    HW230555   1.732   2.269   8.126  0.7159 -1.8656 -0.0883
 6308SOL     OW30556   4.093   1.991  12.762 -0.1795 -0.9813 -0.0943
 6308SOL    HW130557   4.110   2.084  12.751  1.3201 -1.0423  1.6115
 6308SOL    HW230558   4.096   1.988  12.858 -4.5878 -2.1276 -0.0160
 6309SOL     OW30559   3.868   1.836   9.731 -0.0013 -0.6493 -0.4948
 6309SOL    HW130560   3.888   1.744   9.710 -1.3203 -1.2741  0.9763
 6309SOL    HW230561   3.812   1.830   9.808  0.8465  0.1242  0.1668
 6310SOL     OW30562   4.026   4.564   6.323  0.5395  0.1556  0.3181
 6310SOL    HW130563   3.976   4.492   6.360 -0.9841 -0.3141 -2.6640
 6310SOL    HW230564   4.113   4.527   6.308  0.1767 -0.7068  0.3867
 6311SOL     OW30565   1.185   0.339   4.667 -0.0579  0.6350 -0.4983
 6311SOL    HW130566   1.183   0.312   4.759  1.1345  0.5709 -0.4862
 6311SOL    HW230567   1.221   0.427   4.679  0.4818  0.0742  2.0662
 6312SOL     OW30568   3.473   4.360   9.052  0.5554 -0.1607 -0.5253
 6312SOL    HW130569   3.476   4.441   9.101  3.0457 -0.5929  0.0403
 6312SOL    HW230570   3.454   4.389   8.963 -1.2259  0.5999  0.1076
 6313SOL     OW30571   1.106   1.086   7.229 -0.4258 -0.1602  0.0487
 6313SOL    HW130572   1.170   1.101   7.160 -2.0622  0.9832 -1.2068
 6313SOL    HW230573   1.145   1.113   7.313 -2.6603 -1.1594  1.4238
 6314SOL     OW30574   0.646   0.171   5.736 -0.3631  0.4840 -0.1596
 6314SOL    HW130575   0.734   0.179   5.774  0.5620 -1.5974 -1.8541
 6314SOL    HW230576   0.665   0.224   5.659  0.3967 -1.1356 -1.1033
 6315SOL     OW30577   1.939   0.682   5.586 -0.0414  0.4949 -0.0602
 6315SOL    HW130578   1.942   0.745   5.658 -3.6113 -1.1108  1.4976
 6315SOL    HW230579   1.937   0.727   5.501  0.0180  0.6080 -0.0010
 6316SOL     OW30580   1.450   0.373  13.553 -1.1151 -0.1492  0.1766
 6316SOL    HW130581   1.532   0.344  13.514 -0.4538  0.5040  1.0986
 6316SOL    HW230582   1.473   0.450  13.604 -1.3152  1.5455 -2.2888
 6317SOL     OW30583   1.011   3.353   6.727  0.1736 -0.7174 -0.3657
 6317SOL    HW130584   1.076   3.313   6.669  1.3413 -0.2595  0.6194
 6317SOL    HW230585   0.933   3.333   6.674  0.8068 -0.2168 -1.4843
 6318SOL     OW30586   4.344   4.450   4.482 -0.5553 -0.1220 -0.3111
 6318SOL    HW130587   4.415   4.441   4.419 -2.8296  0.6590 -2.9557
 6318SOL    HW230588   4.390   4.435   4.565 -2.6589  2.3131  1.3288
 6319SOL     OW30589   1.284   3.999   6.302 -0.3158 -0.0305 -0.4336
 6319SOL    HW130590   1.193   3.972   6.292 -0.2149 -0.6208  0.1941
 6319SOL    HW230591   1.301   3.981   6.395 -0.1966 -0.0126 -0.4523
 6320SOL     OW30592   3.528   1.664   2.019  0.2227  0.0366 -0.3094
 6320SOL    HW130593   3.498   1.717   1.945 -1.7273 -0.6128  0.0324
 6320SOL    HW230594   3.459   1.599   2.029  1.3036 -0.7130  2.2642
 6321SOL     OW30595   4.007   4.290   8.387  0.0463  0.2841 -0.2130
 6321SOL    HW130596   3.944   4.315   8.319 -3.1896 -0.1206  2.6653
 6321SOL    HW230597   4.082   4.344   8.362 -0.5146  1.8761  1.5911
 6322SOL     OW30598   3.657   4.221   9.550 -0.1804 -0.9381  0.3255
 6322SOL    HW130599   3.630   4.189   9.464  2.5497 -2.8073  0.1765
 6322SOL    HW230600   3.630   4.312   9.533 -1.1647 -1.2061  0.4172
 6323SOL     OW30601   3.920   4.259  12.149 -0.1651 -0.1556 -0.6430
 6323SOL    HW130602   3.998   4.302  12.114  1.7990 -2.3208  1.0487
 6323SOL    HW230603   3.861   4.325  12.112  2.2200  2.4794  0.1586
 6324SOL     OW30604   1.536   2.265  13.922  0.4046 -0.1863  0.0044
 6324SOL    HW130605   1.574   2.321  13.855  0.7269  0.0454  0.3804
 6324SOL    HW230606   1.547   2.180  13.878  0.3256  1.0520 -2.4283
 6325SOL     OW30607   3.233   0.115   4.352 -0.0004 -0.5788 -0.3791
 6325SOL    HW130608   3.279   0.090   4.272  0.2375 -2.7217  0.4419
 6325SOL    HW230609   3.311   0.151   4.394 -1.3068  1.4587  0.3241
 6326SOL     OW30610   2.235   0.762   5.979 -0.6761 -0.3638 -0.0436
 6326SOL    HW130611   2.285   0.685   6.008 -0.3442  0.0008  0.3441
 6326SOL    HW230612   2.219   0.798   6.066 -1.0843  0.6864 -0.5517
 6327SOL     OW30613   4.510   3.013   5.400 -0.1699 -0.2745  0.2042
 6327SOL    HW130614   4.415   3.022   5.391 -0.2355 -2.1282 -0.9349
 6327SOL    HW230615   4.528   2.933   5.449 -2.8419 -0.9169  0.1193
 6328SOL     OW30616   3.287   0.863   3.716  0.5993 -0.0216  0.1343
 6328SOL    HW130617   3.268   0.785   3.768  0.1879  0.2408  0.3762
 6328SOL    HW230618   3.377   0.879   3.745 -0.2856  2.1982  1.5864
 6329SOL     OW30619   3.845   3.518   3.296 -0.5077 -0.0588 -0.4980
 6329SOL    HW130620   3.931   3.481   3.276  0.7706  2.2000  0.8248
 6329SOL    HW230621   3.874   3.603   3.328  0.2232  0.4341 -2.4481
 6330SOL     OW30622   4.334   0.010   1.380 -0.1615  0.5810  0.4969
 6330SOL    HW130623   4.371   0.021   1.468  0.4581  2.3663 -0.0045
 6330SOL    HW230624   4.308   4.655   1.382  2.5756 -0.2091 -0.0479
 6331SOL     OW30625   3.213   1.048   4.739 -0.1556  0.1379  0.1219
 6331SOL    HW130626   3.122   1.045   4.710  0.7569  1.1990 -2.8233
 6331SOL    HW230627   3.233   1.128   4.690 -0.4732 -0.8434 -1.6107
 6332SOL     OW30628   2.074   3.949   7.018  0.0542 -0.6394  0.2473
 6332SOL    HW130629   2.128   3.935   7.095 -0.7178  3.0417  1.4449
 6332SOL    HW230630   2.111   3.881   6.962 -0.4849  1.2889 -2.4583
 6333SOL     OW30631   0.569   4.020   9.639  0.1732 -0.0811  0.6953
 6333SOL    HW130632   0.489   4.042   9.687  0.1231  2.1543 -0.4080
 6333SOL    HW230633   0.636   4.033   9.706 -0.3123  1.7657  0.8481
 6334SOL     OW30634   0.471   0.182   1.195 -0.0938 -0.1012  0.6686
 6334SOL    HW130635   0.436   0.230   1.270 -1.8013 -3.3379  1.9271
 6334SOL    HW230636   0.535   0.250   1.171 -1.8650  1.1318 -0.5761
 6335SOL     OW30637   3.398   2.888  17.169 -0.2457 -0.4537 -0.0106
 6335SOL    HW130638   3.329   2.950  17.144  0.2013 -0.9550 -2.4851
 6335SOL    HW230639   3.384   2.836  17.090 -0.9715  0.8687 -0.7644
 6336SOL     OW30640   3.039   0.624   8.936  0.1960 -0.1514 -0.1530
 6336SOL    HW130641   3.096   0.701   8.928 -0.7666  0.7367  1.3904
 6336SOL    HW230642   3.061   0.592   8.849  1.1401  0.2033 -0.0491
 6337SOL     OW30643   0.126   4.449   1.839  0.5776 -0.1529  0.1288
 6337SOL    HW130644   0.031   4.436   1.850  0.6697 -0.0453  1.0324
 6337SOL    HW230645   0.161   4.360   1.849  0.7989 -0.0047  0.6496
 6338SOL     OW30646   1.937   1.525  15.318  0.1081  0.3257  0.7900
 6338SOL    HW130647   1.865   1.586  15.334 -1.0483 -0.7291 -0.3786
 6338SOL    HW230648   1.983   1.534  15.401 -1.3042 -0.6577  1.6933
 6339SOL     OW30649   4.178   2.910   3.595  0.6477  0.5349  0.7006
 6339SOL    HW130650   4.199   3.002   3.609  0.2169  0.9111 -1.1956
 6339SOL    HW230651   4.197   2.870   3.680 -0.2184 -2.0181 -0.3111
 6340SOL     OW30652   0.141   3.191   1.545  0.4183  0.1388 -0.0019
 6340SOL    HW130653   0.166   3.139   1.468 -0.5638 -0.2774 -0.0354
 6340SOL    HW230654   0.204   3.262   1.559  0.4440  0.0390  0.3900
 6341SOL     OW30655   1.832   4.072   1.184 -0.1326 -0.3607  0.2722
 6341SOL    HW130656   1.867   3.992   1.146  0.9697 -0.2564  1.0727
 6341SOL    HW230657   1.854   4.059   1.276 -0.5099  0.0275  0.4164
 6342SOL     OW30658   3.293   0.148   5.459 -0.3913 -0.1561 -0.4522
 6342SOL    HW130659   3.356   0.124   5.527 -1.2177 -3.5328 -0.8674
 6342SOL    HW230660   3.332   0.221   5.412  0.7306 -0.7305 -0.3939
 6343SOL     OW30661   1.738   2.184  10.860  0.0754 -0.3596 -0.7383
 6343SOL    HW130662   1.774   2.188  10.772 -0.5264  0.8813 -0.9174
 6343SOL    HW230663   1.644   2.177  10.845 -0.4129  0.4146  1.8820
 6344SOL     OW30664   1.867   3.788  13.578 -0.1091 -0.6200 -0.3895
 6344SOL    HW130665   1.859   3.848  13.653  0.2155 -1.2759  0.1670
 6344SOL    HW230666   1.823   3.712  13.614  2.4627 -1.8559  0.1860
 6345SOL     OW30667   2.075   2.894   7.804  0.0704 -0.1511 -0.1164
 6345SOL    HW130668   2.063   2.815   7.751 -2.7061  1.3377 -1.6844
 6345SOL    HW230669   1.988   2.930   7.788 -0.3865 -1.2055 -0.0278
 6346SOL     OW30670   0.778   1.961   8.958 -0.0585  0.0424  0.0227
 6346SOL    HW130671   0.709   2.027   8.968  0.5562  0.4720  1.4762
 6346SOL    HW230672   0.749   1.907   8.884 -1.5279 -0.8115  1.2147
 6347SOL     OW30673   1.470   1.261   5.831 -0.0065 -0.0073  0.1662
 6347SOL    HW130674   1.374   1.254   5.825  0.1971 -1.4117 -1.4270
 6347SOL    HW230675   1.490   1.234   5.741 -4.3181 -1.2042 -0.4644
 6348SOL     OW30676   4.153   3.428   3.494 -0.8166 -0.3971 -0.4743
 6348SOL    HW130677   4.151   3.454   3.402 -0.3609 -0.6939 -0.5713
 6348SOL    HW230678   4.169   3.333   3.498  1.8926  0.0304 -1.6333
 6349SOL     OW30679   3.078   4.378   8.224 -0.2867 -0.5923  0.1490
 6349SOL    HW130680   2.998   4.392   8.174 -0.1816  0.3075  0.2231
 6349SOL    HW230681   3.046   4.315   8.289  0.6393  1.1763  2.3653
 6350SOL     OW30682   4.710   2.539   5.727  0.0733  0.0331 -0.2279
 6350SOL    HW130683   0.034   2.611   5.711  1.9256 -1.1128  1.7951
 6350SOL    HW230684   4.706   2.483   5.649 -0.4487  0.4695 -0.5207
 6351SOL     OW30685   0.057   3.885  14.424  0.3361 -0.3500 -0.0763
 6351SOL    HW130686   0.138   3.855  14.383 -0.8508 -2.8204 -0.6063
 6351SOL    HW230687   0.051   3.974  14.388 -1.1100 -0.4714 -0.1251
 6352SOL     OW30688   3.596   0.378   0.196 -0.5608  0.0585  0.4945
 6352SOL    HW130689   3.583   0.310   0.130 -1.4262  1.8223 -1.1255
 6352SOL    HW230690   3.685   0.347   0.212 -1.3926 -2.3858  0.4872
 6353SOL     OW30691   3.171   2.669   9.341  0.0441  0.2622 -0.2927
 6353SOL    HW130692   3.158   2.725   9.418  2.2895  1.9603 -1.1530
 6353SOL    HW230693   3.083   2.688   9.306 -0.2524  0.0360  0.3305
 6354SOL     OW30694   2.009   3.889   1.068 -0.2113 -0.2541 -0.1821
 6354SOL    HW130695   2.084   3.945   1.048 -0.4787  0.5588  1.1026
 6354SOL    HW230696   1.991   3.849   0.983 -2.0635  1.2168 -0.4764
 6355SOL     OW30697   3.346   1.110   0.315  0.4606 -0.5064 -0.8680
 6355SOL    HW130698   3.404   1.166   0.366 -1.0118 -1.4225  1.7801
 6355SOL    HW230699   3.419   1.062   0.276  1.4051  0.9733 -0.9400
 6356SOL     OW30700   0.707   4.452   8.645  0.0758 -0.4942 -0.3610
 6356SOL    HW130701   0.673   4.539   8.667  1.5154  0.3985 -1.6655
 6356SOL    HW230702   0.742   4.421   8.729 -0.2376  0.0561 -0.0283
 6357SOL     OW30703   4.320   1.903  14.633  0.3783  0.5014 -0.2332
 6357SOL    HW130704   4.414   1.923  14.632  0.5294 -0.2563 -0.7938
 6357SOL    HW230705   4.282   1.983  14.671  2.1604  0.6206  1.2941
 6358SOL     OW30706   2.729   1.227   2.309 -0.1806  0.1023  0.5638
 6358SOL    HW130707   2.804   1.277   2.340  0.4279 -0.3408 -0.2079
 6358SOL    HW230708   2.717   1.168   2.383 -0.0715 -1.3482 -0.5661
 6359SOL     OW30709   1.480   0.588   9.536  0.1501  0.0260  0.4173
 6359SOL    HW130710   1.545   0.593   9.606 -0.8720  2.0342  1.2202
 6359SOL    HW230711   1.522   0.615   9.455 -0.2340 -1.9282 -0.4196
 6360SOL     OW30712   3.850   2.642   8.984 -0.5036 -0.6662 -0.2923
 6360SOL    HW130713   3.837   2.553   9.016 -1.1943 -0.3683  0.2632
 6360SOL    HW230714   3.759   2.669   8.972  0.1871  1.6519 -0.4122
 6361SOL     OW30715   2.557   3.890   7.860 -0.3956 -0.3342  0.1320
 6361SOL    HW130716   2.485   3.952   7.865  1.2327  1.5720 -0.1291
 6361SOL    HW230717   2.560   3.869   7.767 -0.7371  0.7950 -0.1352
 6362SOL     OW30718   1.925   0.860   6.750  0.5335 -0.1679  0.2307
 6362SOL    HW130719   1.888   0.879   6.835  0.2075  1.0018 -0.1802
 6362SOL    HW230720   1.884   0.919   6.686 -1.4742 -1.4979  0.2969
 6363SOL     OW30721   3.281   2.079   7.708  0.5949  0.0386 -0.1643
 6363SOL    HW130722   3.272   2.006   7.770 -0.4879  2.0266  1.9931
 6363SOL    HW230723   3.374   2.070   7.687  0.5632 -0.6622 -0.0178
 6364SOL     OW30724   0.518   4.429  15.135 -0.1151 -0.1520 -0.0602
 6364SOL    HW130725   0.489   4.512  15.095  0.3699  0.5457  1.0415
 6364SOL    HW230726   0.493   4.363  15.071 -0.7804  0.2546 -0.2202
 6365SOL     OW30727   2.725   3.754  13.328 -0.0654  0.0000 -0.6348
 6365SOL    HW130728   2.808   3.778  13.370  0.2366 -3.4602  0.7472
 6365SOL    HW230729   2.662   3.752  13.400  1.8449  0.5878  1.0507
 6366SOL     OW30730   2.642   0.870   6.271 -0.2708 -0.5145  0.9857
 6366SOL    HW130731   2.620   0.825   6.189 -1.2093  2.8030 -0.5868
 6366SOL    HW230732   2.695   0.944   6.241 -2.3355  0.3956 -0.4178
 6367SOL     OW30733   4.720   3.811   7.209  0.2648 -0.2694  0.0099
 6367SOL    HW130734   0.027   3.748   7.151  2.0938  1.5335 -0.5848
 6367SOL    HW230735   4.634   3.824   7.170  0.0709 -0.6351  0.3190
 6368SOL     OW30736   3.111   3.812   5.150  0.1911 -0.7507 -0.1616
 6368SOL    HW130737   3.168   3.790   5.077 -0.3711  1.5297 -1.2849
 6368SOL    HW230738   3.177   3.830   5.216 -1.8163 -2.3220  2.2843
 6369SOL     OW30739   1.911   4.263   7.212 -0.3653  0.3948  0.2296
 6369SOL    HW130740   1.880   4.201   7.147  3.2445 -2.6239  1.4248
 6369SOL    HW230741   1.911   4.349   7.170 -2.7500  1.0220  1.4827
 6370SOL     OW30742   4.352   3.072   8.629  0.3705 -0.5448 -0.0776
 6370SOL    HW130743   4.444   3.058   8.653  0.1389 -2.2701 -0.1598
 6370SOL    HW230744   4.350   3.032   8.542 -0.1316 -1.8084  0.5046
 6371SOL     OW30745   1.620   0.625   8.274 -0.2551  0.0937 -0.0401
 6371SOL    HW130746   1.575   0.625   8.190  0.3630  1.9073 -0.3885
 6371SOL    HW230747   1.599   0.543   8.318  1.1902 -1.5242 -2.3470
 6372SOL     OW30748   2.319   0.975   7.289 -0.6014  0.9403 -0.0147
 6372SOL    HW130749   2.249   0.940   7.235 -0.2690  1.6991 -0.9294
 6372SOL    HW230750   2.377   1.006   7.219 -2.1453  1.8944 -0.8606
 6373SOL     OW30751   2.470   2.629   3.504 -0.5893  0.5607  0.4238
 6373SOL    HW130752   2.433   2.639   3.416  0.1899 -1.1912 -0.0926
 6373SOL    HW230753   2.519   2.548   3.494 -2.5438 -0.3611 -1.4673
 6374SOL     OW30754   0.848   0.093  15.543 -0.3426 -0.0733 -0.2059
 6374SOL    HW130755   0.895   0.173  15.566  1.4425 -1.2341  0.2482
 6374SOL    HW230756   0.761   0.104  15.580 -0.2683  1.1624 -0.4250
 6375SOL     OW30757   1.043   4.569  17.533 -0.7783 -0.5256  0.1502
 6375SOL    HW130758   0.949   4.556  17.548 -0.1358 -0.9772  3.8971
 6375SOL    HW230759   1.044   4.627  17.457 -0.0790 -2.2412 -1.1534
 6376SOL     OW30760   1.467   1.102   7.754 -0.7477 -0.2509  0.3595
 6376SOL    HW130761   1.549   1.054   7.765 -1.6002 -1.3777  1.6790
 6376SOL    HW230762   1.470   1.173   7.819  0.1144 -0.4124  0.5036
 6377SOL     OW30763   0.209   2.193   2.243 -0.4741  0.1571 -0.5618
 6377SOL    HW130764   0.141   2.136   2.278 -1.4756  1.1332 -0.9057
 6377SOL    HW230765   0.192   2.279   2.283 -1.1827  0.5684 -1.7403
 6378SOL     OW30766   4.466   4.351   2.549 -0.1655 -0.2427  0.0360
 6378SOL    HW130767   4.517   4.385   2.476  1.6144 -0.3407  1.2512
 6378SOL    HW230768   4.513   4.374   2.629  2.8598 -0.9194 -1.5590
 6379SOL     OW30769   2.253   2.554   8.977  0.2033  0.2496 -0.5210
 6379SOL    HW130770   2.262   2.632   9.033 -1.5123  0.6134 -0.7438
 6379SOL    HW230771   2.256   2.594   8.891  1.2492 -0.7398 -0.9441
 6380SOL     OW30772   3.553   1.345   8.430 -0.6933 -0.3828 -0.0208
 6380SOL    HW130773   3.631   1.390   8.399 -1.5174  0.6511 -0.6198
 6380SOL    HW230774   3.500   1.409   8.477  0.4163  0.3243  0.2508
 6381SOL     OW30775   4.684   0.962   0.641  0.2277  0.0973  0.2440
 6381SOL    HW130776   4.655   0.924   0.724 -0.6809  1.5539  0.5948
 6381SOL    HW230777   4.607   0.938   0.589 -0.5989 -1.7013  2.2693
 6382SOL     OW30778   3.268   2.807   6.906 -0.4122 -0.0019  0.6893
 6382SOL    HW130779   3.227   2.723   6.884 -0.7562 -0.0073  1.3671
 6382SOL    HW230780   3.341   2.778   6.961 -1.5321 -2.5217  0.8744
 6383SOL     OW30781   2.654   1.168   5.553  0.6127 -0.0837 -0.4956
 6383SOL    HW130782   2.665   1.162   5.459  0.4314 -0.9473 -0.4600
 6383SOL    HW230783   2.579   1.111   5.571  0.2296  0.2181 -1.1666
 6384SOL     OW30784   4.043   0.732  12.799  0.5182  0.0948 -0.6081
 6384SOL    HW130785   3.995   0.807  12.835  0.5497  0.0550 -0.4834
 6384SOL    HW230786   4.007   0.741  12.711  0.8544  0.7340 -0.6781
 6385SOL     OW30787   2.004   0.969   3.518 -0.9005  0.1234  0.1624
 6385SOL    HW130788   1.945   0.909   3.471 -1.0976  0.6096 -0.2089
 6385SOL    HW230789   2.094   0.939   3.505 -0.9577  0.1336 -0.2739
 6386SOL     OW30790   4.593   1.187   9.126 -0.1138  0.2711 -0.7350
 6386SOL    HW130791   4.621   1.096   9.117  0.4352  0.2067  1.7582
 6386SOL    HW230792   4.552   1.179   9.212 -0.6164  1.7804 -0.8287
 6387SOL     OW30793   4.059   1.941   1.940 -0.6266 -0.3137 -0.6847
 6387SOL    HW130794   4.095   1.853   1.944 -1.4107 -0.6351 -0.6690
 6387SOL    HW230795   3.977   1.939   1.990  0.1311 -0.6608  0.5503
 6388SOL     OW30796   4.461   4.432   3.542  0.1036  0.7880  0.2259
 6388SOL    HW130797   4.492   4.344   3.520 -1.0752  0.4427 -0.0316
 6388SOL    HW230798   4.533   4.488   3.512  0.2113 -0.4940 -1.9102
 6389SOL     OW30799   2.732   1.299   8.030 -0.6821 -0.4849  0.4425
 6389SOL    HW130800   2.641   1.331   8.032 -0.5585 -0.1195  0.0995
 6389SOL    HW230801   2.759   1.306   7.939  1.8569 -0.2697  1.2182
 6390SOL     OW30802   4.253   2.161   5.266  0.7055  0.5088  0.3088
 6390SOL    HW130803   4.329   2.181   5.211  0.9788 -0.4895  0.3195
 6390SOL    HW230804   4.281   2.198   5.349  0.1651  0.1737  0.6386
 6391SOL     OW30805   4.212   1.613   3.326 -0.5506  0.2609  0.5819
 6391SOL    HW130806   4.133   1.562   3.340  0.4177 -1.2673  0.5321
 6391SOL    HW230807   4.191   1.689   3.381 -1.7419 -0.7295  1.4701
 6392SOL     OW30808   2.596   0.729  17.716  0.2530  0.5414  0.1764
 6392SOL    HW130809   2.660   0.668   0.007 -0.0941  0.9691  1.4811
 6392SOL    HW230810   2.516   0.712   0.020 -0.7388 -0.3084 -1.6921
 6393SOL     OW30811   2.466   3.331   8.645  0.1217 -0.1722  0.4664
 6393SOL    HW130812   2.399   3.286   8.593  0.7342 -0.1022 -0.3881
 6393SOL    HW230813   2.530   3.324   8.574 -1.1785 -0.6488 -0.6578
 6394SOL     OW30814   0.575   3.180   7.372 -0.4552 -0.5639 -0.1241
 6394SOL    HW130815   0.573   3.255   7.313  0.5284  0.0067  0.5590
 6394SOL    HW230816   0.631   3.213   7.442 -0.4128 -0.5339 -0.1718
 6395SOL     OW30817   3.807   0.539   8.609  0.1355  0.1918 -0.4054
 6395SOL    HW130818   3.892   0.519   8.649  0.1864 -2.6782 -1.9863
 6395SOL    HW230819   3.751   0.512   8.683  0.4633  1.3534  0.2709
 6396SOL     OW30820   1.224   3.262   3.231  0.5717  0.1966  0.3756
 6396SOL    HW130821   1.159   3.251   3.161  0.1059 -1.1451  1.0178
 6396SOL    HW230822   1.209   3.177   3.272 -0.4006 -1.6408 -3.7758
 6397SOL     OW30823   1.377   2.634  15.493 -0.0951  0.5580 -0.8149
 6397SOL    HW130824   1.303   2.588  15.452  0.5453  0.1518 -1.5001
 6397SOL    HW230825   1.428   2.672  15.422  1.3074  0.9268  0.4112
 6398SOL     OW30826   1.039   4.261   5.765 -0.7388  0.0575  0.4845
 6398SOL    HW130827   0.987   4.222   5.695 -2.3157  2.1014  0.5126
 6398SOL    HW230828   1.094   4.186   5.788 -2.9177 -1.8827 -0.5906
 6399SOL     OW30829   0.535   1.219  13.971  0.4526  0.3188  0.2535
 6399SOL    HW130830   0.546   1.218  13.876  1.2671  0.4655  0.3437
 6399SOL    HW230831   0.574   1.135  13.998 -0.6042 -0.5682 -1.0191
 6400SOL     OW30832   0.750   0.404   7.814  0.2197 -0.6035 -0.0831
 6400SOL    HW130833   0.794   0.428   7.733  1.4095 -3.4145 -0.2642
 6400SOL    HW230834   0.822   0.377   7.871  2.1122 -0.0330 -2.2009
 6401SOL     OW30835   4.237   4.369   5.308  0.3587  0.2316 -0.6156
 6401SOL    HW130836   4.298   4.340   5.376  1.3648  2.4059 -0.5613
 6401SOL    HW230837   4.185   4.290   5.296  3.1754 -1.9978  1.8405
 6402SOL     OW30838   3.018   2.390   9.434 -0.6076  0.3808 -0.0735
 6402SOL    HW130839   3.002   2.480   9.464 -1.0016  0.1580  0.3858
 6402SOL    HW230840   3.032   2.353   9.521  0.6729  0.7203 -0.1286
 6403SOL     OW30841   3.264   1.271   5.230  0.0372  0.0593  0.1040
 6403SOL    HW130842   3.274   1.185   5.271 -0.3466 -0.4205 -0.8231
 6403SOL    HW230843   3.251   1.331   5.303 -0.1568 -0.5484  0.5654
 6404SOL     OW30844   1.486   4.170   5.685  0.0768  0.7927  0.2951
 6404SOL    HW130845   1.498   4.134   5.598  2.9911  0.2481  0.9451
 6404SOL    HW230846   1.503   4.094   5.740 -0.2903  0.2153 -0.3983
 6405SOL     OW30847   1.004   0.121   9.920  0.4012 -0.1752  0.2200
 6405SOL    HW130848   1.006   0.065   9.842 -0.0172 -0.1201  0.1720
 6405SOL    HW230849   0.932   0.082   9.969 -0.3398  1.4097  0.3933
 6406SOL     OW30850   0.473   2.965   1.191  0.2300  0.5751 -0.2410
 6406SOL    HW130851   0.417   2.968   1.113 -0.3000 -1.7565  0.0347
 6406SOL    HW230852   0.411   2.928   1.253 -0.2091 -0.7681 -1.4742
 6407SOL     OW30853   0.494   4.354  14.868  0.5971 -0.2895 -0.1069
 6407SOL    HW130854   0.520   4.397  14.787  0.6460 -0.1108  0.0019
 6407SOL    HW230855   0.545   4.274  14.858  0.5855 -0.5218  1.7012
 6408SOL     OW30856   2.980   3.896  13.422  0.0970  0.3783  0.0708
 6408SOL    HW130857   3.012   3.813  13.386 -2.0019  0.3896 -1.9019
 6408SOL    HW230858   2.982   3.945  13.339  1.1555  0.2254  0.0093
 6409SOL     OW30859   2.989   3.298   3.276 -0.2829  0.4882 -0.1929
 6409SOL    HW130860   2.985   3.204   3.258 -0.5503  0.2723  1.0128
 6409SOL    HW230861   2.929   3.345   3.219  0.2826 -0.3809 -1.5215
 6410SOL     OW30862   4.476   3.451   4.120  0.1832 -0.5039  0.3082
 6410SOL    HW130863   4.510   3.486   4.038 -1.2610  2.3191  0.9167
 6410SOL    HW230864   4.388   3.489   4.120 -0.4478 -1.9547 -1.5612
 6411SOL     OW30865   4.186   0.869   1.293 -0.1358 -0.5121  0.0604
 6411SOL    HW130866   4.261   0.922   1.320  0.0397 -1.0321  0.5964
 6411SOL    HW230867   4.151   0.930   1.228  1.3702 -1.4630 -1.6051
 6412SOL     OW30868   1.192   0.975   9.201  0.6772 -0.5607 -0.2868
 6412SOL    HW130869   1.172   1.054   9.152  0.8028 -1.7092 -2.2225
 6412SOL    HW230870   1.106   0.934   9.212  1.3620 -1.5358  1.4042
 6413SOL     OW30871   4.003   0.855   5.040  0.0233 -0.2626  0.5963
 6413SOL    HW130872   4.060   0.828   5.111  0.2227  0.5705  0.7586
 6413SOL    HW230873   3.922   0.882   5.084  0.1177  0.1342  0.5248
 6414SOL     OW30874   3.741   2.434  12.907  0.1283  0.2303  0.7364
 6414SOL    HW130875   3.788   2.508  12.945  0.4728 -0.5636  1.8451
 6414SOL    HW230876   3.726   2.473  12.821  3.0673  3.0146  1.5072
 6415SOL     OW30877   0.969   3.808   5.800 -0.2846 -0.1116 -0.4384
 6415SOL    HW130878   0.936   3.863   5.729 -0.0845 -1.1915 -1.3551
 6415SOL    HW230879   0.984   3.722   5.762 -1.1323 -0.8960  0.9944
 6416SOL     OW30880   2.501   2.851   1.049 -1.0657 -0.2078  0.1969
 6416SOL    HW130881   2.546   2.851   0.964  0.3341 -0.9365  0.9504
 6416SOL    HW230882   2.413   2.847   1.011 -0.9883  2.9436 -0.3109
 6417SOL     OW30883   4.683   1.820   6.512 -0.3478 -0.3650 -0.2546
 6417SOL    HW130884   4.684   1.891   6.448 -1.5098  1.9935  2.3542
 6417SOL    HW230885   4.589   1.803   6.509 -0.2916 -0.5870 -0.8295
 6418SOL     OW30886   2.273   1.985  13.752  0.0002  0.7346  1.1180
 6418SOL    HW130887   2.182   1.969  13.777 -0.1861 -2.7677 -1.7636
 6418SOL    HW230888   2.303   1.894  13.751 -2.1303  0.0445 -0.7276
 6419SOL     OW30889   1.898   3.474  14.412 -0.4691 -0.2039  0.4315
 6419SOL    HW130890   1.962   3.523  14.463  0.2753 -2.2626  1.4700
 6419SOL    HW230891   1.812   3.515  14.426 -0.6680 -0.6348  0.4639
 6420SOL     OW30892   0.380   1.816   9.231 -0.4779  0.1629 -0.1363
 6420SOL    HW130893   0.395   1.860   9.315  1.1594 -2.5364  0.9718
 6420SOL    HW230894   0.302   1.767   9.257  0.7133 -1.3234  0.6294
 6421SOL     OW30895   2.899   4.330   7.786  0.4894  0.1493  0.3268
 6421SOL    HW130896   2.861   4.417   7.783 -0.9564 -0.5355 -0.8957
 6421SOL    HW230897   2.827   4.280   7.825  0.2939  0.4206  0.3104
 6422SOL     OW30898   2.055   1.864   7.411  0.0590  1.3529 -0.4851
 6422SOL    HW130899   2.128   1.827   7.460 -0.0285 -0.9703 -2.1509
 6422SOL    HW230900   2.010   1.791   7.369  2.0065  2.4546 -4.4615
 6423SOL     OW30901   1.878   1.681  12.321  0.0814 -0.0676  0.3393
 6423SOL    HW130902   1.807   1.744  12.310 -0.2975 -0.5593  0.0100
 6423SOL    HW230903   1.922   1.694  12.237  1.0736  0.3640  0.9267
 6424SOL     OW30904   0.284   2.865   5.768 -0.0542 -0.2560 -0.1874
 6424SOL    HW130905   0.369   2.829   5.742  0.1728 -0.1172  0.3608
 6424SOL    HW230906   0.291   2.961   5.772  2.5303 -0.3707 -1.5964
 6425SOL     OW30907   2.643   2.212   7.365 -0.1819 -0.0808 -0.6101
 6425SOL    HW130908   2.660   2.214   7.460 -0.3731  1.6583 -0.6215
 6425SOL    HW230909   2.678   2.297   7.341 -0.8126 -0.8615 -4.2055
 6426SOL     OW30910   3.617   0.705   6.414  0.6140 -0.1182  0.3539
 6426SOL    HW130911   3.679   0.740   6.351  0.6307 -0.5940  0.1027
 6426SOL    HW230912   3.598   0.620   6.374 -0.2055  0.6765 -0.9616
 6427SOL     OW30913   0.585   0.498  10.341 -0.3824 -0.7079 -0.3032
 6427SOL    HW130914   0.493   0.472  10.347 -0.5650 -0.2146 -0.9988
 6427SOL    HW230915   0.626   0.421  10.379  1.8513  0.9316  0.5933
 6428SOL     OW30916   3.911   0.360   6.797 -0.5788 -0.0052  0.2183
 6428SOL    HW130917   3.858   0.330   6.871  1.0798  1.2341  1.9192
 6428SOL    HW230918   3.842   0.339   6.735 -0.7572 -2.9886  1.4314
 6429SOL     OW30919   2.587   2.717   8.524 -0.2718  0.1394 -0.3554
 6429SOL    HW130920   2.606   2.785   8.588  0.0150 -1.2359  1.0292
 6429SOL    HW230921   2.568   2.638   8.575 -0.8069  0.6602  0.2375
 6430SOL     OW30922   4.605   1.355  14.672 -0.1793 -0.0136  0.0058
 6430SOL    HW130923   4.602   1.313  14.759  1.1500 -1.0329 -0.4393
 6430SOL    HW230924   4.568   1.289  14.614 -1.1342 -1.0429  1.7851
 6431SOL     OW30925   1.527   2.471   5.862 -0.2876 -0.6086 -0.2311
 6431SOL    HW130926   1.501   2.388   5.823  0.3515 -1.1968  0.6094
 6431SOL    HW230927   1.515   2.461   5.957  0.5493 -1.1641 -0.1778
 6432SOL     OW30928   1.776   2.355   0.798 -0.7024  0.1667 -0.4135
 6432SOL    HW130929   1.748   2.420   0.734 -0.0220  1.4177  0.5716
 6432SOL    HW230930   1.826   2.417   0.850 -0.7310 -1.2137  1.2673
 6433SOL     OW30931   2.111   1.599   2.519 -0.4050  0.7039 -0.0366
 6433SOL    HW130932   2.027   1.575   2.481 -0.2258 -2.4488  1.5210
 6433SOL    HW230933   2.146   1.513   2.541  2.7259  1.8382 -0.5723
 6434SOL     OW30934   2.219   2.700   5.324  0.0889  0.0823  0.4251
 6434SOL    HW130935   2.230   2.674   5.415  2.4965 -2.9600 -0.7420
 6434SOL    HW230936   2.281   2.647   5.273  0.6425  1.0168  0.1245
 6435SOL     OW30937   0.356   0.453   4.674  0.3858 -0.2133 -0.3453
 6435SOL    HW130938   0.290   0.522   4.677 -1.1237 -1.7083  1.2585
 6435SOL    HW230939   0.318   0.396   4.741  0.5546  0.8927  0.6917
 6436SOL     OW30940   4.558   4.382   7.512  0.5410 -0.8068 -0.4870
 6436SOL    HW130941   4.501   4.431   7.572  1.5919 -0.9031  0.5926
 6436SOL    HW230942   4.496   4.348   7.447  1.9456  0.0317 -2.2471
 6437SOL     OW30943   0.694   0.774   6.008  0.2450 -0.0500  0.3894
 6437SOL    HW130944   0.784   0.790   5.982  0.0021 -0.4173 -0.6920
 6437SOL    HW230945   0.709   0.719   6.085  0.8614 -1.9194 -1.0715
 6438SOL     OW30946   1.098   3.535   7.072  0.1566 -0.2581 -0.6114
 6438SOL    HW130947   1.153   3.464   7.038  2.6956  0.5078  1.8887
 6438SOL    HW230948   1.178   3.587   7.078  0.0676 -0.4794  2.2646
 6439SOL     OW30949   3.517   1.972  15.783 -0.0145  0.0567 -0.0657
 6439SOL    HW130950   3.606   1.938  15.774  0.5185  1.7077 -0.9331
 6439SOL    HW230951   3.509   2.046  15.724  0.5274 -0.9257 -1.3743
 6440SOL     OW30952   3.261   2.759   3.884 -0.4984 -0.0057 -0.3433
 6440SOL    HW130953   3.283   2.780   3.793  0.0637 -1.7160 -0.6054
 6440SOL    HW230954   3.168   2.739   3.875 -0.3444 -2.0350  2.3737
 6441SOL     OW30955   4.349   3.207   2.941 -0.1443  0.3566  0.2866
 6441SOL    HW130956   4.431   3.233   2.983 -0.2876  0.5749  0.4287
 6441SOL    HW230957   4.351   3.249   2.854  0.0090 -0.5443 -0.1493
 6442SOL     OW30958   4.015   4.448   9.595 -0.3711 -0.6454  0.1020
 6442SOL    HW130959   4.014   4.369   9.648  0.0212  0.3096  1.5103
 6442SOL    HW230960   3.962   4.503   9.652 -1.7378  0.7322 -2.4756
 6443SOL     OW30961   0.262   2.325  13.328  0.0734 -0.1130  0.2544
 6443SOL    HW130962   0.201   2.397  13.309  1.7137  2.0104  3.0622
 6443SOL    HW230963   0.342   2.364  13.363 -0.1207 -0.0880  0.6825
 6444SOL     OW30964   0.246   1.673   7.270 -0.0126 -0.5465 -0.2785
 6444SOL    HW130965   0.178   1.637   7.327 -0.1562  0.4109  0.1634
 6444SOL    HW230966   0.310   1.603   7.264  0.8163  0.0466  1.7341
 6445SOL     OW30967   0.000   0.036   5.957  0.0569 -0.0752 -0.2488
 6445SOL    HW130968   4.680   0.088   5.901 -0.4462 -1.0149 -0.6266
 6445SOL    HW230969   0.048   4.720   5.892  0.0208  1.0945 -1.2265
 6446SOL     OW30970   3.989   3.669   3.547 -0.2845  0.0843 -0.4453
 6446SOL    HW130971   4.067   3.722   3.563 -1.1469  1.2698 -0.1832
 6446SOL    HW230972   4.033   3.585   3.560 -1.6328 -0.4920  0.4102
 6447SOL     OW30973   3.464   2.430   7.269  0.5073  0.0869  0.3509
 6447SOL    HW130974   3.474   2.350   7.320 -1.5494  0.6576  1.6519
 6447SOL    HW230975   3.502   2.408   7.184  1.3360 -1.5559  1.1414
 6448SOL     OW30976   0.868   3.296   3.962  0.3381  0.3127 -0.1107
 6448SOL    HW130977   0.932   3.253   3.905  2.5323  1.3562  1.5750
 6448SOL    HW230978   0.792   3.246   3.932 -1.3734  2.9528 -0.1399
 6449SOL     OW30979   4.268   3.871   8.924 -0.2049  0.3219  0.2865
 6449SOL    HW130980   4.339   3.838   8.979 -1.2780 -1.4105  0.6077
 6449SOL    HW230981   4.195   3.844   8.979  1.2428 -0.5694  1.7408
 6450SOL     OW30982   0.096   0.111   3.307  0.1468 -0.5783 -0.3468
 6450SOL    HW130983   0.125   0.147   3.223 -1.2578  1.3718  0.0156
 6450SOL    HW230984   0.138   0.028   3.285 -2.8018 -1.7672 -1.5282
 6451SOL     OW30985   3.342   4.561   4.226  0.3486 -0.4629  0.1714
 6451SOL    HW130986   3.400   4.626   4.187 -1.5302  0.8497 -0.4688
 6451SOL    HW230987   3.266   4.570   4.169 -1.8341 -3.5105  2.5914
 6452SOL     OW30988   3.535   2.907   3.105  0.1161  0.0658 -0.2042
 6452SOL    HW130989   3.584   2.836   3.063  1.6780 -0.1423  1.9511
 6452SOL    HW230990   3.505   2.867   3.186  1.6699 -1.4781 -0.3900
 6453SOL     OW30991   2.844   0.237   7.385 -0.7371  0.7560  0.2549
 6453SOL    HW130992   2.937   0.256   7.398 -1.2417  2.5855  1.1522
 6453SOL    HW230993   2.814   0.323   7.354 -1.2930 -0.1305 -1.6689
 6454SOL     OW30994   4.657   1.926   7.947  0.0872 -0.0012 -0.0135
 6454SOL    HW130995   4.682   1.951   7.858  0.1392 -2.1982 -0.6195
 6454SOL    HW230996   4.685   2.000   8.000  0.0496  0.7493 -1.0401
 6455SOL     OW30997   4.194   1.336   2.592  0.4617  0.0524  0.2789
 6455SOL    HW130998   4.285   1.309   2.593  0.4713  0.0370 -4.4580
 6455SOL    HW230999   4.162   1.296   2.512 -1.5015 -0.6458  1.4058
 6456SOL     OW31000   1.307   3.076   7.638 -0.1739  0.7558 -0.0165
 6456SOL    HW131001   1.357   3.018   7.695 -1.1655  1.5841  1.6927
 6456SOL    HW231002   1.261   3.125   7.706  0.2707  1.6120 -0.3404
 6457SOL     OW31003   2.876   1.244  13.629 -0.1914 -0.1463  0.7274
 6457SOL    HW131004   2.934   1.170  13.644 -2.5474 -2.0928  0.2294
 6457SOL    HW231005   2.865   1.289  13.713 -0.9162 -0.1158  0.6106
 6458SOL     OW31006   0.074   1.936   6.955  0.1334  0.6003 -0.0744
 6458SOL    HW131007   0.004   1.876   6.930  1.4071 -1.0472  0.3265
 6458SOL    HW231008   0.148   1.886   6.991 -0.0961 -1.2788 -2.2189
 6459SOL     OW31009   1.508   3.695   9.508 -0.1710 -0.3692 -0.3103
 6459SOL    HW131010   1.578   3.720   9.447 -0.4550  0.1541 -0.4192
 6459SOL    HW231011   1.435   3.754   9.490 -0.1844 -0.2985 -0.0292
 6460SOL     OW31012   3.387   1.855   7.186  0.0916 -0.6859 -0.3587
 6460SOL    HW131013   3.366   1.943   7.154 -1.3265 -1.2279 -0.9154
 6460SOL    HW231014   3.406   1.872   7.278 -0.0171 -0.3870 -0.3918
 6461SOL     OW31015   4.093   2.856   2.443  0.0436  0.0365 -0.6688
 6461SOL    HW131016   4.148   2.877   2.369 -0.7126 -2.5970 -1.9909
 6461SOL    HW231017   4.160   2.862   2.511  0.2985 -0.3462 -0.8846
 6462SOL     OW31018   0.577   3.957   7.268 -0.0328 -0.3405  0.5802
 6462SOL    HW131019   0.567   4.029   7.331  0.6860 -0.0423  0.3607
 6462SOL    HW231020   0.529   4.003   7.200 -1.3309 -3.7789 -0.7613
 6463SOL     OW31021   2.768   2.905   9.834 -0.0916  0.0199 -0.7706
 6463SOL    HW131022   2.700   2.865   9.779  0.7501 -1.8535 -0.4564
 6463SOL    HW231023   2.727   2.927   9.918 -0.9466 -0.2070 -1.1265
 6464SOL     OW31024   3.432   3.353  10.551 -0.4574  0.1844  0.2230
 6464SOL    HW131025   3.518   3.363  10.592 -0.4456  1.4443 -0.0834
 6464SOL    HW231026   3.429   3.430  10.493 -1.5625 -1.3794 -1.7968
 6465SOL     OW31027   4.710   1.505   2.327 -0.5970  0.2497 -0.3909
 6465SOL    HW131028   0.052   1.545   2.365  1.2182 -3.1100 -0.6837
 6465SOL    HW231029   4.650   1.513   2.401  0.5897 -1.8966  0.7909
 6466SOL     OW31030   4.069   3.667   6.812  0.0539 -0.0452 -0.0099
 6466SOL    HW131031   3.992   3.611   6.810  0.2842 -0.2680 -2.4148
 6466SOL    HW231032   4.136   3.603   6.835  1.1689  1.3900  0.7182
 6467SOL     OW31033   1.943   4.521   3.306  0.2033  0.1223 -0.1001
 6467SOL    HW131034   1.939   4.499   3.213 -0.1994  0.1591 -0.0911
 6467SOL    HW231035   1.999   4.597   3.293 -0.1291 -0.0609 -2.5592
 6468SOL     OW31036   0.432   4.106   7.111 -0.1690 -0.0215  0.2621
 6468SOL    HW131037   0.369   4.163   7.157 -1.6987 -0.7027 -0.9905
 6468SOL    HW231038   0.493   4.174   7.083  1.8161 -0.3642  3.7923
 6469SOL     OW31039   1.361   0.951  11.285  0.4505  0.1619  0.1248
 6469SOL    HW131040   1.342   0.952  11.379  0.2241 -0.8471  0.0841
 6469SOL    HW231041   1.448   0.913  11.295  0.9533  2.2682  3.7876
 6470SOL     OW31042   0.370   3.720   1.676 -0.4576  0.0017  0.3141
 6470SOL    HW131043   0.299   3.723   1.612 -0.4536 -0.1298  0.3029
 6470SOL    HW231044   0.453   3.720   1.627  1.1374  1.8477  2.9886
 6471SOL     OW31045   0.328   4.411  11.725  0.1064 -0.1808 -0.1219
 6471SOL    HW131046   0.373   4.362  11.656 -1.3002 -1.7822  0.0814
 6471SOL    HW231047   0.359   4.373  11.807  1.2738 -1.7997 -1.3249
 6472SOL     OW31048   2.681   3.965   8.246 -0.3561 -0.2083  0.2670
 6472SOL    HW131049   2.635   3.881   8.239 -1.4916  0.6670 -2.9355
 6472SOL    HW231050   2.717   3.980   8.158 -0.6602  0.0185  0.1828
 6473SOL     OW31051   4.313   0.296  10.745 -0.2720  0.5612 -0.2614
 6473SOL    HW131052   4.304   0.365  10.811 -1.1892 -0.0970  0.2837
 6473SOL    HW231053   4.404   0.315  10.722 -0.3869 -0.1045 -1.2845
 6474SOL     OW31054   0.920   3.701  12.220 -0.0089  0.5152  0.8551
 6474SOL    HW131055   0.943   3.791  12.240 -1.0147  1.1265 -0.7639
 6474SOL    HW231056   0.961   3.652  12.291  0.8231 -0.6657 -0.4353
 6475SOL     OW31057   3.613   1.123   8.229 -0.3354 -0.4386 -0.1807
 6475SOL    HW131058   3.668   1.132   8.152  0.5238  0.7460  0.5644
 6475SOL    HW231059   3.683   1.122   8.294 -0.1560 -1.5120 -0.3794
 6476SOL     OW31060   1.511   4.191  13.785 -0.2851 -0.0091  0.4231
 6476SOL    HW131061   1.491   4.121  13.847 -0.9228 -0.0060  0.2244
 6476SOL    HW231062   1.439   4.254  13.788  0.2022  0.5548  0.2342
 6477SOL     OW31063   1.192   2.549   8.629  0.1009 -0.4268  0.5136
 6477SOL    HW131064   1.100   2.531   8.648 -0.5258  1.6061 -0.5481
 6477SOL    HW231065   1.203   2.631   8.678 -2.0422  0.3548 -0.2685
 6478SOL     OW31066   1.432   4.102   6.594 -0.0397  0.2349 -0.0056
 6478SOL    HW131067   1.516   4.147   6.584  0.2813 -0.4704 -0.5568
 6478SOL    HW231068   1.463   4.011   6.592  1.0869  0.6262  0.0567
 6479SOL     OW31069   3.232   1.268   9.638 -0.0101  0.6893 -0.1370
 6479SOL    HW131070   3.231   1.214   9.716  3.1491  1.1329  0.2057
 6479SOL    HW231071   3.326   1.282   9.650  0.2149 -1.9521  0.9428
 6480SOL     OW31072   1.825   2.598   1.955  0.0941 -0.0842 -0.1937
 6480SOL    HW131073   1.769   2.675   1.957  0.0602 -0.2298  3.6711
 6480SOL    HW231074   1.780   2.529   2.003  1.9229 -0.7735  0.5362
 6481SOL     OW31075   0.859   0.048   2.971  0.2699 -0.0435 -0.2038
 6481SOL    HW131076   0.870   4.702   3.018  0.8857  0.5652  0.7427
 6481SOL    HW231077   0.944   0.049   2.926  0.2507  1.5747 -0.2203
 6482SOL     OW31078   0.941   0.428   7.245  0.2824  0.2453 -0.1127
 6482SOL    HW131079   1.023   0.403   7.288  0.1736  1.6811  0.9357
 6482SOL    HW231080   0.938   0.365   7.173 -0.0299  2.8652 -2.3577
 6483SOL     OW31081   3.212   0.079   3.293 -0.3750  0.1008  0.1366
 6483SOL    HW131082   3.290   0.025   3.301  1.5289  2.9501  0.8636
 6483SOL    HW231083   3.176   0.072   3.382 -2.4864 -1.5637 -0.8410
 6484SOL     OW31084   4.186   2.708   0.755  0.0913 -0.0526 -0.1859
 6484SOL    HW131085   4.148   2.680   0.671 -3.8753 -0.1565  1.6237
 6484SOL    HW231086   4.229   2.789   0.731 -0.9231  0.7256  0.6335
 6485SOL     OW31087   0.701   2.655   4.221  0.6390 -0.2446 -0.3680
 6485SOL    HW131088   0.759   2.729   4.241  0.6867 -0.7079  1.2241
 6485SOL    HW231089   0.756   2.596   4.170  0.2956  0.0462 -1.0641
 6486SOL     OW31090   0.085   4.166   7.779 -0.1795  0.2172  0.1212
 6486SOL    HW131091   0.126   4.120   7.706 -1.5709  2.0213 -1.8217
 6486SOL    HW231092   0.042   4.243   7.740  1.3404 -0.4148 -2.7460
 6487SOL     OW31093   3.496   4.645  16.981  0.4582  0.3223 -0.8363
 6487SOL    HW131094   3.575   4.683  16.942 -0.6594  3.2848 -0.2510
 6487SOL    HW231095   3.426   4.704  16.952  1.5399  2.1087  0.1584
 6488SOL     OW31096   2.560   2.820   9.684 -0.0368 -0.4663  0.0322
 6488SOL    HW131097   2.483   2.764   9.693  0.6711 -1.5594 -0.7214
 6488SOL    HW231098   2.562   2.854   9.595  3.5779 -1.3448 -0.2237
 6489SOL     OW31099   3.008   1.718   4.318  0.1667  0.2288 -0.0122
 6489SOL    HW131100   2.954   1.747   4.244 -1.6654  2.5846  2.2488
 6489SOL    HW231101   2.974   1.778   4.384 -1.8140 -1.0952  0.2088
 6490SOL     OW31102   0.537   0.400   0.529  0.1159 -0.8372 -0.0060
 6490SOL    HW131103   0.529   0.492   0.553 -2.1263 -0.8555 -0.7339
 6490SOL    HW231104   0.452   0.361   0.545  1.3607 -2.6395  2.2176
 6491SOL     OW31105   0.164   2.775   5.162  0.5656  0.0532  0.3510
 6491SOL    HW131106   0.249   2.752   5.126  1.2143 -0.7681  2.3966
 6491SOL    HW231107   0.177   2.830   5.240  0.3220  2.4759 -1.2899
 6492SOL     OW31108   2.428   1.778   4.757 -0.2145  0.4678  0.5165
 6492SOL    HW131109   2.404   1.860   4.714  2.4665  0.9190 -0.0883
 6492SOL    HW231110   2.400   1.714   4.691 -1.1105  0.8042  0.5766
 6493SOL     OW31111   1.100   1.052  14.944 -0.0157  0.0887 -0.3094
 6493SOL    HW131112   1.015   1.090  14.965  0.3186  1.6919 -1.8521
 6493SOL    HW231113   1.084   0.964  14.978  0.3376  0.0260 -0.3022
 6494SOL     OW31114   0.098   3.361  15.299 -0.3137 -0.3598 -0.2155
 6494SOL    HW131115   0.101   3.305  15.221 -2.9656  0.7389 -1.0964
 6494SOL    HW231116   0.091   3.442  15.248  1.9707  1.5196  2.4146
 6495SOL     OW31117   2.100   2.271   2.226  0.8970  0.3627  0.1645
 6495SOL    HW131118   2.105   2.347   2.168  0.9258  0.6350  0.5264
 6495SOL    HW231119   2.177   2.226   2.193 -0.8871 -1.8455 -0.9552
 6496SOL     OW31120   4.446   3.340   5.624 -0.3837  0.0914 -0.1558
 6496SOL    HW131121   4.358   3.352   5.660 -0.5985  0.5928 -0.8441
 6496SOL    HW231122   4.474   3.431   5.621  2.3291 -0.6801  1.1511
 6497SOL     OW31123   1.572   1.778   4.438  0.1676  0.2041  0.1042
 6497SOL    HW131124   1.504   1.721   4.473  0.3087 -0.3969 -0.5745
 6497SOL    HW231125   1.623   1.795   4.518  0.8815  0.8776 -0.4890
 6498SOL     OW31126   0.280   3.627   3.975  0.0012  0.5181 -0.1431
 6498SOL    HW131127   0.203   3.592   3.930  0.6555 -0.5924 -0.4033
 6498SOL    HW231128   0.334   3.650   3.899 -0.0831  4.2041  0.9236
 6499SOL     OW31129   1.906   2.935   8.135 -0.0668 -0.1555  0.0497
 6499SOL    HW131130   1.858   2.922   8.217 -1.9015  0.2380 -0.9603
 6499SOL    HW231131   1.986   2.979   8.163 -1.2803  0.6937  2.2275
 6500SOL     OW31132   2.749   1.413   5.660  0.0666  0.1200  1.2093
 6500SOL    HW131133   2.711   1.340   5.611 -2.2377  1.2081  1.3817
 6500SOL    HW231134   2.801   1.362   5.722  0.0203 -0.8047  0.4878
 6501SOL     OW31135   2.515   3.878  16.671 -0.0037 -0.4478  0.0878
 6501SOL    HW131136   2.591   3.935  16.685  1.5328 -2.6394  0.6090
 6501SOL    HW231137   2.558   3.795  16.651 -1.7614 -1.7031  1.4807
 6502SOL     OW31138   0.293   3.819   7.164  0.4002 -0.4601  0.0727
 6502SOL    HW131139   0.324   3.852   7.080 -1.1238  0.0009 -0.3137
 6502SOL    HW231140   0.269   3.899   7.212 -0.2130 -1.1988  0.9959
 6503SOL     OW31141   3.924   3.257   9.123 -0.5232  0.2543  0.4537
 6503SOL    HW131142   3.873   3.201   9.181  0.1469 -0.7597  0.0896
 6503SOL    HW231143   3.880   3.338   9.147  0.5702  1.2589 -0.9254
 6504SOL     OW31144   0.123   3.589   8.492  0.6308 -0.7806 -0.3373
 6504SOL    HW131145   0.162   3.646   8.426 -0.4774  0.6755  0.2838
 6504SOL    HW231146   0.176   3.610   8.570  0.6938 -2.1116 -0.0135
 6505SOL     OW31147   0.537   1.035   2.994 -0.3808  0.3144  0.2348
 6505SOL    HW131148   0.473   0.979   3.037  0.0268 -0.2885  0.0650
 6505SOL    HW231149   0.494   1.055   2.912 -0.2739  0.1557  0.1399
 6506SOL     OW31150   1.122   0.422  10.349 -0.5546  0.1095  0.0619
 6506SOL    HW131151   1.146   0.428  10.442 -2.0723 -0.6336  0.5073
 6506SOL    HW231152   1.202   0.385  10.312 -0.2945  1.1831 -0.4426
 6507SOL     OW31153   4.221   3.585  11.513  0.1245  0.2802 -0.2181
 6507SOL    HW131154   4.219   3.504  11.563  1.4246  0.3549 -0.0447
 6507SOL    HW231155   4.148   3.583  11.451 -0.6582  0.5824  0.6918
 6508SOL     OW31156   4.204   2.071   3.438 -0.3329 -0.5545 -0.3676
 6508SOL    HW131157   4.248   1.986   3.436 -0.8556 -0.7780 -2.6847
 6508SOL    HW231158   4.273   2.124   3.478  0.9317 -2.9264  0.5761
 6509SOL     OW31159   4.282   4.450   6.322 -0.4112  0.0680 -0.3066
 6509SOL    HW131160   4.345   4.431   6.392  0.1317 -0.8016 -1.0374
 6509SOL    HW231161   4.291   4.364   6.283  1.0272 -0.0793  0.3159
 6510SOL     OW31162   3.776   2.241   3.706  0.8280 -0.4021  0.0487
 6510SOL    HW131163   3.783   2.215   3.614  1.7042 -0.7246  0.2133
 6510SOL    HW231164   3.842   2.310   3.702 -1.5580  1.9130  0.2486
 6511SOL     OW31165   2.970   1.633   4.837 -0.5855  0.5271 -0.4629
 6511SOL    HW131166   2.957   1.628   4.742 -0.3952  0.1601 -0.4686
 6511SOL    HW231167   3.066   1.630   4.840 -0.7070 -1.9481  0.2509
 6512SOL     OW31168   2.202   3.824   6.000 -0.2621 -0.0501 -0.0915
 6512SOL    HW131169   2.159   3.894   6.049 -0.1389  2.4502 -3.5362
 6512SOL    HW231170   2.290   3.832   6.039 -1.1619 -1.1155  2.1378
 6513SOL     OW31171   2.061   1.913  10.382  0.0769 -0.1776 -1.0009
 6513SOL    HW131172   2.076   1.981  10.448  1.1350 -0.6931 -0.7089
 6513SOL    HW231173   1.993   1.954  10.329 -1.4487 -1.2552  0.1014
 6514SOL     OW31174   4.521   0.967   3.045  0.3675 -0.0415  0.2771
 6514SOL    HW131175   4.517   1.058   3.016 -1.3153 -0.6313 -1.3865
 6514SOL    HW231176   4.427   0.949   3.052  0.1192  0.6559 -1.3517
 6515SOL     OW31177   1.797   4.009   8.694  0.5087  0.3553 -0.0279
 6515SOL    HW131178   1.780   4.059   8.614  0.4646 -0.0735 -0.2841
 6515SOL    HW231179   1.891   4.000   8.677  0.1427 -3.0518 -0.2224
 6516SOL     OW31180   2.932   1.678   7.819  0.2349 -0.0341  0.3069
 6516SOL    HW131181   2.939   1.606   7.756 -2.8029  0.8965 -1.0482
 6516SOL    HW231182   3.025   1.677   7.844 -0.4428  0.9894  2.8786
 6517SOL     OW31183   3.555   2.879   5.122  0.1400  0.5146  0.5145
 6517SOL    HW131184   3.623   2.894   5.056  0.9854  0.9903  1.4963
 6517SOL    HW231185   3.560   2.783   5.121 -1.7491  0.3912  2.9862
 6518SOL     OW31186   1.106   0.106   9.593  0.3548  0.0288 -0.4309
 6518SOL    HW131187   1.048   0.175   9.563 -1.6441 -1.0608  0.9358
 6518SOL    HW231188   1.107   0.050   9.515 -1.0830  0.9680 -1.1263
 6519SOL     OW31189   1.131   0.031   9.067 -0.4317 -0.4594  0.6965
 6519SOL    HW131190   1.042   0.011   9.039 -0.2973 -1.6395  1.1217
 6519SOL    HW231191   1.169   0.072   8.989 -1.1234  1.6691  1.4752
 6520SOL     OW31192   3.463   2.405   6.997 -0.2288 -0.0717 -0.1974
 6520SOL    HW131193   3.482   2.432   6.908  0.4807  2.5062  0.7461
 6520SOL    HW231194   3.403   2.331   6.985 -0.0595 -0.2407 -0.0160
 6521SOL     OW31195   2.423   3.157   9.157  0.4883  0.4118 -0.5898
 6521SOL    HW131196   2.505   3.115   9.184 -0.7082  0.4665  3.2665
 6521SOL    HW231197   2.443   3.250   9.145 -1.2770  0.8904  0.0906
 6522SOL     OW31198   3.657   1.475   4.077  0.0113  0.2257 -0.1450
 6522SOL    HW131199   3.695   1.424   4.149 -1.3051  0.6381  0.8433
 6522SOL    HW231200   3.582   1.424   4.046  1.5447 -1.8955 -0.4093
 6523SOL     OW31201   3.317   1.266  10.620  0.4060  0.0450  0.4359
 6523SOL    HW131202   3.375   1.342  10.609 -1.2995  1.3150  0.2834
 6523SOL    HW231203   3.354   1.206  10.554  1.6130  2.0156 -0.6875
 6524SOL     OW31204   0.878   4.131   2.927  0.4082 -0.5732 -0.1935
 6524SOL    HW131205   0.938   4.076   2.977  2.5322  0.3116 -1.8074
 6524SOL    HW231206   0.941   4.140   2.855  1.9036  1.7315  1.4143
 6525SOL     OW31207   2.221   3.072   6.462 -0.2421  0.1512  0.4298
 6525SOL    HW131208   2.179   2.999   6.508 -2.9532  1.1637 -0.4226
 6525SOL    HW231209   2.193   3.056   6.372 -1.5745 -2.1272  1.2459
 6526SOL     OW31210   2.310   3.601   2.814  0.0987 -0.2202 -0.3248
 6526SOL    HW131211   2.304   3.525   2.756 -0.1921 -1.0320  0.7748
 6526SOL    HW231212   2.334   3.661   2.743  1.5640 -0.0483  0.3227
 6527SOL     OW31213   1.789   0.121   8.871 -0.4823 -0.0336 -0.7176
 6527SOL    HW131214   1.824   0.149   8.787  1.0898 -0.0085 -0.0464
 6527SOL    HW231215   1.702   0.162   8.871  0.2934  1.5661 -0.6974
 6528SOL     OW31216   4.724   1.145   1.471  0.4056  0.4238  0.0446
 6528SOL    HW131217   0.049   1.135   1.544  1.7390  0.5700 -1.0618
 6528SOL    HW231218   4.680   1.224   1.502  0.5355 -0.0781  1.5044
 6529SOL     OW31219   0.989   1.694  12.309 -0.0960  0.3376  0.2259
 6529SOL    HW131220   1.016   1.603  12.294  0.7201  0.8128 -1.2265
 6529SOL    HW231221   0.958   1.717  12.221  1.9143  0.7251 -0.3966
 6530SOL     OW31222   2.449   2.668   5.079 -0.4026 -0.1259 -0.5082
 6530SOL    HW131223   2.457   2.585   5.127 -1.1723 -0.5549 -1.1035
 6530SOL    HW231224   2.434   2.621   4.996  0.3631  1.0056 -1.2901
 6531SOL     OW31225   0.955   1.574  16.031  0.4521 -0.3692 -0.3990
 6531SOL    HW131226   0.973   1.668  16.027 -0.8436 -0.0748  0.8032
 6531SOL    HW231227   0.903   1.550  15.954  1.4105 -0.5885 -0.9799
 6532SOL     OW31228   0.423   2.804   0.209 -0.3460 -0.2121 -0.4664
 6532SOL    HW131229   0.350   2.764   0.257 -1.2637  3.4621  1.1490
 6532SOL    HW231230   0.437   2.737   0.141 -1.1450  1.7159 -2.5273
 6533SOL     OW31231   1.247   2.465   9.241  0.2137  0.0715 -0.6385
 6533SOL    HW131232   1.330   2.441   9.283  0.3947  0.8969 -0.5225
 6533SOL    HW231233   1.220   2.388   9.191 -0.0762  0.1317 -0.5713
 6534SOL     OW31234   1.870   2.131   2.210  0.4790 -0.4148  0.3345
 6534SOL    HW131235   1.853   2.204   2.150  0.2350 -0.2081  0.6524
 6534SOL    HW231236   1.952   2.163   2.248  0.3297 -0.3944  0.6375
 6535SOL     OW31237   0.556   0.801   2.652  0.4867 -0.7852  0.6402
 6535SOL    HW131238   0.552   0.813   2.557 -0.3041 -2.0154  0.5198
 6535SOL    HW231239   0.509   0.882   2.675 -2.4557 -1.2159 -4.0891
 6536SOL     OW31240   2.095   2.409  10.068  0.5159 -0.0852 -0.0410
 6536SOL    HW131241   2.065   2.487  10.021  1.0687 -0.3370 -0.8066
 6536SOL    HW231242   2.016   2.356  10.081 -0.0293  1.0695  1.4195
 6537SOL     OW31243   4.514   0.905   4.636  0.3647  0.2983  0.8032
 6537SOL    HW131244   4.591   0.871   4.682  1.4703  0.6640 -0.8096
 6537SOL    HW231245   4.469   0.960   4.700 -1.4613 -1.9284  1.4150
 6538SOL     OW31246   3.480   3.810   5.809 -0.4574  0.1092 -0.3628
 6538SOL    HW131247   3.518   3.723   5.822 -0.5988 -0.2352 -2.2716
 6538SOL    HW231248   3.467   3.835   5.900  2.1061 -0.5385  0.2020
 6539SOL     OW31249   3.803   2.652   7.896  0.0668  0.7788  0.3491
 6539SOL    HW131250   3.873   2.593   7.923 -0.7651 -0.1392  0.5148
 6539SOL    HW231251   3.721   2.631   7.941  1.2267 -2.2475  1.0012
 6540SOL     OW31252   1.136   0.123  10.537 -0.5131  0.0319  0.4678
 6540SOL    HW131253   1.107   0.032  10.545  1.1112 -0.5829 -0.7745
 6540SOL    HW231254   1.057   0.177  10.528 -0.5953 -0.0644  0.5939
 6541SOL     OW31255   0.286   1.951  11.474 -0.7128 -0.1710  0.1521
 6541SOL    HW131256   0.331   1.997  11.545 -2.4488  0.1276  1.0662
 6541SOL    HW231257   0.194   1.955  11.500 -0.8984 -1.4280 -0.3131
 6542SOL     OW31258   1.964   1.496   9.772 -0.2685 -0.2096  0.6337
 6542SOL    HW131259   1.991   1.512   9.681 -0.7203 -0.4276  0.4593
 6542SOL    HW231260   1.939   1.582   9.804 -0.2797  0.6404 -1.6426
 6543SOL     OW31261   3.092   2.058   3.420 -0.3575  0.3079  0.4865
 6543SOL    HW131262   3.129   1.973   3.398  0.9239  1.1001 -0.4456
 6543SOL    HW231263   3.089   2.045   3.515 -0.9508 -1.3240  0.2324
 6544SOL     OW31264   3.441   3.520   0.303 -0.4362  0.2923 -0.2640
 6544SOL    HW131265   3.509   3.585   0.320  2.4491 -2.6475 -0.4277
 6544SOL    HW231266   3.455   3.481   0.389 -1.4954 -2.1872 -1.2104
 6545SOL     OW31267   3.383   3.340  13.758 -0.1408  0.2112  0.0989
 6545SOL    HW131268   3.441   3.376  13.825  0.9067 -1.6917  0.2292
 6545SOL    HW231269   3.439   3.300  13.691  1.9881  0.5984  1.6561
 6546SOL     OW31270   1.926   1.379   7.947 -0.2217 -0.3605 -0.3447
 6546SOL    HW131271   1.962   1.435   8.017  1.7632 -1.1465 -0.7376
 6546SOL    HW231272   1.930   1.452   7.886  0.0797 -2.0378 -2.3245
 6547SOL     OW31273   0.945   0.001   5.774 -0.3875  0.6738 -0.1606
 6547SOL    HW131274   0.904   0.038   5.851  0.5012  1.2165  0.0459
 6547SOL    HW231275   1.037   0.026   5.774 -0.5300  1.1829 -0.3861
 6548SOL     OW31276   3.435   2.022  16.048 -0.3795  0.0292  0.2644
 6548SOL    HW131277   3.461   1.999  15.959  3.8700  1.3471  1.1743
 6548SOL    HW231278   3.519   2.060  16.074 -1.0100  2.1311 -0.7672
 6549SOL     OW31279   0.925   4.472   4.703 -0.4009 -0.7135  0.7644
 6549SOL    HW131280   0.972   4.435   4.778  0.1201 -0.3876  0.5982
 6549SOL    HW231281   0.896   4.390   4.664  0.2507 -1.2653  1.4193
 6550SOL     OW31282   2.069   4.395   3.511  0.5300  0.5183 -0.1276
 6550SOL    HW131283   2.112   4.473   3.547  1.9264  1.0854 -2.9936
 6550SOL    HW231284   2.029   4.438   3.435  0.5533  0.0506 -0.4031
 6551SOL     OW31285   1.506   0.719   8.504 -0.0202  0.1996  0.0894
 6551SOL    HW131286   1.556   0.691   8.428 -0.5385  2.5141 -1.1083
 6551SOL    HW231287   1.445   0.784   8.468 -0.0915 -0.4417 -0.9383
 6552SOL     OW31288   4.658   3.593   4.455 -0.1410 -0.3509  0.2967
 6552SOL    HW131289   4.564   3.587   4.475 -0.2630 -1.2037 -0.5162
 6552SOL    HW231290   4.671   3.531   4.383  1.6950  0.9801 -0.4945
 6553SOL     OW31291   0.440   4.446   1.646 -0.0413  0.4272  0.6079
 6553SOL    HW131292   0.446   4.527   1.596 -0.0312  0.2014  0.2433
 6553SOL    HW231293   0.483   4.479   1.726  0.7468 -1.0401  0.7966
 6554SOL     OW31294   3.480   0.036   1.642  0.2442 -0.5293  0.3679
 6554SOL    HW131295   3.418   4.703   1.620  0.2314 -0.4123  0.0300
 6554SOL    HW231296   3.436   0.060   1.723  0.2895  0.8647 -0.0212
 6555SOL     OW31297   3.453   3.899  13.064 -0.3591 -0.1024  0.0192
 6555SOL    HW131298   3.405   3.956  13.005 -0.5985  2.4636  2.6950
 6555SOL    HW231299   3.537   3.896  13.018 -0.4895  3.0155 -0.4215
 6556SOL     OW31300   1.825   4.640   4.098 -0.2668  0.5223 -0.1891
 6556SOL    HW131301   1.783   4.564   4.139  0.9063  1.5831  2.9396
 6556SOL    HW231302   1.754   4.702   4.116 -0.7592  0.9166 -3.3733
 6557SOL     OW31303   0.384   4.326   6.844  0.4533  0.3300 -0.5581
 6557SOL    HW131304   0.434   4.248   6.819  0.6696  0.5281 -0.7558
 6557SOL    HW231305   0.436   4.346   6.922  0.4841 -0.6194 -0.3415
 6558SOL     OW31306   3.549   3.502  16.189  0.2460 -0.4368 -0.3501
 6558SOL    HW131307   3.455   3.494  16.175  0.0019  0.5987  0.7657
 6558SOL    HW231308   3.571   3.546  16.106  0.8314 -0.3565 -0.1574
 6559SOL     OW31309   0.180   1.255   8.540 -0.0940  0.4528  0.0169
 6559SOL    HW131310   0.186   1.210   8.456  0.5866  0.5239  0.0313
 6559SOL    HW231311   0.263   1.301   8.532 -0.0960  0.4243 -0.1857
 6560SOL     OW31312   3.230   1.003   5.894 -0.2834 -0.2388 -0.4702
 6560SOL    HW131313   3.155   1.042   5.938  0.8839  1.9555 -0.3923
 6560SOL    HW231314   3.296   1.007   5.964 -1.5095  0.2510  0.6627
 6561SOL     OW31315   1.378   1.238   2.424  0.3851  0.5952 -0.0703
 6561SOL    HW131316   1.294   1.240   2.378 -0.1690  1.5179  0.9686
 6561SOL    HW231317   1.423   1.312   2.383  2.3293  0.1569  1.2636
 6562SOL     OW31318   2.688   3.906   9.056 -0.1147  0.1302  0.0773
 6562SOL    HW131319   2.698   3.947   9.142 -1.0894 -1.4996  0.9663
 6562SOL    HW231320   2.677   3.988   9.008 -4.5242 -0.9228 -0.7281
 6563SOL     OW31321   0.761   0.244  10.414  0.2372  0.3731 -0.2586
 6563SOL    HW131322   0.807   0.163  10.395 -1.8637 -0.9678  0.3994
 6563SOL    HW231323   0.804   0.268  10.496  0.7028  0.6733 -0.5910
 6564SOL     OW31324   1.003   3.840   7.531 -0.5888 -0.3666 -0.0017
 6564SOL    HW131325   1.028   3.761   7.484 -0.0874  0.5581 -1.2769
 6564SOL    HW231326   1.024   3.816   7.621 -0.3624 -0.9179 -0.2027
 6565SOL     OW31327   0.128   1.934   9.405 -0.1560 -0.2105 -0.6324
 6565SOL    HW131328   0.219   1.933   9.435 -0.6634 -2.0156  0.8080
 6565SOL    HW231329   0.098   1.843   9.403 -1.2100  0.1530 -1.2184
 6566SOL     OW31330   1.058   0.290  13.755  0.3032 -0.1609  0.2315
 6566SOL    HW131331   1.030   0.234  13.681 -0.0969 -0.1630  0.3844
 6566SOL    HW231332   1.136   0.251  13.793  1.0873  0.0308 -1.1730
 6567SOL     OW31333   4.003   3.308   4.166  0.4635 -0.3107  0.0487
 6567SOL    HW131334   3.948   3.292   4.089  0.6620 -0.7876  0.0084
 6567SOL    HW231335   4.027   3.400   4.154 -0.8993 -0.0832 -1.0031
 6568SOL     OW31336   4.437   2.570  17.190  0.0845  0.2051  0.4440
 6568SOL    HW131337   4.446   2.490  17.241 -0.1071 -0.0018  0.1484
 6568SOL    HW231338   4.363   2.615  17.229  0.2186  1.5219 -0.7842
 6569SOL     OW31339   2.974   3.793   1.700 -0.2116  0.1680 -0.8987
 6569SOL    HW131340   2.989   3.728   1.769  1.0472  2.9942  1.5630
 6569SOL    HW231341   2.892   3.761   1.663 -0.9866 -0.0934  1.0427
 6570SOL     OW31342   0.072   3.321   2.034  0.5752  0.5887 -0.7957
 6570SOL    HW131343   0.124   3.371   1.972 -1.4964  2.3910 -1.0432
 6570SOL    HW231344   4.735   3.299   1.977  1.7487 -0.2386 -2.0031
 6571SOL     OW31345   2.887   2.983   3.161 -0.2732 -0.1998 -0.2357
 6571SOL    HW131346   2.823   2.941   3.104 -1.4130  0.7061  0.3908
 6571SOL    HW231347   2.925   2.905   3.201 -0.8892 -0.1632  0.4035
 6572SOL     OW31348   1.340   2.351   2.936 -0.2012  0.2074 -0.1459
 6572SOL    HW131349   1.297   2.328   3.019 -2.0718  1.3157 -0.7995
 6572SOL    HW231350   1.339   2.445   2.952 -0.3464  0.4342 -1.4953
 6573SOL     OW31351   2.358   2.835   2.418 -0.2249 -0.2591  0.1273
 6573SOL    HW131352   2.314   2.823   2.503  1.5372  0.3540  1.1180
 6573SOL    HW231353   2.372   2.747   2.383 -1.3758 -0.5072  0.2596
 6574SOL     OW31354   2.087   0.677   1.348  0.4655 -0.9229 -0.5424
 6574SOL    HW131355   2.110   0.683   1.440 -1.9528  0.6786 -0.0534
 6574SOL    HW231356   1.993   0.662   1.359  0.4281  0.7653  1.4757
 6575SOL     OW31357   2.514   3.738   8.231 -0.3641 -0.1038 -0.2091
 6575SOL    HW131358   2.470   3.653   8.223  0.0127 -0.3843  0.6335
 6575SOL    HW231359   2.448   3.803   8.206 -0.3164  0.1803  0.3983
 6576SOL     OW31360   3.056   3.541   8.458  0.2065 -0.5304  0.4095
 6576SOL    HW131361   3.007   3.551   8.540  1.3774  0.5639  0.9755
 6576SOL    HW231362   3.148   3.527   8.480  0.0911  0.3220  1.4461
 6577SOL     OW31363   4.145   3.691   1.991  0.4242  0.2058 -0.4329
 6577SOL    HW131364   4.171   3.775   2.030  0.2003 -0.6206  1.4744
 6577SOL    HW231365   4.053   3.680   2.014  1.0193 -1.8840  0.9212
 6578SOL     OW31366   0.329   3.509   5.483 -0.4657  0.2724 -0.1060
 6578SOL    HW131367   0.423   3.493   5.473 -0.2562  0.7650  1.1106
 6578SOL    HW231368   0.298   3.419   5.491  2.4429 -0.7133  0.3202
 6579SOL     OW31369   3.432   0.548  14.927 -0.3747  0.1747 -0.0091
 6579SOL    HW131370   3.389   0.632  14.943 -2.0766 -0.5703 -0.6125
 6579SOL    HW231371   3.398   0.485  14.991  0.4031 -1.1822 -0.9401
 6580SOL     OW31372   2.857   0.634   3.624  0.1651 -0.1746 -0.9705
 6580SOL    HW131373   2.803   0.685   3.564 -0.1422  1.5696  0.7788
 6580SOL    HW231374   2.794   0.583   3.675  0.6270  0.6946  0.4704
 6581SOL     OW31375   1.948   3.450   2.639  0.1071  0.1176 -0.4857
 6581SOL    HW131376   1.890   3.498   2.698  0.8550 -1.1699  1.3192
 6581SOL    HW231377   1.913   3.363   2.658 -0.3362  0.1044 -1.4028
 6582SOL     OW31378   3.151   2.850   9.549  0.0762 -0.3428  0.6456
 6582SOL    HW131379   3.096   2.880   9.620 -0.2545  0.5618  0.0025
 6582SOL    HW231380   3.213   2.796   9.599 -1.2756 -1.9754  0.5705
 6583SOL     OW31381   3.727   4.539   4.812  0.3230  0.2668  0.3655
 6583SOL    HW131382   3.725   4.627   4.774  0.8289  0.6936  1.3366
 6583SOL    HW231383   3.666   4.543   4.886 -1.7422 -2.0695 -1.2384
 6584SOL     OW31384   3.111   4.080   5.460  0.2562  0.0485  0.8585
 6584SOL    HW131385   3.178   4.075   5.528 -0.1006 -0.4223  1.1740
 6584SOL    HW231386   3.154   4.047   5.381  0.9603  0.2205  1.1616
 6585SOL     OW31387   0.909   1.578   7.821 -0.5697 -0.7354 -0.0016
 6585SOL    HW131388   0.927   1.663   7.781 -0.0421 -0.1060  1.5657
 6585SOL    HW231389   0.814   1.574   7.807 -0.6218 -2.2781  0.7675
 6586SOL     OW31390   3.138   0.438  16.820 -0.1711 -0.1385  0.9469
 6586SOL    HW131391   3.043   0.439  16.833 -0.4670 -0.3818 -1.2712
 6586SOL    HW231392   3.161   0.468  16.732 -0.3864  3.2806  2.0413
 6587SOL     OW31393   3.218   3.808   1.248  0.4388 -0.2746 -0.1535
 6587SOL    HW131394   3.237   3.758   1.328 -0.8556  0.8422  0.8596
 6587SOL    HW231395   3.275   3.885   1.257  0.1571 -0.2351  1.2469
 6588SOL     OW31396   1.130   2.070  12.435  0.3319 -0.4700  0.1213
 6588SOL    HW131397   1.138   2.103  12.524 -3.4435  1.1624 -0.1452
 6588SOL    HW231398   1.037   2.052  12.439  0.5556 -1.1454  1.8039
 6589SOL     OW31399   3.423   0.764   1.087 -0.1670  0.2533  0.6819
 6589SOL    HW131400   3.509   0.727   1.106 -0.5409 -0.4278  1.0364
 6589SOL    HW231401   3.392   0.694   1.030 -0.6316  1.7821 -0.9811
 6590SOL     OW31402   4.086   4.375  11.545  0.7613  0.2358  0.2746
 6590SOL    HW131403   4.035   4.327  11.611  1.3024 -0.8675 -0.1245
 6590SOL    HW231404   4.092   4.467  11.572  0.9469 -0.0563  1.2344
 6591SOL     OW31405   0.528   0.685   3.039  0.1118  0.4049 -0.0632
 6591SOL    HW131406   0.535   0.629   2.961 -0.2127 -0.9157  0.8484
 6591SOL    HW231407   0.603   0.651   3.088  0.2329  1.5030  0.5168
 6592SOL     OW31408   4.378   4.236   3.975 -0.3913 -0.2281 -0.5503
 6592SOL    HW131409   4.408   4.145   3.969  1.3143  0.2922  0.0118
 6592SOL    HW231410   4.341   4.233   4.063  0.7711  0.1605 -0.0573
 6593SOL     OW31411   0.282   2.000   2.525 -0.7188 -0.2499 -0.5491
 6593SOL    HW131412   0.248   1.975   2.439 -0.1319  0.0477 -0.8702
 6593SOL    HW231413   0.199   2.020   2.570 -1.0237 -1.8254 -0.4156
 6594SOL     OW31414   2.589   0.487  16.875  0.2875  0.2637 -0.9823
 6594SOL    HW131415   2.542   0.545  16.816 -2.9047 -0.2946  0.9973
 6594SOL    HW231416   2.520   0.423  16.892  0.1035  0.9488  0.8796
 6595SOL     OW31417   4.142   3.474   1.786  0.4257  0.0190  0.4109
 6595SOL    HW131418   4.097   3.410   1.840 -0.3606  0.1706 -0.0566
 6595SOL    HW231419   4.143   3.553   1.839 -2.3871  0.4944 -0.2660
 6596SOL     OW31420   0.595   0.750   7.575  0.0382  0.3256  0.0263
 6596SOL    HW131421   0.652   0.733   7.501  2.2892 -0.3496  1.9177
 6596SOL    HW231422   0.567   0.662   7.600 -1.3775  0.3299 -1.5743
 6597SOL     OW31423   2.218   3.640   7.295  0.1606 -0.6252 -0.0832
 6597SOL    HW131424   2.213   3.735   7.283 -0.1561 -0.6376 -0.0570
 6597SOL    HW231425   2.299   3.623   7.247  0.6831  1.4480  0.0995
 6598SOL     OW31426   3.659   4.110   5.190 -0.1140  0.0013  0.0171
 6598SOL    HW131427   3.613   4.173   5.246 -1.2179 -2.4242  1.8270
 6598SOL    HW231428   3.640   4.161   5.111 -3.4063  0.1735  0.9299
 6599SOL     OW31429   1.082   2.460  14.009  0.0424 -0.0874  0.7874
 6599SOL    HW131430   1.015   2.395  14.030 -0.4327  0.9864  2.6357
 6599SOL    HW231431   1.100   2.490  14.098  2.1402 -1.0734  0.7091
 6600SOL     OW31432   1.638   1.419  10.945  0.3772  0.1737  0.3339
 6600SOL    HW131433   1.709   1.457  10.996  0.5223  0.2822  0.0513
 6600SOL    HW231434   1.652   1.482  10.874  0.3305  0.8751  0.9413
 6601SOL     OW31435   2.245   0.107   3.831 -0.2282  0.4941  0.6613
 6601SOL    HW131436   2.160   0.129   3.793 -0.1382  0.1563  0.2618
 6601SOL    HW231437   2.251   0.012   3.824 -0.5213  0.5282 -0.0630
 6602SOL     OW31438   2.569   1.413   1.706 -0.3041  0.2492  0.6729
 6602SOL    HW131439   2.650   1.463   1.700 -0.8669  1.2902  1.8171
 6602SOL    HW231440   2.515   1.459   1.641 -0.1797  0.0106  0.4025
 6603SOL     OW31441   2.572   0.359  16.010 -0.4450  0.3564 -0.4361
 6603SOL    HW131442   2.559   0.277  15.962 -2.2064  0.2076  0.2768
 6603SOL    HW231443   2.482   0.376  16.036  0.2071  0.5349  1.7287
 6604SOL     OW31444   2.656   4.595   3.063  0.1590 -0.5412  0.0488
 6604SOL    HW131445   2.594   4.523   3.059  0.4311 -0.7445 -0.5007
 6604SOL    HW231446   2.638   4.638   3.147 -0.5943  1.7923 -1.2978
 6605SOL     OW31447   3.771   3.816   5.503  0.4769  0.0534 -0.2261
 6605SOL    HW131448   3.751   3.787   5.592  0.0528 -0.8771 -0.6277
 6605SOL    HW231449   3.866   3.821   5.513  0.3808  2.7802 -0.7633
 6606SOL     OW31450   2.444   2.300   6.417 -0.6798 -0.2178 -0.2166
 6606SOL    HW131451   2.411   2.384   6.447 -0.8015 -0.3114 -0.0882
 6606SOL    HW231452   2.531   2.331   6.392 -0.1274 -2.1578 -0.7121
 6607SOL     OW31453   4.524   2.729   4.131 -0.4258 -0.6188 -0.7768
 6607SOL    HW131454   4.453   2.673   4.161 -0.5951  0.2652  0.4753
 6607SOL    HW231455   4.589   2.662   4.152  1.5328  1.8203  1.0818
 6608SOL     OW31456   3.194   1.865  16.065  0.2227  0.4559 -0.5219
 6608SOL    HW131457   3.258   1.932  16.084  0.4674 -0.2717  1.2065
 6608SOL    HW231458   3.216   1.859  15.972 -4.2212 -2.1850 -1.3934
 6609SOL     OW31459   1.288   3.844   3.444 -0.0369  0.2347  0.5203
 6609SOL    HW131460   1.339   3.915   3.406 -0.4550 -1.0960 -2.5617
 6609SOL    HW231461   1.275   3.869   3.535  0.4532 -0.9575  0.9167
 6610SOL     OW31462   1.527   4.724   2.419  0.1807 -0.3265 -0.7153
 6610SOL    HW131463   1.473   4.645   2.428 -2.0384  1.3797  0.9633
 6610SOL    HW231464   1.469   0.042   2.472  3.3310  2.4130 -0.1484
 6611SOL     OW31465   1.295   1.933   6.353 -0.0668  0.1360  0.3183
 6611SOL    HW131466   1.236   1.958   6.424  0.2639 -1.7703  1.2790
 6611SOL    HW231467   1.305   2.012   6.300  3.6650  0.4021  1.4813
 6612SOL     OW31468   4.107   4.614  12.284 -0.2301 -0.2890  0.1138
 6612SOL    HW131469   4.049   4.690  12.296  1.0728  0.9479 -1.4894
 6612SOL    HW231470   4.137   4.580  12.368 -2.7737 -0.5141  0.9230
 6613SOL     OW31471   0.569   0.549   4.539  0.5574 -0.0413  0.3256
 6613SOL    HW131472   0.544   0.642   4.539  1.2240  0.1467 -0.0109
 6613SOL    HW231473   0.497   0.509   4.587 -0.6598 -1.7321 -2.9402
 6614SOL     OW31474   3.583   4.518  11.368  0.5791  0.2418  0.5145
 6614SOL    HW131475   3.586   4.462  11.290  0.9892  2.1252 -0.8332
 6614SOL    HW231476   3.638   4.471  11.430  1.4222  1.2100  0.5119
 6615SOL     OW31477   2.359   2.540   2.413  0.1497  0.0696 -0.3141
 6615SOL    HW131478   2.325   2.538   2.324 -0.4163 -1.9782 -0.0678
 6615SOL    HW231479   2.280   2.524   2.465 -0.5373  1.8269 -0.8476
 6616SOL     OW31480   1.090   0.130  15.793  0.1894 -0.5326  0.1961
 6616SOL    HW131481   1.136   0.080  15.725  1.5120  1.3093 -0.2738
 6616SOL    HW231482   1.095   0.203  15.731  2.5573  0.0032  1.0461
 6617SOL     OW31483   4.692   3.347   2.302  0.1936 -0.2796  0.2334
 6617SOL    HW131484   4.737   3.432   2.308 -0.3979  0.1105 -0.9806
 6617SOL    HW231485   0.012   3.306   2.237 -0.3687  0.4083 -0.6769
 6618SOL     OW31486   2.209   0.033  15.736  0.7793 -0.3990 -0.1911
 6618SOL    HW131487   2.206   0.127  15.716  1.0148 -0.1135  1.1381
 6618SOL    HW231488   2.231   0.031  15.829 -0.2021  3.9599  0.1204
 6619SOL     OW31489   2.983   1.668   8.317 -0.0829 -0.1335 -0.4074
 6619SOL    HW131490   2.993   1.754   8.356 -1.5175 -0.9214  1.7118
 6619SOL    HW231491   2.976   1.617   8.398 -0.4232  2.0184  0.9079
 6620SOL     OW31492   2.030   3.485   5.921  0.1817  0.0893 -0.3804
 6620SOL    HW131493   1.957   3.544   5.905 -0.0883 -0.0469  0.3342
 6620SOL    HW231494   1.982   3.410   5.954  0.5790 -0.5675 -1.3183
 6621SOL     OW31495   2.661   2.782   0.837  0.6622  0.0607  0.4707
 6621SOL    HW131496   2.599   2.794   0.764  1.5131 -1.9977 -0.5799
 6621SOL    HW231497   2.715   2.713   0.800  3.0828  1.8834  0.6201
 6622SOL     OW31498   4.036   2.511   2.840 -1.1765  0.2061  0.4198
 6622SOL    HW131499   3.997   2.524   2.754  3.0543 -0.5304 -1.6002
 6622SOL    HW231500   4.058   2.601   2.861  1.1208 -0.5689  1.3551
 6623SOL     OW31501   1.673   3.070  14.647  0.4842 -0.1298  0.8519
 6623SOL    HW131502   1.691   3.055  14.740  0.1974  0.0318  0.9329
 6623SOL    HW231503   1.734   3.138  14.619 -0.1799 -0.2090 -0.8013
 6624SOL     OW31504   1.157   3.385  15.406 -0.8066  0.0494  0.1185
 6624SOL    HW131505   1.121   3.318  15.464 -0.8010 -1.9825 -2.2087
 6624SOL    HW231506   1.073   3.402  15.365  0.4077  0.9972 -1.9783
 6625SOL     OW31507   1.968   0.240   9.055 -0.3005 -0.6926  0.4783
 6625SOL    HW131508   2.045   0.198   9.092 -0.5438 -1.0987  0.5224
 6625SOL    HW231509   1.900   0.174   9.046 -0.5462 -0.3727  0.0037
 6626SOL     OW31510   1.131   2.784   0.833 -0.2632 -0.2900 -0.4476
 6626SOL    HW131511   1.193   2.736   0.779 -0.1923 -1.2354  0.4857
 6626SOL    HW231512   1.194   2.827   0.891 -1.8456 -0.4779  1.4615
 6627SOL     OW31513   1.053   1.654  10.291  0.1657  0.0155 -0.0247
 6627SOL    HW131514   1.067   1.570  10.248 -2.7387  0.4810 -1.8737
 6627SOL    HW231515   1.136   1.678  10.333 -0.7249  1.1167  1.1141
 6628SOL     OW31516   1.216   1.066   2.017  0.1067 -0.2144  0.3459
 6628SOL    HW131517   1.249   1.125   1.950  0.5765 -0.5919  0.2522
 6628SOL    HW231518   1.149   1.017   1.969  0.2606  0.5771 -0.6655
 6629SOL     OW31519   3.876   1.448   5.850 -0.0274  0.3895  0.1466
 6629SOL    HW131520   3.810   1.385   5.880  0.0487 -0.3924 -1.3196
 6629SOL    HW231521   3.823   1.527   5.845 -1.6367 -0.5666  1.9024
 6630SOL     OW31522   2.201   3.309  17.259 -0.2350 -1.0435  0.0645
 6630SOL    HW131523   2.266   3.327  17.191 -1.2539 -1.1792 -0.9296
 6630SOL    HW231524   2.178   3.402  17.268  2.3662 -0.4589  0.8904
 6631SOL     OW31525   0.027   0.332   8.614  0.1468  0.1282 -0.5763
 6631SOL    HW131526   4.690   0.342   8.554 -1.6544  0.9461  1.7936
 6631SOL    HW231527   0.005   0.254   8.666  0.6023 -0.5239 -1.3543
 6632SOL     OW31528   1.503   0.560  10.621  0.0830 -0.3526 -0.9354
 6632SOL    HW131529   1.518   0.498  10.549 -0.1593 -0.6897 -0.6953
 6632SOL    HW231530   1.513   0.504  10.698 -0.0711 -0.7429 -1.1942
 6633SOL     OW31531   1.258   0.606   6.415  0.4631  0.2415 -0.0241
 6633SOL    HW131532   1.333   0.644   6.462 -1.8206  1.8565  2.3098
 6633SOL    HW231533   1.200   0.682   6.423 -0.8684 -0.7837 -0.0367
 6634SOL     OW31534   0.711   0.044  16.568  0.4493  0.0707  0.1072
 6634SOL    HW131535   0.794   0.092  16.576  0.8706 -0.8420  1.1030
 6634SOL    HW231536   0.656   0.117  16.598  0.3906  0.6514 -1.4058
 6635SOL     OW31537   3.598   4.633   0.712 -0.2895 -0.7809  0.6781
 6635SOL    HW131538   3.674   4.663   0.661 -0.2886  0.7018  1.5401
 6635SOL    HW231539   3.644   4.599   0.789 -0.2039 -1.4936  0.3112
 6636SOL     OW31540   2.324   3.843   8.879  0.0761  0.1022 -0.1191
 6636SOL    HW131541   2.259   3.816   8.944 -1.8575  1.3554 -1.5195
 6636SOL    HW231542   2.388   3.778   8.908 -2.5303 -2.2975  0.2365
 6637SOL     OW31543   4.305   2.603  11.394 -0.0460  0.8888  0.3378
 6637SOL    HW131544   4.274   2.567  11.311  0.0778  0.1884  0.6012
 6637SOL    HW231545   4.273   2.694  11.391 -3.8533 -0.4785 -0.2149
 6638SOL     OW31546   0.017   0.956  15.225 -0.2288  0.4102  0.6161
 6638SOL    HW131547   0.047   0.902  15.153 -0.4316 -0.7776  1.4163
 6638SOL    HW231548   0.085   0.941  15.291 -0.4553 -0.5475  0.6281
 6639SOL     OW31549   4.711   4.629   2.252  0.3582  0.4034  0.3675
 6639SOL    HW131550   0.008   4.627   2.342 -1.1525  1.6750  0.9490
 6639SOL    HW231551   0.031   4.694   2.213 -1.0840  1.3439 -0.1368
 6640SOL     OW31552   2.924   0.129   7.761 -0.3713 -0.2266 -0.5819
 6640SOL    HW131553   3.007   0.140   7.714 -0.7012  1.1822 -0.8310
 6640SOL    HW231554   2.950   0.166   7.845 -2.1784 -1.5136  0.5196
 6641SOL     OW31555   2.987   0.108   2.327 -0.6321  0.0958  0.1316
 6641SOL    HW131556   3.012   0.197   2.303  0.5859 -0.1425  0.5370
 6641SOL    HW231557   3.033   0.042   2.275  1.2363  0.7397  1.0025
 6642SOL     OW31558   4.671   1.742   8.168 -0.0632  0.5001 -0.4964
 6642SOL    HW131559   0.012   1.690   8.147  0.8499  2.0410 -0.9210
 6642SOL    HW231560   4.671   1.801   8.092 -0.3669  1.1378 -0.0031
 6643SOL     OW31561   3.742   4.429   6.170  0.8660  0.1548  0.4042
 6643SOL    HW131562   3.697   4.509   6.197  0.3177  0.2058 -0.6550
 6643SOL    HW231563   3.774   4.400   6.256  0.1597  1.8809  1.2500
 6644SOL     OW31564   3.220   4.002   4.682 -0.0446 -0.7639 -0.2218
 6644SOL    HW131565   3.276   4.078   4.695 -1.1660 -0.0101  0.2265
 6644SOL    HW231566   3.264   3.937   4.736  2.2525 -0.5389 -1.8257
 6645SOL     OW31567   3.864   0.900   1.932  0.4841 -0.2582  0.3662
 6645SOL    HW131568   3.800   0.966   1.908 -1.5907 -2.0482  0.9512
 6645SOL    HW231569   3.831   0.851   1.857 -2.0897  1.0703  0.6554
 6646SOL     OW31570   0.055   0.128  17.263 -0.0366 -0.3883 -0.2785
 6646SOL    HW131571   0.083   0.085  17.183  0.8569 -0.2350 -0.0569
 6646SOL    HW231572   0.013   0.203  17.220  2.6233  1.7747  0.8797
 6647SOL     OW31573   3.240   3.361  14.734 -0.4621 -0.3081  0.5946
 6647SOL    HW131574   3.165   3.301  14.731 -0.6162  0.0093 -1.8406
 6647SOL    HW231575   3.303   3.290  14.723 -1.3825 -0.7090 -2.1118
 6648SOL     OW31576   1.823   2.461   6.709 -0.0958  0.2162 -0.4184
 6648SOL    HW131577   1.864   2.451   6.795  0.6598 -0.7428 -0.8842
 6648SOL    HW231578   1.893   2.433   6.650  3.1101  0.7344  3.1451
 6649SOL     OW31579   0.568   3.259   6.918 -0.3205  0.2292 -0.3541
 6649SOL    HW131580   0.635   3.317   6.953  0.7052 -1.0129 -0.2813
 6649SOL    HW231581   0.621   3.180   6.924 -0.4162  0.2621  0.7806
 6650SOL     OW31582   2.261   1.707   7.256  0.0652  0.0542 -0.4511
 6650SOL    HW131583   2.352   1.698   7.228 -0.1882 -0.1661 -1.2101
 6650SOL    HW231584   2.269   1.675   7.346  0.4627  0.6019 -0.2934
 6651SOL     OW31585   2.780   1.891  13.275  0.5855  0.4309  0.2535
 6651SOL    HW131586   2.799   1.959  13.340  2.2395 -0.1144  0.3410
 6651SOL    HW231587   2.820   1.812  13.311  0.7838  0.8106  0.8615
 6652SOL     OW31588   3.985   0.032  10.793  0.5573  0.5888 -0.4912
 6652SOL    HW131589   3.978   0.125  10.814  0.6983  1.1164 -2.8024
 6652SOL    HW231590   4.015   0.001  10.878 -0.5606  0.7023 -0.0631
 6653SOL     OW31591   0.115   0.714  10.688  0.2967  0.5833  0.4622
 6653SOL    HW131592   0.104   0.772  10.612 -0.6725 -0.5085 -0.2357
 6653SOL    HW231593   0.176   0.767  10.739 -1.7087  0.8336  2.6252
 6654SOL     OW31594   1.511   0.840   1.775 -0.1450  0.0311 -0.3072
 6654SOL    HW131595   1.583   0.784   1.746 -0.5474  0.5572 -2.3689
 6654SOL    HW231596   1.464   0.778   1.830  0.1087 -2.5267 -2.9224
 6655SOL     OW31597   3.261   1.356   3.705 -0.7013  0.5645  0.5692
 6655SOL    HW131598   3.293   1.272   3.672 -1.9233 -0.3089  1.5726
 6655SOL    HW231599   3.334   1.417   3.709 -0.3523  0.2913 -1.5673
 6656SOL     OW31600   2.113   0.870   3.831 -0.4352 -0.3526 -0.0845
 6656SOL    HW131601   2.120   0.922   3.751  1.4477 -2.7379 -1.4691
 6656SOL    HW231602   2.057   0.803   3.790 -1.5143  0.5178 -0.0309
 6657SOL     OW31603   0.680   4.488  15.803  0.2226 -0.5351 -0.4425
 6657SOL    HW131604   0.631   4.560  15.841  1.3065 -1.3324  2.4168
 6657SOL    HW231605   0.771   4.509  15.825  0.0842  0.5411 -0.8851
 6658SOL     OW31606   3.973   0.013  17.721  0.4217  0.2622  0.1291
 6658SOL    HW131607   3.880   4.730  17.720  0.5578 -0.4696  1.9460
 6658SOL    HW231608   3.977   0.059   0.059 -0.9424  2.6211 -1.1097
 6659SOL     OW31609   2.523   3.523   3.823 -0.6553 -0.4064 -0.4188
 6659SOL    HW131610   2.564   3.485   3.901  0.4412  3.0625  0.6801
 6659SOL    HW231611   2.465   3.590   3.859  0.8601  0.6776 -0.0154
 6660SOL     OW31612   4.398   0.997   0.132 -0.4972  0.1148 -0.4364
 6660SOL    HW131613   4.386   1.076   0.079  0.9349 -0.6521 -1.9046
 6660SOL    HW231614   4.333   1.013   0.201 -0.3416  1.0718 -0.5072
 6661SOL     OW31615   2.601   0.436   3.101 -0.8691 -0.5879  0.6076
 6661SOL    HW131616   2.660   0.507   3.129 -0.5730 -0.5152 -0.1954
 6661SOL    HW231617   2.590   0.470   3.013  0.4947 -2.7165 -0.3865
 6662SOL     OW31618   1.824   2.030  13.289 -0.3508  0.1894  0.4655
 6662SOL    HW131619   1.832   2.000  13.199 -0.1311  0.0660  0.5248
 6662SOL    HW231620   1.888   2.101  13.293  1.3160 -1.2272 -1.1892
 6663SOL     OW31621   4.561   2.444  10.411 -0.3992 -0.1805  0.6196
 6663SOL    HW131622   4.615   2.518  10.380  1.1737 -1.2045  0.9204
 6663SOL    HW231623   4.597   2.366  10.368 -1.2994  0.4317 -1.2834
 6664SOL     OW31624   4.345   3.463   8.985  0.2568 -0.0387  0.2053
 6664SOL    HW131625   4.428   3.427   8.957  0.2747 -0.0600  0.2855
 6664SOL    HW231626   4.288   3.464   8.908  1.8463 -0.8761 -0.9640
 6665SOL     OW31627   2.547   3.726   2.210  0.1115 -1.0456  0.1335
 6665SOL    HW131628   2.503   3.668   2.148 -2.3855  1.7177 -0.6764
 6665SOL    HW231629   2.551   3.666   2.284 -1.5754 -0.4455  0.7272
 6666SOL     OW31630   4.293   0.743   9.304  0.2790 -0.0724 -0.2789
 6666SOL    HW131631   4.283   0.685   9.229  0.2702 -1.1972  0.5949
 6666SOL    HW231632   4.332   0.683   9.367 -0.4653 -0.1462  0.1174
 6667SOL     OW31633   0.867   1.800   4.049  0.2352  0.3813  0.1643
 6667SOL    HW131634   0.781   1.762   4.031 -1.0084  3.0719  0.4241
 6667SOL    HW231635   0.889   1.746   4.125 -1.2460 -0.9890 -0.3838
 6668SOL     OW31636   3.241   3.946  14.527  0.2188  0.4690 -0.0954
 6668SOL    HW131637   3.294   3.983  14.457 -1.5605  0.1518 -1.5919
 6668SOL    HW231638   3.158   3.927  14.484  0.1803  1.1552 -0.3310
 6669SOL     OW31639   2.220   1.392   6.472 -0.0193 -0.0141 -0.0952
 6669SOL    HW131640   2.275   1.471   6.469 -2.1415  1.3908 -1.3781
 6669SOL    HW231641   2.282   1.331   6.512  0.9308  0.6437 -0.5712
 6670SOL     OW31642   0.205   4.564   6.299  0.2123 -0.1717  0.0511
 6670SOL    HW131643   0.184   4.657   6.292 -1.2243 -0.5660 -0.8741
 6670SOL    HW231644   0.264   4.576   6.373 -0.7241  0.7215  0.6494
 6671SOL     OW31645   3.117   3.501   8.909 -0.1746 -0.1748 -0.3219
 6671SOL    HW131646   3.203   3.461   8.899  1.5191  2.6404  3.0255
 6671SOL    HW231647   3.150   3.584   8.943  0.8797  0.1845 -2.1804
 6672SOL     OW31648   0.511   3.343   3.939 -0.0010 -0.0703 -0.0708
 6672SOL    HW131649   0.563   3.267   3.912  0.7943  0.9420 -1.3748
 6672SOL    HW231650   0.558   3.372   4.017  0.7607 -0.2099 -0.4775
 6673SOL     OW31651   4.228   3.410  13.836 -0.4529  0.2439 -0.0973
 6673SOL    HW131652   4.252   3.386  13.746  2.1147 -2.8866  1.4207
 6673SOL    HW231653   4.159   3.348  13.859 -1.2692 -0.6247 -4.7942
 6674SOL     OW31654   4.736   3.608  10.012 -0.3877 -0.8501  0.3389
 6674SOL    HW131655   4.694   3.632  10.094  0.1718  0.3616  0.2766
 6674SOL    HW231656   4.689   3.671   9.957 -0.0388 -0.9586 -0.0824
 6675SOL     OW31657   2.734   0.698  12.514 -0.1771  0.3616  0.1911
 6675SOL    HW131658   2.776   0.622  12.473  1.1859  0.9087  0.5451
 6675SOL    HW231659   2.721   0.758  12.441  2.9457 -1.2783 -1.7113
 6676SOL     OW31660   3.436   3.038   7.162  0.3620 -0.4351 -0.5971
 6676SOL    HW131661   3.499   3.084   7.217  1.9777 -2.0002 -1.1229
 6676SOL    HW231662   3.424   2.964   7.221 -0.8854  0.4604  0.2546
 6677SOL     OW31663   3.818   1.872   8.073 -0.5501  0.7160  0.0357
 6677SOL    HW131664   3.727   1.854   8.094 -0.3889  1.3318  1.2999
 6677SOL    HW231665   3.862   1.830   8.148 -1.3886  2.3750  1.4534
 6678SOL     OW31666   0.511   1.300  10.663 -0.4403 -0.2404 -0.7307
 6678SOL    HW131667   0.523   1.339  10.750 -1.0505 -3.2722  0.7233
 6678SOL    HW231668   0.594   1.260  10.638  0.0327  1.4307 -1.8042
 6679SOL     OW31669   4.095   3.855  10.307 -0.5061  0.8721 -0.6692
 6679SOL    HW131670   4.033   3.834  10.376  0.8503  0.9074  0.5448
 6679SOL    HW231671   4.037   3.883  10.236 -3.1870 -2.1739  0.3230
 6680SOL     OW31672   0.837   2.466  13.555  0.0906 -0.4340  0.3996
 6680SOL    HW131673   0.760   2.515  13.525 -0.3741 -2.1783 -1.2605
 6680SOL    HW231674   0.885   2.525  13.613 -1.5753  1.1101  0.1963
 6681SOL     OW31675   2.867   3.092   1.372 -0.1376  0.9594  0.3042
 6681SOL    HW131676   2.944   3.131   1.330  0.6816 -1.3813 -0.3736
 6681SOL    HW231677   2.815   3.069   1.295  0.4413  0.1821  0.1533
 6682SOL     OW31678   0.571   1.943   4.218  0.5724 -0.4938  0.3811
 6682SOL    HW131679   0.486   1.966   4.180  0.8924  0.9308  0.5124
 6682SOL    HW231680   0.574   1.850   4.196 -1.3260 -0.6722  0.8696
 6683SOL     OW31681   2.212   2.823   5.080  0.0988  0.3250 -0.1165
 6683SOL    HW131682   2.300   2.808   5.046  0.2221  1.2607 -0.2027
 6683SOL    HW231683   2.209   2.788   5.169  1.3918  0.3454 -0.0641
 6684SOL     OW31684   2.074   3.925   6.739 -0.3744  0.0084 -0.2564
 6684SOL    HW131685   2.058   3.963   6.653 -1.5956  1.2800  0.5308
 6684SOL    HW231686   2.124   3.846   6.719 -0.3554  0.4581 -1.9056
 6685SOL     OW31687   1.412   4.002   2.068 -0.3334  0.4159 -0.5803
 6685SOL    HW131688   1.393   3.908   2.063 -0.6556  0.4217  0.5215
 6685SOL    HW231689   1.498   3.995   2.027 -1.0606  2.1940 -2.3545
 6686SOL     OW31690   1.750   0.952  17.401 -0.4360 -0.0301  0.0950
 6686SOL    HW131691   1.789   0.978  17.484  1.6902  0.9786 -1.2071
 6686SOL    HW231692   1.800   1.016  17.349  0.6663 -0.5272  0.5572
 6687SOL     OW31693   3.960   1.515  12.315 -0.3586  0.3271 -0.6673
 6687SOL    HW131694   4.021   1.448  12.283 -0.2923 -0.4584  1.0605
 6687SOL    HW231695   3.941   1.479  12.402 -0.9477 -0.1226 -0.9912
 6688SOL     OW31696   2.387   3.569  13.471 -0.3015  0.4566  0.2054
 6688SOL    HW131697   2.335   3.621  13.409 -2.3889 -0.8662  0.8663
 6688SOL    HW231698   2.467   3.622  13.471 -0.3140  0.4695  0.9516
 6689SOL     OW31699   2.752   2.979  15.762  0.2131  0.2564  0.1969
 6689SOL    HW131700   2.661   2.970  15.732  0.2785  0.5695 -0.0952
 6689SOL    HW231701   2.802   2.939  15.691 -1.0404 -2.8214  1.0400
 6690SOL     OW31702   0.661   2.443   4.592 -0.0007 -0.3217  0.0103
 6690SOL    HW131703   0.696   2.511   4.649  1.3864 -1.8518  0.9631
 6690SOL    HW231704   0.622   2.381   4.653  0.1510 -0.6539 -0.2303
 6691SOL     OW31705   1.361   3.399   6.349  0.0359  0.1018  0.2351
 6691SOL    HW131706   1.315   3.416   6.431  0.1674  0.5777  0.2097
 6691SOL    HW231707   1.313   3.462   6.294 -1.5417 -0.1304  1.3409
 6692SOL     OW31708   1.547   1.416   9.236 -0.4692  0.0083 -0.0289
 6692SOL    HW131709   1.592   1.495   9.265  2.8528 -1.2498 -1.6651
 6692SOL    HW231710   1.488   1.400   9.310  0.5592 -2.4089  0.2621
 6693SOL     OW31711   4.118   4.198   3.622 -0.2800  0.1958 -0.0955
 6693SOL    HW131712   4.109   4.173   3.529  1.1179  3.0189 -0.9923
 6693SOL    HW231713   4.027   4.191   3.650 -0.6069 -1.7672 -1.6079
 6694SOL     OW31714   3.058   2.907   6.024  0.2279 -0.5693 -0.4630
 6694SOL    HW131715   3.034   2.988   6.068  2.0669 -0.3326  0.1055
 6694SOL    HW231716   3.150   2.907   6.053 -0.5794  0.3436  2.0678
 6695SOL     OW31717   3.555   3.796   0.434  0.8560  0.0965  0.6391
 6695SOL    HW131718   3.599   3.815   0.517  4.2397  0.3314 -1.1999
 6695SOL    HW231719   3.467   3.828   0.454  0.0908 -1.2589 -0.5278
 6696SOL     OW31720   4.449   1.113  13.330  0.6247  0.3004 -0.0411
 6696SOL    HW131721   4.461   1.125  13.236  0.3354  1.8191  0.1224
 6696SOL    HW231722   4.538   1.112  13.364  0.2687  0.4346  0.8934
 6697SOL     OW31723   1.196   4.315   9.457  0.4181 -0.0346  0.4718
 6697SOL    HW131724   1.255   4.318   9.533  0.1265 -0.0685  0.7001
 6697SOL    HW231725   1.121   4.322   9.516  0.8464 -1.2692  1.1583
 6698SOL     OW31726   2.192   2.735   9.484 -0.0934  0.4551 -0.2150
 6698SOL    HW131727   2.147   2.658   9.520  1.8679 -0.3758  0.4495
 6698SOL    HW231728   2.277   2.692   9.476 -1.3676 -2.4172  1.4878
 6699SOL     OW31729   2.706   4.736   1.616 -0.3712 -0.4534 -0.4797
 6699SOL    HW131730   2.690   0.007   1.710 -1.3108 -0.3021 -0.6514
 6699SOL    HW231731   2.639   4.670   1.598 -0.9849 -0.2502  1.0196
 6700SOL     OW31732   1.083   4.419   1.484  0.0800  0.0588  0.5942
 6700SOL    HW131733   1.053   4.343   1.433  0.7494  0.1340  0.0786
 6700SOL    HW231734   1.168   4.388   1.515  0.4336 -2.0869 -2.4733
 6701SOL     OW31735   1.151   2.116  11.345 -0.0544 -0.0695 -0.3766
 6701SOL    HW131736   1.213   2.108  11.418 -1.1384  1.2490  0.6837
 6701SOL    HW231737   1.107   2.200  11.359  1.0543  0.7017 -1.5886
 6702SOL     OW31738   2.704   3.665   5.456 -0.1329 -0.0854  0.3258
 6702SOL    HW131739   2.747   3.620   5.383  1.4827  1.4937  0.3124
 6702SOL    HW231740   2.758   3.742   5.476 -0.5174  0.3447 -0.2781
 6703SOL     OW31741   1.605   1.484   4.722 -0.4595  0.4085  0.1868
 6703SOL    HW131742   1.651   1.421   4.666 -3.7216 -1.6786 -0.1064
 6703SOL    HW231743   1.676   1.544   4.746 -0.4105  1.0163 -1.4880
 6704SOL     OW31744   1.176   3.274   1.826  0.4367  0.6519 -0.0139
 6704SOL    HW131745   1.080   3.273   1.826  0.4480  0.5015 -1.2888
 6704SOL    HW231746   1.190   3.202   1.887  1.3620  0.7813 -0.0735
 6705SOL     OW31747   2.681   0.543   5.749  0.1609  0.1326  0.7629
 6705SOL    HW131748   2.586   0.554   5.756  0.1124  0.1697  0.0278
 6705SOL    HW231749   2.684   0.448   5.749 -1.1314  0.0907  0.7791
 6706SOL     OW31750   2.478   2.648   4.671  0.2739 -0.2950  0.0115
 6706SOL    HW131751   2.491   2.741   4.692  1.1738 -0.2611 -0.6858
 6706SOL    HW231752   2.390   2.640   4.635  0.7890 -0.8513 -1.1153
 6707SOL     OW31753   2.214   2.497   5.790 -0.2099 -0.1034  0.4898
 6707SOL    HW131754   2.127   2.477   5.825 -0.0442  1.2599  1.6682
 6707SOL    HW231755   2.258   2.532   5.868  1.4717 -1.7914  0.2764
 6708SOL     OW31756   3.151   3.557   7.057  0.3032 -0.2076 -0.1972
 6708SOL    HW131757   3.124   3.466   7.052  0.1303 -0.3292  2.8124
 6708SOL    HW231758   3.244   3.544   7.077  0.6133  1.7385 -0.3385
 6709SOL     OW31759   0.756   3.682  15.718 -0.2114  0.0444  0.2144
 6709SOL    HW131760   0.759   3.773  15.690 -1.2260  0.2116  0.6527
 6709SOL    HW231761   0.714   3.640  15.642 -0.8182  1.2773 -0.1288
 6710SOL     OW31762   2.545   2.765   7.209  0.1609 -0.4425  0.3372
 6710SOL    HW131763   2.594   2.796   7.133 -1.3690  2.0642  0.3758
 6710SOL    HW231764   2.521   2.849   7.248  2.3490 -0.4774  1.7644
 6711SOL     OW31765   0.250   4.073  11.725  0.0553  0.2763  0.0597
 6711SOL    HW131766   0.200   4.071  11.807  0.7714  0.8234  0.5119
 6711SOL    HW231767   0.311   4.140  11.756 -1.2957  0.8544  1.4521
 6712SOL     OW31768   0.909   0.615   1.564 -0.4299  0.1529 -0.3235
 6712SOL    HW131769   0.837   0.555   1.583 -1.2969  0.9252 -1.1727
 6712SOL    HW231770   0.880   0.691   1.614 -2.3515 -0.7511 -0.0651
 6713SOL     OW31771   4.105   2.514   4.782 -0.3606 -0.0291 -0.1589
 6713SOL    HW131772   4.091   2.421   4.801 -0.2275  0.0998  0.5715
 6713SOL    HW231773   4.121   2.536   4.874 -1.0459 -0.7555  0.1441
 6714SOL     OW31774   3.507   2.531   6.729 -0.0747 -0.4197 -0.1553
 6714SOL    HW131775   3.466   2.468   6.670  3.4280 -1.0034 -1.9277
 6714SOL    HW231776   3.435   2.595   6.732  0.6089  0.2934  0.8419
 6715SOL     OW31777   0.826   0.911   7.994  0.0848  0.6408 -0.4895
 6715SOL    HW131778   0.880   0.843   8.035 -1.4131 -0.3343 -0.1205
 6715SOL    HW231779   0.767   0.852   7.946  0.4314 -0.9168  0.9798
 6716SOL     OW31780   4.462   4.687   8.451  0.2518  0.1858  0.5014
 6716SOL    HW131781   4.443   4.617   8.389 -1.0162  1.1005 -0.1506
 6716SOL    HW231782   4.535   4.721   8.399  0.1479 -0.0142  0.2233
 6717SOL     OW31783   4.152   4.277  10.047 -0.8355  0.0921 -0.1887
 6717SOL    HW131784   4.057   4.278  10.036 -0.7776  1.2688 -0.4875
 6717SOL    HW231785   4.145   4.242  10.136 -0.6021  0.1179 -0.1598
 6718SOL     OW31786   0.834   2.106   3.165 -0.4219  0.0563  0.1805
 6718SOL    HW131787   0.767   2.038   3.171  0.8932 -1.1059  1.6321
 6718SOL    HW231788   0.821   2.165   3.239  1.9476  0.1904  0.4896
 6719SOL     OW31789   2.887   2.547   8.990  0.1526 -0.6120 -0.8340
 6719SOL    HW131790   2.921   2.551   8.901  0.2352  0.6008 -0.7463
 6719SOL    HW231791   2.936   2.471   9.022  0.0703 -0.6650 -0.8345
 6720SOL     OW31792   0.932   3.857   9.289  0.3374 -0.4944 -0.2738
 6720SOL    HW131793   1.014   3.903   9.268 -0.7783  1.5896  0.0417
 6720SOL    HW231794   0.919   3.866   9.383  0.5420  3.1867 -0.6071
 6721SOL     OW31795   4.264   1.126   5.010  0.3694  1.1784  0.4653
 6721SOL    HW131796   4.334   1.116   5.074 -0.9560 -0.4289  1.6766
 6721SOL    HW231797   4.233   1.214   5.029 -0.2617  0.4647  2.8399
 6722SOL     OW31798   1.767   3.211  13.226 -0.0737 -0.0531  0.6293
 6722SOL    HW131799   1.854   3.172  13.231  0.4770  1.1785  0.6305
 6722SOL    HW231800   1.774   3.266  13.148  0.4553  0.1502  0.8256
 6723SOL     OW31801   3.021   4.437   2.414  0.2044 -0.3808 -0.0277
 6723SOL    HW131802   3.012   4.477   2.328 -1.7167 -0.3192  0.1917
 6723SOL    HW231803   3.068   4.498   2.472  2.3605 -2.1439  0.0550
 6724SOL     OW31804   2.947   4.725   4.858 -0.3414  0.5100  0.6249
 6724SOL    HW131805   3.036   0.020   4.872 -0.2443  0.9934 -1.1496
 6724SOL    HW231806   2.908   4.734   4.945 -0.0785 -1.2033  0.9109
 6725SOL     OW31807   0.207   2.249   9.282 -0.2013 -0.0591 -0.2068
 6725SOL    HW131808   0.279   2.229   9.342 -0.7789  3.3129  1.5978
 6725SOL    HW231809   0.202   2.344   9.294 -0.9822 -0.1125 -0.0750
 6726SOL     OW31810   3.141   3.790   2.198  0.2736 -0.0340  0.2872
 6726SOL    HW131811   3.050   3.783   2.168  1.0701  1.7714 -2.5141
 6726SOL    HW231812   3.193   3.746   2.131 -0.5690 -0.7531  0.1055
 6727SOL     OW31813   3.187   2.349  16.454  0.4484 -0.1051 -0.3586
 6727SOL    HW131814   3.125   2.288  16.495 -0.8271  2.1311  0.9925
 6727SOL    HW231815   3.255   2.338  16.520 -1.4389  1.9847  1.8783
 6728SOL     OW31816   3.480   0.488   8.646  0.3345 -0.3976  0.4283
 6728SOL    HW131817   3.465   0.394   8.659  1.3707 -0.3682  1.8404
 6728SOL    HW231818   3.521   0.522   8.726 -0.0313  0.4957  0.2392
 6729SOL     OW31819   0.296   2.312   6.094  0.2688  0.5084 -0.0693
 6729SOL    HW131820   0.300   2.379   6.027  0.2144  1.5102  0.9279
 6729SOL    HW231821   0.299   2.235   6.037 -0.3380 -0.0019  0.5800
 6730SOL     OW31822   0.185   3.607   2.830  0.1367  0.0382 -0.4466
 6730SOL    HW131823   0.225   3.572   2.910  0.9987 -1.6577 -1.6296
 6730SOL    HW231824   0.203   3.700   2.836 -1.3379  0.3329 -0.4949
 6731SOL     OW31825   3.426   1.793   1.476 -0.2767 -0.4804  0.1994
 6731SOL    HW131826   3.485   1.717   1.471 -1.5505 -1.6339  2.3705
 6731SOL    HW231827   3.481   1.857   1.521  0.6672 -3.3249  3.1825
 6732SOL     OW31828   0.862   4.715   3.475  0.4485 -0.1662 -0.7084
 6732SOL    HW131829   0.930   4.687   3.537  0.5093 -2.3570 -1.7562
 6732SOL    HW231830   0.825   4.636   3.436  0.5639  0.2567 -1.6905
 6733SOL     OW31831   2.252   4.175   8.579 -0.0647  0.0318 -0.2101
 6733SOL    HW131832   2.291   4.243   8.634 -1.7444  0.3143  0.6286
 6733SOL    HW231833   2.316   4.172   8.508 -0.2549 -1.0066 -0.3492
 6734SOL     OW31834   4.361   4.508   5.659  0.1807 -0.1122  0.4555
 6734SOL    HW131835   4.349   4.548   5.745  0.3947 -1.3694  1.0706
 6734SOL    HW231836   4.444   4.548   5.633  0.7028 -1.9980 -0.7935
 6735SOL     OW31837   0.036   4.028   4.883 -0.7953  0.4221 -0.0099
 6735SOL    HW131838   0.028   4.063   4.972 -2.7383  0.8006 -0.3250
 6735SOL    HW231839   0.093   3.952   4.890 -0.4346  0.7042  0.0960
 6736SOL     OW31840   0.868   1.535   3.662  0.3568 -0.4173 -0.1182
 6736SOL    HW131841   0.961   1.553   3.676  0.7907 -3.5221  1.1299
 6736SOL    HW231842   0.861   1.589   3.584 -2.1829 -0.4969  0.0521
 6737SOL     OW31843   2.050   4.427  10.576  0.3041 -0.0870  0.4295
 6737SOL    HW131844   2.136   4.397  10.605 -0.1651 -1.1203  0.7248
 6737SOL    HW231845   2.016   4.337  10.573 -1.9220  0.7429  0.6000
 6738SOL     OW31846   0.285   1.658   9.519 -0.6339  0.4912  0.1646
 6738SOL    HW131847   0.209   1.610   9.553 -0.3346 -1.4168 -1.8900
 6738SOL    HW231848   0.348   1.591   9.492 -1.2363  0.2694 -0.6838
 6739SOL     OW31849   4.593   3.947   3.488  0.3062  0.0085  0.2447
 6739SOL    HW131850   4.570   3.960   3.396  2.4252 -2.3623 -0.6443
 6739SOL    HW231851   4.519   3.981   3.537  2.3113  1.4371  2.2700
 6740SOL     OW31852   0.927   2.526   5.787  0.3016 -0.1995 -0.2434
 6740SOL    HW131853   0.857   2.551   5.727  0.0070  0.1529  0.2501
 6740SOL    HW231854   0.938   2.617   5.817 -1.3846  0.2030 -0.8999
 6741SOL     OW31855   3.877   0.454   3.839  0.1567  0.1614  0.3772
 6741SOL    HW131856   3.794   0.411   3.859 -0.2239  1.1727  0.9833
 6741SOL    HW231857   3.887   0.407   3.756  1.6549 -0.7517  1.0873
 6742SOL     OW31858   3.111   1.830  12.553  0.2570  0.4683  0.2500
 6742SOL    HW131859   3.093   1.742  12.584 -3.2913  1.6273  1.5185
 6742SOL    HW231860   3.064   1.882  12.619  0.1096 -1.0521  1.3442
 6743SOL     OW31861   1.524   1.739   3.509  0.0031 -0.0421  0.3853
 6743SOL    HW131862   1.485   1.728   3.595  0.2289 -1.3338  0.3234
 6743SOL    HW231863   1.473   1.803   3.458  1.1312 -0.3018 -1.0960
 6744SOL     OW31864   1.342   3.842   8.805 -0.6901 -0.1730  0.1944
 6744SOL    HW131865   1.315   3.919   8.757  1.6209  0.1344 -0.6313
 6744SOL    HW231866   1.361   3.877   8.892  2.7690 -1.3695 -0.0676
 6745SOL     OW31867   2.062   4.359   9.558 -0.1831  0.1441 -0.2309
 6745SOL    HW131868   2.134   4.299   9.578  0.8172  1.9004  1.4233
 6745SOL    HW231869   2.035   4.376   9.648 -2.9090 -0.4811 -0.9094
 6746SOL     OW31870   0.720   0.781   1.677 -0.0660 -0.4116  0.3243
 6746SOL    HW131871   0.672   0.749   1.601 -0.5102  0.9670  0.0356
 6746SOL    HW231872   0.672   0.862   1.690  0.2700 -0.0907 -0.3778
 6747SOL     OW31873   1.298   3.121   4.684 -0.0270 -0.6225 -0.3701
 6747SOL    HW131874   1.205   3.104   4.700 -0.0238  1.7442  2.0507
 6747SOL    HW231875   1.336   3.039   4.654 -0.0135 -0.9621  0.5744
 6748SOL     OW31876   4.140   0.610   1.128  0.0744 -0.0311 -0.0751
 6748SOL    HW131877   4.221   0.586   1.172  0.4437 -1.1795 -1.3726
 6748SOL    HW231878   4.146   0.705   1.140 -0.8013 -0.0017  0.1373
 6749SOL     OW31879   0.861   1.029   1.499 -0.2740  0.1920  0.0008
 6749SOL    HW131880   0.894   1.073   1.578 -0.7618  1.5483 -0.5407
 6749SOL    HW231881   0.928   0.964   1.480 -2.7185 -2.4968  0.7057
 6750SOL     OW31882   3.905   4.335   9.378 -0.5259 -0.1930  0.0977
 6750SOL    HW131883   3.941   4.386   9.450 -0.6302 -0.4470  0.3298
 6750SOL    HW231884   3.844   4.273   9.418  1.5399 -0.6015  2.6038
 6751SOL     OW31885   4.379   4.005   5.721  0.3870  0.1520 -0.1161
 6751SOL    HW131886   4.448   4.031   5.782 -0.7030 -0.8571  1.5396
 6751SOL    HW231887   4.367   4.089   5.677 -1.9336 -0.0967  0.0655
 6752SOL     OW31888   1.385   2.476  10.855 -0.4160  0.4129 -0.1047
 6752SOL    HW131889   1.307   2.430  10.888 -0.5179  0.7923  0.1774
 6752SOL    HW231890   1.408   2.527  10.932 -1.9961 -0.5531  1.0093
 6753SOL     OW31891   1.933   2.986   4.458 -0.1494 -0.4421  0.3251
 6753SOL    HW131892   2.027   2.972   4.444  0.3984  2.5804  1.0861
 6753SOL    HW231893   1.915   3.043   4.384  0.0659 -0.0867  0.5437
 6754SOL     OW31894   3.638   2.723   1.961  0.2831  0.1082  0.0154
 6754SOL    HW131895   3.608   2.676   1.884 -0.3037 -0.4973  0.6093
 6754SOL    HW231896   3.620   2.814   1.940  3.2968  0.5978 -0.5075
 6755SOL     OW31897   0.336   0.027   9.392  0.3644  0.6629 -0.2799
 6755SOL    HW131898   0.302   0.104   9.439 -1.8802 -0.8418  0.5772
 6755SOL    HW231899   0.391   0.068   9.326 -0.4648  0.3062 -1.1980
 6756SOL     OW31900   0.747   2.991   4.184 -0.2433 -0.3781 -0.7554
 6756SOL    HW131901   0.799   3.058   4.227  1.7127 -2.3139 -0.1355
 6756SOL    HW231902   0.799   2.914   4.205 -1.9575 -0.7119  2.2637
 6757SOL     OW31903   0.329   2.193   7.465  0.1243 -0.5644 -0.2480
 6757SOL    HW131904   0.263   2.126   7.447  1.1111 -1.7449  0.5277
 6757SOL    HW231905   0.375   2.202   7.381 -1.0392 -0.2615 -0.8552
 6758SOL     OW31906   0.678   0.171   7.168 -0.2704 -0.1787  0.4818
 6758SOL    HW131907   0.691   0.211   7.082 -0.2739  2.6020  1.7853
 6758SOL    HW231908   0.583   0.156   7.164 -0.6049  2.1838 -0.1538
 6759SOL     OW31909   1.031   0.143  12.395 -0.3267  0.3648 -1.0298
 6759SOL    HW131910   1.094   0.075  12.372 -0.0593  0.1359  0.3729
 6759SOL    HW231911   1.075   0.214  12.349 -1.1757  1.4091 -0.2341
 6760SOL     OW31912   0.025   0.704   3.407  0.1644  0.0585  0.6999
 6760SOL    HW131913   4.732   0.637   3.469 -1.2743  0.5858  0.5816
 6760SOL    HW231914   4.704   0.677   3.335  1.5739 -2.6704  0.5712
 6761SOL     OW31915   0.838   2.189   9.592 -0.1593  0.1867 -0.3225
 6761SOL    HW131916   0.845   2.273   9.638 -1.0127  0.2412 -0.2844
 6761SOL    HW231917   0.765   2.151   9.641  0.0319 -1.0153 -0.9657
 6762SOL     OW31918   1.729   0.152   0.498  0.3603 -0.4363  0.4918
 6762SOL    HW131919   1.666   0.223   0.506  1.2233  0.3826  0.1337
 6762SOL    HW231920   1.712   0.117   0.410 -0.5523  1.5546 -0.1204
 6763SOL     OW31921   1.714   0.557   7.931  0.4524  0.0316 -0.0441
 6763SOL    HW131922   1.731   0.586   7.842 -2.0325  0.1098 -0.4757
 6763SOL    HW231923   1.620   0.539   7.932  0.3159  0.8166  1.4026
 6764SOL     OW31924   2.727   4.633   8.711 -0.2126 -0.2544  0.0632
 6764SOL    HW131925   2.797   4.686   8.749  0.3774 -1.4190  0.6215
 6764SOL    HW231926   2.657   4.669   8.765 -0.2317  2.3107 -1.6643
 6765SOL     OW31927   4.093   3.877   5.248 -0.3118  0.2134  0.4987
 6765SOL    HW131928   3.999   3.870   5.231 -0.0399 -0.0304 -0.9427
 6765SOL    HW231929   4.101   3.876   5.343 -1.8310  0.6531  0.6227
 6766SOL     OW31930   2.546   4.736  11.901 -0.3830  0.0912 -0.0526
 6766SOL    HW131931   2.481   4.690  11.954 -0.9958 -0.1953 -1.0435
 6766SOL    HW231932   2.544   4.680  11.823  0.8613  1.5276 -1.1184
 6767SOL     OW31933   0.703   0.293   8.499 -0.0948  0.2010  0.0914
 6767SOL    HW131934   0.676   0.385   8.495  1.4480  0.6506  0.2132
 6767SOL    HW231935   0.756   0.290   8.419  1.5018 -2.0931  1.2577
 6768SOL     OW31936   1.065   1.953   8.825 -0.2020 -0.5856 -0.5505
 6768SOL    HW131937   1.059   1.922   8.734  0.2020 -0.4240 -0.6326
 6768SOL    HW231938   0.978   1.921   8.849 -1.1455  0.9567 -1.8324
 6769SOL     OW31939   4.447   1.853   4.192 -0.3834  0.1648 -0.2538
 6769SOL    HW131940   4.492   1.769   4.192 -0.1693  0.2736 -2.1919
 6769SOL    HW231941   4.476   1.901   4.270 -1.1948 -0.0744  0.1962
 6770SOL     OW31942   0.927   3.343   4.799  0.2210 -0.5322 -0.3345
 6770SOL    HW131943   0.940   3.427   4.755 -2.1898 -1.0523 -2.0191
 6770SOL    HW231944   0.987   3.351   4.874  0.8497 -3.3802 -0.4943
 6771SOL     OW31945   1.467   1.222   6.224 -0.3182 -0.0778  0.2169
 6771SOL    HW131946   1.433   1.302   6.264 -1.8982 -0.6613  0.0335
 6771SOL    HW231947   1.547   1.254   6.180  0.4994 -3.3685 -0.6638
 6772SOL     OW31948   1.630   3.712   5.200 -0.3081 -0.1262 -0.6263
 6772SOL    HW131949   1.622   3.662   5.281  1.3301  1.0610  0.2633
 6772SOL    HW231950   1.705   3.665   5.163  1.4566  0.9978  1.5465
 6773SOL     OW31951   1.654   4.542   9.876  0.7709  0.1987  0.1989
 6773SOL    HW131952   1.706   4.613   9.836 -0.3089  1.8163  1.7016
 6773SOL    HW231953   1.572   4.556   9.828  0.7669  1.4862  0.5935
 6774SOL     OW31954   3.880   1.596   8.816  0.1294  0.2895  0.1560
 6774SOL    HW131955   3.894   1.615   8.723  0.6332 -0.1641  0.1409
 6774SOL    HW231956   3.929   1.671   8.849  1.6227 -0.1745 -1.0499
 6775SOL     OW31957   0.730   4.485   2.079 -0.5678  0.1494 -0.1788
 6775SOL    HW131958   0.721   4.394   2.050  2.2171  0.2038 -1.2824
 6775SOL    HW231959   0.732   4.471   2.174 -1.5460 -0.2266 -0.2188
 6776SOL     OW31960   3.224   0.926  13.102  0.3928  0.0861 -0.1626
 6776SOL    HW131961   3.297   0.912  13.163 -0.6533 -1.9697  0.6231
 6776SOL    HW231962   3.259   0.887  13.022  0.9356  1.3639 -0.5495
 6777SOL     OW31963   3.538   1.692   4.671  0.1069  0.2133  0.5068
 6777SOL    HW131964   3.568   1.765   4.725  3.0338  0.0850 -0.9505
 6777SOL    HW231965   3.568   1.622   4.729  1.9671  1.1026  0.6031
 6778SOL     OW31966   2.148   3.605  11.912  0.2313  0.2880 -1.0936
 6778SOL    HW131967   2.171   3.513  11.922 -0.5869  0.5078  3.0649
 6778SOL    HW231968   2.233   3.642  11.935  0.0592 -1.3046  2.0813
 6779SOL     OW31969   0.300   2.818   9.825  0.9290 -0.1376  0.2954
 6779SOL    HW131970   0.220   2.855   9.788  0.2875  0.9636  2.8322
 6779SOL    HW231971   0.298   2.729   9.791  0.8008  0.3098 -0.8837
 6780SOL     OW31972   3.573   2.586   9.052  0.5074  0.0236  0.4723
 6780SOL    HW131973   3.486   2.627   9.046  0.3538 -0.1304  1.7033
 6780SOL    HW231974   3.561   2.510   8.995  4.1226 -0.1217 -0.0672
 6781SOL     OW31975   1.876   2.080  10.249 -0.0613 -0.1038  0.3924
 6781SOL    HW131976   1.851   2.171  10.230  2.3665  0.3819 -0.4522
 6781SOL    HW231977   1.867   2.026  10.170  0.9744  0.3075 -0.0046
 6782SOL     OW31978   1.852   1.998   8.175 -0.1331 -0.8624 -0.9056
 6782SOL    HW131979   1.808   2.070   8.129 -0.3921 -0.7186 -0.4275
 6782SOL    HW231980   1.880   2.051   8.249  1.7983 -0.2470 -2.0587
 6783SOL     OW31981   2.188   3.251   4.196 -0.0422 -0.5675  0.0745
 6783SOL    HW131982   2.114   3.303   4.166 -0.1174  0.9789  2.9316
 6783SOL    HW231983   2.163   3.162   4.169  0.9573 -0.5504 -0.9011
 6784SOL     OW31984   1.519   2.667  15.253 -0.9409 -0.1605  0.1903
 6784SOL    HW131985   1.592   2.622  15.212  0.7506  0.9009  2.0831
 6784SOL    HW231986   1.473   2.705  15.178  1.3937 -0.5039 -1.3854
 6785SOL     OW31987   2.877   4.296  16.130 -0.1362 -0.3396  0.0761
 6785SOL    HW131988   2.894   4.211  16.090  0.3543  0.1962 -0.8469
 6785SOL    HW231989   2.843   4.267  16.215 -1.1397 -0.0415 -0.2263
 6786SOL     OW31990   2.382   3.071   2.145 -0.1118 -0.7088  0.0471
 6786SOL    HW131991   2.346   3.082   2.232 -1.0766 -0.7807 -0.3499
 6786SOL    HW231992   2.434   2.991   2.150 -1.7523 -1.6298  2.0626
 6787SOL     OW31993   4.556   1.754   5.555  0.2720 -0.1975  0.7349
 6787SOL    HW131994   4.608   1.708   5.489  1.4133 -0.6708  1.9446
 6787SOL    HW231995   4.583   1.840   5.523 -1.6160  0.1024 -0.0116
 6788SOL     OW31996   0.910   2.181   8.088  0.2258  0.2089 -0.3123
 6788SOL    HW131997   0.906   2.275   8.109  0.6009 -0.3024  2.1100
 6788SOL    HW231998   0.949   2.147   8.169  0.4631  1.5358  0.1329
 6789SOL     OW31999   0.026   1.293   6.985  0.2340  0.1979 -0.0495
 6789SOL    HW132000   0.032   1.274   6.892 -0.3339 -1.5247  0.2759
 6789SOL    HW232001   0.113   1.327   7.005  2.1882 -3.1681 -2.8254
 6790SOL     OW32002   1.486   1.938   8.749 -0.0425  0.1222 -0.4536
 6790SOL    HW132003   1.480   1.947   8.844 -0.0029  2.8750 -0.7173
 6790SOL    HW232004   1.437   1.857   8.737  0.8734 -0.7544  1.6666
 6791SOL     OW32005   1.551   0.153  13.746  0.4595 -0.5472  0.7351
 6791SOL    HW132006   1.633   0.150  13.696  0.2556  1.1394  0.2964
 6791SOL    HW232007   1.479   0.141  13.684 -1.2943  2.5441  2.1676
 6792SOL     OW32008   4.543   1.612   9.048  0.0016 -0.6162 -0.6923
 6792SOL    HW132009   4.508   1.630   8.960 -2.2044 -1.8111 -0.0458
 6792SOL    HW232010   4.473   1.636   9.108  0.5670 -0.9676  0.1004
 6793SOL     OW32011   2.709   2.628  16.085 -0.1351  0.4550 -0.3267
 6793SOL    HW132012   2.625   2.618  16.130  0.6295 -2.7852  0.4103
 6793SOL    HW232013   2.681   2.648  15.995 -0.3983  0.0351 -0.3381
 6794SOL     OW32014   0.008   2.293   1.248 -0.0295  0.3179 -0.1726
 6794SOL    HW132015   4.670   2.268   1.195  0.5455  0.4753 -1.0487
 6794SOL    HW232016   0.085   2.285   1.191  0.8834 -0.2346  1.1227
 6795SOL     OW32017   2.708   2.615  17.570 -0.4763  0.0642 -0.2143
 6795SOL    HW132018   2.764   2.690  17.590 -0.6492  0.3481 -0.7804
 6795SOL    HW232019   2.623   2.642  17.603 -1.2754 -1.4050 -1.0768
 6796SOL     OW32020   3.136   4.032  10.823  0.4990  0.2423  0.4506
 6796SOL    HW132021   3.144   4.115  10.871 -0.8219  0.7293 -0.1588
 6796SOL    HW232022   3.096   3.983  10.895 -0.0246  0.1998  0.1305
 6797SOL     OW32023   0.119   4.734   0.338  0.2609  0.4706 -0.1718
 6797SOL    HW132024   0.132   0.018   0.245  0.2675  0.4715 -0.1706
 6797SOL    HW232025   0.061   0.068   0.368  2.1670  0.7462  2.8007
 6798SOL     OW32026   2.446   3.785  14.687 -0.3929 -0.1047  0.1423
 6798SOL    HW132027   2.372   3.728  14.667 -1.5684  0.7731  2.0852
 6798SOL    HW232028   2.431   3.861  14.631 -1.4348 -1.4734 -1.4588
 6799SOL     OW32029   0.417   1.493   2.486  0.3588 -0.6516  0.1558
 6799SOL    HW132030   0.343   1.534   2.441  0.7199  0.9871  1.0693
 6799SOL    HW232031   0.408   1.511   2.579 -0.1303  0.8051 -0.1644
 6800SOL     OW32032   2.542   2.853  12.710  0.4434 -0.2893 -0.0247
 6800SOL    HW132033   2.602   2.798  12.661 -1.8064  1.2792 -4.5530
 6800SOL    HW232034   2.459   2.850  12.662  0.3320  0.9513  0.0869
 6801SOL     OW32035   2.321   3.058   7.494 -1.0067 -0.0799 -0.3740
 6801SOL    HW132036   2.313   3.047   7.589 -0.4258  1.9421 -0.1014
 6801SOL    HW232037   2.230   3.040   7.468 -1.3411  2.4591 -0.9087
 6802SOL     OW32038   4.117   0.256   7.276  0.2448  0.2176  0.2674
 6802SOL    HW132039   4.048   0.211   7.227 -1.0150  0.1944  2.0685
 6802SOL    HW232040   4.073   0.333   7.312  1.1602 -0.1804  2.1838
 6803SOL     OW32041   2.877   1.164   4.116 -0.1219  0.5938  0.1917
 6803SOL    HW132042   2.850   1.119   4.035  2.0503  0.7230 -0.6022
 6803SOL    HW232043   2.970   1.139   4.121 -1.2794 -3.7037  0.2485
 6804SOL     OW32044   2.224   0.332   7.304  0.2079  0.1900  0.3290
 6804SOL    HW132045   2.279   0.354   7.380 -0.9518 -0.4776  1.3735
 6804SOL    HW232046   2.205   0.239   7.311 -1.1021  0.3835 -0.7132
 6805SOL     OW32047   3.911   3.328   5.387 -0.0841  0.3875  0.0178
 6805SOL    HW132048   3.928   3.264   5.457 -0.2870 -0.0328 -0.3156
 6805SOL    HW232049   3.902   3.273   5.309 -0.8172  0.1212  0.2904
 6806SOL     OW32050   3.209   2.327   3.435 -0.3732  0.4613  0.1773
 6806SOL    HW132051   3.296   2.294   3.417  0.1754  2.0920 -0.1815
 6806SOL    HW232052   3.160   2.245   3.431  1.0155 -0.3250 -0.5747
 6807SOL     OW32053   3.206   3.594   5.711  0.0824 -0.3141 -0.0204
 6807SOL    HW132054   3.188   3.656   5.782 -0.2794 -2.0494  1.4123
 6807SOL    HW232055   3.119   3.583   5.672  0.8105 -0.9884 -1.4274
 6808SOL     OW32056   3.022   0.297  15.051 -0.1423  0.1093  0.0383
 6808SOL    HW132057   3.103   0.344  15.073 -1.0186  1.3832  0.5709
 6808SOL    HW232058   3.054   0.223  15.000 -1.6011 -0.4323 -0.0916
 6809SOL     OW32059   1.126   4.099   8.017  0.3336  0.5558 -0.3587
 6809SOL    HW132060   1.150   4.068   7.930  0.2248  0.5227 -0.3778
 6809SOL    HW232061   1.041   4.137   7.993 -0.2457 -0.7654 -0.3885
 6810SOL     OW32062   3.190   2.909   4.638  0.3389 -0.1357  0.2399
 6810SOL    HW132063   3.232   2.909   4.724 -1.5180  1.2479  1.1411
 6810SOL    HW232064   3.133   2.834   4.655  1.0106 -0.7586 -0.2552
 6811SOL     OW32065   3.884   0.592   5.687  0.2799 -0.3330 -0.2680
 6811SOL    HW132066   3.933   0.520   5.726 -1.3761 -0.1829  2.1446
 6811SOL    HW232067   3.914   0.664   5.743 -1.9628 -0.2095  0.7649
 6812SOL     OW32068   2.062   3.852  12.899  0.5000  0.1801 -0.2900
 6812SOL    HW132069   2.105   3.799  12.832  1.5270 -1.4038  1.6449
 6812SOL    HW232070   2.125   3.923  12.888  0.3116  0.4340  0.2763
 6813SOL     OW32071   4.573   4.726   4.598  0.3082  0.0321  0.8036
 6813SOL    HW132072   4.481   4.706   4.617 -0.5033  1.9342 -1.0162
 6813SOL    HW232073   4.572   0.061   4.661  0.5086  2.2579 -1.7077
 6814SOL     OW32074   0.748   3.941   4.864  0.0489  0.5827 -0.7952
 6814SOL    HW132075   0.800   3.891   4.800 -0.5272 -1.9582  0.7247
 6814SOL    HW232076   0.679   3.977   4.808 -0.7023  0.6137  0.1596
 6815SOL     OW32077   2.877   1.064   8.032  0.1320  0.1277  0.1382
 6815SOL    HW132078   2.828   1.145   8.046  1.5319  1.2319 -1.3804
 6815SOL    HW232079   2.943   1.073   8.100  0.6916 -1.3306 -0.2179
 6816SOL     OW32080   1.144   1.234   5.625 -0.2606  0.0667  0.0344
 6816SOL    HW132081   1.137   1.231   5.720 -0.0915  1.1459  0.0815
 6816SOL    HW232082   1.076   1.299   5.607 -0.9318 -0.5735  0.2788
 6817SOL     OW32083   2.360   4.453   4.610 -0.1469  0.3948  0.5528
 6817SOL    HW132084   2.312   4.528   4.647 -0.1405 -0.7068  2.8224
 6817SOL    HW232085   2.427   4.502   4.562  0.9993 -1.9727 -0.2500
 6818SOL     OW32086   3.741   4.582  10.800  0.2637  0.2832  0.5002
 6818SOL    HW132087   3.803   4.654  10.788 -1.2405  1.4575 -0.2291
 6818SOL    HW232088   3.722   4.594  10.893  0.3999  1.1015  0.4264
 6819SOL     OW32089   1.069   2.665   6.978  0.1308 -0.3816 -0.6585
 6819SOL    HW132090   1.027   2.645   6.894 -1.1916 -0.4582  0.0166
 6819SOL    HW232091   1.160   2.679   6.951 -0.0451  0.5644 -0.7675
 6820SOL     OW32092   4.533   4.208  16.262  0.5828 -0.2573  0.3400
 6820SOL    HW132093   4.574   4.153  16.329  0.6147  0.9239  1.2812
 6820SOL    HW232094   4.610   4.251  16.224  0.2613  1.0116  1.1414
 6821SOL     OW32095   1.643   0.099   5.029 -0.0591 -0.0512  0.5489
 6821SOL    HW132096   1.594   0.177   5.055  1.8329  1.0846  0.7049
 6821SOL    HW232097   1.684   0.124   4.946 -1.4828 -0.8455 -0.3989
 6822SOL     OW32098   3.012   0.656   4.939  0.3337  0.1071 -0.0038
 6822SOL    HW132099   2.970   0.634   4.856  0.2465 -1.7219  0.5167
 6822SOL    HW232100   3.092   0.603   4.933 -0.3836 -1.2182  2.0327
 6823SOL     OW32101   0.862   1.218   6.165  0.1362 -0.2287 -0.1984
 6823SOL    HW132102   0.885   1.311   6.173 -0.3743 -0.0730 -0.5124
 6823SOL    HW232103   0.810   1.222   6.084 -0.7848 -1.9853  0.3253
 6824SOL     OW32104   3.793   4.247  13.068  0.1765  0.5375 -0.1268
 6824SOL    HW132105   3.863   4.266  13.130  0.4877 -0.7900 -0.0667
 6824SOL    HW232106   3.839   4.202  12.997  0.3164 -1.1434  1.0293
 6825SOL     OW32107   4.468   2.331   5.455 -0.0270 -0.2324 -0.2089
 6825SOL    HW132108   4.416   2.356   5.531 -1.9897  2.5426 -2.4382
 6825SOL    HW232109   4.547   2.302   5.499  0.2755 -0.5914 -0.9946
 6826SOL     OW32110   2.824   0.779  15.618 -0.0749  0.3875 -0.5369
 6826SOL    HW132111   2.882   0.734  15.557  1.8491  0.0059  1.5413
 6826SOL    HW232112   2.876   0.858  15.637  1.8128 -0.8956 -0.3240
 6827SOL     OW32113   2.064   0.565  15.473 -0.3296  0.6192  0.6507
 6827SOL    HW132114   2.139   0.523  15.516  0.9083  1.1981 -0.9404
 6827SOL    HW232115   2.091   0.656  15.483 -2.0063  0.9851  1.6561
 6828SOL     OW32116   2.157   0.668   1.602  0.3123 -0.9833 -0.9901
 6828SOL    HW132117   2.116   0.631   1.679  1.2311  0.5036  0.2296
 6828SOL    HW232118   2.243   0.692   1.638  0.8184 -2.9417 -0.9209
 6829SOL     OW32119   1.196   0.466  16.014 -0.7620  0.0707  0.1774
 6829SOL    HW132120   1.163   0.380  16.039 -1.2917  1.5694  4.5772
 6829SOL    HW232121   1.289   0.461  16.035 -0.6893  2.9894  0.5922
 6830SOL     OW32122   3.544   1.086   1.221 -0.3754 -0.5831  0.0170
 6830SOL    HW132123   3.522   1.077   1.129  0.1014  1.6294 -0.3088
 6830SOL    HW232124   3.640   1.083   1.214 -0.1417  1.9893  2.1515
 6831SOL     OW32125   1.816   0.772  12.346 -0.7158  0.0560  0.5267
 6831SOL    HW132126   1.798   0.855  12.390  0.4399  0.6826 -0.1804
 6831SOL    HW232127   1.900   0.753  12.386 -1.4294 -0.9517  1.5319
 6832SOL     OW32128   1.409   0.481   3.461 -0.1872 -0.5747  0.0336
 6832SOL    HW132129   1.497   0.459   3.491  0.2779  0.3469 -0.6517
 6832SOL    HW232130   1.405   0.576   3.451  1.6453 -0.5289 -0.3534
 6833SOL     OW32131   0.423   3.835   7.542  0.4468 -0.4138 -0.1054
 6833SOL    HW132132   0.446   3.886   7.465  0.4395  0.2893  0.3547
 6833SOL    HW232133   0.348   3.888   7.566  0.6178 -0.6359  0.9591
 6834SOL     OW32134   2.125   4.489   7.438  0.2133  0.1832  0.0501
 6834SOL    HW132135   2.186   4.463   7.506  0.2237 -1.1170 -0.4423
 6834SOL    HW232136   2.044   4.470   7.486 -1.0711 -0.4012 -2.3400
 6835SOL     OW32137   2.593   1.165   9.132 -0.0386 -0.1041 -0.5712
 6835SOL    HW132138   2.517   1.108   9.124 -1.6106  1.8669  0.5581
 6835SOL    HW232139   2.581   1.222   9.208  1.3630 -0.2112 -0.2750
 6836SOL     OW32140   3.102   2.267   4.052 -0.2481 -0.4361 -0.2550
 6836SOL    HW132141   3.196   2.275   4.070 -0.6600  1.9400  0.9435
 6836SOL    HW232142   3.067   2.268   4.141 -2.0454  0.8871 -0.9819
 6837SOL     OW32143   4.143   2.329   5.532  0.1602 -0.0960 -0.0643
 6837SOL    HW132144   4.058   2.359   5.498  0.7792  0.4133 -1.1557
 6837SOL    HW232145   4.158   2.387   5.607 -0.2892  1.2405 -0.9967
 6838SOL     OW32146   2.073   2.905   7.480  0.1656 -0.5703  0.4531
 6838SOL    HW132147   2.016   2.838   7.442 -1.1371 -0.1159  1.6046
 6838SOL    HW232148   2.010   2.930   7.548 -0.8504 -2.7363  0.2956
 6839SOL     OW32149   0.164   0.078   1.807 -0.0017 -0.0188  0.0229
 6839SOL    HW132150   0.144   4.721   1.812  1.2795 -0.3012 -0.2897
 6839SOL    HW232151   0.136   0.099   1.718  0.2581  0.2528  0.0041
 6840SOL     OW32152   2.066   1.974   6.738  0.2549 -0.5897 -0.2029
 6840SOL    HW132153   2.110   1.909   6.683  1.7264  0.0577  0.2138
 6840SOL    HW232154   2.019   2.016   6.666 -0.2880 -0.2976  0.3220
 6841SOL     OW32155   4.263   4.287  17.572 -0.1488 -0.5674 -0.0249
 6841SOL    HW132156   4.255   4.232  17.494 -1.8448 -1.0566  0.4933
 6841SOL    HW232157   4.346   4.332  17.558 -0.1730  0.1116  2.0435
 6842SOL     OW32158   3.822   0.042  15.468 -0.1006  0.3948  0.0266
 6842SOL    HW132159   3.905   0.090  15.478  0.1944  0.7262 -4.1704
 6842SOL    HW232160   3.866   4.703  15.430  0.9865  0.2522  1.5564
 6843SOL     OW32161   0.518   0.446   2.360  0.1889 -0.3536  0.5742
 6843SOL    HW132162   0.478   0.383   2.299 -1.8339  1.5877 -0.1159
 6843SOL    HW232163   0.498   0.530   2.320  1.8931 -0.1356  0.2032
 6844SOL     OW32164   3.756   4.465   1.934  0.3304  0.0965 -0.4722
 6844SOL    HW132165   3.715   4.520   2.000  1.6146  0.6904 -0.1661
 6844SOL    HW232166   3.839   4.448   1.978  1.2610 -1.2346 -2.7710
 6845SOL     OW32167   3.971   0.448   8.961  0.4406  0.3878  0.7849
 6845SOL    HW132168   3.973   0.429   8.867  0.1244  2.1943  0.3988
 6845SOL    HW232169   3.881   0.427   8.986  0.8367 -0.6085  1.3578
 6846SOL     OW32170   4.561   0.068   5.234  0.3766 -0.1159 -0.7125
 6846SOL    HW132171   4.499   0.014   5.185  0.6446 -1.0228 -0.0263
 6846SOL    HW232172   4.636   0.009   5.243 -0.1490 -0.4660  1.2127
 6847SOL     OW32173   3.730   1.627  16.829  0.3902 -0.0295 -0.2059
 6847SOL    HW132174   3.731   1.545  16.779 -2.4529 -0.7140  0.8899
 6847SOL    HW232175   3.824   1.645  16.834 -0.0307  2.2005 -0.3759
 6848SOL     OW32176   1.562   2.770   4.476  0.0771  0.5349  0.1542
 6848SOL    HW132177   1.657   2.762   4.484  0.4114  2.0623 -2.2979
 6848SOL    HW232178   1.543   2.696   4.418 -0.1504  1.6594 -1.1962
 6849SOL     OW32179   0.259   0.872  15.386  0.3780  0.6421  0.5090
 6849SOL    HW132180   0.281   0.929  15.460  0.4179 -0.1845  1.1322
 6849SOL    HW232181   0.328   0.890  15.321 -1.0953 -2.0391 -1.7974
 6850SOL     OW32182   0.624   3.386   9.508 -0.1655  0.4463 -0.0138
 6850SOL    HW132183   0.547   3.351   9.552 -0.4896 -1.4777 -2.1544
 6850SOL    HW232184   0.670   3.423   9.584  1.5281 -0.4595 -0.5956
 6851SOL     OW32185   4.123   0.193   2.370 -0.2626  0.4670 -0.5900
 6851SOL    HW132186   4.062   0.154   2.432  1.0284  0.0625  0.4150
 6851SOL    HW232187   4.136   0.115   2.317  0.0009 -0.9672  1.6140
 6852SOL     OW32188   1.338   0.043   0.336  0.4690  0.1234  0.5518
 6852SOL    HW132189   1.272   0.031   0.268  1.4639 -2.8864  0.0844
 6852SOL    HW232190   1.312   0.115   0.393  0.7619  1.2500 -0.7344
 6853SOL     OW32191   0.844   1.306   0.147  0.0791 -0.1960 -0.1372
 6853SOL    HW132192   0.903   1.322   0.220  1.0376  0.1156 -0.9705
 6853SOL    HW232193   0.909   1.295   0.077  2.0172  0.7693  1.5067
 6854SOL     OW32194   3.471   2.865  10.202 -0.2102  0.2977  0.4059
 6854SOL    HW132195   3.475   2.948  10.249 -0.0170  0.4379  0.1416
 6854SOL    HW232196   3.383   2.834  10.220  0.1321 -0.8950  0.0500
 6855SOL     OW32197   1.886   0.974   4.453 -0.2809 -0.4262 -0.6380
 6855SOL    HW132198   1.803   1.004   4.417 -0.8020 -1.8242 -0.6236
 6855SOL    HW232199   1.874   0.990   4.547 -0.0656 -0.2705 -0.6379
 6856SOL     OW32200   2.138   1.181   3.329 -0.5949 -0.9136 -0.6951
 6856SOL    HW132201   2.116   1.240   3.401  0.2419 -1.0434 -0.3375
 6856SOL    HW232202   2.173   1.107   3.378 -0.7981  0.4303  1.4977
 6857SOL     OW32203   0.679   0.548   8.689  0.0846  0.1358  0.1005
 6857SOL    HW132204   0.596   0.502   8.697  0.5001 -0.7440 -0.6915
 6857SOL    HW232205   0.648   0.631   8.653  1.9431  0.2713 -1.1620
 6858SOL     OW32206   2.046   4.258   9.242  0.1893  0.4236 -0.3307
 6858SOL    HW132207   2.133   4.256   9.282 -0.4766 -1.0490  1.0609
 6858SOL    HW232208   1.990   4.270   9.318 -1.0828 -2.3989 -0.8203
 6859SOL     OW32209   0.896   3.598   4.577 -0.9637 -0.8407  0.4672
 6859SOL    HW132210   0.902   3.604   4.482  1.4348  0.7526  0.7061
 6859SOL    HW232211   0.988   3.580   4.597 -0.0199  1.6097 -1.6804
 6860SOL     OW32212   0.833   1.592  14.674  0.5230 -0.1834 -0.1309
 6860SOL    HW132213   0.889   1.534  14.622 -0.0202 -0.4171 -0.4522
 6860SOL    HW232214   0.822   1.545  14.757  0.7920 -0.3462 -0.1886
 6861SOL     OW32215   2.626   2.460   6.265  0.1346  0.4656  0.5890
 6861SOL    HW132216   2.596   2.550   6.253 -0.6646  0.1056 -0.1121
 6861SOL    HW232217   2.635   2.427   6.176 -0.6014  1.1131  0.2675
 6862SOL     OW32218   0.915   3.983   8.714  0.7500 -0.4641 -0.4859
 6862SOL    HW132219   0.948   3.970   8.625  0.3338 -2.3513 -0.3642
 6862SOL    HW232220   0.956   3.910   8.760  1.1414 -0.3934 -0.7246
 6863SOL     OW32221   1.552   4.634   6.863  0.6502 -0.5492  0.0513
 6863SOL    HW132222   1.525   4.572   6.795  2.0204  0.9586 -1.8676
 6863SOL    HW232223   1.483   4.700   6.861  0.4219 -0.6351  3.7126
 6864SOL     OW32224   1.977   3.968  10.755 -0.2178  0.0763 -0.2830
 6864SOL    HW132225   2.049   4.001  10.810  0.2336  0.3112 -0.9991
 6864SOL    HW232226   1.986   3.874  10.765  0.9996  0.0705 -1.4088
 6865SOL     OW32227   2.366   2.707   9.201 -0.5066  0.3023  0.5250
 6865SOL    HW132228   2.341   2.630   9.252 -3.6643  0.3119 -1.0711
 6865SOL    HW232229   2.442   2.663   9.161  0.9201  1.7035  1.6629
 6866SOL     OW32230   0.112   3.213   7.690  0.3272  0.1678 -0.1926
 6866SOL    HW132231   0.151   3.300   7.698  0.5389  0.0361  0.1966
 6866SOL    HW232232   0.150   3.169   7.766 -0.7764 -0.8063 -0.2016
 6867SOL     OW32233   3.344   1.443   1.695  0.7047  0.0120 -0.1044
 6867SOL    HW132234   3.378   1.391   1.768  0.1256 -1.2815 -0.7465
 6867SOL    HW232235   3.270   1.492   1.732  0.8426  0.6645 -0.6803
 6868SOL     OW32236   2.480   0.808   4.143  0.2544  0.8314  0.1717
 6868SOL    HW132237   2.394   0.788   4.179  0.3681 -0.6153 -0.3545
 6868SOL    HW232238   2.540   0.828   4.215 -0.1085 -0.0072  0.7004
 6869SOL     OW32239   1.062   1.028   4.918  0.7348 -0.9819 -0.1896
 6869SOL    HW132240   1.047   0.960   4.984  2.5345 -0.0911  1.1340
 6869SOL    HW232241   1.083   0.979   4.838  1.1413  0.4153 -0.9299
 6870SOL     OW32242   1.093   4.058  10.951 -0.1622 -0.6916  0.6030
 6870SOL    HW132243   1.080   4.118  10.878 -4.2906 -0.6789  1.3483
 6870SOL    HW232244   1.121   3.975  10.913  1.3028 -0.0694  0.3330
 6871SOL     OW32245   2.483   1.611   0.514  0.5046  0.1729  0.2374
 6871SOL    HW132246   2.512   1.524   0.539 -0.5758 -0.1381  0.3822
 6871SOL    HW232247   2.468   1.639   0.604  0.5462 -0.1714  0.3507
 6872SOL     OW32248   1.954   0.553   6.159 -0.0611  1.2429 -0.4203
 6872SOL    HW132249   1.885   0.618   6.146 -0.6006  0.2287 -2.5930
 6872SOL    HW232250   1.999   0.588   6.236  2.4201  0.1008 -1.3685
 6873SOL     OW32251   1.839   1.806   0.121 -0.0361  0.4716  0.3408
 6873SOL    HW132252   1.875   1.744   0.057  1.2450 -0.0306  1.5447
 6873SOL    HW232253   1.844   1.884   0.065  2.3206 -1.2222 -1.8079
 6874SOL     OW32254   3.050   3.959   2.645 -0.1875  0.4987  0.2016
 6874SOL    HW132255   3.082   3.887   2.700 -0.0240  1.0137  0.7769
 6874SOL    HW232256   3.118   4.024   2.657 -1.5852  2.2969 -1.5938
 6875SOL     OW32257   1.105   1.531   8.982  0.4347  0.2842  0.6952
 6875SOL    HW132258   1.153   1.472   9.040  0.8842  0.7847  0.8377
 6875SOL    HW232259   1.024   1.553   9.027 -0.3179 -0.4839 -0.2957
 6876SOL     OW32260   1.131   2.224   8.814  0.3903  0.3831 -0.0157
 6876SOL    HW132261   1.129   2.129   8.830 -2.1467  0.4124 -0.2094
 6876SOL    HW232262   1.039   2.228   8.789  0.8143 -2.3609 -2.0967
 6877SOL     OW32263   1.992   3.587  12.683 -0.1349 -0.2478 -0.4642
 6877SOL    HW132264   2.069   3.641  12.698 -0.3335 -0.0826 -0.0327
 6877SOL    HW232265   1.944   3.638  12.618 -1.4863  0.3764  1.0169
 6878SOL     OW32266   2.001   1.720   2.084 -0.5129  0.1281 -0.7117
 6878SOL    HW132267   2.042   1.634   2.067  0.1898  0.9097 -3.0022
 6878SOL    HW232268   2.077   1.778   2.081  0.1334 -0.5903  1.6653
 6879SOL     OW32269   2.134   4.082   2.149  0.1144 -0.4452  0.2916
 6879SOL    HW132270   2.047   4.080   2.109 -0.1700  0.2731  0.8651
 6879SOL    HW232271   2.170   3.996   2.129  0.2565 -0.3771  0.2487
 6880SOL     OW32272   1.341   2.037   8.181  0.4039  0.3767 -0.1217
 6880SOL    HW132273   1.289   2.059   8.103 -0.4434 -1.7228 -0.1455
 6880SOL    HW232274   1.329   2.114   8.237  0.0543 -1.8953  2.9468
 6881SOL     OW32275   1.330   2.755   3.928  0.1558 -0.0475  0.0904
 6881SOL    HW132276   1.291   2.836   3.961 -2.8372 -1.9214  1.1912
 6881SOL    HW232277   1.255   2.708   3.892  0.5884  0.1966 -1.1357
 6882SOL     OW32278   4.263   3.794   3.609  0.3898 -0.1648  0.1257
 6882SOL    HW132279   4.327   3.722   3.613  2.9163  2.1098  0.8816
 6882SOL    HW232280   4.255   3.796   3.513  2.1815  0.1000 -0.0208
 6883SOL     OW32281   0.454   0.383  15.018 -0.2811 -0.5067  0.3614
 6883SOL    HW132282   0.402   0.315  15.060 -1.3775 -1.5297 -2.6622
 6883SOL    HW232283   0.387   0.423  14.962 -0.9770 -1.0413  0.8226
 6884SOL     OW32284   3.181   4.028   3.367  0.5761  0.6766  0.7012
 6884SOL    HW132285   3.160   4.035   3.460 -0.5307  2.1049  0.3482
 6884SOL    HW232286   3.164   3.936   3.349  1.2456  0.6868  0.0280
 6885SOL     OW32287   2.739   3.473   2.547  0.9265 -0.4974 -0.5271
 6885SOL    HW132288   2.749   3.536   2.618  2.3380  0.2825 -1.4276
 6885SOL    HW232289   2.830   3.455   2.523  0.6253 -2.1485 -0.4369
 6886SOL     OW32290   4.135   3.251  15.907  0.7868 -0.4468 -0.2757
 6886SOL    HW132291   4.175   3.337  15.916 -2.6581  1.0027  1.0515
 6886SOL    HW232292   4.065   3.257  15.842  2.0593  2.5504 -1.3485
 6887SOL     OW32293   3.345   1.127   3.609  0.6176  0.8120 -0.3010
 6887SOL    HW132294   3.434   1.103   3.583  0.9191  1.8047 -0.1703
 6887SOL    HW232295   3.303   1.045   3.637 -0.1413  0.2641 -3.0240
 6888SOL     OW32296   0.878   0.722   2.519  0.0130  0.3158 -0.0954
 6888SOL    HW132297   0.933   0.755   2.448  0.0861  0.3779 -0.0104
 6888SOL    HW232298   0.800   0.777   2.516  0.9149  1.8670  4.6777
 6889SOL     OW32299   1.074   0.837   7.097  0.1959 -0.3392 -0.3177
 6889SOL    HW132300   0.999   0.857   7.041 -0.1676 -2.5752 -0.6331
 6889SOL    HW232301   1.087   0.927   7.126 -0.0838 -0.6919  0.9322
 6890SOL     OW32302   3.177   4.140  15.103  0.2883 -0.8430  0.2925
 6890SOL    HW132303   3.179   4.054  15.063 -1.5361  0.5638 -2.8172
 6890SOL    HW232304   3.171   4.194  15.024 -2.4429 -1.2153  0.2583
 6891SOL     OW32305   0.548   0.779   4.956 -0.3321  0.6768  0.8843
 6891SOL    HW132306   0.494   0.717   5.005 -0.6874 -1.3677 -2.1353
 6891SOL    HW232307   0.636   0.744   4.964 -0.2574  0.6611 -0.0156
 6892SOL     OW32308   1.474   4.402   5.439  0.0596  0.0993 -0.0525
 6892SOL    HW132309   1.457   4.443   5.524  0.7983  0.0204  0.1347
 6892SOL    HW232310   1.549   4.449   5.402  0.1600 -0.9501 -1.1714
 6893SOL     OW32311   3.971   4.464   3.528 -0.1833 -0.3537  0.0348
 6893SOL    HW132312   3.959   4.377   3.565 -0.3703 -0.0692  0.6414
 6893SOL    HW232313   4.012   4.432   3.448 -0.0910 -0.1870  0.0146
 6894SOL     OW32314   0.612   0.026   4.037 -0.0310 -0.4761  0.2715
 6894SOL    HW132315   0.627   0.041   4.131 -1.2957 -0.1249  0.4074
 6894SOL    HW232316   0.584   0.113   4.008  2.2080  0.2077  0.1318
 6895SOL     OW32317   1.648   2.555  14.956 -0.1703 -0.8815  0.3969
 6895SOL    HW132318   1.691   2.565  14.871 -2.0577  1.2691 -0.3236
 6895SOL    HW232319   1.723   2.552  15.016 -0.5498 -0.4781  0.8996
 6896SOL     OW32320   3.689   4.083  16.174  0.3408 -0.1062  0.6696
 6896SOL    HW132321   3.622   4.120  16.117 -0.1793 -1.1532  0.6039
 6896SOL    HW232322   3.763   4.135  16.142  0.5771 -0.6238  0.3810
 6897SOL     OW32323   1.775   3.248  10.429  0.1760 -0.1796  0.1952
 6897SOL    HW132324   1.710   3.182  10.406 -1.0483  1.0051  0.2378
 6897SOL    HW232325   1.755   3.252  10.522  1.2640  1.0132  0.3737
 6898SOL     OW32326   2.873   0.468  16.834  0.4297  0.3036 -0.8631
 6898SOL    HW132327   2.859   0.462  16.928 -0.3778  0.4445 -0.9752
 6898SOL    HW232328   2.804   0.407  16.809  2.8176 -3.4415  1.7705
 6899SOL     OW32329   0.846   4.370   4.094  0.3067 -0.1563  0.8894
 6899SOL    HW132330   0.793   4.310   4.042  0.3445 -0.7752  1.5513
 6899SOL    HW232331   0.934   4.341   4.067 -0.6099 -0.5608 -1.6576
 6900SOL     OW32332   1.744   2.025  16.820 -0.4157  0.0040  0.1389
 6900SOL    HW132333   1.667   1.975  16.793 -0.7557  1.0840 -0.9015
 6900SOL    HW232334   1.813   1.962  16.801 -1.2537 -1.4530  1.8603
 6901SOL     OW32335   3.592   0.766   2.438 -0.7844  0.0427  0.4189
 6901SOL    HW132336   3.631   0.688   2.399 -0.6989  0.5591 -0.5393
 6901SOL    HW232337   3.586   0.831   2.367 -1.5393  1.7285  2.0406
 6902SOL     OW32338   0.078   3.456  10.587 -0.4000  0.0669  0.2127
 6902SOL    HW132339   4.736   3.464  10.641 -1.0287  0.1335 -0.7015
 6902SOL    HW232340   0.071   3.363  10.565 -1.5367 -0.2809  2.1087
 6903SOL     OW32341   4.364   0.097   2.734  0.1533  0.2587 -0.4758
 6903SOL    HW132342   4.439   0.098   2.793  1.9111  1.6049 -2.7570
 6903SOL    HW232343   4.390   0.174   2.684 -0.7594  1.0537  0.2585
 6904SOL     OW32344   4.146   2.245   2.585 -0.0007  0.4225  0.3618
 6904SOL    HW132345   4.178   2.282   2.502  1.5401 -0.9771  0.3239
 6904SOL    HW232346   4.066   2.297   2.597 -1.2916 -1.2088 -1.2424
 6905SOL     OW32347   2.690   1.718   4.126 -0.1199 -0.0437  0.2632
 6905SOL    HW132348   2.746   1.722   4.049 -0.5546 -0.0962 -0.0610
 6905SOL    HW232349   2.698   1.626   4.150  2.1292 -0.3465 -1.6455
 6906SOL     OW32350   1.816   0.648   2.762  0.0384  0.6835  0.1189
 6906SOL    HW132351   1.849   0.558   2.762  0.3293  0.7891  0.9809
 6906SOL    HW232352   1.787   0.654   2.671  0.9699 -1.2680 -0.3067
 6907SOL     OW32353   4.196   4.181   2.603  0.0929 -0.3072  0.2210
 6907SOL    HW132354   4.256   4.256   2.601 -1.7774  1.0977 -2.5023
 6907SOL    HW232355   4.123   4.211   2.657  0.1035 -1.6320  0.9862
 6908SOL     OW32356   0.185   4.587  13.421 -0.4175  0.1833 -0.0182
 6908SOL    HW132357   0.177   4.658  13.357 -1.1597  0.6018  0.5360
 6908SOL    HW232358   0.173   4.633  13.504 -1.8584 -0.1044 -0.0691
 6909SOL     OW32359   3.630   4.201   4.415 -0.1975 -0.3073  0.0244
 6909SOL    HW132360   3.714   4.244   4.425  0.1276 -1.2907  1.3864
 6909SOL    HW232361   3.660   4.115   4.443  1.4978 -0.3791 -1.9808
 6910SOL     OW32362   1.306   1.485  12.060 -0.2361  0.4768  0.0507
 6910SOL    HW132363   1.310   1.577  12.035  0.0241  0.3083 -0.5146
 6910SOL    HW232364   1.258   1.501  12.141 -0.2060  0.3555  0.0927
 6911SOL     OW32365   3.216   1.265   7.306 -0.1761  1.2796  0.1069
 6911SOL    HW132366   3.169   1.346   7.324  1.5255  1.8182  2.1591
 6911SOL    HW232367   3.184   1.212   7.379  0.5529 -0.6037 -0.9489
 6912SOL     OW32368   4.037   4.681   1.744 -0.0197 -0.3495 -0.6448
 6912SOL    HW132369   4.101   4.727   1.799  0.8315 -1.6092 -0.5668
 6912SOL    HW232370   4.072   4.593   1.756 -2.3455 -0.9085  2.2033
 6913SOL     OW32371   0.168   2.076   2.907 -0.0554  0.3345  0.2340
 6913SOL    HW132372   0.118   2.065   2.988  0.9797  0.3873  0.8836
 6913SOL    HW232373   0.242   2.116   2.953 -1.0441  1.9104  0.4584
 6914SOL     OW32374   1.618   0.979  13.039  0.0101 -0.6185 -0.4391
 6914SOL    HW132375   1.550   1.007  13.100 -1.2122 -2.3865 -0.9949
 6914SOL    HW232376   1.557   0.942  12.975 -0.3549  1.9732 -1.5797
 6915SOL     OW32377   4.222   3.465   1.379 -0.2368  0.0206  0.3504
 6915SOL    HW132378   4.202   3.551   1.415 -1.6260 -0.9666  1.8970
 6915SOL    HW232379   4.139   3.437   1.340  0.8612 -1.3443 -1.0152
 6916SOL     OW32380   1.246   1.583  13.778 -0.5468  0.2932 -0.2378
 6916SOL    HW132381   1.220   1.675  13.777  0.9314  0.7210  0.5172
 6916SOL    HW232382   1.238   1.562  13.871 -2.5124  0.6654 -0.3273
 6917SOL     OW32383   4.410   3.752   5.248 -0.2346  0.3562 -0.7019
 6917SOL    HW132384   4.398   3.844   5.275 -0.5748  0.4871 -1.3116
 6917SOL    HW232385   4.494   3.731   5.289  0.4936  0.9157 -1.9255
 6918SOL     OW32386   0.789   4.494   1.667  0.6032  0.3567  0.0726
 6918SOL    HW132387   0.863   4.441   1.638 -0.5553 -0.5030 -1.3259
 6918SOL    HW232388   0.836   4.573   1.692  1.8675 -0.6456  0.8402
 6919SOL     OW32389   0.478   3.521  10.549  0.0515 -0.4620  0.1725
 6919SOL    HW132390   0.462   3.510  10.455  0.9818 -2.7260  0.2714
 6919SOL    HW232391   0.496   3.433  10.584  2.1799 -0.6287 -1.3033
 6920SOL     OW32392   2.983   2.901   3.522  0.0838 -0.5604  0.1774
 6920SOL    HW132393   3.010   2.948   3.443  0.9690  1.4507  1.6565
 6920SOL    HW232394   2.954   2.965   3.587 -0.5629  0.8166 -1.4817
 6921SOL     OW32395   2.570   2.060   9.187 -0.3055  0.2939  0.2319
 6921SOL    HW132396   2.536   2.107   9.263 -0.6674  0.9702 -0.3464
 6921SOL    HW232397   2.513   2.095   9.117  0.2187 -1.5763 -1.1421
 6922SOL     OW32398   4.433   4.547   5.181 -0.0239  0.1582  0.0768
 6922SOL    HW132399   4.371   4.477   5.199 -0.6060 -0.1373 -3.1663
 6922SOL    HW232400   4.445   4.540   5.087 -2.3913  1.7677 -0.3332
 6923SOL     OW32401   3.683   2.311   7.780  0.4309  0.4923  0.0466
 6923SOL    HW132402   3.717   2.306   7.870  1.7305  0.6849 -0.4387
 6923SOL    HW232403   3.598   2.353   7.797  1.4125  2.1984  0.7827
 6924SOL     OW32404   0.325   1.232   2.886  0.5156  0.4593 -0.1528
 6924SOL    HW132405   0.307   1.232   2.980 -1.7535 -0.8241 -0.5717
 6924SOL    HW232406   0.264   1.300   2.858 -0.4697  0.3437  1.6957
 6925SOL     OW32407   1.214   0.216   7.916  0.6347 -0.2737 -0.4834
 6925SOL    HW132408   1.178   0.207   7.828 -1.0706  3.0537 -0.1476
 6925SOL    HW232409   1.183   0.138   7.960 -1.4878  0.5198 -0.5982
 6926SOL     OW32410   4.673   2.333   3.152 -0.0865  0.0439 -0.5429
 6926SOL    HW132411   4.689   2.389   3.077 -3.2147 -0.8612 -1.9013
 6926SOL    HW232412   4.579   2.338   3.169  0.0300  2.0925 -0.5752
 6927SOL     OW32413   2.954   1.357   5.861  0.5794 -0.6101 -0.2486
 6927SOL    HW132414   3.024   1.338   5.797 -0.5480  0.8334 -1.9276
 6927SOL    HW232415   3.005   1.401   5.929 -0.0239 -2.8930  1.6270
 6928SOL     OW32416   1.396   4.496   2.099  0.3274  0.0363  0.1147
 6928SOL    HW132417   1.393   4.591   2.105  3.1277  0.1072  0.5463
 6928SOL    HW232418   1.451   4.470   2.173 -0.1443  0.2651  0.5466
 6929SOL     OW32419   2.537   1.328   0.591 -0.3803 -0.5617 -0.1684
 6929SOL    HW132420   2.625   1.290   0.596 -0.2823 -0.3349 -0.1490
 6929SOL    HW232421   2.489   1.250   0.565 -1.1739 -0.5395  1.2233
 6930SOL     OW32422   2.678   0.056  15.381  0.1609  0.3832 -0.0349
 6930SOL    HW132423   2.733   0.121  15.424  1.6313 -1.0993  0.2894
 6930SOL    HW232424   2.742   4.722  15.377 -1.1682 -0.8828  0.8960
 6931SOL     OW32425   3.946   4.329   0.307 -0.0135 -0.2077 -0.3312
 6931SOL    HW132426   3.883   4.324   0.235 -0.3404  0.9543 -0.1211
 6931SOL    HW232427   3.959   4.424   0.301 -2.7119  0.2099  0.8022
 6932SOL     OW32428   0.397   0.664   5.197 -0.0024 -0.1436  0.4899
 6932SOL    HW132429   0.470   0.624   5.246  1.2691  0.5694 -0.8318
 6932SOL    HW232430   0.344   0.590   5.169  2.3022 -1.3118 -0.8165
 6933SOL     OW32431   2.361   1.563   2.844  0.0157 -0.1152  0.3318
 6933SOL    HW132432   2.392   1.542   2.756  1.4709 -1.9716  1.2831
 6933SOL    HW232433   2.305   1.638   2.823 -0.8287 -0.4789  1.2656
 6934SOL     OW32434   1.839   3.555   3.200  0.3908 -0.2368 -0.5506
 6934SOL    HW132435   1.905   3.598   3.146  0.5550  0.5832  0.2900
 6934SOL    HW232436   1.850   3.610   3.278 -0.0985  0.5854 -1.0589
 6935SOL     OW32437   4.668   1.946   0.639 -0.1374 -0.4873 -0.3859
 6935SOL    HW132438   4.574   1.938   0.657  0.0827 -2.6095 -0.2732
 6935SOL    HW232439   4.678   1.947   0.544  0.9471  2.0124 -0.2605
 6936SOL     OW32440   0.304   4.654  15.710 -0.1983  0.0858  0.1056
 6936SOL    HW132441   0.392   4.632  15.679 -0.1718  2.5769 -1.6125
 6936SOL    HW232442   0.265   4.681  15.626  0.9274  2.0646  0.2286
 6937SOL     OW32443   1.184   3.756   8.518  1.0053  0.4264 -0.6108
 6937SOL    HW132444   1.127   3.684   8.490  0.6215  0.9815 -1.2688
 6937SOL    HW232445   1.240   3.712   8.582  0.8433  2.7530  1.1258
 6938SOL     OW32446   0.041   0.983   3.185  0.1208 -0.1408  0.0164
 6938SOL    HW132447   0.076   0.915   3.127 -0.3727  0.2257 -0.7054
 6938SOL    HW232448   4.696   0.991   3.136 -0.0575 -0.4177  0.2667
 6939SOL     OW32449   0.631   4.702   7.487  0.2803 -0.3902  0.1893
 6939SOL    HW132450   0.674   4.721   7.404  0.6715 -0.8514  0.2834
 6939SOL    HW232451   0.675   4.620   7.511  0.8476 -0.5267 -1.3291
 6940SOL     OW32452   2.492   0.991   3.316  0.4352 -0.5877 -0.4684
 6940SOL    HW132453   2.434   1.040   3.258  0.8347  0.8947  0.3972
 6940SOL    HW232454   2.564   1.053   3.330  0.1256 -0.6958  1.6218
 6941SOL     OW32455   3.392   0.064   4.116  0.0811  0.0703  0.1661
 6941SOL    HW132456   3.387   0.032   4.026  0.8734  2.3621 -0.6805
 6941SOL    HW232457   3.436   0.149   4.109 -0.2548  0.2020 -0.3061
 6942SOL     OW32458   4.503   3.044   3.574 -0.1193  0.1782  0.1702
 6942SOL    HW132459   4.554   3.099   3.633  2.0093 -0.6038 -0.9375
 6942SOL    HW232460   4.476   2.973   3.631  0.2425 -0.5027 -0.5129
 6943SOL     OW32461   0.791   4.281   4.592  0.6209  0.1182  0.2254
 6943SOL    HW132462   0.782   4.186   4.584  1.8736  0.1535 -1.5978
 6943SOL    HW232463   0.708   4.297   4.637 -1.2571 -0.8962 -2.9229
 6944SOL     OW32464   2.122   1.144   1.925  0.0083  0.0749  0.1399
 6944SOL    HW132465   2.129   1.190   1.841 -3.5245  1.7478  0.7487
 6944SOL    HW232466   2.212   1.117   1.942 -0.5100 -1.7725 -0.1178
 6945SOL     OW32467   4.474   0.903   8.534  0.3289  0.1571  0.0547
 6945SOL    HW132468   4.385   0.918   8.567  0.4573 -1.1426  0.9897
 6945SOL    HW232469   4.473   0.891   8.439  1.1505 -0.1394  0.0883
 6946SOL     OW32470   1.750   2.280   2.639  0.3136 -0.5212 -0.5858
 6946SOL    HW132471   1.720   2.368   2.616 -0.1747 -0.3816  0.5976
 6946SOL    HW232472   1.823   2.299   2.698  1.8271 -1.0824 -2.2678
 6947SOL     OW32473   1.788   3.316   0.569  0.1496 -0.6059 -0.3518
 6947SOL    HW132474   1.768   3.404   0.538 -2.0006 -0.8430  0.3674
 6947SOL    HW232475   1.827   3.274   0.492  1.6688 -1.1380  0.7171
 6948SOL     OW32476   3.433   4.535   5.938 -0.5232  0.2319  0.1232
 6948SOL    HW132477   3.381   4.614   5.953  0.8142  1.3619 -1.1904
 6948SOL    HW232478   3.397   4.474   6.002  1.6154 -1.6074 -0.4471
 6949SOL     OW32479   2.744   0.319  16.556 -0.1664  0.2723  0.1024
 6949SOL    HW132480   2.650   0.321  16.542 -0.1577  0.2869  0.0477
 6949SOL    HW232481   2.768   0.409  16.534 -1.9067  0.8549  0.6351
 6950SOL     OW32482   1.159   4.377   2.942 -0.2253 -0.0941  0.5856
 6950SOL    HW132483   1.107   4.410   2.869  0.9374 -0.2394 -0.2913
 6950SOL    HW232484   1.244   4.408   2.911  0.0077  0.1667  1.4802
 6951SOL     OW32485   1.692   2.189   4.134  0.6946  0.0903  0.3409
 6951SOL    HW132486   1.669   2.279   4.157  0.3400 -0.3977  1.8517
 6951SOL    HW232487   1.619   2.135   4.164  1.1584 -1.3617 -1.1416
 6952SOL     OW32488   0.873   1.130   3.754  0.0965  0.3954  0.3942
 6952SOL    HW132489   0.819   1.070   3.805  1.9821 -0.2606  1.6139
 6952SOL    HW232490   0.838   1.218   3.772 -1.1828 -0.2104  0.8703
 6953SOL     OW32491   1.205   4.233  11.554 -0.0116  0.0562  0.5937
 6953SOL    HW132492   1.184   4.279  11.635  0.1024 -0.5746  0.9806
 6953SOL    HW232493   1.167   4.150  11.583  1.3510 -1.7864 -2.9634
 6954SOL     OW32494   1.479   1.178  13.240  0.4732 -0.1000 -0.3464
 6954SOL    HW132495   1.394   1.180  13.285  0.0167  0.2631 -1.2181
 6954SOL    HW232496   1.514   1.124  13.311  0.9621  1.2339  0.4078
 6955SOL     OW32497   2.246   2.789   0.947 -0.5213 -0.0642 -0.2645
 6955SOL    HW132498   2.158   2.816   0.923 -0.6293 -0.1313  0.0499
 6955SOL    HW232499   2.272   2.763   0.859 -2.7396 -1.5108 -0.4779
 6956SOL     OW32500   3.171   0.716   2.818 -0.1164  0.6552 -0.5521
 6956SOL    HW132501   3.181   0.661   2.741  1.6440 -0.5919  0.5585
 6956SOL    HW232502   3.220   0.791   2.783  1.1406 -0.4827 -1.2486
 6957SOL     OW32503   2.467   0.863  14.342 -0.3004  0.0078  0.1984
 6957SOL    HW132504   2.531   0.842  14.274  0.3418 -0.1254  0.8492
 6957SOL    HW232505   2.432   0.948  14.317  2.0639  0.8087 -0.3898
 6958SOL     OW32506   1.491   1.297   3.144 -0.4341 -0.2667 -0.4014
 6958SOL    HW132507   1.502   1.204   3.161  0.7298  0.3894  2.4036
 6958SOL    HW232508   1.399   1.304   3.118 -0.6558  0.7862  0.6485
 6959SOL     OW32509   0.547   3.156   1.782 -0.2044 -0.3902  0.3011
 6959SOL    HW132510   0.467   3.204   1.762 -0.1322  0.0906  1.1346
 6959SOL    HW232511   0.529   3.086   1.720 -0.2719 -1.1960  1.2420
 6960SOL     OW32512   3.470   4.651   6.545 -0.2165 -0.5337 -0.1207
 6960SOL    HW132513   3.557   4.671   6.581 -1.0814 -0.2622  1.8094
 6960SOL    HW232514   3.452   4.566   6.584  2.6515 -0.2539  1.8261
 6961SOL     OW32515   0.428   1.408   6.048 -0.6245  0.1998  0.1792
 6961SOL    HW132516   0.346   1.397   6.098 -0.5268 -1.6122 -0.0564
 6961SOL    HW232517   0.458   1.317   6.055  0.4843  0.5803  0.2499
 6962SOL     OW32518   1.684   3.745   9.315  0.2852  0.4798  0.7160
 6962SOL    HW132519   1.737   3.800   9.258 -0.9584 -1.1772 -2.0179
 6962SOL    HW232520   1.620   3.705   9.256 -0.8671  0.6171  1.8599
 6963SOL     OW32521   1.517   3.869  15.511 -0.2992  0.6248  0.0044
 6963SOL    HW132522   1.597   3.904  15.552 -1.2677  1.8418  0.8540
 6963SOL    HW232523   1.554   3.802  15.454 -1.4984 -0.7153  0.8013
 6964SOL     OW32524   4.359   0.833   1.820  0.6433  0.4164  0.4815
 6964SOL    HW132525   4.380   0.848   1.912  1.3381  0.0587  0.3791
 6964SOL    HW232526   4.280   0.888   1.819 -0.3298 -1.0150 -1.1003
 6965SOL     OW32527   3.312   2.662   9.101 -0.0424 -0.1765 -0.4628
 6965SOL    HW132528   3.260   2.624   9.171  1.1709  1.8584  1.5318
 6965SOL    HW232529   3.285   2.752   9.118  0.2051  0.0594 -1.3057
 6966SOL     OW32530   1.437   1.720   7.055 -0.2392 -0.4051 -0.2821
 6966SOL    HW132531   1.467   1.639   7.096 -0.0946 -0.4847 -0.5419
 6966SOL    HW232532   1.517   1.747   7.010  0.5717 -0.6480  0.9930
 6967SOL     OW32533   3.864   3.896   6.439 -0.0088  0.0200 -0.0783
 6967SOL    HW132534   3.793   3.833   6.450 -0.1302  0.2378  0.3590
 6967SOL    HW232535   3.830   3.950   6.368 -1.9120 -0.7047  0.2773
 6968SOL     OW32536   0.720   0.735  13.389  0.1727 -0.1887 -0.4372
 6968SOL    HW132537   0.722   0.776  13.303 -3.2178 -0.2511 -0.5556
 6968SOL    HW232538   0.669   0.655  13.377 -0.4328  0.5014 -2.4315
 6969SOL     OW32539   3.390   0.243  12.365  0.2540  0.6302 -0.5662
 6969SOL    HW132540   3.332   0.296  12.419 -0.3034  1.4173 -1.9339
 6969SOL    HW232541   3.360   0.274  12.280 -0.0848  4.0609  0.8334
 6970SOL     OW32542   3.453   4.341   3.074  0.0710 -0.2089  1.0574
 6970SOL    HW132543   3.540   4.323   3.037 -0.3413 -0.9867  0.4704
 6970SOL    HW232544   3.468   4.424   3.118  4.2787  0.3048 -1.3739
 6971SOL     OW32545   3.555   1.878   3.082  0.4832 -0.3859  0.4324
 6971SOL    HW132546   3.616   1.951   3.076  0.2066 -0.0081  2.0912
 6971SOL    HW232547   3.603   1.805   3.043  0.5511 -0.2232  0.2152
 6972SOL     OW32548   0.821   1.397  15.767 -0.4393 -0.8423  0.2369
 6972SOL    HW132549   0.802   1.365  15.679 -0.4139 -3.3435  1.1387
 6972SOL    HW232550   0.763   1.473  15.769 -1.4310 -1.6477  2.0655
 6973SOL     OW32551   3.917   2.169   2.398  0.3308  0.1830 -0.0289
 6973SOL    HW132552   3.862   2.181   2.476  0.9411 -0.1633  0.4637
 6973SOL    HW232553   3.861   2.114   2.342 -0.0765  0.4428  0.1208
 6974SOL     OW32554   0.658   4.266   3.924  0.2597  0.4651 -0.2923
 6974SOL    HW132555   0.640   4.360   3.924 -0.8689  0.2557  1.1581
 6974SOL    HW232556   0.592   4.243   3.859 -0.3253  1.4519 -0.0507
 6975SOL     OW32557   1.482   2.330   2.364  0.2564 -0.8426 -0.4983
 6975SOL    HW132558   1.505   2.240   2.388  3.3774  0.5084  1.5239
 6975SOL    HW232559   1.461   2.323   2.271 -0.2624  0.7215 -0.4993
 6976SOL     OW32560   3.854   2.261   7.399 -0.0168 -0.3765 -0.0803
 6976SOL    HW132561   3.815   2.180   7.368  1.0535 -0.6522 -0.6852
 6976SOL    HW232562   3.875   2.236   7.489 -1.3846  0.6973  0.5327
 6977SOL     OW32563   4.436   3.127   6.232  0.4896  0.1170 -0.7203
 6977SOL    HW132564   4.434   3.179   6.312  0.2025 -0.7172 -0.1797
 6977SOL    HW232565   4.490   3.051   6.254 -1.2014 -0.6438  0.7834
 6978SOL     OW32566   0.857   2.854   7.701 -0.1967  0.4410 -0.4461
 6978SOL    HW132567   0.856   2.939   7.745  2.3749  1.0606 -1.6022
 6978SOL    HW232568   0.884   2.865   7.610 -0.8957 -1.1791 -0.8574
 6979SOL     OW32569   3.549   1.227   7.735 -0.0871  0.2131  0.4642
 6979SOL    HW132570   3.519   1.136   7.732  0.3481  0.0684  0.4872
 6979SOL    HW232571   3.506   1.256   7.816 -0.2613 -0.2513  0.5402
 6980SOL     OW32572   1.748   0.269   5.616 -0.4313  0.3187 -0.1344
 6980SOL    HW132573   1.721   0.229   5.698  0.6139  0.8142  0.4534
 6980SOL    HW232574   1.833   0.230   5.595 -0.6727 -1.1725  1.6911
 6981SOL     OW32575   3.209   4.681   6.075  0.8847  0.3691 -0.0601
 6981SOL    HW132576   3.219   4.679   6.170  0.8855 -2.9611 -0.1351
 6981SOL    HW232577   3.194   0.038   6.063  1.4523  0.7613  2.3656
 6982SOL     OW32578   2.927   3.348   8.730 -1.0586  0.0516  0.1809
 6982SOL    HW132579   2.950   3.382   8.817 -0.5513 -0.8834  0.4008
 6982SOL    HW232580   2.986   3.273   8.729 -1.2743 -0.1541  1.8520
 6983SOL     OW32581   3.553   3.420  13.172 -0.0820  0.0459  0.0501
 6983SOL    HW132582   3.486   3.488  13.183  0.9731  0.8128  1.8948
 6983SOL    HW232583   3.498   3.373  13.110  0.0127  1.0844 -0.8250
 6984SOL     OW32584   1.142   0.679   1.122  0.5324  0.2042 -0.7145
 6984SOL    HW132585   1.129   0.709   1.212  1.3957  0.2279 -0.6013
 6984SOL    HW232586   1.219   0.728   1.095  0.5545 -1.4862 -3.7361
 6985SOL     OW32587   4.339   1.652  14.726 -0.6300 -0.2689  0.2562
 6985SOL    HW132588   4.364   1.593  14.655 -0.2831 -1.2381  1.1880
 6985SOL    HW232589   4.347   1.739  14.686 -0.2894  1.0102  3.0814
 6986SOL     OW32590   1.817   2.940  14.181  0.6390 -0.0533  0.6856
 6986SOL    HW132591   1.817   2.845  14.179  1.0885 -0.0416  0.1683
 6986SOL    HW232592   1.757   2.963  14.110  2.5793  1.1632 -0.5555
 6987SOL     OW32593   0.231   0.946  10.790 -0.1106 -0.2374  0.1771
 6987SOL    HW132594   0.264   0.977  10.705  1.7198  1.0514  1.3622
 6987SOL    HW232595   0.231   1.024  10.846 -1.3507  0.7719 -1.1852
 6988SOL     OW32596   1.625   0.439   8.893 -0.1868 -0.0500  0.1923
 6988SOL    HW132597   1.621   0.480   8.979  2.5399 -0.7728  0.6782
 6988SOL    HW232598   1.574   0.501   8.841  0.2257 -0.7366 -1.0246
 6989SOL     OW32599   3.685   1.011   5.826 -0.2590  0.2252  0.0150
 6989SOL    HW132600   3.779   0.998   5.807  0.0498  5.4148 -1.9038
 6989SOL    HW232601   3.697   1.086   5.884 -0.7431  0.7173 -0.5255
 6990SOL     OW32602   4.535   3.522  11.645  0.3229  0.5008  0.4843
 6990SOL    HW132603   4.603   3.469  11.686 -0.1238 -1.4690 -1.3250
 6990SOL    HW232604   4.497   3.452  11.592 -1.0343  0.0709  2.0431
 6991SOL     OW32605   2.736   1.633   1.634 -0.7326 -0.5177  0.5391
 6991SOL    HW132606   2.734   1.669   1.723 -1.1461  1.9117 -0.4606
 6991SOL    HW232607   2.782   1.703   1.589 -1.0205  0.1450  1.2543
 6992SOL     OW32608   3.318   3.494  15.850 -0.8136 -0.2580  0.1126
 6992SOL    HW132609   3.357   3.577  15.880  1.2287  0.0433 -3.4162
 6992SOL    HW232610   3.235   3.492  15.897  0.7301 -1.1409  2.8146
 6993SOL     OW32611   3.011   0.984  13.348 -0.8035  0.1804 -0.2241
 6993SOL    HW132612   3.068   0.991  13.272  0.4893  1.0872  0.8260
 6993SOL    HW232613   3.026   1.068  13.391 -0.5619  0.1027 -0.1540
 6994SOL     OW32614   4.132   2.473   5.777  0.2480  0.3512 -0.1348
 6994SOL    HW132615   4.182   2.456   5.857 -0.6398 -2.3300 -0.1360
 6994SOL    HW232616   4.072   2.541   5.807  0.6940 -0.2129  2.0078
 6995SOL     OW32617   2.394   4.606   1.429 -0.1300  0.4265 -0.0765
 6995SOL    HW132618   2.308   4.564   1.423  1.3305 -2.1954 -2.3560
 6995SOL    HW232619   2.429   4.622   1.342 -0.9731 -0.5841 -0.6027
 6996SOL     OW32620   2.322   2.651   3.244  0.3018  0.0860 -0.2771
 6996SOL    HW132621   2.281   2.726   3.201  0.1455  0.4526  0.5005
 6996SOL    HW232622   2.251   2.591   3.221  0.2650  0.6694 -1.6763
 6997SOL     OW32623   2.162   2.441   2.990 -0.0045 -0.6842  0.1646
 6997SOL    HW132624   2.195   2.366   3.040  0.4032 -2.0419 -2.1807
 6997SOL    HW232625   2.244   2.477   2.956 -1.1523 -0.5990 -2.5168
 6998SOL     OW32626   2.549   0.499   5.110 -0.1710  0.0250  0.5866
 6998SOL    HW132627   2.493   0.575   5.124  0.6707  0.2760  2.6523
 6998SOL    HW232628   2.633   0.544   5.107 -0.2787  0.2839  1.3354
 6999SOL     OW32629   2.478   3.199   6.444 -0.1463 -0.0142 -0.5852
 6999SOL    HW132630   2.512   3.200   6.533  0.7712  0.4957 -0.9442
 6999SOL    HW232631   2.392   3.163   6.468 -0.2216  1.1181  0.8152
 7000SOL     OW32632   4.145   0.723   4.833  0.1974 -0.3010  0.2639
 7000SOL    HW132633   4.230   0.766   4.842  0.7090 -1.2303 -0.1240
 7000SOL    HW232634   4.100   0.782   4.894  0.8691  2.3587 -1.7953
 7001SOL     OW32635   0.762   3.447  10.764  0.2747  0.8257 -0.5727
 7001SOL    HW132636   0.810   3.370  10.796 -0.0323  0.3076 -1.3673
 7001SOL    HW232637   0.677   3.406  10.751 -0.2651  0.6367  3.5662
 7002SOL     OW32638   0.211   0.144  13.211  0.1911 -0.4805  0.5145
 7002SOL    HW132639   0.255   0.226  13.186  1.2444 -0.2653  3.0368
 7002SOL    HW232640   0.129   0.186  13.235 -0.7908 -0.8225 -2.1905
 7003SOL     OW32641   4.149   1.411  17.148  0.4305  0.0137  0.6525
 7003SOL    HW132642   4.102   1.386  17.067  1.9267  1.4839 -0.6576
 7003SOL    HW232643   4.168   1.501  17.125 -1.1412  0.6105  1.6886
 7004SOL     OW32644   4.335   0.667   5.710 -0.5230 -0.0798 -0.0678
 7004SOL    HW132645   4.361   0.757   5.731  2.5560 -1.1005  0.4752
 7004SOL    HW232646   4.346   0.635   5.799  1.3599 -0.4068 -0.4276
 7005SOL     OW32647   3.277   3.069   7.736  0.1413 -0.2228 -0.2967
 7005SOL    HW132648   3.338   3.136   7.706 -0.1881  0.5295  0.7160
 7005SOL    HW232649   3.286   2.998   7.672  3.4884 -1.4868  1.6032
 7006SOL     OW32650   2.892   1.498   9.966  0.1830 -0.4730 -0.0124
 7006SOL    HW132651   2.805   1.529   9.993 -1.3766 -2.4764 -2.6829
 7006SOL    HW232652   2.939   1.557  10.024 -0.1030 -0.1539 -0.1014
 7007SOL     OW32653   4.408   1.041   7.846  0.3221  0.0388 -0.0274
 7007SOL    HW132654   4.371   1.117   7.800 -0.5888 -0.4666 -0.1239
 7007SOL    HW232655   4.332   0.987   7.866  0.3068  0.1767  0.2892
 7008SOL     OW32656   2.471   3.559   7.130 -0.3819 -0.3095 -0.2438
 7008SOL    HW132657   2.523   3.632   7.098  0.5341 -0.7964  0.1327
 7008SOL    HW232658   2.531   3.517   7.191 -1.0474  0.3679  0.8868
 7009SOL     OW32659   2.684   2.390   5.438  0.1104 -0.8280  0.3814
 7009SOL    HW132660   2.636   2.308   5.452  1.3299 -1.5611  0.3711
 7009SOL    HW232661   2.757   2.374   5.498  1.5538 -0.0233 -1.1561
 7010SOL     OW32662   3.995   0.309   6.279 -0.0678 -0.3788 -0.6628
 7010SOL    HW132663   3.963   0.348   6.198  0.4943  1.3958 -0.0414
 7010SOL    HW232664   4.008   0.216   6.260 -1.1789 -0.4644 -1.0035
 7011SOL     OW32665   4.404   4.269   4.928 -0.1350  0.1233 -0.0485
 7011SOL    HW132666   4.351   4.343   4.958 -0.8737 -0.6105  0.4498
 7011SOL    HW232667   4.338   4.202   4.910 -0.8661  0.8639 -0.1104
 7012SOL     OW32668   2.867   1.299  17.042  0.2919  0.0420  0.7400
 7012SOL    HW132669   2.911   1.232  17.094  0.6300  0.8734  1.5282
 7012SOL    HW232670   2.878   1.276  16.950 -1.9338 -0.5061  0.6179
 7013SOL     OW32671   3.692   2.846  10.004  0.1899  0.5468  0.0053
 7013SOL    HW132672   3.743   2.927  10.007  1.1675 -0.1331  1.6212
 7013SOL    HW232673   3.608   2.876  10.039 -0.2556  1.0614 -1.5038
 7014SOL     OW32674   4.614   4.128   5.553  0.5859 -0.4348  0.3718
 7014SOL    HW132675   4.650   4.089   5.633  2.1805  1.3792  0.5587
 7014SOL    HW232676   4.693   4.174   5.524  0.7987 -1.0271  0.0162
 7015SOL     OW32677   2.656   4.242   5.958 -0.1737  0.5551 -0.4097
 7015SOL    HW132678   2.606   4.290   5.892  0.3533  1.1677 -0.3592
 7015SOL    HW232679   2.590   4.179   5.989  2.2423 -1.2848  1.0258
 7016SOL     OW32680   2.888   4.378  12.900 -0.0373  0.3282 -0.2117
 7016SOL    HW132681   2.799   4.367  12.933  0.2875 -0.9862  0.2353
 7016SOL    HW232682   2.873   4.454  12.843  1.4632  2.4461  2.1533
 7017SOL     OW32683   4.406   4.245   5.914  0.3756  0.3688 -0.5504
 7017SOL    HW132684   4.381   4.334   5.889  0.5731  0.2331 -1.2243
 7017SOL    HW232685   4.332   4.195   5.949  1.4838  0.2471  1.6417
 7018SOL     OW32686   1.788   0.409   4.600 -0.3541 -0.0821 -0.1753
 7018SOL    HW132687   1.760   0.319   4.616  1.1238 -0.6098 -0.4805
 7018SOL    HW232688   1.754   0.413   4.511  1.4357 -0.8765 -0.9067
 7019SOL     OW32689   2.688   2.407   4.915 -0.2625 -0.5090 -0.7492
 7019SOL    HW132690   2.717   2.417   5.005 -0.9736  2.7254 -0.8718
 7019SOL    HW232691   2.695   2.312   4.904 -1.9116 -0.3715 -2.8896
 7020SOL     OW32692   1.919   2.167   8.541 -0.5385  0.1724 -0.9531
 7020SOL    HW132693   1.963   2.174   8.626 -0.4238 -0.5696 -0.9561
 7020SOL    HW232694   1.827   2.175   8.566 -0.4056  1.5266 -0.8856
 7021SOL     OW32695   0.701   1.362   8.186 -0.2988 -0.1861 -0.3642
 7021SOL    HW132696   0.763   1.431   8.213  0.4530 -1.6605  1.7091
 7021SOL    HW232697   0.735   1.334   8.101  1.6659  0.9128  0.0605
 7022SOL     OW32698   0.028   0.587   1.975 -0.5075  0.2246 -0.0193
 7022SOL    HW132699   0.089   0.627   2.038  1.6617 -0.6907 -1.5083
 7022SOL    HW232700   0.088   0.549   1.910  0.2147 -1.2611  1.5109
 7023SOL     OW32701   1.770   4.631   7.940 -0.2732 -0.2842 -0.3772
 7023SOL    HW132702   1.814   4.703   7.985  0.5819 -1.8011  1.2431
 7023SOL    HW232703   1.704   4.618   8.009 -0.1055  0.6087 -0.0392
 7024SOL     OW32704   2.382   2.848  16.572  0.6975  0.1321  0.0600
 7024SOL    HW132705   2.391   2.944  16.574  0.4372  0.1372  1.5962
 7024SOL    HW232706   2.286   2.842  16.568  0.5705  2.4127 -0.3070
 7025SOL     OW32707   2.484   3.529  10.273  0.5564 -0.3113  0.1400
 7025SOL    HW132708   2.559   3.472  10.253 -1.4239 -2.7888 -0.2921
 7025SOL    HW232709   2.518   3.580  10.346  2.8438 -1.2865 -0.2264
 7026SOL     OW32710   2.703   2.931   7.025  0.1863 -0.1510  0.2822
 7026SOL    HW132711   2.758   2.943   6.948  2.0377 -1.8404  1.3129
 7026SOL    HW232712   2.668   3.017   7.047  0.6438 -0.0393  0.5778
 7027SOL     OW32713   3.326   2.290   0.017 -0.4306  0.2184  0.3083
 7027SOL    HW132714   3.280   2.327   0.092  0.0360  0.2173  0.5950
 7027SOL    HW232715   3.416   2.296   0.048  0.1463 -1.9393 -0.9199
 7028SOL     OW32716   3.668   1.188  11.913  0.1913 -0.3035  0.3318
 7028SOL    HW132717   3.609   1.260  11.933 -1.9069 -1.4028 -1.9120
 7028SOL    HW232718   3.726   1.180  11.989 -0.1785 -2.8966  0.3309
 7029SOL     OW32719   3.582   2.178   9.201 -0.5272 -0.0172 -0.6039
 7029SOL    HW132720   3.539   2.237   9.262 -2.5453 -0.3955 -1.6389
 7029SOL    HW232721   3.670   2.214   9.201  0.3562 -2.2664  3.8394
 7030SOL     OW32722   3.229   0.976   4.382  0.8066  0.0757 -0.4155
 7030SOL    HW132723   3.190   0.892   4.407  0.6921 -0.3107 -1.8898
 7030SOL    HW232724   3.218   1.032   4.459  0.5215  0.7757 -0.9667
 7031SOL     OW32725   2.960   3.472   6.736 -0.3622 -0.0478 -0.2908
 7031SOL    HW132726   2.994   3.393   6.778  1.2092  0.5307 -0.4727
 7031SOL    HW232727   2.870   3.475   6.768 -0.3913 -0.7866 -0.2984
 7032SOL     OW32728   0.196   1.000   5.026  0.6951  0.1746  0.8249
 7032SOL    HW132729   0.207   0.965   5.114 -0.4238 -0.1852  0.8101
 7032SOL    HW232730   0.157   1.083   5.052  1.8025  0.6153  1.1071
 7033SOL     OW32731   1.356   1.706  13.428  0.4552 -1.1741 -0.0568
 7033SOL    HW132732   1.340   1.617  13.394 -1.2362 -1.0782  0.5082
 7033SOL    HW232733   1.381   1.749  13.346 -0.4171 -0.7367 -0.0957
 7034SOL     OW32734   2.827   1.708  12.749  0.3176 -0.6740  0.2129
 7034SOL    HW132735   2.867   1.662  12.675 -0.7376  1.4971 -1.7054
 7034SOL    HW232736   2.874   1.791  12.754  0.0696 -0.6209  1.7001
 7035SOL     OW32737   1.164   2.117  15.267 -0.1603  0.1117  0.2677
 7035SOL    HW132738   1.254   2.122  15.299 -0.5909  0.5972  1.3979
 7035SOL    HW232739   1.124   2.066  15.338 -1.3260 -0.8631 -1.0852
 7036SOL     OW32740   4.003   1.664   6.483 -0.9218 -0.2742  0.2884
 7036SOL    HW132741   3.992   1.571   6.501 -0.5627 -0.0738  1.5955
 7036SOL    HW232742   4.010   1.670   6.388  2.5486  0.7052  0.6005
 7037SOL     OW32743   0.054   0.408   5.450 -0.2953 -0.4994 -0.3428
 7037SOL    HW132744   0.066   0.351   5.373  0.4667  0.0238 -0.6100
 7037SOL    HW232745   0.140   0.444   5.471 -0.1735 -0.1312 -1.4640
 7038SOL     OW32746   1.380   0.045  13.263  0.2532 -0.0285 -0.1169
 7038SOL    HW132747   1.475   0.030  13.262  0.5949  2.4230 -2.4301
 7038SOL    HW232748   1.383   0.136  13.234 -1.2735 -0.5479 -1.8798
 7039SOL     OW32749   1.555   2.168  11.168 -0.4347 -0.0626  0.6143
 7039SOL    HW132750   1.555   2.243  11.227  1.7978  0.1616  0.3317
 7039SOL    HW232751   1.627   2.193  11.110  0.6041 -0.9911  1.5122
 7040SOL     OW32752   1.328   1.921   3.423 -0.2420  0.1972  0.0874
 7040SOL    HW132753   1.314   1.985   3.492 -0.2325  0.5900 -0.2728
 7040SOL    HW232754   1.240   1.895   3.397  0.5636 -0.2502 -2.1851
 7041SOL     OW32755   2.547   1.795   8.924  0.2351  0.0365 -0.7654
 7041SOL    HW132756   2.499   1.878   8.924 -0.8009 -0.5175  3.9286
 7041SOL    HW232757   2.474   1.742   8.893  0.3178  0.9832 -2.5351
 7042SOL     OW32758   2.719   0.209  11.866  0.1656  0.2953 -0.0220
 7042SOL    HW132759   2.687   0.209  11.776 -2.1678 -1.9450  0.8189
 7042SOL    HW232760   2.653   0.146  11.894  1.6353 -0.7898  0.9806
 7043SOL     OW32761   3.944   0.837  14.496 -0.2137 -0.2274  0.4704
 7043SOL    HW132762   4.033   0.852  14.465 -0.2912  2.0431  1.3359
 7043SOL    HW232763   3.966   0.816  14.587 -0.5576 -1.5973  0.2433
 7044SOL     OW32764   3.396   1.165   6.843 -0.5385  0.8383 -0.3526
 7044SOL    HW132765   3.363   1.198   6.927 -0.2783 -0.0366  0.0892
 7044SOL    HW232766   3.436   1.086   6.878 -0.2333  0.2503 -2.0676
 7045SOL     OW32767   1.750   4.362   8.593  0.6681  0.3368 -0.3120
 7045SOL    HW132768   1.779   4.296   8.530 -0.1534  0.2939 -0.6351
 7045SOL    HW232769   1.834   4.392   8.627  0.6265  0.6000 -0.4470
 7046SOL     OW32770   0.838   4.701   6.708 -0.2666  0.0769  0.3094
 7046SOL    HW132771   0.803   4.613   6.707  0.6798 -0.3067  0.8948
 7046SOL    HW232772   0.815   0.003   6.623  0.8796 -2.6079 -1.2097
 7047SOL     OW32773   3.386   2.124   3.609  0.5163 -0.5470 -0.3387
 7047SOL    HW132774   3.415   2.158   3.524 -0.2659 -0.3616 -0.5292
 7047SOL    HW232775   3.434   2.041   3.614  2.1005  0.3210 -0.9636
 7048SOL     OW32776   3.384   2.891   2.774  0.0717  0.3418 -0.4293
 7048SOL    HW132777   3.412   2.819   2.831 -0.4853 -0.5475 -1.2676
 7048SOL    HW232778   3.301   2.851   2.746 -0.4648  1.1383  0.0059
 7049SOL     OW32779   0.132   0.986   7.702  0.2863 -0.0336  0.0710
 7049SOL    HW132780   0.187   1.060   7.678  0.1121 -0.0778 -0.4549
 7049SOL    HW232781   0.168   0.958   7.786 -0.8452  1.0260  0.9073
 7050SOL     OW32782   0.461   0.063  15.301  0.4610  0.0888 -0.8388
 7050SOL    HW132783   0.420   0.075  15.215  0.1500 -0.2508 -0.7392
 7050SOL    HW232784   0.555   0.057  15.284  0.2940  2.2121 -2.5176
 7051SOL     OW32785   2.327   0.766   3.368  0.0391  0.0157  0.4571
 7051SOL    HW132786   2.388   0.833   3.338 -0.2512  0.1784  0.2397
 7051SOL    HW232787   2.315   0.713   3.290 -1.2596  0.1645  0.5568
 7052SOL     OW32788   4.184   3.381  12.210  0.2004  0.2778 -0.0691
 7052SOL    HW132789   4.090   3.363  12.220  0.1565  0.1867 -0.6308
 7052SOL    HW232790   4.199   3.362  12.117  0.9205  3.8454 -0.6714
 7053SOL     OW32791   4.107   3.007  15.744  0.7798 -0.0602 -0.6808
 7053SOL    HW132792   4.035   3.008  15.807 -0.2878  0.1892 -1.9027
 7053SOL    HW232793   4.185   3.020  15.798 -0.0076  1.8365 -0.0007
 7054SOL     OW32794   4.360   3.497   7.904  0.3769 -0.3264 -0.0001
 7054SOL    HW132795   4.382   3.498   7.997 -0.6099 -0.9401  0.2296
 7054SOL    HW232796   4.398   3.414   7.876 -0.7690 -1.3918  1.6131
 7055SOL     OW32797   2.646   3.314   3.340  0.1238 -0.1593  0.7368
 7055SOL    HW132798   2.696   3.359   3.271 -1.5723  0.5829 -0.0206
 7055SOL    HW232799   2.689   3.229   3.344  0.3029 -0.1273 -0.4660
 7056SOL     OW32800   0.752   4.566   7.009  0.0457 -0.7500 -0.1817
 7056SOL    HW132801   0.786   4.542   6.923 -0.1629  0.6105 -0.6526
 7056SOL    HW232802   0.824   4.614   7.051  0.7607 -2.5099  0.5682
 7057SOL     OW32803   2.566   0.751  15.608  0.1708 -0.1833 -0.6463
 7057SOL    HW132804   2.661   0.758  15.603  0.0999  0.2801 -1.3775
 7057SOL    HW232805   2.548   0.759  15.514  1.6843 -0.2325 -0.9396
 7058SOL     OW32806   2.171   0.371   1.112  0.1938  0.3356  0.0936
 7058SOL    HW132807   2.183   0.277   1.126 -1.1309 -0.0880 -1.5259
 7058SOL    HW232808   2.258   0.393   1.078 -0.9118  3.0729 -1.0035
 7059SOL     OW32809   4.662   0.859   2.821  0.2900 -0.1713  0.2565
 7059SOL    HW132810   4.686   0.777   2.863  1.0916  0.2714  0.6503
 7059SOL    HW232811   4.617   0.894   2.898  0.8710 -0.2110  0.6078
 7060SOL     OW32812   2.933   0.646   7.558  0.2179  0.7610  0.3621
 7060SOL    HW132813   3.024   0.620   7.577  0.5035  1.9178  0.6256
 7060SOL    HW232814   2.912   0.662   7.650  2.7159  0.4059  0.9988
 7061SOL     OW32815   2.981   0.777  10.623 -0.4055  0.2797  1.1914
 7061SOL    HW132816   3.056   0.791  10.681  1.6284  1.4251 -1.7319
 7061SOL    HW232817   3.006   0.834  10.551 -1.6971  0.5054  0.9238
 7062SOL     OW32818   2.816   3.182   9.001  0.3377  0.2955 -0.0695
 7062SOL    HW132819   2.805   3.181   9.096 -3.2587 -2.8099 -0.5272
 7062SOL    HW232820   2.796   3.271   8.973 -0.2672 -0.0491 -0.7353
 7063SOL     OW32821   0.218   4.475   1.239 -0.0482 -0.1125 -0.5808
 7063SOL    HW132822   0.211   4.570   1.228  0.0463 -0.0356  0.0177
 7063SOL    HW232823   0.181   4.448   1.155  1.8381 -2.1028 -0.7603
 7064SOL     OW32824   0.199   3.775   9.008 -0.3324 -0.3959 -0.2833
 7064SOL    HW132825   0.164   3.859   8.980  0.6852  0.4185  0.8860
 7064SOL    HW232826   0.130   3.709   9.002 -0.0414 -0.8821  1.8412
 7065SOL     OW32827   0.890   3.884   8.054 -0.6179 -0.0075  0.3295
 7065SOL    HW132828   0.853   3.894   8.141 -2.1452  1.4210 -0.4851
 7065SOL    HW232829   0.813   3.907   8.002 -0.0943  0.3910 -0.2803
 7066SOL     OW32830   1.241   2.604   6.146 -0.5937  0.2052 -0.3788
 7066SOL    HW132831   1.329   2.566   6.143 -0.2672  0.8124  1.1966
 7066SOL    HW232832   1.244   2.683   6.200 -0.8256 -0.1184  0.1178
 7067SOL     OW32833   3.887   3.467   2.800  0.6255  0.3649 -0.1258
 7067SOL    HW132834   3.854   3.432   2.718 -0.6619  1.6845 -0.1691
 7067SOL    HW232835   3.935   3.391   2.832 -0.1168 -0.1678 -0.3068
 7068SOL     OW32836   4.322   3.079   6.993  0.2537 -0.1752  0.9824
 7068SOL    HW132837   4.364   3.078   7.078  2.4581 -2.4651 -0.1504
 7068SOL    HW232838   4.340   2.991   6.959  0.5692 -0.2371  1.3113
 7069SOL     OW32839   2.864   4.500   1.636 -0.1161 -0.3690 -0.6898
 7069SOL    HW132840   2.796   4.455   1.586 -0.2824  1.9311 -2.5102
 7069SOL    HW232841   2.836   4.591   1.632 -3.1369 -1.1530  2.3289
 7070SOL     OW32842   3.747   3.313  16.721  0.1775  0.0117 -0.8288
 7070SOL    HW132843   3.655   3.310  16.747  0.1839 -0.6717 -0.8994
 7070SOL    HW232844   3.765   3.219  16.723 -1.3921 -0.3042 -1.6759
 7071SOL     OW32845   3.632   1.064   1.942 -0.3790 -0.0053  0.4431
 7071SOL    HW132846   3.596   1.016   1.867  2.9838 -1.2981 -0.3465
 7071SOL    HW232847   3.696   1.115   1.892 -2.3190  0.6121 -1.3944
 7072SOL     OW32848   2.695   0.213   8.374  0.1859  0.6871 -0.3463
 7072SOL    HW132849   2.732   0.132   8.337 -1.1170 -0.2019  0.2781
 7072SOL    HW232850   2.748   0.222   8.453 -0.2086 -1.9190  0.2252
 7073SOL     OW32851   2.690   2.958   2.724  0.2294  0.0169  0.3819
 7073SOL    HW132852   2.703   2.895   2.653  0.0665 -0.3729  0.6961
 7073SOL    HW232853   2.764   3.016   2.706 -0.4651  1.0564  0.9348
 7074SOL     OW32854   1.693   0.780   3.556 -0.0523 -0.4099  0.1458
 7074SOL    HW132855   1.708   0.691   3.524  2.1292  0.4795 -1.3236
 7074SOL    HW232856   1.706   0.825   3.472 -1.6281 -1.0609 -0.4452
 7075SOL     OW32857   1.460   0.489   9.172  0.5432 -0.2113 -0.0191
 7075SOL    HW132858   1.534   0.524   9.221 -0.8865  2.4219  0.2606
 7075SOL    HW232859   1.388   0.550   9.190 -0.0456 -1.1981  0.9376
 7076SOL     OW32860   3.773   0.377   4.483  0.0577  0.0246  0.1686
 7076SOL    HW132861   3.816   0.435   4.420  1.5448 -1.2591  0.0169
 7076SOL    HW232862   3.727   0.311   4.430 -2.9638  1.0001  1.6023
 7077SOL     OW32863   1.853   4.535   8.281 -0.8120 -0.1600  0.2362
 7077SOL    HW132864   1.890   4.595   8.345  1.9144  0.3117 -1.8135
 7077SOL    HW232865   1.894   4.454   8.312 -0.1494  0.5884  1.2926
 7078SOL     OW32866   0.062   0.379   4.585  0.0392 -0.3560  0.1544
 7078SOL    HW132867   0.087   0.297   4.628 -1.0031  1.1498  3.6130
 7078SOL    HW232868   0.118   0.377   4.507  0.7954  1.3130  0.6553
 7079SOL     OW32869   1.298   1.479   3.372 -0.4573 -0.4267 -0.1195
 7079SOL    HW132870   1.257   1.562   3.348 -0.9270 -1.1774 -1.9219
 7079SOL    HW232871   1.239   1.413   3.336 -0.6848  0.0849 -0.6725
 7080SOL     OW32872   3.438   1.807   8.348 -0.2403  0.6429  0.0926
 7080SOL    HW132873   3.507   1.803   8.414 -0.1134 -0.2157 -0.0832
 7080SOL    HW232874   3.358   1.845   8.383  0.4319  3.4247 -1.4733
 7081SOL     OW32875   3.301   4.629   7.509  0.2965  0.3362 -0.0382
 7081SOL    HW132876   3.390   4.598   7.526  0.7716  2.0018  0.5298
 7081SOL    HW232877   3.302   4.646   7.415  0.4596 -1.6602 -0.3811
 7082SOL     OW32878   3.338   0.330  15.080  0.4730 -0.1076  0.0378
 7082SOL    HW132879   3.284   0.307  15.156  0.2632 -1.1566 -0.4327
 7082SOL    HW232880   3.396   0.254  15.083 -1.1065 -1.2737  1.2944
 7083SOL     OW32881   1.222   0.638   8.487  0.1154 -0.4374 -0.1241
 7083SOL    HW132882   1.262   0.691   8.418  0.4687  0.2767  0.6277
 7083SOL    HW232883   1.239   0.553   8.446  2.0041  0.6199 -1.5619
 7084SOL     OW32884   2.255   4.362   7.186  0.1360 -0.2549 -0.1114
 7084SOL    HW132885   2.271   4.445   7.232 -0.1056  0.5176 -1.4230
 7084SOL    HW232886   2.162   4.369   7.167  0.0089  0.3453  0.7420
 7085SOL     OW32887   1.149   2.914  16.893  0.1563  0.3076 -0.3073
 7085SOL    HW132888   1.078   2.850  16.888 -0.4613  1.0653 -1.2899
 7085SOL    HW232889   1.117   2.987  16.947 -0.3806 -1.1218  1.3148
 7086SOL     OW32890   1.172   3.133   8.668  0.2341 -0.4020  0.2598
 7086SOL    HW132891   1.114   3.157   8.740  0.4283 -0.1646  0.3365
 7086SOL    HW232892   1.173   3.214   8.617 -3.7173 -0.8794 -0.6044
 7087SOL     OW32893   0.737   0.395   3.662  0.2395 -0.3580 -0.0145
 7087SOL    HW132894   0.683   0.360   3.733 -0.0455  1.3319  0.6052
 7087SOL    HW232895   0.717   0.334   3.591  0.7624  0.1541 -0.5992
 7088SOL     OW32896   1.466   2.451  17.646  0.6931  0.0605  0.4207
 7088SOL    HW132897   1.415   2.415  17.717  0.5218  0.9313  0.7420
 7088SOL    HW232898   1.449   2.389  17.575  0.4205 -0.8943  1.3279
 7089SOL     OW32899   1.061   3.985   1.633 -0.0396 -0.9962  0.0034
 7089SOL    HW132900   1.048   3.891   1.619  3.4665 -1.9974  3.4381
 7089SOL    HW232901   1.038   4.008   1.723  0.0421  0.3974 -0.3369
 7090SOL     OW32902   2.663   4.673   9.362  0.5518  0.3096  0.3090
 7090SOL    HW132903   2.572   4.699   9.367  0.8182  1.5604 -1.4516
 7090SOL    HW232904   2.710   0.012   9.329  0.1533  0.6815  0.6071
 7091SOL     OW32905   0.536   0.758   8.583 -0.3471 -0.1403  0.1738
 7091SOL    HW132906   0.493   0.713   8.510  0.6953  0.6182 -0.8946
 7091SOL    HW232907   0.505   0.847   8.567 -1.1667 -0.6593 -1.2148
 7092SOL     OW32908   0.268   4.201   7.964  0.0930 -0.0434 -0.1911
 7092SOL    HW132909   0.191   4.185   7.909  1.0218 -0.8961 -1.2386
 7092SOL    HW232910   0.293   4.290   7.940  1.4452 -0.4242 -0.1713
 7093SOL     OW32911   4.207   0.480   5.540 -0.4617  0.1967 -0.0550
 7093SOL    HW132912   4.254   0.511   5.618  1.5981  0.3597 -1.3683
 7093SOL    HW232913   4.244   0.392   5.534 -1.4749 -0.3055  1.1231
 7094SOL     OW32914   2.307   3.199  11.282  0.1513  0.4049  0.0610
 7094SOL    HW132915   2.392   3.217  11.241 -0.1614 -0.7247 -1.0783
 7094SOL    HW232916   2.327   3.114  11.320  3.1328  0.9826 -0.1401
 7095SOL     OW32917   4.167   3.887   6.983  0.3007  0.3361 -0.5476
 7095SOL    HW132918   4.092   3.853   7.031 -0.2342  2.5036  0.1696
 7095SOL    HW232919   4.166   3.822   6.913  0.5538  0.1822 -0.4096
 7096SOL     OW32920   1.096   3.479   5.979  0.2559 -0.3231  0.4415
 7096SOL    HW132921   1.104   3.512   5.889  0.9554 -2.0088 -0.1081
 7096SOL    HW232922   1.031   3.409   5.973  0.6593 -0.8458  2.3672
 7097SOL     OW32923   2.803   1.093   6.251 -0.1877 -0.1273  0.0173
 7097SOL    HW132924   2.728   1.143   6.282 -0.5007 -0.2216 -0.5990
 7097SOL    HW232925   2.843   1.175   6.222  1.5347  0.1144  3.0687
 7098SOL     OW32926   4.579   2.581  13.014 -0.1533  0.6161 -0.1643
 7098SOL    HW132927   4.595   2.567  12.921 -2.5104 -1.4672 -0.2423
 7098SOL    HW232928   4.607   2.502  13.060 -3.4252 -1.9914 -2.7323
 7099SOL     OW32929   4.712   1.965   8.330  0.5725 -0.2576 -0.0269
 7099SOL    HW132930   0.020   1.952   8.414 -1.0242 -1.6491  0.6026
 7099SOL    HW232931   4.709   1.876   8.296  0.0053 -0.8956  1.6679
 7100SOL     OW32932   3.594   0.184   7.977  0.0145  0.0631 -0.2197
 7100SOL    HW132933   3.616   0.276   7.993  1.5719 -0.3852  0.1883
 7100SOL    HW232934   3.657   0.177   7.905  2.1075 -0.6448  1.6754
 7101SOL     OW32935   2.680   4.103   0.450  0.1446  0.0062 -0.1313
 7101SOL    HW132936   2.680   4.198   0.463  1.3274 -0.1164  0.7930
 7101SOL    HW232937   2.588   4.085   0.430 -0.0358 -2.7223  3.0718
 7102SOL     OW32938   0.064   0.480   1.615 -0.8845  0.3038 -0.2062
 7102SOL    HW132939   0.130   0.455   1.679  0.5573  3.3363 -0.4767
 7102SOL    HW232940   0.076   0.575   1.618 -0.5680  0.2655 -0.2081
 7103SOL     OW32941   1.069   0.742  13.193  0.6920 -0.4084 -0.4050
 7103SOL    HW132942   1.009   0.668  13.188  0.4016 -0.0605 -2.1896
 7103SOL    HW232943   1.102   0.751  13.103  1.6576 -5.3413 -0.5670
 7104SOL     OW32944   1.716   3.044  13.952 -0.0442 -0.6238  0.8669
 7104SOL    HW132945   1.649   3.075  13.891  0.5714 -1.7038 -0.3738
 7104SOL    HW232946   1.797   3.094  13.937  0.4608 -1.9174 -0.7747
 7105SOL     OW32947   0.439   4.529  12.053  0.0428  0.6629 -0.1572
 7105SOL    HW132948   0.345   4.516  12.065 -0.2963  1.7070 -1.6586
 7105SOL    HW232949   0.471   4.470  12.121  0.2749 -0.2598 -1.0706
 7106SOL     OW32950   0.947   4.633   1.407  0.3528  0.5362  0.3401
 7106SOL    HW132951   0.901   4.575   1.346  3.5588 -0.5769 -1.0171
 7106SOL    HW232952   1.021   4.575   1.426 -0.1594 -1.3320 -3.4533
 7107SOL     OW32953   3.250   0.411   3.680  0.2834 -0.8062 -0.7837
 7107SOL    HW132954   3.207   0.458   3.608  1.3354  0.9134 -0.2910
 7107SOL    HW232955   3.331   0.395   3.630  1.4789  0.8632  0.6183
 7108SOL     OW32956   3.736   1.269   4.229  0.4760 -0.2013 -0.2287
 7108SOL    HW132957   3.699   1.237   4.311 -0.0663 -0.3311 -0.5289
 7108SOL    HW232958   3.717   1.193   4.174  1.9499 -0.6347 -0.1374
 7109SOL     OW32959   4.388   2.729   4.681  0.1833  0.2282  0.2424
 7109SOL    HW132960   4.473   2.732   4.638  0.8553 -1.6862  1.4438
 7109SOL    HW232961   4.328   2.759   4.613 -1.0349 -0.6932  0.9230
 7110SOL     OW32962   2.023   0.909   1.194  0.4603 -0.5254 -0.1917
 7110SOL    HW132963   2.041   0.836   1.254  1.9513 -0.2300 -0.2658
 7110SOL    HW232964   1.972   0.864   1.127  0.6530  0.6645 -1.1339
 7111SOL     OW32965   1.363   3.635   4.016  0.0065 -0.2052 -0.3431
 7111SOL    HW132966   1.458   3.631   4.005  0.0865  0.7414  0.0074
 7111SOL    HW232967   1.350   3.729   4.007  1.1839  0.0792  0.9596
 7112SOL     OW32968   0.662   3.798   6.386 -0.5482  0.0150 -0.0225
 7112SOL    HW132969   0.590   3.853   6.417  1.4202  2.0641  0.8879
 7112SOL    HW232970   0.710   3.771   6.465 -0.5064 -0.8060 -0.3236
 7113SOL     OW32971   3.685   1.158   5.555 -0.0135  0.2363 -0.3620
 7113SOL    HW132972   3.617   1.133   5.492  0.1812  0.3744 -0.6305
 7113SOL    HW232973   3.631   1.179   5.631 -0.5539  0.2759 -0.7520
 7114SOL     OW32974   0.948   1.156   2.520 -0.0754 -0.0388  0.1606
 7114SOL    HW132975   1.006   1.218   2.475 -2.8401  1.2787 -1.5941
 7114SOL    HW232976   0.904   1.215   2.581  1.0626  1.1002 -0.1150
 7115SOL     OW32977   1.513   1.371  11.811  0.3900 -0.2071  0.2899
 7115SOL    HW132978   1.529   1.298  11.752 -2.5996 -1.0149  0.4369
 7115SOL    HW232979   1.574   1.433  11.772  0.4369  0.1830  0.9901
 7116SOL     OW32980   3.574   4.492   9.454 -0.1163 -0.4556  0.0140
 7116SOL    HW132981   3.494   4.529   9.416 -1.4515 -1.0640  2.2102
 7116SOL    HW232982   3.580   4.411   9.402  3.2204 -0.5273  0.4966
 7117SOL     OW32983   2.775   2.398   7.778 -0.3498 -0.3199  0.3855
 7117SOL    HW132984   2.701   2.340   7.796 -1.1871  0.4842 -0.4480
 7117SOL    HW232985   2.793   2.358   7.693  0.0233 -1.3096  0.9228
 7118SOL     OW32986   1.675   0.017   3.063 -0.1163  0.4039  0.4805
 7118SOL    HW132987   1.768   0.041   3.062 -0.0229  0.1075  1.8069
 7118SOL    HW232988   1.681   4.660   3.048 -0.3561  0.5789 -0.7154
 7119SOL     OW32989   0.967   4.633  14.916 -0.0164  0.0990  0.2314
 7119SOL    HW132990   0.940   4.550  14.878  1.7647  0.0768 -0.9886
 7119SOL    HW232991   1.062   4.623  14.904 -0.2237 -0.7584 -0.6185
 7120SOL     OW32992   3.266   2.453   8.512 -0.3214  0.2809  0.2416
 7120SOL    HW132993   3.306   2.513   8.575  0.8737  0.8955 -1.1160
 7120SOL    HW232994   3.257   2.372   8.562  0.1941 -0.2581 -0.5245
 7121SOL     OW32995   3.311   3.910   0.553 -0.1140 -0.6332  0.3713
 7121SOL    HW132996   3.313   3.818   0.578 -0.2868 -1.4398 -2.6703
 7121SOL    HW232997   3.285   3.956   0.633  0.3915 -2.4779  1.5929
 7122SOL     OW32998   0.223   2.916   7.645 -0.2353 -0.2585 -0.3975
 7122SOL    HW132999   0.264   2.984   7.590  0.5782 -0.9689 -0.6607
 7122SOL    HW233000   0.145   2.905   7.590  0.2175 -0.9568 -0.8996
 7123SOL     OW33001   4.363   2.613   9.452 -0.6423  0.5132 -0.0591
 7123SOL    HW133002   4.321   2.618   9.538 -0.8924  0.0615 -0.1552
 7123SOL    HW233003   4.309   2.661   9.390  1.7930  2.4885 -0.6683
 7124SOL     OW33004   3.495   0.210  17.719 -0.1227 -0.1005 -0.7049
 7124SOL    HW133005   3.487   0.118  17.745 -1.0697  0.5154  1.1700
 7124SOL    HW233006   3.414   0.222  17.669 -0.3595 -1.6899 -0.6881
 7125SOL     OW33007   2.893   2.654   7.354 -0.8913  0.0076 -0.3648
 7125SOL    HW133008   2.838   2.584   7.317 -1.2158 -0.6819  1.4241
 7125SOL    HW233009   2.966   2.634   7.296 -1.5876  0.1295 -1.2878
 7126SOL     OW33010   4.681   0.972  10.782 -0.1180 -0.4197  0.0779
 7126SOL    HW133011   0.030   0.933  10.767  0.1337  0.0892  0.1910
 7126SOL    HW233012   4.694   1.056  10.827 -0.7511 -1.0719  1.4921
 7127SOL     OW33013   2.571   1.193   7.178 -0.6265 -0.3436  0.0653
 7127SOL    HW133014   2.639   1.132   7.206  0.0152  0.6409  0.6484
 7127SOL    HW233015   2.515   1.136   7.125  1.6138 -1.8680 -0.6117
 7128SOL     OW33016   0.634   4.377  12.736  0.5203 -0.7416 -0.0288
 7128SOL    HW133017   0.629   4.283  12.720  2.4779 -0.6985 -0.9395
 7128SOL    HW233018   0.728   4.393  12.743  1.1472 -3.4004 -2.5731
 7129SOL     OW33019   3.984   1.080   4.002  0.5779 -0.0318 -0.0904
 7129SOL    HW133020   4.031   1.016   3.949  1.0736 -0.8219  1.3083
 7129SOL    HW233021   4.012   1.051   4.089 -0.9027  3.0931  1.4518
 7130SOL     OW33022   4.231   0.943   9.138 -0.6889  0.5212 -0.3657
 7130SOL    HW133023   4.324   0.966   9.129 -0.7729  1.3763  0.9753
 7130SOL    HW233024   4.245   0.873   9.201 -0.0454 -1.7569 -3.0091
 7131SOL     OW33025   0.812   4.010   5.269 -0.2434 -0.7941 -0.2364
 7131SOL    HW133026   0.733   4.011   5.215 -0.2859  0.0252 -0.1673
 7131SOL    HW233027   0.785   3.995   5.359  1.2354  0.4734  0.4065
 7132SOL     OW33028   3.492   2.426   8.853 -0.5429  0.0431 -0.2475
 7132SOL    HW133029   3.531   2.413   8.766  1.0089  1.6201  0.2147
 7132SOL    HW233030   3.471   2.337   8.882 -0.1394 -0.3620 -1.1747
 7133SOL     OW33031   0.510   1.408   4.244 -0.3072  0.3736 -0.3247
 7133SOL    HW133032   0.553   1.328   4.214 -0.2150  0.8012 -1.3107
 7133SOL    HW233033   0.492   1.385   4.335  0.6827  1.7202  0.2155
 7134SOL     OW33034   0.507   3.828   9.269  0.1489 -0.1256 -0.0042
 7134SOL    HW133035   0.435   3.813   9.330 -0.1371  1.8516  0.1351
 7134SOL    HW233036   0.495   3.922   9.259 -2.4227 -0.3262  1.3486
 7135SOL     OW33037   2.980   0.053   8.815 -0.1783 -0.1646 -0.2487
 7135SOL    HW133038   2.987   4.694   8.812 -0.0473 -0.1389 -0.8295
 7135SOL    HW233039   3.027   0.078   8.735 -1.1263 -2.8256 -1.6580
 7136SOL     OW33040   1.590   3.677  15.359 -0.5248  0.4095  0.6097
 7136SOL    HW133041   1.611   3.695  15.267  0.4751 -2.4399  0.2923
 7136SOL    HW233042   1.598   3.582  15.357  0.8314  0.5596 -0.9879
 7137SOL     OW33043   4.466   2.092   8.276  0.1614  0.0370  0.7611
 7137SOL    HW133044   4.426   2.009   8.252 -0.3207  0.4060  0.2883
 7137SOL    HW233045   4.557   2.065   8.291 -0.8880 -3.4076  0.8770
 7138SOL     OW33046   1.508   2.784  14.977  0.2131 -0.1002  0.5608
 7138SOL    HW133047   1.510   2.689  14.964  0.3365 -0.1785  1.1294
 7138SOL    HW233048   1.417   2.800  14.952  0.3616 -0.9208 -0.4981
 7139SOL     OW33049   3.010   2.344   9.755 -0.2731  0.1901  0.9048
 7139SOL    HW133050   2.931   2.298   9.785 -0.2799 -0.0154  0.5696
 7139SOL    HW233051   3.024   2.413   9.820  0.2032  0.2797  0.7017
 7140SOL     OW33052   1.802   1.224   6.762 -0.0049  0.0284 -0.7027
 7140SOL    HW133053   1.885   1.256   6.726 -0.0936  0.6320 -0.3611
 7140SOL    HW233054   1.782   1.156   6.698  0.7440 -0.4862 -0.3815
 7141SOL     OW33055   2.942   0.307   5.878 -0.4132  0.8576 -0.4855
 7141SOL    HW133056   2.941   0.213   5.899 -2.3253  0.8106 -0.7346
 7141SOL    HW233057   2.868   0.311   5.816  0.5546  3.6882 -1.4421
 7142SOL     OW33058   0.299   0.133   6.818  0.3101 -0.1379 -0.0120
 7142SOL    HW133059   0.231   0.070   6.839 -0.1175  0.5776  0.7261
 7142SOL    HW233060   0.381   0.090   6.843  0.1682 -0.4405 -0.0677
 7143SOL     OW33061   4.025   4.635   0.311 -0.0386 -0.0482 -0.1927
 7143SOL    HW133062   4.026   4.728   0.289 -2.3474 -0.2745 -1.2956
 7143SOL    HW233063   3.931   4.629   0.327 -0.1750  0.7795 -0.6944
 7144SOL     OW33064   0.847   4.439  14.802 -0.2916  0.0615  0.0637
 7144SOL    HW133065   0.794   4.509  14.764 -0.5154  0.6350  1.4175
 7144SOL    HW233066   0.773   4.378  14.802 -0.4836  0.2931  0.0103
 7145SOL     OW33067   4.482   1.188   8.288  0.1745  0.4563 -0.0348
 7145SOL    HW133068   4.430   1.132   8.230 -0.6186 -0.1948  1.3029
 7145SOL    HW233069   4.552   1.223   8.233  0.1739 -0.4697 -0.6420
 7146SOL     OW33070   2.278   4.670  15.996 -0.1319 -0.2354  0.0198
 7146SOL    HW133071   2.249   4.686  16.086 -0.4164  0.9503 -0.2857
 7146SOL    HW233072   2.228   4.592  15.970 -1.8602  0.8966 -0.0529
 7147SOL     OW33073   3.740   1.798   6.357  0.2296  0.1772 -0.2818
 7147SOL    HW133074   3.812   1.776   6.416 -0.0337  1.9455  0.7145
 7147SOL    HW233075   3.795   1.854   6.302 -0.0960 -1.6222 -2.4280
 7148SOL     OW33076   2.393   2.584   6.948 -0.7637  0.1005  0.0708
 7148SOL    HW133077   2.485   2.576   6.974 -1.0226  0.2115  1.0334
 7148SOL    HW233078   2.358   2.504   6.987  1.9061 -0.3416  1.5848
 7149SOL     OW33079   1.801   1.306   4.231 -0.6754 -0.4234  0.8032
 7149SOL    HW133080   1.789   1.216   4.202 -0.9826 -0.1739  0.1428
 7149SOL    HW233081   1.895   1.322   4.230 -0.6370 -0.8081 -1.3842
 7150SOL     OW33082   3.649   2.255  11.386 -0.4598 -0.2275  0.3150
 7150SOL    HW133083   3.629   2.201  11.463 -3.2507 -2.9270 -2.3069
 7150SOL    HW233084   3.626   2.343  11.414  0.2172  0.2185 -0.5439
 7151SOL     OW33085   2.954   4.043   0.472  0.2505  0.3722 -0.1783
 7151SOL    HW133086   2.999   4.108   0.527 -1.0571  0.9954  0.1649
 7151SOL    HW233087   2.861   4.068   0.468  0.1916  0.3613  0.9403
 7152SOL     OW33088   0.123   4.667   7.962  0.5443  0.4710 -0.3034
 7152SOL    HW133089   0.159   4.655   7.874 -0.1919 -0.2643 -0.4999
 7152SOL    HW233090   0.202   4.714   7.991  0.1054  0.4042  0.9975
 7153SOL     OW33091   2.929   1.206   8.736 -0.0223  0.5529 -0.7438
 7153SOL    HW133092   2.920   1.171   8.825  2.4931  2.2950  0.1825
 7153SOL    HW233093   3.024   1.217   8.734 -0.2261  2.8720  2.5962
 7154SOL     OW33094   2.087   3.967   8.652 -0.3716 -0.0732 -0.0432
 7154SOL    HW133095   2.123   4.049   8.618  1.2460 -0.9003 -0.2677
 7154SOL    HW233096   2.168   3.917   8.657  0.6265  1.4282 -1.4395
 7155SOL     OW33097   2.519   2.473   0.845  0.1027 -0.4041 -0.2894
 7155SOL    HW133098   2.609   2.465   0.814 -0.6983 -1.3936 -2.2836
 7155SOL    HW233099   2.478   2.398   0.803 -3.3280  0.6955  1.1113
 7156SOL     OW33100   2.363   4.118   9.049  0.5097  0.1932 -0.2194
 7156SOL    HW133101   2.452   4.136   9.018  0.5515  1.1718  0.4565
 7156SOL    HW233102   2.316   4.192   9.009  0.1159 -0.3040 -0.6701
 7157SOL     OW33103   3.744   0.029   9.154 -0.2448  0.1574 -0.1720
 7157SOL    HW133104   3.820   4.708   9.156 -1.4914 -1.5927 -2.0603
 7157SOL    HW233105   3.751   0.062   9.243 -0.9991  0.5689 -0.2614
 7158SOL     OW33106   3.928   1.619   0.280  0.8775 -0.3594  0.1672
 7158SOL    HW133107   3.998   1.555   0.268  1.5083 -0.0135  2.1380
 7158SOL    HW233108   3.974   1.703   0.285  1.2361 -0.4659 -1.2626
 7159SOL     OW33109   2.581   0.014   5.836  0.6409 -0.2802  0.1539
 7159SOL    HW133110   2.630   0.094   5.819  0.5972 -0.5337 -1.2177
 7159SOL    HW233111   2.627   4.682   5.787 -0.2279 -1.0773  0.4571
 7160SOL     OW33112   3.565   4.529   6.932 -0.3333  0.0062  0.8688
 7160SOL    HW133113   3.484   4.577   6.916  0.7740  1.3089 -0.8534
 7160SOL    HW233114   3.539   4.467   7.000  2.7243  0.8896  2.8624
 7161SOL     OW33115   0.241   2.716   9.166 -0.0922  0.0123 -0.1945
 7161SOL    HW133116   0.188   2.791   9.190 -1.4674 -0.4120 -1.8960
 7161SOL    HW233117   0.231   2.721   9.071  3.0460 -1.7338 -0.6443
 7162SOL     OW33118   1.029   1.704   0.543 -0.0997 -0.0575 -0.0495
 7162SOL    HW133119   1.016   1.746   0.628 -0.6814 -0.9589  0.3132
 7162SOL    HW233120   1.002   1.773   0.483  2.8315  1.2561  0.1649
 7163SOL     OW33121   3.313   2.303   6.579  0.1274 -0.1804  0.0435
 7163SOL    HW133122   3.226   2.311   6.620 -0.2678 -1.6898 -0.5016
 7163SOL    HW233123   3.307   2.219   6.533 -0.6686 -0.5317  0.7779
 7164SOL     OW33124   0.605   1.645   7.818 -0.0099  0.0057  1.1217
 7164SOL    HW133125   0.629   1.733   7.787 -0.4352 -0.2927 -0.0473
 7164SOL    HW233126   0.563   1.616   7.736  1.3157  0.0627  0.4263
 7165SOL     OW33127   1.206   0.419   9.036 -0.2799  0.3815 -0.2598
 7165SOL    HW133128   1.200   0.349   8.971 -2.0691  1.5977 -1.3909
 7165SOL    HW233129   1.276   0.391   9.095 -0.2315  0.7072 -0.1596
 7166SOL     OW33130   4.185   2.764  13.199  0.4262 -0.3825 -0.6028
 7166SOL    HW133131   4.276   2.737  13.192  1.2125  2.1870 -0.2998
 7166SOL    HW233132   4.182   2.789  13.292 -0.9141  0.0616 -0.7589
 7167SOL     OW33133   1.813   3.918  11.534  0.7876  0.5064 -0.5702
 7167SOL    HW133134   1.805   3.869  11.616  1.8562  1.5804  0.1788
 7167SOL    HW233135   1.763   3.994  11.566  2.8960  0.9046  1.7981
 7168SOL     OW33136   3.744   1.572   9.559  0.2046 -0.4294 -0.2489
 7168SOL    HW133137   3.653   1.566   9.529  0.7921 -4.8776 -1.2733
 7168SOL    HW233138   3.795   1.584   9.479 -0.3000  1.4783 -0.2791
 7169SOL     OW33139   0.099   3.449  10.225  0.3786 -0.2093  0.3960
 7169SOL    HW133140   0.063   3.520  10.279  0.6802  0.0672  0.2281
 7169SOL    HW233141   0.123   3.488  10.141  0.5768  0.8337  0.9405
 7170SOL     OW33142   0.277   3.540   2.580  0.1305  0.0834  0.4492
 7170SOL    HW133143   0.280   3.635   2.574  0.2034  0.1582  1.7235
 7170SOL    HW233144   0.253   3.528   2.672  0.7973 -0.7470  0.5163
 7171SOL     OW33145   0.335   2.276   6.767 -0.1331  0.4759 -0.5665
 7171SOL    HW133146   0.310   2.314   6.683  0.5892 -0.7563 -1.3448
 7171SOL    HW233147   0.250   2.270   6.811 -1.1573 -0.6382 -2.7066
 7172SOL     OW33148   1.036   1.389   3.885  0.1498  0.1893  0.0394
 7172SOL    HW133149   1.044   1.418   3.975 -1.6188  1.1951 -0.1322
 7172SOL    HW233150   1.128   1.389   3.859  0.2141  1.5000  0.2492
 7173SOL     OW33151   2.305   3.294   4.954 -0.6823  0.1169  0.0545
 7173SOL    HW133152   2.381   3.351   4.943  0.6779 -1.2643  2.2025
 7173SOL    HW233153   2.242   3.327   4.891 -0.0814  0.1203 -0.5435
 7174SOL     OW33154   3.282   1.092   9.831 -0.1098  0.6120 -0.2556
 7174SOL    HW133155   3.251   1.002   9.836  0.1035  0.4530 -1.7664
 7174SOL    HW233156   3.362   1.082   9.882 -0.7840  3.3463  1.3658
 7175SOL     OW33157   1.495   0.453   7.770  0.3437  0.2417  0.1456
 7175SOL    HW133158   1.503   0.477   7.678 -2.9617 -0.1344 -0.2491
 7175SOL    HW233159   1.404   0.468   7.797  0.4807  0.9872  0.1700
 7176SOL     OW33160   0.099   2.330   3.395  0.1406  0.4680 -0.3098
 7176SOL    HW133161   0.043   2.343   3.319 -1.5262 -1.8182  0.5248
 7176SOL    HW233162   0.062   2.251   3.434  1.1578  0.2131  0.1378
 7177SOL     OW33163   3.288   2.026   6.459 -0.0234  0.0884 -0.0032
 7177SOL    HW133164   3.328   1.961   6.401  1.2183 -0.2185  1.2147
 7177SOL    HW233165   3.228   1.963   6.500  0.7140  0.1282  1.1226
 7178SOL     OW33166   1.869   1.871   1.252 -0.2055  0.6967  0.2557
 7178SOL    HW133167   1.788   1.823   1.233  0.1209 -1.5940  4.6939
 7178SOL    HW233168   1.879   1.923   1.172 -0.0606 -0.0533 -0.2217
 7179SOL     OW33169   1.667   3.646  17.471 -0.2361  0.0811  0.2054
 7179SOL    HW133170   1.694   3.730  17.434 -0.8372  1.0371  1.9455
 7179SOL    HW233171   1.606   3.606  17.408  2.3580 -2.7381 -0.5566
 7180SOL     OW33172   1.406   0.297   1.593 -0.4540 -0.2014  0.6802
 7180SOL    HW133173   1.373   0.262   1.676  0.4047 -3.5179 -0.3803
 7180SOL    HW233174   1.328   0.295   1.537  0.2932 -0.2328 -0.3742
 7181SOL     OW33175   2.564   1.789   2.864  0.0316  0.3505  0.0306
 7181SOL    HW133176   2.521   1.713   2.903  2.0995 -2.6432 -3.5316
 7181SOL    HW233177   2.649   1.747   2.853 -0.0520 -0.3518  2.1000
 7182SOL     OW33178   1.587   3.208   6.881 -0.2166 -0.6292 -0.0673
 7182SOL    HW133179   1.554   3.141   6.822 -0.5760 -0.9782  0.5297
 7182SOL    HW233180   1.669   3.168   6.911  0.5165  2.5898  2.3195
 7183SOL     OW33181   2.357   3.962   3.520  0.5524  0.0676 -0.4398
 7183SOL    HW133182   2.395   3.926   3.440  0.1572  0.5785 -0.8533
 7183SOL    HW233183   2.322   4.045   3.487 -0.8451 -0.3784 -0.0598
 7184SOL     OW33184   2.005   4.668   5.712 -0.0690  0.0501  0.8114
 7184SOL    HW133185   2.029   0.003   5.771  0.0439  1.3894 -0.8643
 7184SOL    HW233186   2.068   4.684   5.642  0.2238 -0.9762  0.8372
 7185SOL     OW33187   0.410   4.222  11.913  0.0233  0.0708 -0.1279
 7185SOL    HW133188   0.400   4.196  12.004  1.3381 -2.7647 -0.8106
 7185SOL    HW233189   0.505   4.235  11.909  0.0481 -0.7218 -2.2758
 7186SOL     OW33190   3.486   3.112   3.857  0.2825 -0.2578 -0.2936
 7186SOL    HW133191   3.567   3.070   3.826 -0.1911 -2.0788  0.9083
 7186SOL    HW233192   3.443   3.132   3.774  2.3153 -0.4001 -1.3790
 7187SOL     OW33193   3.327   4.259  12.530 -0.6823 -0.2135  0.5059
 7187SOL    HW133194   3.333   4.352  12.555 -0.3362  0.3686 -1.7522
 7187SOL    HW233195   3.307   4.214  12.612  0.7656  2.2850  2.2381
 7188SOL     OW33196   2.767   1.452   8.709  0.0576 -0.4213 -0.0303
 7188SOL    HW133197   2.811   1.367   8.712 -0.0747 -0.4553  0.9854
 7188SOL    HW233198   2.675   1.437   8.692  0.0619  1.0949 -1.4032
 7189SOL     OW33199   3.643   4.133   9.028 -0.1089  0.4347 -0.6682
 7189SOL    HW133200   3.730   4.170   9.037 -0.0578 -0.0878  0.9595
 7189SOL    HW233201   3.595   4.216   9.018 -1.1168  0.1563  1.8298
 7190SOL     OW33202   4.498   2.080   6.174  0.2026 -0.6906  0.6133
 7190SOL    HW133203   4.561   2.129   6.121  0.0808 -1.0416  0.1455
 7190SOL    HW233204   4.484   2.004   6.118  1.6022 -0.5058  0.0165
 7191SOL     OW33205   2.890   4.722   6.240 -0.2696  0.4535 -0.2742
 7191SOL    HW133206   2.832   4.660   6.284  0.4871 -0.3983 -0.4805
 7191SOL    HW233207   2.853   4.716   6.152 -1.0831  1.2082  0.0156
 7192SOL     OW33208   1.393   0.642  12.998 -0.0660 -0.2075  0.2733
 7192SOL    HW133209   1.346   0.564  12.970 -1.5794  0.3475  1.2524
 7192SOL    HW233210   1.434   0.601  13.074  0.7578  0.7608  0.3471
 7193SOL     OW33211   0.994   0.951   1.911 -0.4795  0.0147 -0.0923
 7193SOL    HW133212   0.969   0.971   2.001  2.8118  1.7234  0.4404
 7193SOL    HW233213   0.915   0.964   1.859 -0.7057 -1.9021 -0.2317
 7194SOL     OW33214   3.882   4.260   5.416 -0.1500  0.1243 -0.3162
 7194SOL    HW133215   3.928   4.221   5.491  1.0685 -0.1531 -1.1936
 7194SOL    HW233216   3.926   4.228   5.337 -2.8692  0.1878 -1.8504
 7195SOL     OW33217   2.405   1.388   5.613  0.2687 -0.3547 -0.1306
 7195SOL    HW133218   2.447   1.317   5.662 -1.8614 -1.5462 -0.0588
 7195SOL    HW233219   2.461   1.465   5.617 -1.1315  0.5506  1.5321
 7196SOL     OW33220   0.931   2.769   5.943  0.1231  0.1281  0.0232
 7196SOL    HW133221   1.018   2.804   5.924 -0.9882  2.6376 -0.3517
 7196SOL    HW233222   0.879   2.841   5.906  1.1544  0.4240 -0.8650
 7197SOL     OW33223   3.770   3.815   7.046 -0.3915  0.5647 -0.2375
 7197SOL    HW133224   3.856   3.803   7.086 -0.4324 -1.1672 -0.6400
 7197SOL    HW233225   3.781   3.910   7.045  2.1651  0.2583 -2.0203
 7198SOL     OW33226   4.587   2.436  11.539  0.5675  0.0197 -0.5944
 7198SOL    HW133227   4.496   2.430  11.569  0.0289  1.2787 -1.9497
 7198SOL    HW233228   4.587   2.521  11.494  3.4395  1.5683  2.3075
 7199SOL     OW33229   1.416   2.965  14.579 -0.2316 -0.3841  0.0671
 7199SOL    HW133230   1.425   3.037  14.518  1.9455 -1.0495 -0.3756
 7199SOL    HW233231   1.502   2.980  14.617  0.3999 -0.5521 -1.3039
 7200SOL     OW33232   2.779   3.475  16.427 -0.4150 -0.1484  0.0055
 7200SOL    HW133233   2.829   3.416  16.371 -1.5382  0.1152 -1.2690
 7200SOL    HW233234   2.837   3.552  16.429  0.6578 -0.9847  1.9722
 7201SOL     OW33235   2.005   0.609   5.047 -0.2950  0.0289 -0.0236
 7201SOL    HW133236   1.958   0.614   4.964  1.8075 -0.2718 -1.2431
 7201SOL    HW233237   2.082   0.664   5.032  0.9268 -1.8506 -0.5970
 7202SOL     OW33238   2.546   1.008   2.649 -0.5213  0.1421 -0.0282
 7202SOL    HW133239   2.456   1.030   2.673  0.0008 -0.9840  2.9481
 7202SOL    HW233240   2.578   1.097   2.633 -1.2674  0.0749 -1.8239
 7203SOL     OW33241   1.492   2.123  16.250 -0.6790  0.4548 -0.0638
 7203SOL    HW133242   1.448   2.201  16.285 -2.1362  0.3375 -1.6632
 7203SOL    HW233243   1.559   2.149  16.187 -0.3613 -1.2678 -0.4336
 7204SOL     OW33244   0.899   2.004  11.027 -0.4295 -0.2111 -0.0334
 7204SOL    HW133245   0.993   2.010  11.043 -0.3047 -1.1337 -0.3838
 7204SOL    HW233246   0.881   1.912  11.007 -0.3187 -0.0194 -1.0141
 7205SOL     OW33247   3.045   3.451  11.816 -0.3662  0.1932 -0.0444
 7205SOL    HW133248   3.021   3.540  11.792  1.3876  0.7871  0.4435
 7205SOL    HW233249   2.997   3.450  11.899 -1.7031 -1.4832 -0.8447
 7206SOL     OW33250   3.558   3.514   1.319 -0.4199 -0.0522  0.0562
 7206SOL    HW133251   3.485   3.566   1.286 -2.3456 -2.1290  1.1553
 7206SOL    HW233252   3.608   3.583   1.364  0.4307  0.2985 -1.4197
 7207SOL     OW33253   2.405   0.421  17.651 -0.1009 -0.2220  0.2811
 7207SOL    HW133254   2.490   0.378  17.663  1.1491  1.4630 -2.5563
 7207SOL    HW233255   2.408   0.483  17.724 -0.8645 -2.6766  2.4212
 7208SOL     OW33256   1.117   2.561   2.764  0.6020  0.1370 -0.5156
 7208SOL    HW133257   1.031   2.528   2.790  0.3113 -0.7404 -2.5808
 7208SOL    HW233258   1.156   2.486   2.718  0.3673 -1.4110  1.7522
 7209SOL     OW33259   2.928   3.937  17.188  0.2850 -1.1113 -0.4160
 7209SOL    HW133260   2.927   3.931  17.283  2.4519  0.5869 -0.2915
 7209SOL    HW233261   3.012   3.980  17.170 -0.7942  1.6161  0.9767
 7210SOL     OW33262   2.843   4.051   3.661 -0.0782  0.4205  0.0277
 7210SOL    HW133263   2.781   3.997   3.709 -1.0521 -0.1665 -1.9118
 7210SOL    HW233264   2.811   4.062   3.572  0.1044 -1.6223 -0.2925
 7211SOL     OW33265   1.638   3.679   3.997  0.1002 -0.2654 -0.4840
 7211SOL    HW133266   1.726   3.657   3.967  0.5892 -0.1121  0.8178
 7211SOL    HW233267   1.665   3.751   4.054  0.0431  0.5643 -1.4942
 7212SOL     OW33268   3.522   1.860   7.988  0.4395  0.2560 -0.6994
 7212SOL    HW133269   3.447   1.828   8.037  0.3881  1.6148  0.0870
 7212SOL    HW233270   3.510   1.953   8.007 -0.6076  0.0692 -0.4763
 7213SOL     OW33271   3.193   2.123   1.118 -0.1130 -0.1238 -0.5570
 7213SOL    HW133272   3.131   2.126   1.046  0.6131  0.2693 -1.1669
 7213SOL    HW233273   3.198   2.216   1.141  1.5187 -0.1775 -0.7078
 7214SOL     OW33274   3.321   3.919   6.381  0.5969  0.1240 -0.8254
 7214SOL    HW133275   3.239   3.877   6.356 -0.2342  1.8588 -0.9900
 7214SOL    HW233276   3.380   3.863   6.332 -1.3761 -2.1633 -0.6016
 7215SOL     OW33277   3.702   0.675  14.892  0.7313 -0.0790  0.7537
 7215SOL    HW133278   3.697   0.704  14.983 -0.2764  0.2096  0.6092
 7215SOL    HW233279   3.698   0.580  14.903 -0.4603 -0.1660 -0.4058
 7216SOL     OW33280   2.266   2.518  17.231  0.0566 -0.2732  0.5271
 7216SOL    HW133281   2.245   2.598  17.279 -1.7557 -1.3440  1.5207
 7216SOL    HW233282   2.275   2.558  17.144 -1.8738 -0.3818  0.2775
 7217SOL     OW33283   4.049   4.221   2.209 -1.1621  0.1056 -0.5963
 7217SOL    HW133284   4.117   4.182   2.153 -1.5274 -0.7628 -0.4237
 7217SOL    HW233285   3.993   4.146   2.226  1.0403 -0.9563  2.0053
 7218SOL     OW33286   1.208   0.279  10.003  0.3736 -0.9012 -0.1575
 7218SOL    HW133287   1.124   0.237   9.984 -1.3864  2.3705  0.4482
 7218SOL    HW233288   1.263   0.218   9.952  1.2077  1.3113 -1.9117
 7219SOL     OW33289   0.999   1.435   4.443 -0.3303  0.0080 -0.0061
 7219SOL    HW133290   0.970   1.344   4.452  0.5723 -0.1245  1.5965
 7219SOL    HW233291   1.066   1.442   4.510  0.4452  0.7968 -0.8747
 7220SOL     OW33292   3.610   0.503   2.076  0.0971 -0.2947 -0.1197
 7220SOL    HW133293   3.669   0.577   2.093  0.8319 -0.7766 -0.5612
 7220SOL    HW233294   3.623   0.482   1.983 -0.4380 -2.0523  0.2003
 7221SOL     OW33295   0.816   0.180   4.625  0.1737  0.4568 -0.4946
 7221SOL    HW133296   0.881   0.110   4.632  0.3348  0.6461 -0.1075
 7221SOL    HW233297   0.742   0.131   4.590  0.2526 -1.1244  1.5392
 7222SOL     OW33298   3.213   2.012   2.450  0.0745 -0.6735 -0.7478
 7222SOL    HW133299   3.265   2.019   2.531  2.3725 -0.0360 -2.2760
 7222SOL    HW233300   3.271   1.955   2.399 -0.0918 -0.9655 -0.6144
 7223SOL     OW33301   4.507   0.814   8.286 -0.5120 -0.4443  0.2390
 7223SOL    HW133302   4.463   0.750   8.231  1.6563 -1.6185 -0.1261
 7223SOL    HW233303   4.550   0.865   8.217  0.4851 -0.8970  0.5119
 7224SOL     OW33304   1.959   1.511  10.263 -0.0439  0.0287  0.1930
 7224SOL    HW133305   2.027   1.519  10.196  1.2449  0.1760  1.5308
 7224SOL    HW233306   2.006   1.461  10.329  0.6365 -0.4285 -0.6323
 7225SOL     OW33307   1.567   3.876   0.085  0.3770  0.6161  0.1130
 7225SOL    HW133308   1.546   3.967   0.065 -1.3653  0.4995  1.3934
 7225SOL    HW233309   1.505   3.858   0.156  1.1628 -1.5676  0.2328
 7226SOL     OW33310   3.531   1.451   5.234 -0.0003  0.7549  0.2992
 7226SOL    HW133311   3.619   1.426   5.262  0.4006 -0.2364 -1.7737
 7226SOL    HW233312   3.487   1.441   5.318  1.6426  1.0827  1.1974
 7227SOL     OW33313   2.345   1.356   7.173 -0.1283 -0.2588 -0.0636
 7227SOL    HW133314   2.376   1.420   7.108  2.1877  0.1970  1.4952
 7227SOL    HW233315   2.431   1.317   7.185  0.6886  1.1275 -1.3472
 7228SOL     OW33316   2.779   1.066  15.437 -0.2408  0.7722 -0.1164
 7228SOL    HW133317   2.715   1.129  15.470 -0.5968 -1.3626  3.3186
 7228SOL    HW233318   2.860   1.102  15.473  0.6766 -0.4699 -0.9178
 7229SOL     OW33319   2.191   1.380  15.989  0.5622 -0.4839  0.6267
 7229SOL    HW133320   2.283   1.399  15.967 -0.5773  1.3971 -2.5736
 7229SOL    HW233321   2.168   1.454  16.044 -1.3973 -0.3706 -0.3595
 7230SOL     OW33322   2.473   3.139   5.166 -0.0004 -0.2790 -0.0309
 7230SOL    HW133323   2.381   3.113   5.168  0.4637 -1.9830 -1.4465
 7230SOL    HW233324   2.507   3.060   5.208  2.1782  0.1573 -0.9634
 7231SOL     OW33325   2.580   3.216  11.575  0.1317  0.1107 -0.0758
 7231SOL    HW133326   2.495   3.259  11.578  0.9739  1.8303 -1.1099
 7231SOL    HW233327   2.622   3.266  11.505 -0.4440  0.1133 -0.4133
 7232SOL     OW33328   2.474   2.243  15.988 -0.5872 -0.7111 -0.4969
 7232SOL    HW133329   2.531   2.244  16.065 -1.5285 -1.1984  0.2124
 7232SOL    HW233330   2.511   2.320  15.945 -2.1225  1.1885  1.6215
 7233SOL     OW33331   1.322   3.858   6.039 -0.7368 -0.3257  0.2068
 7233SOL    HW133332   1.337   3.898   6.125  1.1550  1.0240 -0.7585
 7233SOL    HW233333   1.246   3.905   6.005  1.2371  1.4510 -1.7385
 7234SOL     OW33334   4.400   1.798  11.199 -0.1678 -0.3522 -0.8170
 7234SOL    HW133335   4.348   1.824  11.275  1.2413  1.9684 -0.6343
 7234SOL    HW233336   4.350   1.727  11.160 -0.6565 -1.8755  2.5353
 7235SOL     OW33337   3.421   4.097   3.237 -0.1537  0.1837  0.0626
 7235SOL    HW133338   3.400   4.190   3.225  0.9307  0.5263  0.8248
 7235SOL    HW233339   3.344   4.071   3.288  1.1541  0.1199  1.9812
 7236SOL     OW33340   2.575   4.600   2.082 -0.2965  0.6872 -0.4350
 7236SOL    HW133341   2.632   4.524   2.069  1.2235  2.0833 -1.8811
 7236SOL    HW233342   2.590   4.613   2.176  0.8853 -1.9833 -0.2576
 7237SOL     OW33343   4.721   0.743   5.180  0.5241  0.2568  0.2583
 7237SOL    HW133344   4.715   0.649   5.159  2.8960 -0.2514  1.9144
 7237SOL    HW233345   0.074   0.756   5.210  0.0196  2.4875  0.8136
 7238SOL     OW33346   2.963   1.061   4.598  0.5412  0.1642 -0.3563
 7238SOL    HW133347   2.892   0.999   4.586  0.3435  0.4643 -0.7544
 7238SOL    HW233348   2.908   1.139   4.597  2.3775  1.5008  2.5017
 7239SOL     OW33349   4.413   1.493  14.524 -0.4277 -0.6769  1.1388
 7239SOL    HW133350   4.482   1.439  14.562  0.4858 -1.6132 -1.8168
 7239SOL    HW233351   4.360   1.420  14.491  0.0258 -0.5718  0.1811
 7240SOL     OW33352   0.277   3.313  12.287  0.0755 -0.5799  0.1784
 7240SOL    HW133353   0.265   3.333  12.195 -1.1015  1.2282  0.7368
 7240SOL    HW233354   0.187   3.327  12.315 -0.6110 -0.4607 -2.0912
 7241SOL     OW33355   1.271   0.573   2.924 -0.0326  0.3359 -0.1935
 7241SOL    HW133356   1.270   0.647   2.863  0.6310  2.0487  1.8728
 7241SOL    HW233357   1.354   0.578   2.973 -0.0807 -0.1137 -0.0692
 7242SOL     OW33358   2.176   0.096  16.599 -0.3871  0.1144 -0.1811
 7242SOL    HW133359   2.167   0.001  16.605  0.0317  0.1256  0.5742
 7242SOL    HW233360   2.085   0.120  16.613 -0.2317  0.1733  0.7317
 7243SOL     OW33361   3.809   1.519  11.013  0.4748  0.0610 -0.7814
 7243SOL    HW133362   3.864   1.547  10.939  0.3589 -1.9445 -1.6347
 7243SOL    HW233363   3.721   1.510  10.976  0.3658 -0.7338 -0.3265
 7244SOL     OW33364   3.576   2.228   8.633 -0.6192 -0.0131 -0.4061
 7244SOL    HW133365   3.585   2.310   8.584 -1.2052  1.9022  2.7383
 7244SOL    HW233366   3.662   2.227   8.675 -1.4234 -0.1598  1.2113
 7245SOL     OW33367   0.937   1.073  17.655 -0.5017  0.3962  0.2387
 7245SOL    HW133368   0.921   1.033  17.570  1.7495 -0.5726  0.2822
 7245SOL    HW233369   1.014   1.023  17.678 -0.7913 -1.0111 -1.9274
 7246SOL     OW33370   1.318   2.112   3.639 -0.5660 -0.5737 -0.7980
 7246SOL    HW133371   1.409   2.140   3.634  0.0244 -2.0165  1.9196
 7246SOL    HW233372   1.276   2.198   3.637 -0.4782 -0.5402 -1.2421
 7247SOL     OW33373   0.833   2.694   2.677  0.2577  0.1827  0.7198
 7247SOL    HW133374   0.817   2.621   2.737 -1.7739 -2.3265 -2.8268
 7247SOL    HW233375   0.908   2.738   2.716 -0.7903  1.9240  0.7584
 7248SOL     OW33376   0.374   1.459  14.010  0.0689 -0.0146 -0.0689
 7248SOL    HW133377   0.443   1.396  13.990 -0.0821 -0.3434  0.4380
 7248SOL    HW233378   0.359   1.505  13.928 -0.4684  1.5644  0.8928
 7249SOL     OW33379   1.171   1.113  12.916 -0.4307  0.1379  0.1775
 7249SOL    HW133380   1.199   1.057  12.988  2.2130  0.9208 -0.2623
 7249SOL    HW233381   1.238   1.081  12.855  1.5265 -0.7201  2.7999
 7250SOL     OW33382   0.876   2.931  10.102  0.1787 -0.1327  0.2777
 7250SOL    HW133383   0.874   2.922  10.006  3.9985  2.2107 -0.0053
 7250SOL    HW233384   0.970   2.919  10.119 -0.0578  0.3617  1.9132
 7251SOL     OW33385   1.277   0.607   5.185  0.3382 -0.3427  0.4782
 7251SOL    HW133386   1.370   0.611   5.207  0.9538  0.2062 -2.1806
 7251SOL    HW233387   1.247   0.582   5.272 -0.8610  1.8425  0.7087
 7252SOL     OW33388   1.976   4.729   3.032 -0.4456  0.9614 -0.3807
 7252SOL    HW133389   2.026   4.728   3.113  1.4475 -0.0865 -1.5783
 7252SOL    HW233390   1.985   4.635   3.014 -0.4086  0.4489  2.3702
 7253SOL     OW33391   4.231   0.988   3.044  0.4019 -0.3076  0.1990
 7253SOL    HW133392   4.271   1.066   3.084 -0.2417  0.0586  0.1230
 7253SOL    HW233393   4.159   0.977   3.106  0.1462  0.5650  0.0591
 7254SOL     OW33394   3.702   0.030   8.436  0.1226 -0.1589  0.0940
 7254SOL    HW133395   3.651   4.688   8.420  1.7652 -1.3272  0.5355
 7254SOL    HW233396   3.757   0.015   8.514  0.1838 -1.6362 -0.2250
 7255SOL     OW33397   0.194   2.810   6.636 -0.1735 -0.1035 -0.3018
 7255SOL    HW133398   0.223   2.722   6.657  1.3486  0.2422 -0.9381
 7255SOL    HW233399   0.193   2.806   6.540  1.8116  2.9698 -0.4751
 7256SOL     OW33400   4.365   4.712   7.775  0.2429  0.0341 -0.0348
 7256SOL    HW133401   4.439   4.721   7.835 -0.9205 -0.1249  1.4094
 7256SOL    HW233402   4.397   0.036   7.707  2.1235 -0.6507  0.2257
 7257SOL     OW33403   0.704   2.694  14.539 -0.1790  0.2244 -0.0683
 7257SOL    HW133404   0.795   2.720  14.551  0.1804 -1.6813  1.2479
 7257SOL    HW233405   0.708   2.600  14.553 -1.2261  0.3702  1.2692
 7258SOL     OW33406   2.416   4.110   0.368 -0.8439 -0.1248  0.2004
 7258SOL    HW133407   2.360   4.056   0.311  0.8943  0.1346 -1.7328
 7258SOL    HW233408   2.344   4.140   0.424  0.9022 -0.6196  2.7002
 7259SOL     OW33409   3.900   0.191   6.523 -0.4891  0.1392 -0.0279
 7259SOL    HW133410   3.995   0.202   6.514 -0.3729 -2.7869 -2.4330
 7259SOL    HW233411   3.877   0.239   6.443  1.0459  2.7092  1.1029
 7260SOL     OW33412   4.167   2.975  16.634  0.2975 -0.4462  0.3999
 7260SOL    HW133413   4.156   3.070  16.635 -1.9609 -0.7188  1.2717
 7260SOL    HW233414   4.254   2.968  16.594  0.4530  0.1363  0.6403
 7261SOL     OW33415   4.683   2.280  16.038 -0.3750  0.2120 -0.1133
 7261SOL    HW133416   0.018   2.303  16.096 -1.6862 -0.4466  1.7771
 7261SOL    HW233417   4.730   2.229  15.972  0.9477 -0.5652  1.4414
 7262SOL     OW33418   3.155   4.464  12.191 -0.4180 -0.3554 -0.3105
 7262SOL    HW133419   3.243   4.473  12.153 -0.0392  0.9836  0.8974
 7262SOL    HW233420   3.104   4.520  12.132  1.5872  0.4751 -1.2720
 7263SOL     OW33421   2.281   0.162   5.074  0.0151  0.4490 -0.3112
 7263SOL    HW133422   2.280   0.079   5.027 -1.4686  0.6788 -0.7127
 7263SOL    HW233423   2.373   0.185   5.060 -0.1619  1.2304 -0.1847
 7264SOL     OW33424   3.117   0.024  11.057  0.3904 -0.2206  0.7168
 7264SOL    HW133425   3.171   4.692  11.096  0.5549  0.5450  1.8599
 7264SOL    HW233426   3.174   0.101  11.048  0.1119  0.2334  2.9546
 7265SOL     OW33427   0.401   3.345   2.823  0.1972  0.3984  0.1844
 7265SOL    HW133428   0.343   3.342   2.899 -1.2854  1.9047 -0.8909
 7265SOL    HW233429   0.456   3.272   2.851 -1.2851 -0.8711 -0.1555
 7266SOL     OW33430   3.328   2.586  14.025 -0.2476  0.4472  0.1669
 7266SOL    HW133431   3.353   2.658  13.968  1.8857 -0.0595  0.4519
 7266SOL    HW233432   3.238   2.617  14.038 -0.0270  1.3473 -0.4501
 7267SOL     OW33433   0.929   0.422   6.209  0.6277 -0.0044 -0.1783
 7267SOL    HW133434   0.861   0.486   6.231 -0.2640 -1.1846  0.5048
 7267SOL    HW233435   0.867   0.354   6.183 -0.7712  1.4640 -0.6671
 7268SOL     OW33436   4.440   2.316   8.105  0.2560  0.1804  0.1252
 7268SOL    HW133437   4.459   2.317   8.012  0.1462  2.7322  0.1235
 7268SOL    HW233438   4.425   2.227   8.137 -0.8228  0.6059  0.8189
 7269SOL     OW33439   3.400   3.447   7.069  0.0587  0.2094  0.8775
 7269SOL    HW133440   3.468   3.379   7.061 -1.4921 -1.2177 -0.1188
 7269SOL    HW233441   3.453   3.524   7.087  0.2896  0.3669 -0.5252
 7270SOL     OW33442   4.415   3.274   2.265  0.0343  0.1194 -0.0026
 7270SOL    HW133443   4.510   3.288   2.270 -0.1955  1.4282  0.6152
 7270SOL    HW233444   4.397   3.300   2.355  0.3245  0.6245 -0.0845
 7271SOL     OW33445   3.545   1.399   3.441  0.8724  0.1134 -0.2173
 7271SOL    HW133446   3.558   1.450   3.360  3.0772 -0.8199 -0.4503
 7271SOL    HW233447   3.457   1.367   3.423  1.1321  0.0067 -1.3288
 7272SOL     OW33448   2.799   0.233   7.040 -0.1807 -0.7254  0.4045
 7272SOL    HW133449   2.865   0.302   7.025 -1.0953 -0.3258 -1.7710
 7272SOL    HW233450   2.854   0.156   7.053  1.6615  0.4513 -0.3402
 7273SOL     OW33451   1.885   2.818  14.932  0.6911 -0.0942 -0.4889
 7273SOL    HW133452   1.912   2.891  14.876  0.4138  0.7265  0.4474
 7273SOL    HW233453   1.800   2.845  14.968  0.2677 -1.9155 -0.1153
 7274SOL     OW33454   1.509   4.708   8.700 -0.1864  0.3004 -0.1483
 7274SOL    HW133455   1.492   0.049   8.754  1.1055  0.1133  0.5320
 7274SOL    HW233456   1.590   4.722   8.651 -0.9837  0.2369 -1.4869
 7275SOL     OW33457   0.255   0.257   0.591  0.3697  0.0458  0.2989
 7275SOL    HW133458   0.202   0.237   0.669  2.1762 -0.6530  1.3337
 7275SOL    HW233459   0.195   0.289   0.524  0.8508 -1.6567 -0.9410
 7276SOL     OW33460   0.043   2.037   2.670 -0.0555 -0.2675  0.2355
 7276SOL    HW133461   0.097   2.045   2.749 -1.3186 -0.6443  1.1537
 7276SOL    HW233462   0.010   2.126   2.669 -1.8975 -0.9500 -0.4051
 7277SOL     OW33463   4.317   1.416   8.165  0.1691 -0.2333 -0.2770
 7277SOL    HW133464   4.363   1.476   8.107  0.9778 -1.2549 -0.6933
 7277SOL    HW233465   4.381   1.408   8.235 -1.9132  2.2539  1.9037
 7278SOL     OW33466   1.413   3.270   8.244 -0.4465  0.1053 -0.3761
 7278SOL    HW133467   1.419   3.330   8.169 -0.5277  3.9989  2.7317
 7278SOL    HW233468   1.501   3.298   8.270 -0.6504  0.2317  0.1649
 7279SOL     OW33469   0.513   4.336   5.010  0.1086  0.1342 -0.2304
 7279SOL    HW133470   0.436   4.280   5.008  1.2812 -1.4840  0.6385
 7279SOL    HW233471   0.500   4.381   5.094  1.3623  0.0347  0.0262
 7280SOL     OW33472   1.519   2.513  12.531 -0.1799 -0.1336 -0.4009
 7280SOL    HW133473   1.606   2.524  12.569  0.4278 -0.7933 -1.6122
 7280SOL    HW233474   1.469   2.557  12.599  2.5246  1.4450  0.5704
 7281SOL     OW33475   4.498   0.592   2.690  0.5348  0.3087 -0.3379
 7281SOL    HW133476   4.589   0.613   2.669  1.3606 -1.3665  1.5914
 7281SOL    HW233477   4.503   0.499   2.714 -1.6148  0.4611  0.7392
 7282SOL     OW33478   1.719   0.244   2.625 -0.5893 -0.5043  0.0178
 7282SOL    HW133479   1.792   0.193   2.590  0.9455  2.3699 -0.9747
 7282SOL    HW233480   1.753   0.250   2.714  2.1610 -2.0886 -0.9360
 7283SOL     OW33481   1.605   3.695   7.088  0.0925 -0.3106  0.4573
 7283SOL    HW133482   1.672   3.629   7.108  0.6037 -0.1233 -0.6472
 7283SOL    HW233483   1.611   3.700   6.993  0.8440 -3.6447  0.3544
 7284SOL     OW33484   0.723   3.616   4.992 -0.3282  0.4990 -0.3690
 7284SOL    HW133485   0.812   3.638   4.965  0.8347 -1.5762  1.8221
 7284SOL    HW233486   0.708   3.531   4.951 -0.9453  1.1108 -1.4208
 7285SOL     OW33487   4.314   4.123   7.064 -0.5098  0.3689  0.6530
 7285SOL    HW133488   4.263   4.204   7.065  0.8292  1.1892  3.4135
 7285SOL    HW233489   4.247   4.061   7.035  0.7052  1.2447 -3.9638
 7286SOL     OW33490   0.603   2.622  12.818  0.6239  0.7258 -0.1940
 7286SOL    HW133491   0.555   2.698  12.850  2.6632  1.7704  0.3983
 7286SOL    HW233492   0.691   2.645  12.848  0.7830  0.8044 -0.7252
 7287SOL     OW33493   1.923   0.292   4.888  0.2303  0.2362  0.4141
 7287SOL    HW133494   1.968   0.327   4.811  2.1115 -0.2887  1.2830
 7287SOL    HW233495   1.858   0.356   4.915  1.7152  0.6153  3.0111
 7288SOL     OW33496   3.654   1.872  16.726 -0.3082 -0.1838  0.1655
 7288SOL    HW133497   3.675   1.787  16.763 -1.9657  0.0571  1.6365
 7288SOL    HW233498   3.702   1.931  16.784  1.3578 -2.6868  1.3234
 7289SOL     OW33499   4.156   0.726   6.399  0.5741 -0.2604  0.2883
 7289SOL    HW133500   4.081   0.669   6.417 -0.5788  1.7372  1.8727
 7289SOL    HW233501   4.152   0.728   6.303 -3.5341 -0.6179  0.4326
 7290SOL     OW33502   2.623   4.701   6.856 -0.0782 -0.0376  0.4809
 7290SOL    HW133503   2.631   0.041   6.799  0.3984 -0.5018 -0.0830
 7290SOL    HW233504   2.624   4.629   6.792 -2.2794  1.0484 -0.7857
 7291SOL     OW33505   0.831   3.265  13.164  0.0415 -0.1624 -0.0575
 7291SOL    HW133506   0.787   3.183  13.189  0.6446 -1.2495 -2.5663
 7291SOL    HW233507   0.803   3.281  13.074  0.0805 -1.7220 -0.3448
 7292SOL     OW33508   4.373   2.061   9.176 -0.1249 -0.3092 -0.9829
 7292SOL    HW133509   4.343   2.151   9.187  0.1148  0.1216 -3.8511
 7292SOL    HW233510   4.289   2.017   9.166 -0.7532  1.2526 -2.4368
 7293SOL     OW33511   0.335   2.361  12.375 -0.0914  0.1222  0.0927
 7293SOL    HW133512   0.400   2.430  12.362 -0.4365  0.4414  0.0502
 7293SOL    HW233513   0.272   2.384  12.443 -1.1438 -0.8149 -0.5601
 7294SOL     OW33514   0.152   0.798   2.201 -0.4487  0.4622  0.0229
 7294SOL    HW133515   0.208   0.754   2.266  0.6999  0.6560 -0.8508
 7294SOL    HW233516   0.069   0.805   2.248  0.9758  3.1796  2.1173
 7295SOL     OW33517   1.938   1.776   5.721  0.3661  0.0446  0.2088
 7295SOL    HW133518   1.894   1.703   5.677  1.2010 -0.1769 -0.2411
 7295SOL    HW233519   1.922   1.834   5.647 -1.6296 -0.8535 -0.0788
 7296SOL     OW33520   1.516   0.029   7.169  0.5362 -0.1643  0.5074
 7296SOL    HW133521   1.464   4.691   7.139  0.2097 -0.2088  1.1911
 7296SOL    HW233522   1.603   4.726   7.174  0.2656 -0.6736  1.1963
 7297SOL     OW33523   2.093   3.780   4.536  0.5590  0.6800 -0.3274
 7297SOL    HW133524   2.027   3.849   4.533  0.0536  0.2004 -0.0080
 7297SOL    HW233525   2.077   3.754   4.626 -3.5541  0.0819 -1.2245
 7298SOL     OW33526   2.755   4.402   8.539 -0.2451 -0.0971  0.2173
 7298SOL    HW133527   2.758   4.494   8.567  0.6077  0.2307 -0.9508
 7298SOL    HW233528   2.840   4.399   8.495  0.2710  1.1322  1.0938
 7299SOL     OW33529   3.453   3.089   6.894 -0.3024  0.1834  0.2027
 7299SOL    HW133530   3.442   3.074   6.988  2.8874 -0.6214  0.4531
 7299SOL    HW233531   3.380   3.039   6.857 -1.2295  1.2294  0.6274
 7300SOL     OW33532   4.587   4.521   3.201  0.6273  0.3437 -0.0125
 7300SOL    HW133533   4.533   4.601   3.198 -0.1284 -0.2033 -1.0198
 7300SOL    HW233534   4.655   4.546   3.139  2.0674 -1.0876  1.0034
 7301SOL     OW33535   3.252   3.175   8.434  0.1331 -0.6508 -0.1272
 7301SOL    HW133536   3.215   3.109   8.492 -0.8191  1.3572  1.5449
 7301SOL    HW233537   3.186   3.195   8.367 -1.1312 -2.2000  0.6600
 7302SOL     OW33538   0.475   0.291   4.254 -0.3216  0.3909 -0.7628
 7302SOL    HW133539   0.564   0.268   4.281 -1.2870 -1.9615  0.4140
 7302SOL    HW233540   0.454   0.365   4.311  2.1988 -1.2812  2.3688
 7303SOL     OW33541   3.348   4.728   3.060  0.2994  0.3041 -0.3598
 7303SOL    HW133542   3.319   0.070   3.106 -0.3564 -1.1263  1.6644
 7303SOL    HW233543   3.405   4.688   3.126  0.1349  0.0906 -0.3468
 7304SOL     OW33544   2.128   1.909   3.609 -0.1517 -0.3808  0.3072
 7304SOL    HW133545   2.086   1.897   3.524  1.9863 -0.4674 -0.7407
 7304SOL    HW233546   2.152   1.817   3.621  1.5279 -0.1944 -1.5675
 7305SOL     OW33547   0.025   2.861   9.625 -0.2117 -0.0051 -0.0365
 7305SOL    HW133548   0.078   2.938   9.605 -0.9964  0.4857 -0.2050
 7305SOL    HW233549   4.684   2.885   9.576 -0.5858 -0.9353  0.0834
 7306SOL     OW33550   2.387   4.238   6.041 -0.1607 -0.5026 -0.8093
 7306SOL    HW133551   2.369   4.331   6.034  3.1120  0.3208  1.7706
 7306SOL    HW233552   2.311   4.205   5.993  0.1197 -1.5864 -0.5059
 7307SOL     OW33553   1.535   4.599   0.351  0.4180  0.2841 -0.3432
 7307SOL    HW133554   1.505   4.515   0.317  1.1292  0.7033 -1.9907
 7307SOL    HW233555   1.457   4.653   0.346  1.4021  1.4896 -2.5921
 7308SOL     OW33556   2.686   4.330   9.297  0.5371  0.4311 -0.2244
 7308SOL    HW133557   2.702   4.368   9.383 -1.0110 -0.7173  0.5894
 7308SOL    HW233558   2.672   4.241   9.330 -0.7878  1.0639  0.9759
 7309SOL     OW33559   3.291   2.980   9.123 -0.0983  0.1563 -0.0949
 7309SOL    HW133560   3.317   3.062   9.081 -2.7134  0.5954 -0.8704
 7309SOL    HW233561   3.275   3.005   9.214 -0.2258 -0.3551  0.0247
 7310SOL     OW33562   3.701   2.828   8.178 -0.2958  0.5368 -0.4798
 7310SOL    HW133563   3.736   2.881   8.107 -0.4235 -2.1677 -2.5847
 7310SOL    HW233564   3.673   2.890   8.246  1.7072  1.5667 -0.6178
 7311SOL     OW33565   1.592   3.681  15.073 -0.1465  0.3080 -0.3687
 7311SOL    HW133566   1.613   3.774  15.074 -0.6254  0.3691  2.5053
 7311SOL    HW233567   1.498   3.696  15.083  0.2994  1.8926  1.5270
 7312SOL     OW33568   0.328   3.918   1.288 -0.4288  0.0055  0.1234
 7312SOL    HW133569   0.302   4.003   1.324 -1.3968 -0.6078  0.8987
 7312SOL    HW233570   0.330   3.949   1.198 -0.8035  0.1361  0.1600
 7313SOL     OW33571   2.770   3.803   3.928  0.0505 -0.7160 -0.1868
 7313SOL    HW133572   2.716   3.820   4.006  1.0344  0.8519  0.1486
 7313SOL    HW233573   2.792   3.711   3.941  1.1498 -0.5099 -0.5811
 7314SOL     OW33574   3.230   4.393   5.391 -0.0454 -0.0881 -0.1935
 7314SOL    HW133575   3.298   4.460   5.395 -0.4791  0.4973 -2.9105
 7314SOL    HW233576   3.258   4.351   5.310  1.6759 -0.8653  0.8136
 7315SOL     OW33577   2.725   2.941  15.244  0.1054 -0.2077 -0.4380
 7315SOL    HW133578   2.790   3.011  15.251 -0.1340  0.1552 -2.0583
 7315SOL    HW233579   2.702   2.958  15.153  0.2787  1.3284 -0.1937
 7316SOL     OW33580   0.484   3.039   3.699  0.2380  0.4467  0.0399
 7316SOL    HW133581   0.433   3.025   3.619 -0.8505  2.5086  0.3679
 7316SOL    HW233582   0.424   3.108   3.730  1.1539  0.7590  1.1342
 7317SOL     OW33583   2.846   3.087   7.967  0.3165  0.1575  0.0055
 7317SOL    HW133584   2.803   3.105   7.883 -1.3737  0.3078  0.9030
 7317SOL    HW233585   2.854   3.179   7.992  0.7038  0.8614 -2.7149
 7318SOL     OW33586   4.051   2.872   9.661 -0.0165 -0.3378  0.0483
 7318SOL    HW133587   4.002   2.799   9.623 -1.0348  0.0093  0.7052
 7318SOL    HW233588   4.113   2.884   9.588  2.2970 -3.8071  1.4503
 7319SOL     OW33589   0.729   0.057  15.286 -0.7120 -0.2498  0.4006
 7319SOL    HW133590   0.752   0.021  15.200 -1.9967  3.7522 -1.6169
 7319SOL    HW233591   0.804   0.038  15.342  0.1928  0.1344 -0.6724
 7320SOL     OW33592   2.026   2.147   4.756  0.5766 -0.1221  0.2494
 7320SOL    HW133593   2.089   2.103   4.813  1.1022  1.4385  0.8554
 7320SOL    HW233594   2.082   2.201   4.700  1.7796 -0.7073  0.8758
 7321SOL     OW33595   2.365   2.127  10.371  0.3596 -0.1725 -0.4669
 7321SOL    HW133596   2.427   2.172  10.429 -0.9716  0.4586  0.4793
 7321SOL    HW233597   2.384   2.036  10.392  0.3555 -0.1777 -0.4864
 7322SOL     OW33598   2.995   2.994   3.838 -0.1468 -0.1301 -0.1311
 7322SOL    HW133599   2.995   2.910   3.793 -2.3810  0.5699 -1.4565
 7322SOL    HW233600   2.949   3.043   3.769 -1.5234  0.8774  1.5224
 7323SOL     OW33601   2.709   4.494   7.962  0.5808  0.6487 -0.1011
 7323SOL    HW133602   2.738   4.555   7.894 -0.2336  2.0566  0.8278
 7323SOL    HW233603   2.617   4.520   7.968  0.6218  0.9288 -0.7022
 7324SOL     OW33604   3.565   0.708  13.036 -0.0990 -0.2766 -0.9134
 7324SOL    HW133605   3.581   0.624  13.081  2.4140  0.3850 -0.5697
 7324SOL    HW233606   3.654   0.731  13.012  0.5678  0.4305  2.2109
 7325SOL     OW33607   2.781   3.783   4.243  0.1462  0.6532 -0.4053
 7325SOL    HW133608   2.827   3.710   4.285  1.1611  1.4326 -0.1685
 7325SOL    HW233609   2.832   3.861   4.264 -0.7676  1.0083  0.4643
 7326SOL     OW33610   3.142   2.954  12.969  0.1644 -0.3482  0.4660
 7326SOL    HW133611   3.116   2.927  13.057 -0.6047 -1.9552 -0.2577
 7326SOL    HW233612   3.232   2.924  12.965  0.2939  0.1032  0.0311
 7327SOL     OW33613   1.484   2.020  17.635  0.2181  0.1549 -0.6828
 7327SOL    HW133614   1.452   1.933  17.613  1.5772 -0.6518  0.5275
 7327SOL    HW233615   1.454   2.018  17.726  0.3828 -0.8201 -0.6533
 7328SOL     OW33616   0.008   3.509   8.834 -0.2643 -0.7173 -1.2868
 7328SOL    HW133617   4.729   3.566   8.909 -0.2675 -0.4424 -1.4952
 7328SOL    HW233618   0.102   3.520   8.820 -0.1981  2.0924  1.4605
 7329SOL     OW33619   1.748   1.490   8.231  0.4695 -0.3484  0.1762
 7329SOL    HW133620   1.699   1.486   8.149 -0.5549 -1.4533  0.8343
 7329SOL    HW233621   1.766   1.584   8.234 -2.8665  0.1729  3.2146
 7330SOL     OW33622   1.395   1.728   5.560  0.0359  0.2405 -0.7687
 7330SOL    HW133623   1.488   1.749   5.566  0.0036  0.5861 -1.4882
 7330SOL    HW233624   1.376   1.711   5.652  2.5730  2.1586  0.1207
 7331SOL     OW33625   2.712   0.730   2.889 -0.3209  0.1075  0.2563
 7331SOL    HW133626   2.785   0.780   2.926  0.3312 -0.3785 -0.3730
 7331SOL    HW233627   2.755   0.653   2.853 -0.5252 -0.6540  1.6335
 7332SOL     OW33628   0.809   1.650  15.601  0.2190 -0.0995 -0.4983
 7332SOL    HW133629   0.878   1.621  15.660  1.0862  4.0764  0.6004
 7332SOL    HW233630   0.853   1.726  15.563  0.3028  0.3126  0.4282
 7333SOL     OW33631   4.034   0.077   7.521 -0.2301  0.0790  0.0966
 7333SOL    HW133632   4.050   4.720   7.519  0.9859  0.2794  0.7009
 7333SOL    HW233633   4.038   0.084   7.426 -0.2935 -0.7408  0.0299
 7334SOL     OW33634   0.805   2.480   2.846  0.1585 -0.7249 -0.1626
 7334SOL    HW133635   0.754   2.477   2.927 -0.6487 -0.8506 -0.6725
 7334SOL    HW233636   0.868   2.411   2.868 -2.6705 -2.4520  2.5012
 7335SOL     OW33637   3.146   1.186  12.755 -0.4988  0.2326  0.8087
 7335SOL    HW133638   3.120   1.174  12.846  0.8218  1.4069  1.3264
 7335SOL    HW233639   3.073   1.142  12.711 -0.0037 -0.5043  0.7191
 7336SOL     OW33640   4.379   1.003  17.467 -0.1564  1.0317 -0.0925
 7336SOL    HW133641   4.359   1.026  17.376  1.1497 -1.2894 -0.9689
 7336SOL    HW233642   4.300   0.953  17.487  0.1462  0.5039 -0.2352
 7337SOL     OW33643   1.662   2.749   5.209 -0.5665 -0.2880  0.0253
 7337SOL    HW133644   1.746   2.703   5.199 -1.3934 -1.8021  0.0869
 7337SOL    HW233645   1.594   2.682   5.218  0.1618 -1.3465 -2.5408
 7338SOL     OW33646   0.559   3.495   6.129  0.2834  0.3442 -0.1846
 7338SOL    HW133647   0.560   3.590   6.117  3.1915  0.2172 -0.8808
 7338SOL    HW233648   0.594   3.459   6.048 -1.8897 -2.6713  0.2292
 7339SOL     OW33649   0.097   1.594   5.904 -0.2000  0.3055 -0.1381
 7339SOL    HW133650   0.108   1.534   5.978 -0.5113 -0.1383 -0.4448
 7339SOL    HW233651   0.125   1.535   5.834 -0.5943 -1.3319  1.0930
 7340SOL     OW33652   0.037   2.101  10.446  0.5135  0.1837  0.2520
 7340SOL    HW133653   4.716   2.144  10.383  1.0063  1.5503  0.7130
 7340SOL    HW233654   4.724   2.021  10.457 -0.0090  0.1703 -2.1051
 7341SOL     OW33655   4.169   4.523  10.642 -0.1539  0.0379  0.2080
 7341SOL    HW133656   4.097   4.540  10.702 -0.7141 -1.1340 -0.1322
 7341SOL    HW233657   4.205   4.610  10.655  0.6947 -0.5392  1.6733
 7342SOL     OW33658   2.602   3.481  15.668  0.6816  0.5701 -0.1539
 7342SOL    HW133659   2.582   3.471  15.575  0.1374 -1.0325  0.1335
 7342SOL    HW233660   2.623   3.388  15.678  0.8227  0.5509 -0.6199
 7343SOL     OW33661   4.230   1.365   0.537  0.1779  0.0617  0.1898
 7343SOL    HW133662   4.210   1.453   0.568  3.7119  0.4334  1.4221
 7343SOL    HW233663   4.302   1.383   0.477 -0.5432  1.5951 -0.1950
 7344SOL     OW33664   4.555   3.017   8.086  0.8046  0.0983 -0.3616
 7344SOL    HW133665   4.594   2.947   8.033  1.6344  0.2421  0.0581
 7344SOL    HW233666   4.624   3.082   8.075 -0.5556  1.2256 -2.2778
 7345SOL     OW33667   4.404   0.907   3.818  0.5273  0.1998 -0.3334
 7345SOL    HW133668   4.406   0.986   3.873 -1.8925 -0.3339  0.4999
 7345SOL    HW233669   4.491   0.872   3.838 -0.8602 -2.0123  1.8108
 7346SOL     OW33670   3.206   1.617   7.535  0.3071 -0.7817 -0.1786
 7346SOL    HW133671   3.224   1.711   7.535  0.7740 -0.8535 -2.4265
 7346SOL    HW233672   3.284   1.584   7.578  1.1669  0.9236 -0.4180
 7347SOL     OW33673   2.187   1.781  14.013  0.1858  1.5799 -0.3772
 7347SOL    HW133674   2.124   1.713  14.037  2.8125 -0.9237 -0.4990
 7347SOL    HW233675   2.212   1.762  13.922 -0.8416  1.6857 -0.6818
 7348SOL     OW33676   0.799   1.063   5.815  0.5169  0.3690 -0.6464
 7348SOL    HW133677   0.823   0.977   5.850 -2.3400  1.5279  4.1134
 7348SOL    HW233678   0.798   1.046   5.721 -3.1638 -1.5520 -0.2444
 7349SOL     OW33679   1.505   1.757   8.360 -0.6407 -0.3323 -0.3498
 7349SOL    HW133680   1.547   1.673   8.379 -0.1405  0.7788  3.4425
 7349SOL    HW233681   1.583   1.813   8.365  0.5866 -2.1299  0.4718
 7350SOL     OW33682   2.529   2.562   1.088  0.6019 -0.4499  0.5145
 7350SOL    HW133683   2.541   2.657   1.090 -0.9862 -0.2109 -0.9796
 7350SOL    HW233684   2.524   2.543   0.994 -0.7615  2.6104 -0.0139
 7351SOL     OW33685   3.631   3.470  11.206 -0.0329 -0.3411  0.6707
 7351SOL    HW133686   3.642   3.545  11.265 -1.8141  0.8425 -0.5140
 7351SOL    HW233687   3.717   3.433  11.183  1.1678  1.6023  1.9922
 7352SOL     OW33688   1.086   1.247   5.900 -0.0137  0.1584  0.0731
 7352SOL    HW133689   1.015   1.308   5.923  0.5028  0.9482 -0.4376
 7352SOL    HW233690   1.031   1.169   5.907 -1.1473  0.9342 -0.2121
 7353SOL     OW33691   0.995   0.857   9.527  0.7473 -0.2076 -0.1797
 7353SOL    HW133692   0.956   0.813   9.603 -1.1892 -0.2608 -1.1948
 7353SOL    HW233693   1.083   0.819   9.528  0.9742  0.2540 -2.8307
 7354SOL     OW33694   0.281   3.543   8.751 -0.3740 -0.0351  0.2940
 7354SOL    HW133695   0.345   3.607   8.721  0.2445 -0.6653  0.2865
 7354SOL    HW233696   0.314   3.515   8.836 -0.7649  0.4376  0.6048
 7355SOL     OW33697   2.119   0.359   8.828 -0.4546 -0.6115  0.1833
 7355SOL    HW133698   2.144   0.449   8.808 -0.9144 -1.0923 -2.5753
 7355SOL    HW233699   2.041   0.368   8.883 -0.6176 -0.3977 -0.0882
 7356SOL     OW33700   1.900   3.783   2.876 -0.2090 -0.1326  0.2878
 7356SOL    HW133701   1.868   3.849   2.815  0.8570  0.8871  0.8273
 7356SOL    HW233702   1.861   3.702   2.842 -0.0031 -1.5416  3.3368
 7357SOL     OW33703   3.258   4.247  16.122 -0.4630  0.1989  0.3227
 7357SOL    HW133704   3.187   4.191  16.154 -1.3432  1.0957 -0.0536
 7357SOL    HW233705   3.226   4.326  16.165 -0.4722  0.1399  0.4247
 7358SOL     OW33706   0.798   3.739   5.442  0.1637  0.0507 -1.2682
 7358SOL    HW133707   0.743   3.811   5.474  0.6367  0.6041 -1.6915
 7358SOL    HW233708   0.748   3.708   5.366 -1.6043 -0.8561  0.2571
 7359SOL     OW33709   4.219   0.287   2.145  0.0624  0.0002  0.0641
 7359SOL    HW133710   4.154   0.351   2.118  0.7179  1.1302  1.1888
 7359SOL    HW233711   4.179   0.252   2.225 -1.9722  0.6609 -0.6759
 7360SOL     OW33712   4.588   2.841   9.067 -0.7363  0.0127 -0.2836
 7360SOL    HW133713   4.498   2.808   9.068 -0.8419  0.3218  0.1288
 7360SOL    HW233714   4.571   2.921   9.116  2.7896  0.9097 -0.5282
 7361SOL     OW33715   2.003   1.788  12.537  0.2676 -0.6412 -0.0112
 7361SOL    HW133716   2.014   1.866  12.483 -0.1497 -0.2628  0.4512
 7361SOL    HW233717   1.942   1.746  12.476  0.9234 -1.5818 -0.0114
 7362SOL     OW33718   3.172   1.688   2.312 -0.2075  0.1332 -0.4234
 7362SOL    HW133719   3.095   1.670   2.259 -1.4744  2.0172  0.7743
 7362SOL    HW233720   3.176   1.610   2.367  0.8422  0.7709  0.4248
 7363SOL     OW33721   4.654   2.977   4.118 -0.6399  0.0292  0.0561
 7363SOL    HW133722   4.624   2.886   4.118  1.9711 -0.8221 -1.1665
 7363SOL    HW233723   4.707   2.980   4.197  1.7603  0.3013 -1.5914
 7364SOL     OW33724   0.163   0.375  17.017  0.4644 -0.0377  0.4100
 7364SOL    HW133725   0.082   0.350  17.063 -0.2471 -0.1553 -0.9132
 7364SOL    HW233726   0.174   0.302  16.957 -2.4798 -1.3002  1.4115
 7365SOL     OW33727   1.507   4.582   7.477  0.6562 -0.2352 -0.4050
 7365SOL    HW133728   1.571   4.538   7.421  0.6239  1.6086 -1.9067
 7365SOL    HW233729   1.566   4.621   7.541  1.2606 -1.6088 -0.1384
 7366SOL     OW33730   2.245   4.605   2.839  0.1900 -0.1481  0.7129
 7366SOL    HW133731   2.253   4.526   2.786  0.3168  0.1487  0.2932
 7366SOL    HW233732   2.150   4.615   2.838  0.1241 -0.6526  1.3301
 7367SOL     OW33733   4.097   1.096   8.395 -0.1922  0.1368  0.0840
 7367SOL    HW133734   4.149   1.153   8.451 -1.1179 -0.3078  1.4055
 7367SOL    HW233735   4.158   1.040   8.347  0.8506  2.1680 -0.9246
 7368SOL     OW33736   0.422   2.887  13.964 -0.5720 -0.2144 -0.2841
 7368SOL    HW133737   0.424   2.962  14.023 -2.4147 -1.3060  1.1610
 7368SOL    HW233738   0.343   2.839  13.990 -0.2517 -1.4304 -1.5452
 7369SOL     OW33739   3.921   2.917   8.707  0.2265  0.0916 -0.0001
 7369SOL    HW133740   3.949   2.993   8.658 -2.8232  1.8471  1.0074
 7369SOL    HW233741   3.858   2.945   8.774  1.5395  0.2092  1.1959
 7370SOL     OW33742   4.436   0.369   3.807  0.4392 -0.4609 -0.5220
 7370SOL    HW133743   4.406   0.458   3.821  2.0292 -0.2204  1.3995
 7370SOL    HW233744   4.409   0.353   3.717  0.7595  0.7154 -0.8233
 7371SOL     OW33745   2.297   3.577  10.097 -0.2800 -0.3709 -0.2566
 7371SOL    HW133746   2.312   3.513  10.027 -0.2495  1.1895 -1.6884
 7371SOL    HW233747   2.373   3.565  10.153  0.4076  2.6536 -0.4994
 7372SOL     OW33748   3.944   0.318   3.636  0.1926 -0.3303  0.0215
 7372SOL    HW133749   3.894   0.299   3.556 -1.5514  0.1862  0.9774
 7372SOL    HW233750   3.936   0.231   3.674  1.4927  1.0251  3.4114
 7373SOL     OW33751   2.973   3.167  14.459  0.1405 -0.1067  0.4411
 7373SOL    HW133752   3.047   3.133  14.408 -0.9079  1.8460 -2.4317
 7373SOL    HW233753   2.945   3.228  14.391  2.4193  0.9882  0.4940
 7374SOL     OW33754   4.716   1.205  10.904  0.6277  0.3564  0.0480
 7374SOL    HW133755   0.067   1.226  10.873  0.4650  1.2132  0.1654
 7374SOL    HW233756   4.682   1.294  10.895 -1.9125 -0.3591  2.3533
 7375SOL     OW33757   0.903   0.848  17.156  0.4198  0.3943 -0.9097
 7375SOL    HW133758   0.973   0.854  17.090  0.7446  1.0653 -0.5069
 7375SOL    HW233759   0.895   0.753  17.168  1.3887  0.1982 -1.7667
 7376SOL     OW33760   0.976   2.768  14.522 -0.7061  0.4786  0.2989
 7376SOL    HW133761   1.061   2.781  14.565 -0.6235  3.4864 -0.7640
 7376SOL    HW233762   1.008   2.726  14.442  1.6459  1.1304  0.8811
 7377SOL     OW33763   2.173   4.468  17.589  1.1290 -0.2358  0.3696
 7377SOL    HW133764   2.170   4.404  17.659 -1.4117 -2.2434 -1.5763
 7377SOL    HW233765   2.204   4.548  17.633 -0.1060  0.7522 -0.5487
 7378SOL     OW33766   0.003   4.318   8.597  0.3606  0.3360 -0.5251
 7378SOL    HW133767   0.030   4.231   8.627 -1.1863 -0.9916 -2.9262
 7378SOL    HW233768   4.645   4.317   8.582  0.2449  0.1679  0.2155
 7379SOL     OW33769   2.882   1.295   1.950  0.4673 -0.2318  0.1320
 7379SOL    HW133770   2.833   1.336   2.021 -0.4889 -0.6639 -0.2750
 7379SOL    HW233771   2.965   1.269   1.990  0.0759 -1.5811  0.0456
 7380SOL     OW33772   1.497   3.390  15.883  0.1013 -0.0525  0.1215
 7380SOL    HW133773   1.515   3.484  15.885  1.4110 -0.3188  0.8240
 7380SOL    HW233774   1.402   3.391  15.892  0.2942  1.5929  1.9926
 7381SOL     OW33775   0.621   4.109   2.830  0.0066  0.4137  0.0133
 7381SOL    HW133776   0.641   4.098   2.738  0.6036 -0.8824  0.2970
 7381SOL    HW233777   0.702   4.090   2.878  0.3969 -0.9271 -1.1860
 7382SOL     OW33778   2.302   1.125   2.717 -0.1430 -0.3122 -0.0680
 7382SOL    HW133779   2.295   1.142   2.811 -0.3710  1.3907 -0.3803
 7382SOL    HW233780   2.208   1.126   2.701 -0.1066 -1.0844 -0.3281
 7383SOL     OW33781   1.242   2.836   2.665 -0.0749 -0.1128 -0.2905
 7383SOL    HW133782   1.155   2.839   2.705 -0.0939  0.7545 -0.4030
 7383SOL    HW233783   1.262   2.742   2.670  0.8846  0.0633 -0.7668
 7384SOL     OW33784   0.061   4.465   4.144  0.5584 -0.1917  0.0855
 7384SOL    HW133785   0.097   4.511   4.069 -2.1281 -0.6642 -1.4941
 7384SOL    HW233786   0.126   4.395   4.140  1.8666  1.1421 -1.5747
 7385SOL     OW33787   4.610   3.053   4.479  0.0694 -0.2268 -0.0565
 7385SOL    HW133788   4.616   3.075   4.387  0.0710  1.9684  0.4859
 7385SOL    HW233789   4.700   3.026   4.499 -0.3807 -2.0654 -0.5034
 7386SOL     OW33790   3.013   2.695   8.434 -0.3810 -0.3858  0.2227
 7386SOL    HW133791   2.984   2.612   8.472  0.3632 -0.8462 -0.2158
 7386SOL    HW233792   2.968   2.693   8.350 -0.5802  0.4123  0.3110
 7387SOL     OW33793   4.497   0.312   5.356 -0.2761 -0.0754 -0.1338
 7387SOL    HW133794   4.451   0.267   5.285  1.0038 -1.3258 -0.1689
 7387SOL    HW233795   4.572   0.253   5.361 -1.2776 -1.4146 -0.6582
 7388SOL     OW33796   4.115   4.720  11.888  0.0682  0.4527  0.7527
 7388SOL    HW133797   4.075   0.050  11.943 -0.5609  0.8641 -0.2158
 7388SOL    HW233798   4.208   0.006  11.886  0.1282  0.0544 -0.7264
 7389SOL     OW33799   1.048   3.795   2.888 -0.3174 -0.2009  0.3308
 7389SOL    HW133800   1.039   3.700   2.896 -1.9476 -0.2385 -1.8217
 7389SOL    HW233801   1.116   3.814   2.952  1.3082  0.4884 -1.6076
 7390SOL     OW33802   3.276   0.234   7.621 -0.2597 -0.4746  0.0873
 7390SOL    HW133803   3.304   0.308   7.674 -0.0242 -0.5844  0.1158
 7390SOL    HW233804   3.310   0.157   7.666 -2.6424 -0.9852  1.0057
 7391SOL     OW33805   0.731   0.904   4.294  0.5463 -0.5976 -0.4158
 7391SOL    HW133806   0.738   0.849   4.372 -1.0863 -0.5323 -0.2123
 7391SOL    HW233807   0.821   0.914   4.264 -0.3068 -0.6918 -2.9318
 7392SOL     OW33808   4.006   4.352   7.252 -0.1433  0.2253  0.5642
 7392SOL    HW133809   3.931   4.410   7.264  1.4365  1.7239  3.2282
 7392SOL    HW233810   4.010   4.314   7.339  1.5135 -0.4183  0.2008
 7393SOL     OW33811   4.279   0.855   7.521  0.3645  0.3044  0.6668
 7393SOL    HW133812   4.289   0.936   7.571  1.7159 -0.2826  1.3392
 7393SOL    HW233813   4.264   0.784   7.583 -0.0956 -2.0465 -2.1581
 7394SOL     OW33814   0.325   1.084  10.558 -0.5654 -0.5532  0.4755
 7394SOL    HW133815   0.372   1.154  10.602  0.7137 -2.8722  2.8260
 7394SOL    HW233816   0.352   1.095  10.467 -0.9472 -0.2242  0.4030
 7395SOL     OW33817   2.719   3.749   1.585  0.0744  0.6573  0.2342
 7395SOL    HW133818   2.641   3.723   1.635  0.5399  0.8395  1.0430
 7395SOL    HW233819   2.676   3.768   1.502 -0.3059 -0.9652  0.0479
 7396SOL     OW33820   1.892   0.170   2.829 -0.1306 -0.4750  0.5308
 7396SOL    HW133821   1.924   0.129   2.910 -0.7642 -1.3956  0.3196
 7396SOL    HW233822   1.830   0.100   2.804 -2.9046  2.5239 -0.9546
 7397SOL     OW33823   0.086   2.142   6.239  0.1709 -0.1438  0.3180
 7397SOL    HW133824   0.181   2.154   6.240 -0.3234  3.5371  0.5982
 7397SOL    HW233825   0.049   2.191   6.165 -1.1184 -2.0242 -0.2974
 7398SOL     OW33826   4.111   3.265   7.203 -0.2161 -0.2035  0.0241
 7398SOL    HW133827   4.108   3.190   7.262  1.0381 -1.6315 -1.7163
 7398SOL    HW233828   4.105   3.217   7.120 -0.3598 -0.9009  0.4461
 7399SOL     OW33829   3.682   3.383   7.608  0.1458 -0.4541  0.5321
 7399SOL    HW133830   3.671   3.477   7.623  1.5287 -0.2200  0.1179
 7399SOL    HW233831   3.770   3.373   7.570  0.7402  0.6314  1.6347
 7400SOL     OW33832   3.838   3.428   2.139 -0.0755  0.1576 -0.0673
 7400SOL    HW133833   3.753   3.454   2.174 -0.2251 -0.4891  0.0342
 7400SOL    HW233834   3.891   3.498   2.177  1.1034 -0.6423 -0.2369
 7401SOL     OW33835   4.531   2.524   6.754 -0.5881 -0.0557  0.0062
 7401SOL    HW133836   4.511   2.577   6.831 -1.2177 -2.2777  1.3837
 7401SOL    HW233837   4.446   2.508   6.715 -1.0653  0.8064  0.7006
 7402SOL     OW33838   0.649   3.599   8.275 -0.0540  0.3861 -0.0349
 7402SOL    HW133839   0.636   3.680   8.226 -2.1686 -0.2180 -0.4853
 7402SOL    HW233840   0.744   3.587   8.268  0.1376  2.5145 -0.9850
 7403SOL     OW33841   3.370   3.294   6.064 -0.3959  0.0530  0.2865
 7403SOL    HW133842   3.306   3.339   6.009  1.0721  0.3576 -1.1322
 7403SOL    HW233843   3.413   3.231   6.006 -0.7012  0.8862 -0.8280
 7404SOL     OW33844   3.278   3.841  10.726  0.1173  0.5851 -0.5728
 7404SOL    HW133845   3.243   3.928  10.745 -1.8795 -0.6036  1.2374
 7404SOL    HW233846   3.283   3.806  10.815 -0.4436  1.2876 -0.2661
 7405SOL     OW33847   3.075   3.040   2.236  0.6764 -0.0695  0.8946
 7405SOL    HW133848   3.123   3.112   2.278 -0.1422  1.1279 -0.2023
 7405SOL    HW233849   2.985   3.055   2.264 -0.1490 -0.6524 -1.3959
 7406SOL     OW33850   2.025   0.457  10.509  0.9078  0.2147 -0.5883
 7406SOL    HW133851   1.937   0.456  10.471  0.0136 -0.3979  1.5219
 7406SOL    HW233852   2.013   0.458  10.604 -2.3514 -1.2869 -0.9969
 7407SOL     OW33853   2.558   2.307   2.433 -0.0113  0.6548 -0.4971
 7407SOL    HW133854   2.467   2.301   2.463  0.6564  1.9522  1.8165
 7407SOL    HW233855   2.545   2.316   2.339 -1.8859  0.3332 -0.2776
 7408SOL     OW33856   4.363   2.541   2.573 -0.0892  0.5142  0.0477
 7408SOL    HW133857   4.386   2.450   2.591  0.9310  0.5932 -0.8734
 7408SOL    HW233858   4.418   2.592   2.632  1.1340 -0.7111 -0.0269
 7409SOL     OW33859   0.215   2.180  16.189 -0.2829  0.2609 -0.3242
 7409SOL    HW133860   0.164   2.184  16.270 -0.0259 -0.2467 -0.1339
 7409SOL    HW233861   0.242   2.272  16.186  1.8119 -0.4921 -4.9609
 7410SOL     OW33862   0.560   1.736   0.057  0.0141  0.3355  0.5324
 7410SOL    HW133863   0.561   1.789   0.136 -0.0489  0.2992  0.5582
 7410SOL    HW233864   0.635   1.677   0.069  1.2336  1.3695 -2.0103
 7411SOL     OW33865   0.013   3.422   1.267  0.2023 -0.0287  0.6024
 7411SOL    HW133866   4.682   3.478   1.304  0.4888  0.6781  0.0612
 7411SOL    HW233867   4.717   3.332   1.279 -3.4044  1.0749 -1.1558
 7412SOL     OW33868   2.930   3.065   2.556 -0.6674  0.0302  0.0865
 7412SOL    HW133869   2.902   2.973   2.554 -1.1183  0.1612  0.4399
 7412SOL    HW233870   2.886   3.114   2.487  2.2070  0.2036 -1.6206
 7413SOL     OW33871   0.495   4.099   6.717 -0.3040 -0.6241  0.2060
 7413SOL    HW133872   0.437   4.045   6.771  0.0021  0.9606  2.1112
 7413SOL    HW233873   0.569   4.041   6.701  0.3171  0.2206  0.0487
 7414SOL     OW33874   1.807   4.082   9.328  0.6147 -0.4811 -0.0161
 7414SOL    HW133875   1.779   4.035   9.250  0.7022 -0.9863  0.2570
 7414SOL    HW233876   1.724   4.122   9.355  0.3588 -0.6904 -0.4961
 7415SOL     OW33877   1.753   1.824   8.716 -0.1113  0.0251  0.5225
 7415SOL    HW133878   1.669   1.867   8.732 -0.2398 -0.3904  0.9619
 7415SOL    HW233879   1.781   1.845   8.626  0.0153  2.0296  1.0245
 7416SOL     OW33880   0.894   0.922   7.569 -0.5344 -0.0742 -0.3314
 7416SOL    HW133881   0.890   1.011   7.532  1.7519 -0.4755 -1.5361
 7416SOL    HW233882   0.943   0.871   7.505 -0.0531  0.5898 -0.5019
 7417SOL     OW33883   0.955   1.677   4.272  0.2122  0.1426 -0.5311
 7417SOL    HW133884   1.050   1.678   4.281  0.1567  1.5887 -0.0080
 7417SOL    HW233885   0.926   1.601   4.322 -4.3171  0.9679 -1.8515
 7418SOL     OW33886   3.265   2.045   6.030  0.2161 -0.0177 -0.3318
 7418SOL    HW133887   3.267   2.127   6.079 -0.1213  0.5438 -1.2507
 7418SOL    HW233888   3.216   1.985   6.087  1.8753  0.7875  1.9477
 7419SOL     OW33889   3.366   4.610   5.363  0.3048  0.0345 -0.0758
 7419SOL    HW133890   3.409   4.684   5.408 -0.1832  0.1014  0.2831
 7419SOL    HW233891   3.384   4.639   5.274 -1.4693  2.6391  0.3945
 7420SOL     OW33892   4.129   3.675   8.223 -0.5259  0.1117  0.5340
 7420SOL    HW133893   4.052   3.728   8.203 -0.1750  0.3723 -0.1346
 7420SOL    HW233894   4.106   3.610   8.289 -0.7355 -1.2292 -0.8457
 7421SOL     OW33895   3.709   4.687   6.267 -0.3650  0.4946 -0.3615
 7421SOL    HW133896   3.664   4.687   6.352 -1.5727 -0.5718 -0.9994
 7421SOL    HW233897   3.653   0.014   6.223 -0.9006 -1.1067 -1.9745
 7422SOL     OW33898   3.946   1.636  10.797  0.1584  0.2241 -0.4849
 7422SOL    HW133899   4.010   1.578  10.755 -0.9389  0.0609 -1.9383
 7422SOL    HW233900   4.000   1.698  10.846 -0.5828  0.4476  0.0519
 7423SOL     OW33901   3.795   3.344  15.996 -0.7348  0.3842  0.2258
 7423SOL    HW133902   3.721   3.368  15.940 -0.7065 -0.1248 -0.0304
 7423SOL    HW233903   3.856   3.305  15.935 -3.1524 -1.9602 -0.6977
 7424SOL     OW33904   0.713   0.408  17.728  0.4911  0.7011 -0.4298
 7424SOL    HW133905   0.620   0.401   0.006 -0.2029  0.2841 -3.2624
 7424SOL    HW233906   0.755   0.368   0.059 -1.4778 -0.1839  0.2074
 7425SOL     OW33907   2.662   2.289   6.668  0.7797  0.5916  0.0506
 7425SOL    HW133908   2.715   2.302   6.590  1.6894  1.8809  0.8733
 7425SOL    HW233909   2.639   2.197   6.663 -1.0634  1.2324 -2.7824
 7426SOL     OW33910   3.908   3.503   2.491 -0.4024  0.0160 -0.9669
 7426SOL    HW133911   3.951   3.421   2.465 -0.3948 -0.4914  0.6694
 7426SOL    HW233912   3.823   3.488   2.450  0.3449  0.9143 -2.8735
 7427SOL     OW33913   1.004   0.164   0.778 -0.4406 -0.1760 -0.0269
 7427SOL    HW133914   0.911   0.173   0.795 -0.6738  1.2163 -2.0003
 7427SOL    HW233915   1.007   0.069   0.780 -1.5461 -0.2097  0.0349
 7428SOL     OW33916   3.115   1.543   2.577 -0.4245 -0.0662 -0.0629
 7428SOL    HW133917   3.187   1.492   2.613  0.5759  0.3562 -1.4786
 7428SOL    HW233918   3.124   1.624   2.627 -1.5446  0.4150 -0.6144
 7429SOL     OW33919   1.990   4.319   8.399 -0.1768 -0.7202 -0.1374
 7429SOL    HW133920   1.918   4.256   8.400 -0.0239 -0.9183 -1.3233
 7429SOL    HW233921   2.056   4.293   8.335  0.4096  0.8876 -0.2062
 7430SOL     OW33922   4.574   2.436  16.296  0.2880 -0.6239  0.2215
 7430SOL    HW133923   4.486   2.443  16.258 -1.0377 -1.1222  3.1712
 7430SOL    HW233924   4.631   2.493  16.244  1.6892 -1.3952  0.9229
 7431SOL     OW33925   2.171   4.294   4.722  0.0509 -0.0940 -0.3861
 7431SOL    HW133926   2.200   4.343   4.644  0.7293  0.6641  0.3328
 7431SOL    HW233927   2.255   4.305   4.768  0.5463  0.0518 -1.3165
 7432SOL     OW33928   0.973   3.869   5.076 -0.7919 -0.4905 -0.2362
 7432SOL    HW133929   0.904   3.883   5.011 -2.1041  4.0547  2.1504
 7432SOL    HW233930   0.939   3.879   5.165 -1.1198 -0.9276 -0.3097
 7433SOL     OW33931   1.050   3.121  17.045  0.4922 -0.4766 -0.6548
 7433SOL    HW133932   1.070   3.211  17.020 -1.9862  0.1306 -0.4134
 7433SOL    HW233933   1.014   3.131  17.132  0.9042  1.7766 -0.7486
 7434SOL     OW33934   3.984   1.294   3.824  0.6558 -0.5085 -0.4314
 7434SOL    HW133935   3.893   1.266   3.833  0.6774  0.0549  1.5295
 7434SOL    HW233936   4.025   1.238   3.890 -2.7534 -1.2060  1.1247
 7435SOL     OW33937   4.537   1.935   7.622  0.2091  0.1880  0.0467
 7435SOL    HW133938   4.461   1.904   7.572  1.0482  0.0110 -1.1297
 7435SOL    HW233939   4.513   2.025   7.643 -1.3397 -0.6667  1.9368
 7436SOL     OW33940   3.015   2.223   5.862 -0.2018  0.3676  0.2820
 7436SOL    HW133941   3.107   2.201   5.851 -0.5343 -0.8086 -0.1746
 7436SOL    HW233942   2.975   2.140   5.838  2.7180 -0.8912 -0.2187
 7437SOL     OW33943   1.246   2.411   4.185 -0.5263  0.1146  0.8224
 7437SOL    HW133944   1.311   2.340   4.177  1.2115  2.0246 -2.0800
 7437SOL    HW233945   1.196   2.359   4.248 -0.1179  0.0255  1.0756
 7438SOL     OW33946   0.859   0.518  14.159  0.0310 -0.3974  0.5710
 7438SOL    HW133947   0.805   0.579  14.108 -2.9078 -1.9589  1.8463
 7438SOL    HW233948   0.812   0.520  14.242 -0.4163 -0.8853  0.3270
 7439SOL     OW33949   2.207   1.643  16.177 -0.0890 -0.1815  0.0227
 7439SOL    HW133950   2.116   1.617  16.162  0.2505  0.6823 -3.6086
 7439SOL    HW233951   2.235   1.574  16.237 -0.8231 -0.0565  0.5148
 7440SOL     OW33952   1.358   0.002  13.881 -0.0178  0.1282 -0.1844
 7440SOL    HW133953   1.431   0.051  13.842  2.9007 -4.6376 -0.7194
 7440SOL    HW233954   1.404   4.676  13.936 -0.0255  0.1040 -0.2059
 7441SOL     OW33955   3.315   3.353   8.637 -0.4573  0.0535  0.3918
 7441SOL    HW133956   3.305   3.288   8.568 -0.3008 -0.8625  1.2424
 7441SOL    HW233957   3.321   3.292   8.710  0.9826  1.1715  1.2119
 7442SOL     OW33958   2.664   2.029   7.967  0.0172 -0.1564  0.1674
 7442SOL    HW133959   2.716   2.063   8.040 -0.8767  1.8585 -0.1422
 7442SOL    HW233960   2.706   1.943   7.957  2.9172  1.2428  0.4925
 7443SOL     OW33961   2.935   1.872   1.014  0.7719 -0.1783 -0.0668
 7443SOL    HW133962   2.903   1.806   1.075  0.0237  0.0573 -0.2130
 7443SOL    HW233963   3.029   1.853   1.011  1.1123  1.4983 -0.2046
 7444SOL     OW33964   1.194   1.579  14.944  0.2662  0.3640 -0.1348
 7444SOL    HW133965   1.122   1.527  14.908  0.6779 -0.7498  0.6625
 7444SOL    HW233966   1.236   1.614  14.865 -1.2556  0.1966 -1.0074
 7445SOL     OW33967   2.169   4.513  14.465  0.2623 -0.1215 -0.4654
 7445SOL    HW133968   2.171   4.503  14.370 -0.7267 -1.6953 -0.3162
 7445SOL    HW233969   2.089   4.564  14.483 -1.4635 -3.4249  1.2753
 7446SOL     OW33970   2.815   1.759   7.083 -0.0275  0.0232  0.4771
 7446SOL    HW133971   2.902   1.793   7.103  0.5394 -1.1826  0.1070
 7446SOL    HW233972   2.800   1.794   6.995  0.7632  1.7088  1.0211
 7447SOL     OW33973   1.588   1.011   4.392 -0.9494  0.0642  0.4205
 7447SOL    HW133974   1.507   0.959   4.387 -0.2007 -1.0573 -0.0224
 7447SOL    HW233975   1.602   1.036   4.300  3.6021 -0.3230  1.0341
 7448SOL     OW33976   1.635   3.331   3.355 -0.2963  0.1530  0.5759
 7448SOL    HW133977   1.725   3.350   3.382  0.2770 -1.0121 -0.5235
 7448SOL    HW233978   1.607   3.271   3.424 -3.1582 -0.9193 -1.5232
 7449SOL     OW33979   1.839   1.857  12.787 -0.2290 -0.1447 -0.1440
 7449SOL    HW133980   1.896   1.847  12.711  0.9743  1.2678  0.5594
 7449SOL    HW233981   1.787   1.777  12.784 -0.2301 -0.0892 -1.7042
 7450SOL     OW33982   3.656   0.147  11.915 -0.0102 -0.5940 -0.4378
 7450SOL    HW133983   3.662   0.242  11.908 -0.5752 -0.4505  0.9714
 7450SOL    HW233984   3.722   0.110  11.857 -0.6056 -1.3816 -0.6159
 7451SOL     OW33985   3.578   4.260   3.698  0.2268 -0.2081  0.7455
 7451SOL    HW133986   3.622   4.328   3.749 -0.1426 -1.0930  2.2433
 7451SOL    HW233987   3.486   4.272   3.722 -0.2445 -1.8900 -0.2759
 7452SOL     OW33988   1.036   3.410   7.914 -0.0107  0.2523 -0.1647
 7452SOL    HW133989   1.015   3.504   7.914 -0.1824  0.2188 -2.1054
 7452SOL    HW233990   1.068   3.399   8.003  0.6159 -0.4362 -0.4794
 7453SOL     OW33991   3.867   1.062   9.009 -0.0888  0.2858 -0.4695
 7453SOL    HW133992   3.842   0.974   8.980  0.7461  0.1517 -0.7781
 7453SOL    HW233993   3.888   1.096   8.922 -0.2585  2.7063  0.4384
 7454SOL     OW33994   1.636   0.438   1.738 -0.0052  0.7074  0.1387
 7454SOL    HW133995   1.702   0.370   1.745 -0.8266 -0.0115  0.8457
 7454SOL    HW233996   1.566   0.388   1.694  0.1446 -0.1262  0.8618
 7455SOL     OW33997   2.715   3.449  11.122 -0.1805 -0.2508  0.3331
 7455SOL    HW133998   2.791   3.391  11.129  1.5576  1.5659 -3.6092
 7455SOL    HW233999   2.760   3.533  11.118  0.2711 -0.4980  0.2020
 7456SOL     OW34000   0.615   1.785   2.624 -0.6923  0.0176 -0.3039
 7456SOL    HW134001   0.617   1.697   2.663  0.5247 -0.2106 -0.8628
 7456SOL    HW234002   0.620   1.761   2.531 -1.4752 -0.0788 -0.3153
 7457SOL     OW34003   4.599   3.960   2.111  0.2495  0.3602 -0.1074
 7457SOL    HW134004   4.520   3.953   2.165 -0.2548  0.3212 -0.8526
 7457SOL    HW234005   4.651   3.997   2.182  2.2643 -2.6390  0.0037
 7458SOL     OW34006   3.728   3.722   0.030 -0.2942  0.1799 -0.2500
 7458SOL    HW134007   3.651   3.768  17.742  0.2477  1.2116 -0.0935
 7458SOL    HW234008   3.744   3.775   0.108 -0.6431  0.6880 -0.5201
 7459SOL     OW34009   4.062   3.590  10.553  0.2651 -0.0131 -0.0050
 7459SOL    HW134010   4.043   3.567  10.462 -1.1557  2.4818 -0.3336
 7459SOL    HW234011   4.009   3.669  10.563  3.5812  2.1531  0.2903
 7460SOL     OW34012   3.179   1.045  10.967  0.0048 -0.0980 -0.2793
 7460SOL    HW134013   3.181   1.138  10.990  0.3959 -0.6685  2.0362
 7460SOL    HW234014   3.089   1.026  10.940 -0.4037  1.1838  0.1807
 7461SOL     OW34015   3.208   2.135   3.093  0.1220 -0.0451  0.2994
 7461SOL    HW134016   3.130   2.083   3.115 -0.2716  0.1014 -0.7756
 7461SOL    HW234017   3.262   2.063   3.062  1.9020  1.0070  0.9591
 7462SOL     OW34018   1.320   3.414   8.853 -0.3137  0.5670 -0.7578
 7462SOL    HW134019   1.344   3.329   8.890  0.6129  0.8041 -0.8119
 7462SOL    HW234020   1.224   3.406   8.855 -0.1323 -1.3669  1.0304
 7463SOL     OW34021   4.022   0.637  11.841  0.4101 -0.1510 -0.5776
 7463SOL    HW134022   4.109   0.655  11.805 -0.1071  0.6685 -1.4058
 7463SOL    HW234023   4.032   0.541  11.846 -1.7510 -0.3692 -0.4609
 7464SOL     OW34024   0.660   2.488  15.349  0.9719  0.5070  0.4612
 7464SOL    HW134025   0.604   2.411  15.354  0.8251  0.5482 -0.6124
 7464SOL    HW234026   0.622   2.532  15.274  2.8005  1.2003 -0.0624
 7465SOL     OW34027   3.703   3.437   3.608  0.0250 -0.2553  0.2493
 7465SOL    HW134028   3.624   3.491   3.602 -0.6187 -1.0318  1.6844
 7465SOL    HW234029   3.760   3.503   3.647  0.7981 -0.4188 -0.6135
 7466SOL     OW34030   1.212   4.278   8.215 -0.8603 -0.2538  0.0993
 7466SOL    HW134031   1.163   4.215   8.162  0.8338  0.3915 -2.1881
 7466SOL    HW234032   1.189   4.252   8.305 -1.9714 -3.8724 -1.2425
 7467SOL     OW34033   3.604   1.136   5.172 -0.4179 -0.8414 -0.2108
 7467SOL    HW134034   3.666   1.201   5.204  0.4198 -1.0162 -1.4609
 7467SOL    HW234035   3.539   1.154   5.240 -0.2119  1.7103 -0.7160
 7468SOL     OW34036   0.420   2.515  11.261  0.0133  1.0899  0.6857
 7468SOL    HW134037   0.335   2.549  11.289 -0.8501  1.1556 -1.9311
 7468SOL    HW234038   0.450   2.585  11.203 -1.6142  0.7288 -0.5890
 7469SOL     OW34039   1.508   4.342   3.567 -0.0635 -0.1107 -0.6168
 7469SOL    HW134040   1.557   4.371   3.489  1.2470  1.7217  0.8974
 7469SOL    HW234041   1.567   4.369   3.637  0.2388  0.2366 -1.0048
 7470SOL     OW34042   1.919   3.670   8.057 -0.4943  0.2065  0.1571
 7470SOL    HW134043   1.945   3.734   7.992 -1.7579 -0.8873 -1.4267
 7470SOL    HW234044   1.860   3.721   8.112 -1.1767  1.2899 -1.5875
 7471SOL     OW34045   2.977   2.377   9.166  0.1591 -0.1577  0.2913
 7471SOL    HW134046   2.896   2.326   9.168  1.0889 -1.5677  2.0499
 7471SOL    HW234047   2.991   2.387   9.260  0.0677 -3.2274  0.6267
 7472SOL     OW34048   2.228   1.370   0.708  0.3332 -0.0644  0.2054
 7472SOL    HW134049   2.312   1.402   0.740  0.4253  1.5267 -1.6433
 7472SOL    HW234050   2.207   1.444   0.651 -1.4450  0.5505  1.6457
 7473SOL     OW34051   2.923   4.384   6.477 -0.5822  0.3485  0.3097
 7473SOL    HW134052   2.837   4.381   6.436 -1.8148  4.1672  2.6931
 7473SOL    HW234053   2.898   4.364   6.567  0.2100  1.7157  0.8400
 7474SOL     OW34054   4.007   1.385  11.927 -0.0122 -0.0049 -0.4640
 7474SOL    HW134055   4.046   1.383  11.840  3.0086  2.3796  0.8418
 7474SOL    HW234056   3.954   1.464  11.927 -0.6145 -0.4093 -1.0318
 7475SOL     OW34057   4.603   1.446   6.763  0.1547 -0.5500 -0.5058
 7475SOL    HW134058   4.642   1.531   6.780  0.0420 -1.2443  3.1431
 7475SOL    HW234059   4.533   1.462   6.699  0.9574 -1.1083 -1.5293
 7476SOL     OW34060   0.001   3.876   6.320 -0.4386  0.0978 -0.8397
 7476SOL    HW134061   4.687   3.864   6.400 -0.4257  0.8038 -0.7291
 7476SOL    HW234062   0.026   3.966   6.341 -0.8473  0.0395 -0.1320
 7477SOL     OW34063   3.392   3.608   9.829  0.1483  0.1123  0.4859
 7477SOL    HW134064   3.402   3.697   9.861  0.0844 -0.0807  1.0401
 7477SOL    HW234065   3.363   3.561   9.908 -1.3796 -3.1824 -2.0016
 7478SOL     OW34066   2.733   2.482   3.635  0.6570  0.3649 -0.1594
 7478SOL    HW134067   2.776   2.545   3.577 -0.5641  2.9155  1.7065
 7478SOL    HW234068   2.749   2.510   3.725  2.3712  0.0980 -0.3734
 7479SOL     OW34069   2.983   1.008   2.005 -0.1755  0.3655 -0.3741
 7479SOL    HW134070   2.915   0.980   2.067  1.2536 -1.4791  0.3533
 7479SOL    HW234071   3.004   0.930   1.953 -0.3073 -0.9137  1.4639
 7480SOL     OW34072   2.929   1.830   9.732  0.7984 -0.1819 -0.1408
 7480SOL    HW134073   2.891   1.897   9.789 -1.9396 -1.3327 -0.6294
 7480SOL    HW234074   2.946   1.879   9.652  0.9252  1.0854  0.6665
 7481SOL     OW34075   0.487   0.887   3.250  0.3243  0.0263  0.0893
 7481SOL    HW134076   0.468   0.817   3.187  0.6569 -1.5330  1.7168
 7481SOL    HW234077   0.569   0.845   3.277 -0.3231 -1.1612  0.2133
 7482SOL     OW34078   1.367   0.314  13.164 -0.1532  0.2016 -0.2304
 7482SOL    HW134079   1.335   0.372  13.233 -0.0263  1.9038 -1.6051
 7482SOL    HW234080   1.317   0.350  13.091 -1.6000 -0.8127  0.2543
 7483SOL     OW34081   0.835   1.522   8.416  0.3865  0.7105 -0.2812
 7483SOL    HW134082   0.899   1.456   8.440  1.4432  1.6137 -0.5933
 7483SOL    HW234083   0.803   1.559   8.498  0.4143 -3.8005  1.7586
 7484SOL     OW34084   3.992   4.343  11.039 -0.3275 -0.2990  0.2148
 7484SOL    HW134085   3.989   4.300  11.125 -0.1799 -2.7759 -1.0298
 7484SOL    HW234086   4.074   4.302  11.012  1.1223  3.4195 -0.9878
 7485SOL     OW34087   0.240   2.942   7.267  0.6987  0.1595 -0.3882
 7485SOL    HW134088   0.326   2.940   7.225  0.7122  0.4543 -0.3808
 7485SOL    HW234089   0.187   2.890   7.208  1.7777 -0.2130 -1.0231
 7486SOL     OW34090   1.036   1.144   9.793  0.1264 -0.3957  0.0396
 7486SOL    HW134091   1.046   1.108   9.881 -1.5018 -1.3294 -0.1621
 7486SOL    HW234092   1.083   1.086   9.733  0.6025 -0.5750  0.5844
 7487SOL     OW34093   1.080   4.662   9.396  0.1990 -0.2957 -0.3470
 7487SOL    HW134094   0.997   4.615   9.408  0.3081 -0.4117 -0.0336
 7487SOL    HW234095   1.122   4.596   9.340 -1.0450 -1.1943 -0.2063
 7488SOL     OW34096   3.533   2.730   0.977  0.2145 -0.0658 -0.8635
 7488SOL    HW134097   3.610   2.780   0.946 -1.3809  2.3062 -0.9972
 7488SOL    HW234098   3.479   2.802   1.008  1.6999 -0.6782  3.0780
 7489SOL     OW34099   1.143   1.745   7.084  0.2344 -0.8400 -0.4833
 7489SOL    HW134100   1.180   1.820   7.037 -1.5390 -0.4631 -1.2770
 7489SOL    HW234101   1.215   1.722   7.143 -0.9083 -1.1427  0.8023
 7490SOL     OW34102   3.836   2.596   0.888  0.2173 -0.3848 -0.6447
 7490SOL    HW134103   3.836   2.545   0.807 -1.3886 -1.8386  0.2589
 7490SOL    HW234104   3.806   2.679   0.852  0.1065 -0.6253 -1.1055
 7491SOL     OW34105   1.560   3.082  10.419 -0.5987 -0.6170 -0.1280
 7491SOL    HW134106   1.477   3.113  10.457  1.0502  0.0272  2.8915
 7491SOL    HW234107   1.565   2.996  10.459  2.7013 -0.0478  0.6540
 7492SOL     OW34108   3.075   4.650   7.256  0.0636 -0.0665 -0.1382
 7492SOL    HW134109   3.171   4.654   7.246 -0.1017  2.0484 -0.9718
 7492SOL    HW234110   3.056   4.691   7.172 -0.1633  1.3525  0.6088
 7493SOL     OW34111   0.763   4.167  12.580 -0.3055 -0.2593  0.1409
 7493SOL    HW134112   0.766   4.205  12.492 -0.5331 -2.3312 -0.7628
 7493SOL    HW234113   0.843   4.208  12.615  0.9004 -1.6086 -1.0684
 7494SOL     OW34114   1.283   1.887   8.436  0.1927 -0.4069  0.3722
 7494SOL    HW134115   1.344   1.815   8.418 -0.2958 -0.3872 -1.3407
 7494SOL    HW234116   1.342   1.954   8.403 -0.7589 -0.6841 -1.8704
 7495SOL     OW34117   2.500   3.717   1.720 -0.2368 -0.9662  0.4129
 7495SOL    HW134118   2.454   3.633   1.725  1.3792 -1.8998 -0.5423
 7495SOL    HW234119   2.428   3.778   1.742  1.8691  1.5030  0.4709
 7496SOL     OW34120   1.813   0.607   7.095 -0.1261  0.1318 -0.0335
 7496SOL    HW134121   1.739   0.667   7.096  2.8048  3.7641 -0.2934
 7496SOL    HW234122   1.850   0.628   7.181 -0.9687 -0.0744  0.3824
 7497SOL     OW34123   3.038   1.325   6.660 -0.1517 -0.7955  0.4612
 7497SOL    HW134124   3.073   1.414   6.652 -3.2491  0.3611 -0.0490
 7497SOL    HW234125   3.094   1.270   6.605 -1.3494 -0.7444 -0.7875
 7498SOL     OW34126   1.341   0.386  13.902 -0.5907  0.1104  0.5352
 7498SOL    HW134127   1.399   0.329  13.952 -0.6323 -0.7843 -0.4156
 7498SOL    HW234128   1.256   0.359  13.938 -1.4846  0.5295 -1.2460
 7499SOL     OW34129   3.060   0.302   7.919  0.3296 -0.4362  0.7706
 7499SOL    HW134130   3.043   0.363   7.991 -0.8347  1.0901 -0.8057
 7499SOL    HW234131   3.140   0.255   7.943  1.4524  1.0402 -0.0228
 7500SOL     OW34132   3.115   4.604   3.014  0.3081 -0.4911 -0.4829
 7500SOL    HW134133   3.134   4.580   3.104  0.8162 -0.0389 -0.4742
 7500SOL    HW234134   3.198   4.638   2.981  0.0048  1.3770  0.6569
 7501SOL     OW34135   2.701   4.649   6.416  0.1849  0.2673  0.2328
 7501SOL    HW134136   2.742   4.706   6.481  0.4204  0.1945  0.1468
 7501SOL    HW234137   2.631   4.602   6.462 -0.1892  1.7422  1.1682
 7502SOL     OW34138   4.039   1.612   2.295 -0.0451 -0.2498 -0.0004
 7502SOL    HW134139   3.990   1.548   2.243  1.5891 -1.0594 -0.5444
 7502SOL    HW234140   4.129   1.601   2.263 -0.2548 -1.1859 -0.2719
 7503SOL     OW34141   1.805   3.154  12.864  0.7578 -0.3118 -0.0057
 7503SOL    HW134142   1.713   3.178  12.872  0.7786 -0.0634 -0.5130
 7503SOL    HW234143   1.837   3.243  12.852  0.1745  0.0941  1.4329
 7504SOL     OW34144   0.226   0.163   8.323  0.3286  0.1975 -0.1252
 7504SOL    HW134145   0.258   0.224   8.389  1.7668 -0.6525 -0.0314
 7504SOL    HW234146   0.158   0.207   8.271 -0.5668 -0.1785  0.7270
 7505SOL     OW34147   4.568   0.068   2.935 -0.1728  0.4943 -0.0497
 7505SOL    HW134148   4.639   0.110   2.887 -1.3954  0.5108 -1.8468
 7505SOL    HW234149   4.576   0.107   3.022 -2.3301 -1.7382  1.1417
 7506SOL     OW34150   1.960   0.094  11.777  0.2492 -0.5402 -0.3421
 7506SOL    HW134151   2.008   0.147  11.840 -0.8217  2.1234 -1.7989
 7506SOL    HW234152   1.923   0.155  11.714 -2.4949 -0.1604  1.6138
 7507SOL     OW34153   2.173   1.091   7.826  0.5342  0.4155 -0.4792
 7507SOL    HW134154   2.179   1.013   7.880  0.2792  1.1409  0.5872
 7507SOL    HW234155   2.135   1.054   7.746  0.9897 -0.2139 -0.4003
 7508SOL     OW34156   1.721   4.050   2.475 -0.6270  0.1874 -0.1066
 7508SOL    HW134157   1.687   4.074   2.389 -0.6169  0.7418  0.0456
 7508SOL    HW234158   1.778   3.981   2.440 -1.8299  0.2117 -2.1233
 7509SOL     OW34159   1.447   0.112   2.916 -0.1873  0.0441  0.0130
 7509SOL    HW134160   1.382   0.074   2.976  0.7467  0.9204  1.5932
 7509SOL    HW234161   1.520   0.113   2.978 -0.5192  0.2330  0.4076
 7510SOL     OW34162   0.247   2.739   0.911 -0.0421  0.1713 -0.1265
 7510SOL    HW134163   0.157   2.716   0.934 -0.2329  1.4167  0.3674
 7510SOL    HW234164   0.241   2.818   0.858 -1.1127 -0.4753 -0.9523
 7511SOL     OW34165   3.016   3.289   1.860  0.0476 -0.4148  0.0465
 7511SOL    HW134166   3.051   3.293   1.949 -1.2860  0.8934  0.5316
 7511SOL    HW234167   2.968   3.207   1.863  2.5089 -1.8878 -1.1273
 7512SOL     OW34168   1.919   0.608   6.623  0.0233  0.2891 -0.0997
 7512SOL    HW134169   1.828   0.605   6.653 -0.0536  0.1839 -0.3398
 7512SOL    HW234170   1.949   0.693   6.655  1.0378  0.2598 -0.9520
 7513SOL     OW34171   2.312   2.458   9.301 -0.2224 -0.0410  0.4752
 7513SOL    HW134172   2.219   2.435   9.310 -0.6179  0.9916 -1.0047
 7513SOL    HW234173   2.350   2.381   9.344  0.5058  1.6343  2.8438
 7514SOL     OW34174   0.494   0.225  14.777 -0.4386 -0.0270 -0.3016
 7514SOL    HW134175   0.502   0.260  14.866 -1.4261 -1.4828  0.3429
 7514SOL    HW234176   0.478   0.133  14.794  1.2982 -0.7534 -2.5231
 7515SOL     OW34177   1.525   0.607   5.815 -0.4338 -0.5907 -0.4507
 7515SOL    HW134178   1.575   0.624   5.735 -1.9782 -0.7289 -1.4375
 7515SOL    HW234179   1.579   0.546   5.866 -0.3163 -0.6063 -0.5950
 7516SOL     OW34180   0.941   0.251  14.137 -0.1498  0.1152 -0.2647
 7516SOL    HW134181   1.031   0.254  14.105  0.5678  1.0665  1.8323
 7516SOL    HW234182   0.921   0.344  14.141 -1.2731 -0.0992 -0.8803
 7517SOL     OW34183   2.923   4.250   8.868 -0.2077  0.2390  0.0339
 7517SOL    HW134184   2.842   4.200   8.878 -0.7340  1.0345 -0.2344
 7517SOL    HW234185   2.980   4.198   8.924 -0.0698 -0.2065 -0.5237
 7518SOL     OW34186   2.034   1.109   7.573  0.5011  0.2009  0.4206
 7518SOL    HW134187   2.099   1.154   7.520  1.9279 -2.1471  0.1377
 7518SOL    HW234188   1.963   1.172   7.567 -0.3713 -0.6709  1.4966
 7519SOL     OW34189   1.457   1.844   9.583  0.4700  0.2147  0.6023
 7519SOL    HW134190   1.399   1.817   9.512 -0.3631  3.4117  0.0894
 7519SOL    HW234191   1.397   1.892   9.639  1.1664  0.6182  0.9964
 7520SOL     OW34192   2.116   2.148   4.406  0.1010  0.5133 -0.0546
 7520SOL    HW134193   2.157   2.204   4.340 -2.7275  0.1190 -2.1358
 7520SOL    HW234194   2.172   2.177   4.478  0.9849 -0.6188 -0.2711
 7521SOL     OW34195   2.902   2.547   1.045 -0.8265  0.1636  0.2390
 7521SOL    HW134196   2.923   2.467   1.093 -1.0532 -0.1051 -0.1051
 7521SOL    HW234197   2.872   2.604   1.116  1.1654  0.3542  0.9226
 7522SOL     OW34198   1.682   4.704   7.649 -0.2002  0.3369 -0.4029
 7522SOL    HW134199   1.659   0.060   7.643  0.6785  0.5740 -0.0585
 7522SOL    HW234200   1.697   4.680   7.740  1.1279 -1.0364 -0.9720
 7523SOL     OW34201   0.252   4.721   4.223 -0.2344  0.2145 -0.3200
 7523SOL    HW134202   0.320   4.655   4.239 -1.2978 -1.1499 -1.5039
 7523SOL    HW234203   0.170   4.676   4.206 -0.2798  0.3194 -0.3767
 7524SOL     OW34204   1.310   3.125   2.973 -0.9979  0.1712  0.2048
 7524SOL    HW134205   1.236   3.146   2.915 -0.9605  1.4677  0.6093
 7524SOL    HW234206   1.355   3.207   2.994 -2.0406  0.8940 -0.3685
 7525SOL     OW34207   1.736   3.954   6.437  0.0688 -0.2868  0.0862
 7525SOL    HW134208   1.708   4.046   6.438 -3.2671 -1.3487  0.8581
 7525SOL    HW234209   1.826   3.955   6.470 -0.4674 -0.8598  1.5539
 7526SOL     OW34210   2.033   3.263   8.709 -0.0891 -0.0312 -0.0846
 7526SOL    HW134211   1.974   3.188   8.701  1.7543 -1.4350 -0.5254
 7526SOL    HW234212   2.081   3.247   8.791 -2.4874 -1.1432  1.0959
 7527SOL     OW34213   1.708   2.682   6.073  0.0295 -0.1314 -0.5408
 7527SOL    HW134214   1.669   2.762   6.038 -0.5569 -0.2603 -0.1896
 7527SOL    HW234215   1.802   2.697   6.066  0.2097 -1.1818 -0.3868
 7528SOL     OW34216   3.887   3.378  11.148 -0.3491  0.2067  0.2784
 7528SOL    HW134217   3.933   3.327  11.215 -0.8212 -1.3895 -0.6100
 7528SOL    HW234218   3.936   3.356  11.068  0.6688  0.9731  0.6986
 7529SOL     OW34219   1.106   0.669   3.309 -0.1599 -0.0397 -0.2682
 7529SOL    HW134220   1.171   0.631   3.367 -1.1950 -0.9223  0.3218
 7529SOL    HW234221   1.125   0.763   3.304 -0.5303 -0.0078 -1.1608
 7530SOL     OW34222   4.066   3.340  16.732  0.7297  0.2064 -0.5434
 7530SOL    HW134223   4.068   3.394  16.811  2.9988  1.5140 -1.4918
 7530SOL    HW234224   3.988   3.290  16.758  1.0631  0.2453  0.5195
 7531SOL     OW34225   0.765   1.977   0.898 -0.1783  0.2123  0.4582
 7531SOL    HW134226   0.764   2.050   0.961  0.0169 -0.5510  1.3555
 7531SOL    HW234227   0.679   1.978   0.858  0.0832 -0.5315 -0.1032
 7532SOL     OW34228   1.580   2.658   3.947  0.3374 -0.0013 -0.2511
 7532SOL    HW134229   1.493   2.698   3.941  0.7324  1.0360  1.1263
 7532SOL    HW234230   1.577   2.607   3.866  0.6378  0.0841 -0.3143
 7533SOL     OW34231   3.795   0.616   2.288 -0.1864  0.1921 -0.5955
 7533SOL    HW134232   3.850   0.606   2.211  1.3053  0.0302  0.4944
 7533SOL    HW234233   3.857   0.659   2.346 -1.8667  0.7136  0.8192
 7534SOL     OW34234   2.647   4.590  16.286  0.5854  0.7106  0.5260
 7534SOL    HW134235   2.562   4.586  16.331  0.1250 -1.5107 -0.5308
 7534SOL    HW234236   2.645   4.677  16.247  0.9954  1.3227  1.8759
 7535SOL     OW34237   0.073   2.063   3.174  0.0347 -0.2799 -0.6073
 7535SOL    HW134238   0.139   2.088   3.238  0.6001 -1.0300 -0.8947
 7535SOL    HW234239   0.012   2.137   3.171  1.1684  0.6066 -1.9511
 7536SOL     OW34240   0.644   1.571   3.366  0.0621 -0.2499  0.6849
 7536SOL    HW134241   0.735   1.584   3.339  0.6975  1.6670  3.7137
 7536SOL    HW234242   0.625   1.482   3.336  0.0349  0.7484 -2.2590
 7537SOL     OW34243   3.017   0.395   8.700  0.0831  0.2715 -0.4594
 7537SOL    HW134244   3.034   0.438   8.617 -2.1175  0.7032 -0.6974
 7537SOL    HW234245   3.061   0.311   8.684  0.3752  1.1845 -4.3609
 7538SOL     OW34246   1.971   1.948   9.732  0.4243  0.4403  0.1730
 7538SOL    HW134247   1.895   1.890   9.735  1.3227 -0.6525  2.3631
 7538SOL    HW234248   2.009   1.936   9.819 -0.5581  0.5007  0.6083
 7539SOL     OW34249   3.830   4.200   6.768  0.1678  0.0768  0.1822
 7539SOL    HW134250   3.917   4.160   6.765 -0.5402 -1.8230  3.8399
 7539SOL    HW234251   3.791   4.141   6.833 -1.1110  0.8974  0.1606
 7540SOL     OW34252   3.927   3.336  12.176  0.2169 -0.1309  0.4169
 7540SOL    HW134253   3.952   3.246  12.155 -0.9549 -0.0282 -1.4312
 7540SOL    HW234254   3.899   3.372  12.092 -0.5399 -1.0870  0.2570
 7541SOL     OW34255   4.034   3.278   7.914 -0.1683  0.2624  0.0354
 7541SOL    HW134256   4.009   3.190   7.886 -0.7832 -0.0535  1.5837
 7541SOL    HW234257   4.122   3.258   7.946 -0.2635 -2.2126 -1.2528
 7542SOL     OW34258   3.362   3.817  16.794 -0.1366 -0.5872  0.3404
 7542SOL    HW134259   3.284   3.864  16.763  1.3464  1.3757 -0.3892
 7542SOL    HW234260   3.421   3.879  16.837  1.2241 -1.0069 -0.9329
 7543SOL     OW34261   0.582   3.480   7.870  0.4754  0.4114 -0.0676
 7543SOL    HW134262   0.533   3.418   7.815  0.3017 -0.3555  0.9512
 7543SOL    HW234263   0.577   3.561   7.819 -0.0251  0.5083  0.1332
 7544SOL     OW34264   3.142   1.748   2.751 -0.3493 -0.0556  0.5629
 7544SOL    HW134265   3.095   1.822   2.713 -0.3301  0.5886  1.7867
 7544SOL    HW234266   3.140   1.762   2.846  1.1814 -0.0606  0.5966
 7545SOL     OW34267   3.819   4.262  15.895  0.4834  0.2044 -0.0822
 7545SOL    HW134268   3.856   4.344  15.863  1.4766  0.5369  1.8859
 7545SOL    HW234269   3.738   4.286  15.941  0.9027 -1.0522  1.3276
 7546SOL     OW34270   1.759   1.569   2.462  0.2994  0.2971 -0.1655
 7546SOL    HW134271   1.692   1.604   2.402  0.4568 -0.1092 -0.5775
 7546SOL    HW234272   1.743   1.478   2.436  3.8326 -0.9113  1.9475
 7547SOL     OW34273   1.379   1.136   9.309 -0.3868 -0.4803  0.4618
 7547SOL    HW134274   1.326   1.059   9.288 -1.2864  0.5092 -0.8916
 7547SOL    HW234275   1.464   1.101   9.335  0.3195  1.3892  0.7207
 7548SOL     OW34276   0.853   2.717   5.009 -0.0075 -0.0290 -0.2687
 7548SOL    HW134277   0.823   2.808   5.004 -2.0587 -0.6018  1.6144
 7548SOL    HW234278   0.811   2.693   4.926  1.0979  0.9676 -1.1248
 7549SOL     OW34279   2.753   3.719   3.097 -0.2823  0.2417  0.0166
 7549SOL    HW134280   2.667   3.761   3.089  0.6754  2.3059  0.6536
 7549SOL    HW234281   2.810   3.770   3.041 -0.0483 -1.4326 -1.2549
 7550SOL     OW34282   1.257   3.647   7.772  0.5825 -0.4887 -0.0130
 7550SOL    HW134283   1.171   3.682   7.798 -0.3064 -2.6940  0.0145
 7550SOL    HW234284   1.314   3.720   7.793 -1.6110  1.4571 -0.8081
 7551SOL     OW34285   2.445   1.541   6.974 -0.0214  0.3346 -0.0146
 7551SOL    HW134286   2.494   1.598   7.034  1.3451 -0.6068 -0.2245
 7551SOL    HW234287   2.485   1.565   6.890 -1.2331  1.2456 -0.3215
 7552SOL     OW34288   4.523   0.767   7.772  0.4484  0.1426  0.1546
 7552SOL    HW134289   4.596   0.781   7.711  0.6308  1.5391  0.6887
 7552SOL    HW234290   4.517   0.857   7.805 -2.2737 -0.1418  0.4180
 7553SOL     OW34291   0.176   2.413   2.572  0.0455 -0.2566  0.3559
 7553SOL    HW134292   0.222   2.449   2.495 -1.8359  1.5694  0.0677
 7553SOL    HW234293   0.246   2.397   2.635 -1.2901  1.8490  2.3525
 7554SOL     OW34294   3.145   4.215   3.185  0.5337 -0.8741  0.1857
 7554SOL    HW134295   3.157   4.148   3.252  0.3345 -2.5425 -1.4407
 7554SOL    HW234296   3.188   4.287   3.232  1.6263 -1.3912 -0.0284
 7555SOL     OW34297   4.604   4.465   1.869  0.0134  0.5773  0.4186
 7555SOL    HW134298   4.537   4.432   1.809 -0.4918 -0.6350  1.6507
 7555SOL    HW234299   4.610   4.559   1.851 -0.6991  0.1449 -2.0616
 7556SOL     OW34300   2.190   1.586   4.790  0.0973 -0.0406  0.5349
 7556SOL    HW134301   2.188   1.600   4.695  0.3987  2.1163  0.8354
 7556SOL    HW234302   2.168   1.673   4.824  0.2281 -0.8231  2.6197
 7557SOL     OW34303   0.524   1.664   8.083  0.1821 -0.3215 -0.6719
 7557SOL    HW134304   0.519   1.657   7.988 -0.3278  1.1747 -0.7556
 7557SOL    HW234305   0.619   1.676   8.089  0.1626 -1.4687  2.1382
 7558SOL     OW34306   4.371   2.971   4.013 -0.0697  0.2767 -0.0019
 7558SOL    HW134307   4.466   2.983   4.018 -0.4530  3.0952  0.5799
 7558SOL    HW234308   4.352   2.967   4.107  0.7187 -0.7472  0.1113
 7559SOL     OW34309   0.211   3.851   6.684 -0.0355 -0.8350  0.2332
 7559SOL    HW134310   0.288   3.845   6.627 -0.5531  0.4378 -0.6098
 7559SOL    HW234311   0.248   3.900   6.758  0.4142 -0.1178 -0.4610
 7560SOL     OW34312   1.255   0.372   8.143 -0.0388 -0.2521  0.4044
 7560SOL    HW134313   1.269   0.347   8.052 -2.6760 -0.8550  0.1458
 7560SOL    HW234314   1.165   0.343   8.161 -0.3217  0.6458  0.4374
 7561SOL     OW34315   3.087   1.807   7.130  0.0767 -0.2929  0.6409
 7561SOL    HW134316   3.139   1.881   7.163  0.6762 -0.6903  0.5869
 7561SOL    HW234317   3.136   1.782   7.051  1.1721 -1.4401  1.6968
 7562SOL     OW34318   2.594   4.496  10.434 -0.3098  0.0334  0.2002
 7562SOL    HW134319   2.576   4.447  10.514  1.9715 -2.3257 -0.7377
 7562SOL    HW234320   2.518   4.480  10.378  0.1087  2.4309 -1.0662
 7563SOL     OW34321   1.405   1.640   4.104  0.0867 -0.2280  0.1192
 7563SOL    HW134322   1.480   1.687   4.069  0.2527  0.1448  0.9611
 7563SOL    HW234323   1.441   1.559   4.141  2.0131 -0.5670 -2.5556
 7564SOL     OW34324   2.687   1.359   4.418  0.2686  0.5149  0.4830
 7564SOL    HW134325   2.729   1.363   4.504  1.6401  1.0974 -0.1942
 7564SOL    HW234326   2.686   1.267   4.393  0.6929  0.5331  0.3868
 7565SOL     OW34327   0.780   1.901   5.264 -0.0312 -0.0386  0.1182
 7565SOL    HW134328   0.737   1.962   5.325 -0.5838  1.4122 -1.7121
 7565SOL    HW234329   0.765   1.818   5.308  1.5844 -0.6280 -0.4748
 7566SOL     OW34330   3.766   0.336   2.335 -0.6045  0.0693 -0.5632
 7566SOL    HW134331   3.807   0.401   2.277  0.5480  1.4504  1.8018
 7566SOL    HW234332   3.773   0.371   2.424 -1.3075 -3.0958  0.7419
 7567SOL     OW34333   3.592   3.918   4.296  0.1010 -0.2242  0.3343
 7567SOL    HW134334   3.553   3.940   4.212 -0.3816  1.5255  1.0041
 7567SOL    HW234335   3.515   3.932   4.352 -0.4909 -1.4202 -0.1739
 7568SOL     OW34336   0.340   2.056   4.083  0.6954  0.0740  0.1348
 7568SOL    HW134337   0.275   1.990   4.059 -2.5387  3.5862 -0.8302
 7568SOL    HW234338   0.287   2.115   4.137  1.6194  1.4807 -0.4638
 7569SOL     OW34339   3.609   2.285   8.324 -0.0082  0.4954 -0.0721
 7569SOL    HW134340   3.692   2.294   8.371 -1.0259  1.3835  1.5592
 7569SOL    HW234341   3.605   2.362   8.267  0.2339  0.6469  0.1159
 7570SOL     OW34342   2.665   3.636  16.667  0.4546  0.0184  0.2384
 7570SOL    HW134343   2.634   3.603  16.751 -1.2214  2.1475  0.4430
 7570SOL    HW234344   2.710   3.562  16.626 -0.2101 -0.8472  1.0620
 7571SOL     OW34345   2.999   0.439   1.467  0.2249  0.0533  0.2083
 7571SOL    HW134346   3.092   0.455   1.451  0.2807  1.5517  2.0187
 7571SOL    HW234347   2.983   0.495   1.543 -1.0808  0.4080 -0.3385
 7572SOL     OW34348   4.368   4.701   6.841  0.4174  0.2603 -0.0804
 7572SOL    HW134349   4.438   0.005   6.890  0.6994 -1.0719  0.6245
 7572SOL    HW234350   4.402   4.616   6.815  0.9318 -0.1604  1.9432
 7573SOL     OW34351   2.352   4.506  12.671 -0.2896 -0.3531  0.7089
 7573SOL    HW134352   2.391   4.539  12.590 -0.6284 -0.0192  0.6794
 7573SOL    HW234353   2.261   4.534  12.660 -0.1895 -0.4163 -0.3046
 7574SOL     OW34354   0.802   2.503  17.458 -0.5415 -0.5011  0.6320
 7574SOL    HW134355   0.848   2.532  17.380  2.3323  1.6062  3.0838
 7574SOL    HW234356   0.816   2.409  17.455  0.1153 -0.3706 -0.2412
 7575SOL     OW34357   1.227   1.477   8.166  0.4439 -0.2716 -0.4753
 7575SOL    HW134358   1.143   1.465   8.121  1.3104 -1.2824 -1.8293
 7575SOL    HW234359   1.274   1.550   8.126 -0.4465  0.7809  0.4094
 7576SOL     OW34360   1.857   0.409   8.467  0.4250 -0.6789 -0.1022
 7576SOL    HW134361   1.773   0.400   8.423  0.8062  0.2548 -0.9999
 7576SOL    HW234362   1.908   0.469   8.413 -1.2469  0.0553 -0.8765
 7577SOL     OW34363   4.131   1.660  17.065 -0.2056  0.3053 -0.2814
 7577SOL    HW134364   4.153   1.740  17.112  0.9855 -0.5002  0.5407
 7577SOL    HW234365   4.104   1.696  16.981 -2.2079  2.6246  1.3826
 7578SOL     OW34366   1.306   4.411   4.321 -0.5673 -0.4271 -0.8572
 7578SOL    HW134367   1.234   4.362   4.360 -1.0052  0.5497 -0.4178
 7578SOL    HW234368   1.261   4.490   4.289  3.6004  2.3695  0.2733
 7579SOL     OW34369   3.589   1.495  12.623 -0.1025 -0.5448 -0.1642
 7579SOL    HW134370   3.651   1.477  12.694 -0.0559 -0.3605 -0.1584
 7579SOL    HW234371   3.607   1.417  12.570 -0.1662 -0.7469  0.1099
 7580SOL     OW34372   3.384   1.872   2.280 -0.1159  0.3816 -0.1686
 7580SOL    HW134373   3.439   1.859   2.358 -0.0079  1.2592 -0.0997
 7580SOL    HW234374   3.322   1.800   2.283 -0.6862  0.9069  0.6823
 7581SOL     OW34375   0.526   0.086   3.247  0.0165  0.2228  0.4563
 7581SOL    HW134376   0.491   0.031   3.317 -0.8184  0.1089 -0.0390
 7581SOL    HW234377   0.605   0.120   3.287 -0.8002  0.4285  1.8868
 7582SOL     OW34378   3.560   0.318  16.138  0.1613 -0.3006  0.2784
 7582SOL    HW134379   3.615   0.392  16.162  0.0251 -0.9898  2.6849
 7582SOL    HW234380   3.493   0.369  16.094  0.5113 -1.1840 -1.2928
 7583SOL     OW34381   2.134   1.732   6.571 -0.2814 -0.0754 -0.5102
 7583SOL    HW134382   2.119   1.661   6.634 -0.6262  0.7568  0.3382
 7583SOL    HW234383   2.201   1.699   6.512 -1.8257  1.2793 -2.9835
 7584SOL     OW34384   2.099   2.653   4.180 -0.6302  0.1487  0.3265
 7584SOL    HW134385   2.007   2.654   4.154 -1.6113  2.5180  3.8472
 7584SOL    HW234386   2.132   2.631   4.093  1.4824  0.4268  1.0584
 7585SOL     OW34387   1.823   2.475  15.179 -0.2488 -0.3210  0.0185
 7585SOL    HW134388   1.833   2.489  15.273 -1.1031  1.0248 -0.0776
 7585SOL    HW234389   1.802   2.382  15.180  1.0297 -0.6065  0.4866
 7586SOL     OW34390   1.233   4.694   6.454  0.2893 -0.2037  0.4107
 7586SOL    HW134391   1.139   4.682   6.465  0.4001 -2.9193 -1.5779
 7586SOL    HW234392   1.228   0.014   6.377 -0.8629  0.6524  1.1191
 7587SOL     OW34393   1.704   0.046   8.538  0.4314 -0.7337 -0.1820
 7587SOL    HW134394   1.748   0.039   8.453 -1.6195 -1.8240 -1.1728
 7587SOL    HW234395   1.776   0.090   8.583 -1.8760 -0.1609  2.9191
 7588SOL     OW34396   4.619   3.261  14.885 -0.0768  0.2691  0.0145
 7588SOL    HW134397   4.679   3.295  14.819  1.7026 -1.3484  0.8032
 7588SOL    HW234398   4.532   3.276  14.848 -0.1637  1.7283  0.8095
 7589SOL     OW34399   1.596   4.623  12.366  0.3223 -0.1042  0.0601
 7589SOL    HW134400   1.531   4.686  12.396 -1.1627 -2.2931  1.4134
 7589SOL    HW234401   1.618   4.568  12.442  2.6800 -1.0803 -1.3122
 7590SOL     OW34402   2.464   3.678  11.694  0.2764 -0.0664 -0.3792
 7590SOL    HW134403   2.405   3.739  11.649 -0.4056  1.0624  2.0872
 7590SOL    HW234404   2.412   3.598  11.682  1.6942 -1.1851  1.0967
 7591SOL     OW34405   0.982   1.983   6.512  0.1133 -0.1022  0.3753
 7591SOL    HW134406   1.013   1.996   6.601 -0.5710 -1.5308  0.8130
 7591SOL    HW234407   0.977   2.073   6.478  1.0181 -0.3830 -0.5289
 7592SOL     OW34408   0.358   2.791   5.412 -0.5660 -0.2769  0.6495
 7592SOL    HW134409   0.296   2.838   5.467 -1.1044  1.0027 -1.0623
 7592SOL    HW234410   0.415   2.761   5.483  1.3036 -2.2907 -1.7213
 7593SOL     OW34411   3.631   1.494   7.963 -0.1616  0.2253  0.1127
 7593SOL    HW134412   3.572   1.457   8.029 -1.0512  1.8844  0.2418
 7593SOL    HW234413   3.580   1.574   7.948  0.4707  0.0142 -3.0746
 7594SOL     OW34414   1.730   4.684   2.637 -0.1152  0.0072 -0.3154
 7594SOL    HW134415   1.665   4.730   2.583 -1.6773  0.4501  1.9409
 7594SOL    HW234416   1.778   4.643   2.565  2.5259  4.6191 -1.1950
 7595SOL     OW34417   2.896   0.118   5.144  0.4154  0.0097 -0.8798
 7595SOL    HW134418   2.944   0.060   5.203  0.1695  0.4173 -0.2792
 7595SOL    HW234419   2.809   0.114   5.182  0.9405 -3.1075 -0.0377
 7596SOL     OW34420   4.648   0.756   6.178 -1.0473  0.0726  0.3646
 7596SOL    HW134421   4.719   0.702   6.212 -1.3595  0.2296  1.2545
 7596SOL    HW234422   4.581   0.736   6.243  0.2953 -1.8240  1.1364
 7597SOL     OW34423   1.593   4.583   8.223 -0.5129  0.3417 -0.2905
 7597SOL    HW134424   1.689   4.591   8.227 -0.2087 -2.0281 -3.3890
 7597SOL    HW234425   1.574   4.558   8.314 -0.2545  1.7475  0.1524
 7598SOL     OW34426   4.056   4.544  15.459 -0.0991 -0.1946  0.4698
 7598SOL    HW134427   4.000   4.520  15.385 -0.3017  2.6583 -0.3222
 7598SOL    HW234428   4.138   4.568  15.417  0.6713  0.0223  2.1069
 7599SOL     OW34429   1.569   0.922   8.804 -0.1039 -0.3471  0.1955
 7599SOL    HW134430   1.515   0.914   8.883  0.7981 -2.3187  0.6306
 7599SOL    HW234431   1.511   0.985   8.761 -1.0278 -1.2815  0.0793
 7600SOL     OW34432   0.842   0.270  14.898 -0.6186 -0.5467 -0.0989
 7600SOL    HW134433   0.826   0.280  14.805 -3.0874  1.1146  0.5074
 7600SOL    HW234434   0.936   0.286  14.902 -0.8960  1.0616  0.0774
 7601SOL     OW34435   0.193   0.839   0.823 -0.4125  0.1510  0.5825
 7601SOL    HW134436   0.101   0.856   0.842  0.0036  3.3348 -0.3514
 7601SOL    HW234437   0.183   0.822   0.730 -0.9089 -1.6810  0.9660
 7602SOL     OW34438   2.443   0.472   7.668 -0.1197 -0.1599 -0.2026
 7602SOL    HW134439   2.416   0.427   7.748 -0.1598 -2.1482 -1.3338
 7602SOL    HW234440   2.451   0.402   7.603 -1.1418 -0.2441 -0.2339
 7603SOL     OW34441   1.631   3.382   7.467  0.3062  0.2636 -1.0179
 7603SOL    HW134442   1.589   3.311   7.516  2.7994  0.2696  1.1326
 7603SOL    HW234443   1.604   3.457   7.520  1.3483 -0.0921  0.0298
 7604SOL     OW34444   4.382   3.372  13.158 -0.0529  0.0139  0.1603
 7604SOL    HW134445   4.357   3.361  13.066  0.7233  2.0549 -0.2975
 7604SOL    HW234446   4.458   3.428  13.142  0.4594 -0.3858  1.2232
 7605SOL     OW34447   2.854   4.533   7.330  0.2118  0.0117  0.4308
 7605SOL    HW134448   2.832   4.596   7.399  2.1050 -0.7506  1.7440
 7605SOL    HW234449   2.938   4.566   7.299  0.3022  0.6843  1.3766
 7606SOL     OW34450   1.616   0.071   4.140 -0.0270  0.1452  0.3716
 7606SOL    HW134451   1.563   0.036   4.212 -0.9269  0.9997  0.1263
 7606SOL    HW234452   1.573   0.155   4.122 -0.9050 -0.0747  1.4084
 7607SOL     OW34453   0.939   2.332   3.045 -0.3307 -0.2604  0.4595
 7607SOL    HW134454   1.022   2.301   3.083 -0.5548  0.7840  1.7754
 7607SOL    HW234455   0.884   2.262   3.081 -2.7593  1.2176 -0.3673
 7608SOL     OW34456   1.136   3.119   9.338  0.4394  0.1681  0.0751
 7608SOL    HW134457   1.184   3.189   9.382  0.0065  0.4544  0.0887
 7608SOL    HW234458   1.103   3.074   9.416 -0.7426 -1.7647 -1.5467
 7609SOL     OW34459   3.700   2.806   4.662 -0.6031  0.2322  0.1236
 7609SOL    HW134460   3.691   2.813   4.567 -0.1769 -1.2437 -0.0254
 7609SOL    HW234461   3.794   2.786   4.656 -1.0201 -2.6084  3.3012
 7610SOL     OW34462   3.373   1.214  16.964  0.3281  0.2574 -0.1255
 7610SOL    HW134463   3.463   1.196  16.935  1.1020  1.7776  1.3476
 7610SOL    HW234464   3.348   1.287  16.907 -0.6389 -0.9039 -1.1865
 7611SOL     OW34465   1.616   3.373   6.617  0.3432 -0.0775  0.1488
 7611SOL    HW134466   1.601   3.328   6.534 -2.3204 -2.0983  1.7407
 7611SOL    HW234467   1.608   3.305   6.684  0.8320  0.4231  0.7198
 7612SOL     OW34468   4.375   3.160   5.958  0.2167 -0.1541  0.3223
 7612SOL    HW134469   4.284   3.190   5.962  1.0131  2.1591  1.3287
 7612SOL    HW234470   4.400   3.143   6.049  2.5204 -0.3712 -0.3542
 7613SOL     OW34471   3.687   1.698   6.038  0.0560  0.1296  0.3165
 7613SOL    HW134472   3.616   1.740   5.990 -0.8032 -1.1804  0.4693
 7613SOL    HW234473   3.640   1.674   6.118 -3.6778  2.5309 -1.1526
 7614SOL     OW34474   3.515   3.534   5.211 -0.3270  0.4682 -0.9519
 7614SOL    HW134475   3.447   3.483   5.255  1.5702 -0.1757  1.2410
 7614SOL    HW234476   3.470   3.614   5.186 -4.1042 -1.5492 -0.6851
 7615SOL     OW34477   3.954   2.474   7.275 -0.7453  0.0583 -0.4420
 7615SOL    HW134478   3.905   2.434   7.347  0.5735 -0.4177  0.1906
 7615SOL    HW234479   3.994   2.395   7.240 -1.1841 -0.2341 -0.2821
 7616SOL     OW34480   3.230   0.882   4.956  0.1259 -0.5462  0.7776
 7616SOL    HW134481   3.234   0.941   4.880 -2.5097  1.7960  2.4369
 7616SOL    HW234482   3.316   0.905   4.990 -0.8176 -0.7748  3.3219
 7617SOL     OW34483   1.056   2.972   4.547  0.1928  0.0198 -0.1050
 7617SOL    HW134484   1.129   2.911   4.556 -0.9286 -1.0340  1.9259
 7617SOL    HW234485   1.104   3.042   4.503 -0.6997  0.5447 -0.2477
 7618SOL     OW34486   1.787   1.043   3.941 -0.2235 -0.2467  0.3642
 7618SOL    HW134487   1.797   1.080   3.853 -0.6628  1.1250  0.8975
 7618SOL    HW234488   1.779   0.953   3.908 -1.1050 -0.1153  0.2141
 7619SOL     OW34489   0.770   3.014   4.596  0.2838  0.1086  0.0622
 7619SOL    HW134490   0.864   3.001   4.586  0.1551 -1.9181  1.5705
 7619SOL    HW234491   0.742   2.924   4.580 -1.3430  0.6886 -0.3961
 7620SOL     OW34492   0.212   1.644   6.534 -0.0617 -0.3870 -0.4719
 7620SOL    HW134493   0.138   1.655   6.474 -0.6496  1.1844  0.5491
 7620SOL    HW234494   0.284   1.664   6.474 -0.4722  0.0229 -0.8212
 7621SOL     OW34495   3.639   2.515   9.489  0.6125 -0.0428 -0.5714
 7621SOL    HW134496   3.547   2.528   9.511  0.3703 -0.6970 -1.2065
 7621SOL    HW234497   3.637   2.427   9.526 -2.4196 -0.7923 -2.5487
 7622SOL     OW34498   2.090   2.914   2.339 -0.5553  0.0874 -0.0874
 7622SOL    HW134499   2.125   2.924   2.251  0.3247  1.4110  0.4065
 7622SOL    HW234500   2.166   2.891   2.393 -0.7126  1.4774  0.7440
 7623SOL     OW34501   0.316   0.454   7.465  0.3859  0.5192  0.0923
 7623SOL    HW134502   0.396   0.401   7.455 -0.8128 -1.3209  0.1892
 7623SOL    HW234503   0.333   0.516   7.394 -0.9759  0.2096 -0.5023
 7624SOL     OW34504   4.064   2.561   5.260  0.0700  0.4452  0.1610
 7624SOL    HW134505   4.036   2.519   5.341  1.2238  0.8365  0.7614
 7624SOL    HW234506   4.085   2.648   5.294  2.1272  0.7181 -1.8306
 7625SOL     OW34507   2.465   1.299   5.285 -1.2410 -0.3664 -0.1987
 7625SOL    HW134508   2.380   1.295   5.327 -0.4047 -3.2082  1.2630
 7625SOL    HW234509   2.498   1.383   5.316  1.8700 -1.1738 -1.2590
 7626SOL     OW34510   3.285   2.050  12.170 -0.2344 -0.0471 -0.1953
 7626SOL    HW134511   3.286   1.991  12.245 -1.1435  1.9615  1.3983
 7626SOL    HW234512   3.294   2.138  12.206 -1.6379  0.7482 -1.8260
 7627SOL     OW34513   3.579   3.893  16.486 -0.5887 -0.1423  0.1875
 7627SOL    HW134514   3.666   3.884  16.446 -1.3473 -1.1318 -1.2323
 7627SOL    HW234515   3.545   3.804  16.495  0.2051 -0.5999 -1.2007
 7628SOL     OW34516   0.622   0.215   8.203 -0.4825 -0.5908  0.2775
 7628SOL    HW134517   0.697   0.177   8.155 -0.4557  0.5433 -0.5699
 7628SOL    HW234518   0.582   0.253   8.125  1.6816  1.6996  0.2960
 7629SOL     OW34519   3.413   0.979   7.943  0.4976  0.9046  0.2371
 7629SOL    HW134520   3.413   1.073   7.964  0.7075  1.1149 -0.6833
 7629SOL    HW234521   3.325   0.968   7.908  0.6180 -3.1489  1.2347
 7630SOL     OW34522   1.895   0.021   7.450 -0.2162 -0.8281 -0.3340
 7630SOL    HW134523   1.954   0.037   7.524 -0.1249 -1.7259 -0.2181
 7630SOL    HW234524   1.810   0.016   7.493  0.0110  1.4476  0.3864
 7631SOL     OW34525   4.583   2.154   4.540 -0.4212  0.7109  0.4967
 7631SOL    HW134526   4.610   2.239   4.506 -0.0853 -1.0730 -3.5929
 7631SOL    HW234527   4.509   2.139   4.481  0.0207 -0.8630  0.3265
 7632SOL     OW34528   0.958   0.779   8.269 -0.2486  0.0494  1.0679
 7632SOL    HW134529   0.934   0.687   8.256  4.9096 -0.9532 -1.2263
 7632SOL    HW234530   1.026   0.792   8.203 -2.0580  0.6623 -0.6673
 7633SOL     OW34531   2.847   4.578  15.399 -0.2788 -0.0928 -0.5458
 7633SOL    HW134532   2.852   4.499  15.453  0.6869  0.3238 -0.0357
 7633SOL    HW234533   2.929   4.579  15.350 -0.0823  4.3023 -0.1242
 7634SOL     OW34534   2.581   2.774   8.901  0.3833 -0.0411  0.2748
 7634SOL    HW134535   2.597   2.716   8.975  0.0592 -0.6709 -0.1453
 7634SOL    HW234536   2.507   2.732   8.858 -0.0991 -0.0936  1.1553
 7635SOL     OW34537   2.129   3.400   4.462 -0.2014  0.2923 -0.3836
 7635SOL    HW134538   2.163   3.437   4.380  1.0895 -1.5064 -0.6477
 7635SOL    HW234539   2.045   3.367   4.430 -0.2884 -0.4119  0.5891
 7636SOL     OW34540   4.473   3.419   2.507 -0.0482  0.4554 -0.0658
 7636SOL    HW134541   4.522   3.460   2.436  0.7957  2.5315  1.7510
 7636SOL    HW234542   4.518   3.450   2.585  0.6044  2.4881 -1.2558
 7637SOL     OW34543   2.105   0.616  11.977 -0.0081 -0.3139 -0.1229
 7637SOL    HW134544   2.061   0.698  11.954 -1.6740 -0.6277  1.9049
 7637SOL    HW234545   2.129   0.641  12.067  0.1976 -1.3888  0.1174
 7638SOL     OW34546   1.851   4.155   9.042  0.1435 -0.7240  0.1273
 7638SOL    HW134547   1.923   4.176   9.102 -0.0842  0.8834 -0.1741
 7638SOL    HW234548   1.781   4.217   9.064  1.3325  1.0661 -1.1309
 7639SOL     OW34549   4.617   1.708  11.052 -0.5267 -0.7680  0.0999
 7639SOL    HW134550   4.566   1.674  11.126 -0.6221 -1.1506 -0.1372
 7639SOL    HW234551   4.569   1.786  11.025  0.2252  0.2812  1.8123
 7640SOL     OW34552   0.912   3.404  11.205  0.3738  0.1998  0.1411
 7640SOL    HW134553   0.980   3.413  11.137  1.1697 -2.0445  0.6504
 7640SOL    HW234554   0.838   3.438  11.155  0.6321  2.7706  1.4706
 7641SOL     OW34555   2.825   3.940   8.486 -0.4939  0.4194  0.2239
 7641SOL    HW134556   2.782   3.934   8.401  1.0517 -0.2342 -0.5183
 7641SOL    HW234557   2.770   4.007   8.528 -1.3622  0.2769 -0.6826
 7642SOL     OW34558   0.438   0.451   6.571 -0.1631  0.0755  0.5829
 7642SOL    HW134559   0.428   0.540   6.606  1.4531 -0.3051  2.0330
 7642SOL    HW234560   0.353   0.417   6.601 -0.3133  0.0046  0.0829
 7643SOL     OW34561   1.191   0.203   0.546  0.5725 -0.1442 -0.2336
 7643SOL    HW134562   1.133   0.235   0.615  0.5519 -0.5191 -0.0746
 7643SOL    HW234563   1.132   0.131   0.519  2.3968 -1.2522 -1.2724
 7644SOL     OW34564   2.373   1.269   6.142  0.3899  0.1479 -0.2689
 7644SOL    HW134565   2.344   1.353   6.107 -0.9257 -0.3066 -0.2788
 7644SOL    HW234566   2.287   1.228   6.153  0.7282 -0.5951 -0.3679
 7645SOL     OW34567   0.300   1.685   0.900  0.0699  0.1411  0.3677
 7645SOL    HW134568   0.386   1.674   0.939 -1.5571 -1.2710  3.4989
 7645SOL    HW234569   0.230   1.667   0.963  1.1908  0.4216  1.6868
 7646SOL     OW34570   2.688   4.158   8.572 -0.0976 -0.4900  0.0496
 7646SOL    HW134571   2.677   4.158   8.667 -1.5534 -0.2524 -0.1183
 7646SOL    HW234572   2.703   4.251   8.555 -2.0707 -0.4942 -1.6904
 7647SOL     OW34573   2.074   0.764   2.552  0.0378 -0.4687  0.4779
 7647SOL    HW134574   2.072   0.844   2.500  1.4804  0.7353  2.2898
 7647SOL    HW234575   2.000   0.716   2.514  0.1806 -0.8372  0.6621
 7648SOL     OW34576   0.843   4.453   3.668  0.0911  0.4172 -0.2773
 7648SOL    HW134577   0.848   4.492   3.756  1.7387 -2.3905  0.8598
 7648SOL    HW234578   0.894   4.374   3.687 -1.3657 -0.0167  1.8904
 7649SOL     OW34579   4.558   2.814   3.291 -0.0406  0.3801  0.4668
 7649SOL    HW134580   4.622   2.790   3.357 -1.2563  1.1795  1.9584
 7649SOL    HW234581   4.500   2.744   3.321  0.1232 -0.4597 -1.1962
 7650SOL     OW34582   2.087   3.464   0.415 -0.6188 -0.6254 -0.0668
 7650SOL    HW134583   2.076   3.417   0.332 -1.1664  1.6266 -1.2693
 7650SOL    HW234584   2.076   3.387   0.471 -2.1784 -1.4665 -1.5462
 7651SOL     OW34585   3.522   3.665   3.218 -0.3233  0.2337 -0.0553
 7651SOL    HW134586   3.589   3.596   3.213 -1.1170 -0.5428 -0.0697
 7651SOL    HW234587   3.459   3.638   3.286 -0.3783 -0.0871 -0.2314
 7652SOL     OW34588   3.459   0.608   5.893 -0.3582  0.3131  0.6029
 7652SOL    HW134589   3.372   0.617   5.930 -0.4296 -0.7772  0.6954
 7652SOL    HW234590   3.435   0.599   5.801  4.1449  0.3824 -0.5670
 7653SOL     OW34591   0.426   0.754   4.628  0.1395  0.3447  0.2968
 7653SOL    HW134592   0.467   0.833   4.591  0.4745 -0.0878 -0.2558
 7653SOL    HW234593   0.442   0.753   4.723  3.2454  0.7096 -0.2129
 7654SOL     OW34594   0.441   2.963   1.634 -0.1576 -0.2211 -0.2019
 7654SOL    HW134595   0.426   2.880   1.680 -0.0901 -0.0268  0.1623
 7654SOL    HW234596   0.412   2.946   1.544  0.5827 -2.7472  0.0267
 7655SOL     OW34597   3.373   4.665  11.323 -0.4896  0.1188 -0.4693
 7655SOL    HW134598   3.454   4.614  11.326 -1.1940 -1.0561 -1.2666
 7655SOL    HW234599   3.310   4.593  11.326  0.7092 -0.9249 -0.1738
 7656SOL     OW34600   4.584   2.299  12.589  0.2971 -0.2798 -0.2650
 7656SOL    HW134601   4.645   2.254  12.530  1.3375 -2.0708  2.1839
 7656SOL    HW234602   4.503   2.301  12.538  0.3675 -4.8452 -0.5477
 7657SOL     OW34603   2.341   2.895   5.554 -0.4409  0.3616  0.4467
 7657SOL    HW134604   2.408   2.905   5.486 -0.6342  2.9272  0.6291
 7657SOL    HW234605   2.297   2.975   5.525 -1.9857 -1.0151 -1.0361
 7658SOL     OW34606   3.868   0.481   8.068  0.2184  0.5411 -0.0566
 7658SOL    HW134607   3.776   0.492   8.042 -0.2274  0.6367  1.5657
 7658SOL    HW234608   3.854   0.477   8.162 -0.0929 -1.9224 -0.2090
 7659SOL     OW34609   3.949   1.803  15.456  0.0888  0.3012  0.2683
 7659SOL    HW134610   3.943   1.765  15.368 -0.8755 -0.7245  0.7674
 7659SOL    HW234611   3.933   1.894  15.430  3.5717  0.4505 -1.3606
 7660SOL     OW34612   0.007   4.327   5.075 -0.0831  0.5594 -0.3550
 7660SOL    HW134613   0.050   4.352   4.993 -0.0723 -0.7857 -0.7556
 7660SOL    HW234614   0.070   4.261   5.105  2.3544  1.6153 -3.1489
 7661SOL     OW34615   3.325   0.573   1.916 -0.2358 -0.1380 -0.1077
 7661SOL    HW134616   3.362   0.514   1.981 -2.0913 -0.2177  0.8709
 7661SOL    HW234617   3.295   0.510   1.850  0.1763  0.2579 -0.6769
 7662SOL     OW34618   0.189   2.683   3.280 -0.5959 -0.1139 -0.4493
 7662SOL    HW134619   0.148   2.653   3.361 -0.4358  0.7914 -0.0324
 7662SOL    HW234620   0.213   2.775   3.293 -1.2924 -0.1228  0.8568
 7663SOL     OW34621   3.570   3.866   8.450  0.6268 -0.0091 -0.5737
 7663SOL    HW134622   3.582   3.813   8.529 -0.7451  2.9717  1.6208
 7663SOL    HW234623   3.553   3.791   8.393 -1.6499  0.0304  0.0584
 7664SOL     OW34624   3.859   3.581   7.422  0.6314  0.8409 -0.1768
 7664SOL    HW134625   3.919   3.508   7.433  0.0683  0.6451  1.5711
 7664SOL    HW234626   3.805   3.557   7.347  2.3601 -1.2338 -0.7545
 7665SOL     OW34627   1.701   2.289   9.640 -0.1611 -0.5980  0.8336
 7665SOL    HW134628   1.702   2.200   9.604  2.0537 -0.1906 -0.0553
 7665SOL    HW234629   1.795   2.301   9.653 -0.6566  4.1961 -0.1044
 7666SOL     OW34630   4.196   0.556   0.221  0.6180 -0.1559 -0.5118
 7666SOL    HW134631   4.230   0.618   0.155  0.8338 -0.2395 -0.4797
 7666SOL    HW234632   4.272   0.542   0.278  0.3549  0.4187 -0.0242
 7667SOL     OW34633   0.731   3.780   3.808 -0.4802  0.4752 -0.0366
 7667SOL    HW134634   0.666   3.717   3.776  1.0387 -2.1759  2.1666
 7667SOL    HW234635   0.681   3.830   3.873 -0.0414  0.8307  0.0271
 7668SOL     OW34636   2.857   1.704   1.265 -0.3736 -0.6528  0.3777
 7668SOL    HW134637   2.940   1.698   1.312 -0.3039  0.5996  0.4278
 7668SOL    HW234638   2.795   1.639   1.299 -2.5314 -0.1945 -2.6348
 7669SOL     OW34639   1.867   3.379   3.505 -0.4579 -0.3602 -0.2283
 7669SOL    HW134640   1.887   3.450   3.566 -0.6039  0.2239 -0.8573
 7669SOL    HW234641   1.932   3.314   3.528  0.6782  0.5657 -0.8046
 7670SOL     OW34642   4.524   1.449   8.755  0.0778  0.7400  0.4443
 7670SOL    HW134643   4.612   1.476   8.780  0.3637  0.0789  0.1527
 7670SOL    HW234644   4.551   1.413   8.670 -1.7458 -0.7795  0.5139
 7671SOL     OW34645   1.346   3.891   9.096  0.1196  0.0448  0.3153
 7671SOL    HW134646   1.369   3.799   9.090 -0.7616 -0.1465 -0.1001
 7671SOL    HW234647   1.429   3.938   9.108  0.5341 -0.9598  1.3343
 7672SOL     OW34648   2.587   2.102   2.606  0.1124 -0.1184  0.4701
 7672SOL    HW134649   2.556   2.171   2.547 -0.7795 -1.0488 -0.1365
 7672SOL    HW234650   2.679   2.128   2.618 -0.5006  2.3580 -0.2523
 7673SOL     OW34651   3.537   0.511  13.489 -0.1399 -0.2187  0.0155
 7673SOL    HW134652   3.584   0.530  13.570 -0.3305 -2.8735  0.7441
 7673SOL    HW234653   3.469   0.578  13.493  0.4075  0.3665 -0.3661
 7674SOL     OW34654   3.354   1.960   2.898  0.0320 -0.3206  0.2564
 7674SOL    HW134655   3.430   1.933   2.950  0.0174 -0.0845  0.4002
 7674SOL    HW234656   3.287   1.900   2.930  0.2641 -1.0842 -0.7142
 7675SOL     OW34657   3.970   2.777   4.081  0.1665 -0.2797  0.0916
 7675SOL    HW134658   4.019   2.841   4.133  2.7698  0.7773 -3.6747
 7675SOL    HW234659   3.880   2.762   4.112  0.0165  1.7140  0.6284
 7676SOL     OW34660   1.116   0.961   5.662 -0.0039  0.6479 -0.1109
 7676SOL    HW134661   1.198   0.947   5.614  0.9750  0.5177  1.6000
 7676SOL    HW234662   1.092   1.044   5.621 -0.4681  0.7106  0.2972
 7677SOL     OW34663   4.351   4.615   9.554 -0.3262  0.9349  0.5299
 7677SOL    HW134664   4.320   4.650   9.637 -0.6743  1.0592  0.3499
 7677SOL    HW234665   4.445   4.617   9.569 -0.2858  3.3676 -0.0686
 7678SOL     OW34666   0.395   2.760   3.105  0.0889  0.3702 -0.5714
 7678SOL    HW134667   0.456   2.690   3.082 -3.0854 -2.2798 -0.9390
 7678SOL    HW234668   0.339   2.704   3.160 -0.3030 -0.0072 -1.3549
 7679SOL     OW34669   2.040   0.604   6.396 -0.2107 -0.3763  0.4791
 7679SOL    HW134670   2.100   0.530   6.403 -1.1407 -1.3643 -1.9653
 7679SOL    HW234671   2.008   0.618   6.486 -1.5250 -3.3142  0.4601
 7680SOL     OW34672   3.682   0.298   3.092 -0.3476 -0.1950 -0.1261
 7680SOL    HW134673   3.667   0.391   3.112  0.8200  0.8877 -4.3336
 7680SOL    HW234674   3.638   0.305   3.007 -0.2632 -3.1601 -0.4058
 7681SOL     OW34675   3.495   1.879   3.649 -0.1936  0.1804  0.1381
 7681SOL    HW134676   3.552   1.814   3.689 -0.2366  1.5596  2.4202
 7681SOL    HW234677   3.453   1.820   3.587 -1.9584  2.8527 -1.2596
 7682SOL     OW34678   3.101   4.224   8.652 -0.1872  0.6663  0.3380
 7682SOL    HW134679   3.039   4.239   8.724 -1.0528 -3.1150  0.3993
 7682SOL    HW234680   3.170   4.189   8.709 -2.1654 -1.7139  1.2684
 7683SOL     OW34681   4.719   4.275   3.215 -0.4430  0.1943 -0.1467
 7683SOL    HW134682   4.655   4.328   3.262 -0.5053  1.7007 -1.9445
 7683SOL    HW234683   0.062   4.317   3.247 -0.8126 -0.2632  1.3533
 7684SOL     OW34684   0.614   3.733   7.691 -0.3849  0.4384 -0.0831
 7684SOL    HW134685   0.538   3.767   7.643 -0.5034  3.0606  1.9298
 7684SOL    HW234686   0.664   3.699   7.617 -0.8174 -0.9156  0.2462
 7685SOL     OW34687   1.099   1.179  10.335  0.6361 -0.4220  0.7084
 7685SOL    HW134688   1.157   1.103  10.327  0.0914 -0.3653 -4.2488
 7685SOL    HW234689   1.111   1.206  10.426 -1.3032  1.6735  0.3358
 7686SOL     OW34690   4.698   0.382   2.440 -0.7582  0.2645  0.1739
 7686SOL    HW134691   0.016   0.377   2.362 -0.8020 -0.8616  0.2179
 7686SOL    HW234692   4.701   0.472   2.473 -0.1917  0.4258 -0.3220
 7687SOL     OW34693   1.282   0.179  14.729  0.1167  0.1092  0.1325
 7687SOL    HW134694   1.199   0.226  14.734  0.3784  0.6594 -0.6301
 7687SOL    HW234695   1.321   0.215  14.808  0.0952  1.7655 -0.6027
 7688SOL     OW34696   0.694   1.877   9.617 -0.5225  0.0901 -0.6003
 7688SOL    HW134697   0.661   1.966   9.626 -1.7809 -0.6792  2.3382
 7688SOL    HW234698   0.727   1.855   9.705 -0.0475 -2.1669 -1.3322
 7689SOL     OW34699   3.811   0.400   2.624  0.1934 -0.7384 -0.4889
 7689SOL    HW134700   3.870   0.340   2.668  0.4041 -0.5400 -0.5023
 7689SOL    HW234701   3.864   0.479   2.628 -1.9675  0.7200 -0.3796
 7690SOL     OW34702   3.419   2.592   4.623 -0.1261 -0.5488 -1.1583
 7690SOL    HW134703   3.505   2.553   4.632 -0.8471 -1.5827  1.2367
 7690SOL    HW234704   3.409   2.568   4.531  1.0643  0.3068 -1.5157
 7691SOL     OW34705   1.571   4.382  15.415  0.0055 -0.0975 -0.1124
 7691SOL    HW134706   1.524   4.463  15.394  1.8812  1.7652  2.9022
 7691SOL    HW234707   1.537   4.363  15.502 -0.5793 -1.8710 -0.7424
 7692SOL     OW34708   3.164   2.586   4.726  0.6462  0.3618  0.0215
 7692SOL    HW134709   3.255   2.571   4.700  0.0836 -2.0575 -0.5192
 7692SOL    HW234710   3.130   2.607   4.639  0.5831 -0.2497 -0.0969
 7693SOL     OW34711   4.714   1.506   4.226 -0.0775  0.2358 -0.0310
 7693SOL    HW134712   0.032   1.582   4.210  1.7610 -0.5356  2.5730
 7693SOL    HW234713   4.679   1.524   4.313 -1.7242 -1.2182 -0.3840
 7694SOL     OW34714   2.017   4.026   5.410 -0.0790  0.2211  0.1835
 7694SOL    HW134715   1.944   3.972   5.378 -1.5063  1.5205  1.2725
 7694SOL    HW234716   1.980   4.113   5.398  0.0840  0.1169 -1.1466
 7695SOL     OW34717   2.857   3.604   8.283  0.3485  0.0069 -0.0675
 7695SOL    HW134718   2.943   3.578   8.317  0.9837 -0.1045 -1.7563
 7695SOL    HW234719   2.804   3.544   8.335 -1.0717  0.6287 -0.7887
 7696SOL     OW34720   3.231   1.365   6.348 -0.4938  0.1447  0.4514
 7696SOL    HW134721   3.233   1.458   6.370  1.5727 -0.1826  1.6042
 7696SOL    HW234722   3.237   1.324   6.434 -0.1582 -3.7258 -1.4462
 7697SOL     OW34723   3.329   4.351   8.122  0.4153  0.1120  0.0954
 7697SOL    HW134724   3.239   4.331   8.147  0.5985 -1.9323 -0.9029
 7697SOL    HW234725   3.310   4.419   8.059 -2.0136 -1.7111 -1.1206
 7698SOL     OW34726   0.770   1.305   7.925  0.6868  0.0847 -0.3709
 7698SOL    HW134727   0.677   1.291   7.908  0.1658  0.7550  1.8331
 7698SOL    HW234728   0.806   1.287   7.838 -2.0422  1.8204 -1.8613
 7699SOL     OW34729   0.689   3.984   5.512 -0.1224 -0.4878 -0.2517
 7699SOL    HW134730   0.676   4.066   5.560  1.2506  0.5338 -1.6552
 7699SOL    HW234731   0.599   3.949   5.512 -1.0685  1.9728 -0.6204
 7700SOL     OW34732   2.778   3.681  17.615  0.3067  0.4309 -0.0249
 7700SOL    HW134733   2.724   3.726  17.550  0.1158 -2.5424 -1.9002
 7700SOL    HW234734   2.719   3.658  17.687 -1.6046  1.4462 -1.2807
 7701SOL     OW34735   4.530   4.437  12.266  0.2855 -0.4357  0.1863
 7701SOL    HW134736   4.624   4.448  12.250  0.8522  0.2649  3.9429
 7701SOL    HW234737   4.485   4.515  12.233 -1.7566 -1.9004 -0.5046
 7702SOL     OW34738   3.457   2.584   1.205  0.2448  0.5803  0.1590
 7702SOL    HW134739   3.456   2.637   1.126 -0.5336  0.2965 -0.0162
 7702SOL    HW234740   3.552   2.588   1.215  0.4398  1.1066 -1.9643
 7703SOL     OW34741   0.883   3.484  10.502  0.4736  0.3447  0.1886
 7703SOL    HW134742   0.896   3.577  10.485 -2.0858  0.4014 -1.4568
 7703SOL    HW234743   0.862   3.482  10.595 -1.5688  1.2200 -0.2452
 7704SOL     OW34744   0.317   0.106   4.462  0.6501  0.0255 -0.1482
 7704SOL    HW134745   0.354   0.171   4.403 -2.0304  0.6043 -1.1778
 7704SOL    HW234746   0.261   0.058   4.401  0.0249  1.3323 -0.6035
 7705SOL     OW34747   0.867   1.324  12.415 -0.1371  0.0317 -0.5685
 7705SOL    HW134748   0.779   1.331  12.450  0.2081 -3.1118  0.9524
 7705SOL    HW234749   0.918   1.329  12.496 -1.7899 -1.0033  0.5383
 7706SOL     OW34750   1.101   4.402  14.686  0.2374 -0.1575 -0.2537
 7706SOL    HW134751   1.005   4.406  14.688  0.2734 -0.4981  1.8167
 7706SOL    HW234752   1.134   4.492  14.697 -2.3709  0.3985  3.1511
 7707SOL     OW34753   0.820   0.854   3.309  0.3173  0.0835 -0.4277
 7707SOL    HW134754   0.837   0.827   3.399 -0.7240 -1.6219 -0.7512
 7707SOL    HW234755   0.781   0.938   3.333 -0.1641  0.0624 -1.1286
 7708SOL     OW34756   0.644   3.635  13.447  0.1431  0.0388  0.4845
 7708SOL    HW134757   0.680   3.718  13.415 -1.9710  1.0035  0.5490
 7708SOL    HW234758   0.702   3.574  13.402 -0.2538  1.8512 -2.4838
 7709SOL     OW34759   1.698   0.170   4.706  0.4630  0.1672  0.1225
 7709SOL    HW134760   1.664   0.087   4.672  0.7247  0.0307  0.1878
 7709SOL    HW234761   1.616   0.210   4.735  0.6870 -0.8092  2.0762
 7710SOL     OW34762   4.195   3.372  11.669  0.7495 -0.7068  0.7106
 7710SOL    HW134763   4.135   3.305  11.637 -1.0391  0.8860  0.7550
 7710SOL    HW234764   4.281   3.334  11.648  0.6280  0.2650 -1.4578
 7711SOL     OW34765   2.241   2.990  15.200  0.6682  0.9390 -0.2223
 7711SOL    HW134766   2.281   2.904  15.183 -1.5014  0.1280 -1.1829
 7711SOL    HW234767   2.148   2.967  15.201  0.5379  1.4758 -0.5857
 7712SOL     OW34768   2.603   0.277   6.476  0.4795  0.0555 -0.5870
 7712SOL    HW134769   2.535   0.308   6.417 -0.8803 -1.4096  0.1955
 7712SOL    HW234770   2.674   0.255   6.416  0.8780  0.3953 -0.2410
 7713SOL     OW34771   2.716   2.953  13.522  0.2237  0.7594  0.4450
 7713SOL    HW134772   2.687   2.930  13.434  2.9907 -1.5328  0.1186
 7713SOL    HW234773   2.799   2.996  13.501 -0.6112  1.9478 -0.3553
 7714SOL     OW34774   4.643   2.245   8.896  0.4853 -0.5811  0.1130
 7714SOL    HW134775   4.616   2.176   8.957 -0.7672 -1.3023 -1.2614
 7714SOL    HW234776   4.642   2.193   8.816  1.9345 -2.2871  1.1995
 7715SOL     OW34777   0.347   3.343   6.262  0.3250  0.4491  0.4534
 7715SOL    HW134778   0.353   3.392   6.344  0.2984 -1.0257  1.3265
 7715SOL    HW234779   0.411   3.401   6.220 -0.4446  0.6561 -0.4528
 7716SOL     OW34780   1.604   0.795   7.132 -0.7609  0.0900  0.8832
 7716SOL    HW134781   1.554   0.849   7.072  0.9186  2.1418  1.3252
 7716SOL    HW234782   1.562   0.709   7.126  0.4285 -0.5084  1.0116
 7717SOL     OW34783   4.180   0.335   8.493  0.1739  0.2528 -0.4116
 7717SOL    HW134784   4.117   0.263   8.487 -0.9192  1.0794  1.3368
 7717SOL    HW234785   4.227   0.320   8.410  1.0338  1.6321 -0.1732
 7718SOL     OW34786   2.913   0.598   7.106 -0.3076  0.2779  0.2926
 7718SOL    HW134787   2.948   0.654   7.175 -0.9595  0.3880  0.5355
 7718SOL    HW234788   2.991   0.573   7.058  0.4946 -0.5589  2.0394
 7719SOL     OW34789   4.267   0.134   7.069  0.0881  1.0199  0.0743
 7719SOL    HW134790   4.346   0.185   7.047 -0.6128  2.1157  0.0837
 7719SOL    HW234791   4.244   0.186   7.147  4.2620  1.8786  0.7509
 7720SOL     OW34792   1.599   0.370   8.360  0.8523  0.1013  0.4446
 7720SOL    HW134793   1.587   0.290   8.310  0.2855  0.9376 -0.7815
 7720SOL    HW234794   1.522   0.370   8.416 -0.8359  1.4283 -1.8712
 7721SOL     OW34795   0.227   1.818   7.656  0.1046 -0.4456  0.2251
 7721SOL    HW134796   0.157   1.792   7.715  0.9391 -1.6560  0.6897
 7721SOL    HW234797   0.165   1.848   7.590  1.3978  0.4000 -0.6198
 7722SOL     OW34798   4.324   2.592   4.277 -0.0154 -0.1636 -0.4902
 7722SOL    HW134799   4.290   2.584   4.366  1.8701  0.1614  0.2624
 7722SOL    HW234800   4.248   2.556   4.232  1.2597 -1.5415 -1.5044
 7723SOL     OW34801   4.391   2.643   8.544  0.2720 -0.7549  0.8303
 7723SOL    HW134802   4.416   2.584   8.615  1.7426 -2.1824 -0.8568
 7723SOL    HW234803   4.331   2.704   8.586 -1.1081 -1.2723 -0.3591
 7724SOL     OW34804   0.809   4.591   5.056 -0.0156  0.2804 -0.0681
 7724SOL    HW134805   0.814   4.496   5.068 -0.1181  0.3336  0.4277
 7724SOL    HW234806   0.776   4.591   4.967  0.6471 -0.3568 -0.3189
 7725SOL     OW34807   0.046   3.046   8.463  0.4903  0.0681  1.3957
 7725SOL    HW134808   0.043   3.085   8.375  0.1276 -3.6223 -0.2440
 7725SOL    HW234809   4.731   2.965   8.456  1.7517 -0.6453  0.3305
 7726SOL     OW34810   1.142   2.000  15.517  0.2951 -0.2511 -0.2909
 7726SOL    HW134811   1.142   2.034  15.606 -1.7900 -0.2125 -0.3013
 7726SOL    HW234812   1.190   1.917  15.527  0.0616 -0.0708  2.1336
 7727SOL     OW34813   2.192   1.731   5.849  0.0543 -0.8618 -0.0364
 7727SOL    HW134814   2.110   1.760   5.808 -0.8679 -2.2553  0.8691
 7727SOL    HW234815   2.180   1.759   5.939  1.4220  0.8375 -0.3695
 7728SOL     OW34816   0.093   1.485  14.680 -0.1654  0.2790  0.6249
 7728SOL    HW134817   0.097   1.504  14.586  0.8218  1.6042  0.9516
 7728SOL    HW234818   0.029   1.413  14.677 -1.8372  1.8991 -2.4447
 7729SOL     OW34819   1.999   2.886  11.996  0.2099  0.0227 -0.1691
 7729SOL    HW134820   2.094   2.893  11.987  0.6063 -0.7260  3.1470
 7729SOL    HW234821   1.987   2.858  12.087 -1.1412 -0.9697 -0.6520
 7730SOL     OW34822   1.858   3.733   2.159  0.4376 -0.0973 -0.0031
 7730SOL    HW134823   1.887   3.685   2.237 -1.9314 -0.3353  0.7527
 7730SOL    HW234824   1.902   3.672   2.099 -3.3224 -1.9563 -0.8826
 7731SOL     OW34825   0.593   1.744   1.618 -0.0278 -0.1656 -0.0908
 7731SOL    HW134826   0.570   1.833   1.646  0.4393 -0.4003  1.0172
 7731SOL    HW234827   0.525   1.731   1.552 -0.8575 -0.3834  0.7982
 7732SOL     OW34828   2.192   0.885  11.456 -0.5721 -0.2096 -0.1321
 7732SOL    HW134829   2.260   0.940  11.419 -0.0996 -0.2843  0.6295
 7732SOL    HW234830   2.236   0.861  11.538  0.5449 -0.9416 -0.9491
 7733SOL     OW34831   3.979   3.164   3.422 -0.1776 -0.5481  0.3686
 7733SOL    HW134832   4.069   3.134   3.437 -0.5809 -2.6897 -1.4100
 7733SOL    HW234833   3.997   3.228   3.352  1.0388  0.5985  1.7133
 7734SOL     OW34834   1.271   4.294   5.310 -0.5709 -0.4129  0.1964
 7734SOL    HW134835   1.347   4.334   5.353  2.2494 -1.9324 -3.4415
 7734SOL    HW234836   1.207   4.363   5.327  2.5765  2.3148  0.9689
 7735SOL     OW34837   0.134   2.932   9.297 -0.6441 -0.0683  0.3706
 7735SOL    HW134838   0.132   2.992   9.372 -0.3382 -0.0752  0.3860
 7735SOL    HW234839   0.066   2.960   9.237 -0.6816  0.0612  0.4722
 7736SOL     OW34840   2.991   2.758   4.514 -0.0375 -0.2292  0.8180
 7736SOL    HW134841   3.029   2.790   4.432 -0.7705 -0.6948  0.2970
 7736SOL    HW234842   2.930   2.692   4.480 -0.3966  0.1004  0.8242
 7737SOL     OW34843   4.077   4.713   2.195 -0.3032 -0.0428  0.1918
 7737SOL    HW134844   4.032   4.635   2.161 -0.3900 -1.2706  3.1336
 7737SOL    HW234845   4.144   4.726   2.129 -3.6359  0.7049 -3.0318
 7738SOL     OW34846   1.262   0.092   3.306 -0.5592  0.2096  0.0116
 7738SOL    HW134847   1.257   0.072   3.213 -2.1026  0.3948  0.0489
 7738SOL    HW234848   1.313   0.019   3.341 -0.7244  0.4210  0.7044
 7739SOL     OW34849   0.739   0.592   4.072  0.0602 -0.6946  0.4806
 7739SOL    HW134850   0.678   0.665   4.082 -0.6243 -1.0464 -1.0685
 7739SOL    HW234851   0.720   0.529   4.141 -1.5612  0.4634  1.0818
 7740SOL     OW34852   0.560   3.315   3.230  0.4864  0.5289 -0.3555
 7740SOL    HW134853   0.509   3.235   3.241  3.7957 -1.1519  2.7550
 7740SOL    HW234854   0.650   3.282   3.224  0.2723  0.3688 -2.6147
 7741SOL     OW34855   0.668   4.528   1.124  0.6064 -0.3407 -0.8935
 7741SOL    HW134856   0.608   4.454   1.132  2.2315 -1.7422 -1.7934
 7741SOL    HW234857   0.609   4.591   1.081  0.0501  0.7775  1.5401
 7742SOL     OW34858   0.052   4.551   4.604 -0.3649  0.7620 -0.3139
 7742SOL    HW134859   0.077   4.605   4.679 -1.1617 -0.2063  0.6451
 7742SOL    HW234860   4.704   4.583   4.575 -1.1431  0.5685  1.7437
 7743SOL     OW34861   1.663   2.457  16.416  0.1211 -0.2625  0.4120
 7743SOL    HW134862   1.611   2.468  16.336  1.5295 -1.9476 -0.7535
 7743SOL    HW234863   1.751   2.452  16.378  0.1422 -1.2967  0.5963
 7744SOL     OW34864   0.850   2.016  12.514 -0.0967 -0.2096 -0.0729
 7744SOL    HW134865   0.844   2.073  12.590 -0.7439 -2.0052  1.2304
 7744SOL    HW234866   0.779   1.952  12.522 -1.3788  1.7687  4.2987
 7745SOL     OW34867   1.353   0.152   5.305  0.6220  0.4629  0.2388
 7745SOL    HW134868   1.432   0.133   5.354  1.3889  0.7036 -0.8913
 7745SOL    HW234869   1.300   0.171   5.382 -0.4385 -1.5180 -0.0223
 7746SOL     OW34870   3.141   1.248   5.697  0.4825  0.4238  0.0725
 7746SOL    HW134871   3.076   1.254   5.627  2.2736  1.9006 -1.4797
 7746SOL    HW234872   3.119   1.159   5.725 -0.7615  0.4115 -0.9624
 7747SOL     OW34873   3.697   3.656  11.396 -0.4157 -0.9625  0.1361
 7747SOL    HW134874   3.792   3.657  11.407 -0.3268 -2.6998 -0.5190
 7747SOL    HW234875   3.670   3.657  11.488 -1.8315 -3.4489 -0.2461
 7748SOL     OW34876   2.544   2.185   5.500 -0.2189 -0.8325 -0.1160
 7748SOL    HW134877   2.458   2.175   5.540 -0.1908 -0.0220  0.1451
 7748SOL    HW234878   2.534   2.132   5.420 -0.1246 -2.4819  0.9685
 7749SOL     OW34879   2.685   2.832   5.108 -0.5333 -0.4989  0.2093
 7749SOL    HW134880   2.750   2.768   5.138  0.4519  0.3472 -0.1402
 7749SOL    HW234881   2.610   2.774   5.094 -0.4439 -0.4987 -0.2831
 7750SOL     OW34882   4.429   3.707   5.894  0.5148  0.0304 -0.1967
 7750SOL    HW134883   4.457   3.755   5.972  0.1631 -0.3815  0.1814
 7750SOL    HW234884   4.515   3.712   5.851  1.3118 -2.3963  1.0911
 7751SOL     OW34885   2.003   3.803   3.402 -0.0610  0.2645  0.0137
 7751SOL    HW134886   2.068   3.781   3.336  1.9998 -0.8182  2.3763
 7751SOL    HW234887   2.054   3.778   3.479  1.3204 -0.5299 -1.1608
 7752SOL     OW34888   0.168   0.154   3.024 -0.2636 -0.5908  1.0642
 7752SOL    HW134889   0.261   0.176   3.036 -0.3335 -0.3599  1.1860
 7752SOL    HW234890   0.181   0.091   2.953 -1.2404 -1.0426  1.2853
 7753SOL     OW34891   4.560   3.220   4.223 -0.1636  0.1531  0.0914
 7753SOL    HW134892   4.605   3.162   4.160  2.0689 -1.2789  2.9908
 7753SOL    HW234893   4.553   3.305   4.180 -2.6531 -0.4614 -0.6981
 7754SOL     OW34894   4.025   2.325   7.024 -0.2288  0.0261  0.7676
 7754SOL    HW134895   4.107   2.373   7.040 -2.2519  3.0068  2.1286
 7754SOL    HW234896   3.960   2.393   7.005  1.6385  1.5435 -0.2669
 7755SOL     OW34897   4.268   3.839   1.622  0.4974  0.4342  0.1821
 7755SOL    HW134898   4.267   3.917   1.566  1.6101  0.0359 -0.4078
 7755SOL    HW234899   4.176   3.825   1.643  1.3611 -1.9957  2.2804
 7756SOL     OW34900   0.566   2.529   2.675  0.7678  0.4489 -0.0533
 7756SOL    HW134901   0.556   2.503   2.584  1.3789 -3.3144  0.9333
 7756SOL    HW234902   0.633   2.463   2.697  1.7749  0.8903 -1.8316
 7757SOL     OW34903   0.212   3.281   5.457 -0.1632 -0.0716 -0.4224
 7757SOL    HW134904   0.206   3.199   5.408 -0.8836 -0.0971 -0.2969
 7757SOL    HW234905   0.119   3.293   5.478  0.0361 -3.9546  2.5601
 7758SOL     OW34906   1.493   0.856  12.833 -0.4313 -0.0123 -0.7991
 7758SOL    HW134907   1.456   0.846  12.745  1.4390 -2.6246 -1.2770
 7758SOL    HW234908   1.457   0.775  12.869  0.6077 -0.8135 -1.5664
 7759SOL     OW34909   1.989   1.674  17.681 -0.5545 -0.1992  0.3538
 7759SOL    HW134910   1.945   1.720  17.610 -1.7445 -1.2081  0.4376
 7759SOL    HW234911   2.073   1.709  17.653 -2.0413  2.0399 -1.3200
 7760SOL     OW34912   3.903   4.411   4.657 -0.0378  0.1283  0.6391
 7760SOL    HW134913   3.859   4.377   4.579 -1.3855  0.8140  1.1055
 7760SOL    HW234914   3.835   4.450   4.711 -1.6665 -0.3241 -1.1090
 7761SOL     OW34915   4.294   1.336   7.182 -0.1925  0.4308 -0.2373
 7761SOL    HW134916   4.351   1.354   7.107  0.6145 -0.0431  0.2683
 7761SOL    HW234917   4.275   1.425   7.213  0.7857  0.5611 -0.0362
 7762SOL     OW34918   4.125   3.467   8.803 -0.1391 -0.1229 -0.4838
 7762SOL    HW134919   4.036   3.434   8.815  0.0271 -0.2191  0.4612
 7762SOL    HW234920   4.109   3.555   8.767 -1.3876 -0.4198 -0.6444
 7763SOL     OW34921   1.029   2.742  15.570 -0.2894  0.3369 -0.1567
 7763SOL    HW134922   0.940   2.707  15.580 -0.1798 -0.3739 -1.6547
 7763SOL    HW234923   1.081   2.666  15.545  0.3660  0.9352 -0.6291
 7764SOL     OW34924   3.626   2.856   6.102  0.4111  0.1366 -0.0548
 7764SOL    HW134925   3.650   2.817   6.186 -2.2197 -0.8504  0.2347
 7764SOL    HW234926   3.685   2.931   6.100 -0.5139  0.9018  1.5007
 7765SOL     OW34927   2.176   3.882   2.481 -0.5113 -0.5168  0.0852
 7765SOL    HW134928   2.154   3.972   2.458 -0.5799 -0.5068  0.1895
 7765SOL    HW234929   2.271   3.882   2.479 -0.5003  1.6088  0.8666
 7766SOL     OW34930   3.883   4.350   0.563 -0.0587  0.2600 -0.0787
 7766SOL    HW134931   3.891   4.326   0.470 -2.6567  1.6089 -0.6579
 7766SOL    HW234932   3.844   4.437   0.563  1.0144  0.7358  1.5304
 7767SOL     OW34933   3.427   3.594   2.245 -1.0806 -0.3247 -0.4916
 7767SOL    HW134934   3.338   3.598   2.279 -0.2281  0.2938  1.6935
 7767SOL    HW234935   3.406   3.650   2.170  1.5024  0.1994 -0.8340
 7768SOL     OW34936   2.349   1.124   4.198 -0.1874 -0.0811  0.1611
 7768SOL    HW134937   2.303   1.116   4.115 -1.6390  3.3786  0.6070
 7768SOL    HW234938   2.269   1.139   4.249 -0.1982  1.4635 -0.3153
 7769SOL     OW34939   2.832   0.984   4.304 -0.2026 -0.1826 -0.1796
 7769SOL    HW134940   2.736   0.985   4.310 -0.2005  2.0992 -0.6334
 7769SOL    HW234941   2.848   1.067   4.260 -0.9405  0.0357 -0.0482
 7770SOL     OW34942   2.419   3.920   7.458 -0.3984 -0.2525 -0.6024
 7770SOL    HW134943   2.362   3.994   7.477 -0.4357 -0.0447 -1.5590
 7770SOL    HW234944   2.435   3.936   7.365 -0.3304 -1.4252 -0.8034
 7771SOL     OW34945   0.273   2.894   4.119 -0.1329 -0.3075  0.2502
 7771SOL    HW134946   0.365   2.876   4.100  0.0587  1.0512 -0.1193
 7771SOL    HW234947   0.244   2.914   4.030 -0.7038  0.6122  0.6414
 7772SOL     OW34948   4.236   0.414   0.461 -0.1253  0.2626 -0.0372
 7772SOL    HW134949   4.297   0.438   0.530  0.0398  1.6279 -0.6498
 7772SOL    HW234950   4.283   0.337   0.429 -0.6169  0.2586 -0.7513
 7773SOL     OW34951   4.315   3.236  10.644 -0.2656 -0.3314  0.0801
 7773SOL    HW134952   4.408   3.216  10.656 -0.4024 -1.9635 -1.6367
 7773SOL    HW234953   4.311   3.304  10.711 -2.2968 -0.2849 -0.0906
 7774SOL     OW34954   1.838   3.274  10.180 -0.5404 -0.3986  0.0554
 7774SOL    HW134955   1.828   3.265  10.275  1.0645  0.6514  0.3338
 7774SOL    HW234956   1.779   3.347  10.165  0.4211  0.7645  1.8922
 7775SOL     OW34957   3.590   0.854  16.031 -0.3501  0.1718  0.0759
 7775SOL    HW134958   3.508   0.850  15.981  0.5556  0.7036 -1.4478
 7775SOL    HW234959   3.652   0.887  15.967  0.4212  1.0557  1.2761
 7776SOL     OW34960   3.776   2.156   8.035 -0.5870 -0.6574  0.4792
 7776SOL    HW134961   3.808   2.181   8.122  1.0345 -0.2169 -0.2404
 7776SOL    HW234962   3.817   2.070   8.032  0.1727 -0.3466  1.7533
 7777SOL     OW34963   2.985   4.070   2.084  0.1711  0.2317 -0.2814
 7777SOL    HW134964   2.911   4.034   2.134  1.4993 -0.2757  1.3345
 7777SOL    HW234965   3.016   4.142   2.139 -0.4214 -0.8417  1.4736
 7778SOL     OW34966   2.047   3.659   3.097  0.1737  0.4904  0.2876
 7778SOL    HW134967   2.137   3.629   3.085 -0.0013 -0.2221  0.7893
 7778SOL    HW234968   2.037   3.712   3.017 -0.2797  2.6909  1.8040
 7779SOL     OW34969   2.195   1.206   7.382 -0.3661 -0.5928  0.6370
 7779SOL    HW134970   2.226   1.246   7.301 -0.0245  0.9938  1.5489
 7779SOL    HW234971   2.257   1.132   7.388  0.7586  0.4758  2.2404
 7780SOL     OW34972   1.033   2.586   7.232  0.2889 -0.2001  0.5167
 7780SOL    HW134973   1.040   2.612   7.140 -1.4533 -1.2034  0.0844
 7780SOL    HW234974   0.944   2.615   7.255  0.3670 -0.8783  1.6881
 7781SOL     OW34975   3.650   3.206   3.088 -0.1449  0.4096 -0.4591
 7781SOL    HW134976   3.631   3.190   3.180 -1.8703 -1.1181 -1.0783
 7781SOL    HW234977   3.599   3.146   3.034  0.4133  2.5239 -3.3645
 7782SOL     OW34978   2.663   1.658   7.920  0.4770  0.0094  0.3606
 7782SOL    HW134979   2.661   1.609   8.003  0.5385 -1.5067 -0.5265
 7782SOL    HW234980   2.752   1.635   7.894  1.0445  1.3251  1.1423
 7783SOL     OW34981   3.223   2.484   2.935 -0.8453 -0.1966 -0.5485
 7783SOL    HW134982   3.179   2.459   3.016 -3.3762 -1.2352 -2.2474
 7783SOL    HW234983   3.186   2.419   2.875 -2.7531 -0.1891  0.6315
 7784SOL     OW34984   3.892   1.885  17.204  0.0728 -0.1929  0.2045
 7784SOL    HW134985   3.899   1.789  17.206 -0.4249 -0.2114  1.2177
 7784SOL    HW234986   3.900   1.916  17.294  0.4119 -2.9268  1.1181
 7785SOL     OW34987   0.008   3.297  12.335 -0.6451 -0.9420 -0.1307
 7785SOL    HW134988   4.661   3.290  12.381 -1.2011  0.9854 -0.8322
 7785SOL    HW234989   4.727   3.247  12.256 -0.5175 -2.6881  0.9616
 7786SOL     OW34990   0.974   0.878  12.014  0.2002 -0.3110 -0.5391
 7786SOL    HW134991   1.000   0.955  12.064  1.4576  0.1425 -1.9146
 7786SOL    HW234992   1.002   0.905  11.927  0.8064  0.8634  0.0326
 7787SOL     OW34993   1.934   4.212   3.701  0.0852 -0.3702 -0.5594
 7787SOL    HW134994   1.983   4.231   3.781 -2.2330  1.4181  0.4302
 7787SOL    HW234995   1.960   4.274   3.632  2.3844 -0.6438  0.0507
 7788SOL     OW34996   0.978   0.495   7.917 -0.2638 -0.2170 -0.5472
 7788SOL    HW134997   0.969   0.579   7.870  2.9609  1.8353  2.5059
 7788SOL    HW234998   1.056   0.461   7.875  0.0036 -1.6253  1.0996
 7789SOL     OW34999   1.175   0.942  17.709  0.5726  0.1300  0.5963
 7789SOL    HW135000   1.203   0.872  17.650 -1.8693  1.8249 -2.5780
 7789SOL    HW235001   1.239   1.008  17.684  1.6778 -0.9799  0.4437
 7790SOL     OW35002   1.666   1.162   6.997  0.2690  0.0471 -0.3027
 7790SOL    HW135003   1.714   1.203   6.925 -1.8763  1.2035 -1.0838
 7790SOL    HW235004   1.591   1.123   6.952  0.8159  0.0543 -1.2324
 7791SOL     OW35005   0.368   0.241   3.595 -0.4124  0.0842 -0.2960
 7791SOL    HW135006   0.364   0.157   3.550 -1.5790 -0.0024 -0.0246
 7791SOL    HW235007   0.398   0.213   3.682 -1.7404  1.1412  0.4993
 7792SOL     OW35008   3.234   0.353   3.932  0.1083  0.2642  0.0105
 7792SOL    HW135009   3.218   0.358   3.838  0.1613  0.5599  0.0181
 7792SOL    HW235010   3.226   0.445   3.956 -0.5118  0.7176 -1.9587
 7793SOL     OW35011   3.934   3.122   8.534 -0.5275 -0.0567  0.0631
 7793SOL    HW135012   4.008   3.179   8.553  0.2174 -1.1292  0.4027
 7793SOL    HW235013   3.864   3.182   8.507  0.5368  0.9039 -0.5034
 7794SOL     OW35014   3.134   0.793   8.006 -0.2209 -0.5300 -0.3543
 7794SOL    HW135015   3.057   0.825   7.960  0.3862  1.6431  0.1524
 7794SOL    HW235016   3.113   0.834   8.089 -0.5971  1.0057 -1.2111
 7795SOL     OW35017   4.219   1.234  13.498 -0.1278  0.1446 -0.1122
 7795SOL    HW135018   4.264   1.185  13.428  0.6263 -1.8544  1.7724
 7795SOL    HW235019   4.259   1.199  13.577  0.6230  0.7256 -0.2340
 7796SOL     OW35020   0.387   2.369   2.811  0.3586  0.6001 -0.2984
 7796SOL    HW135021   0.401   2.293   2.754  0.8960  0.7752 -0.4042
 7796SOL    HW235022   0.443   2.428   2.761  1.9350 -1.4142 -0.9257
 7797SOL     OW35023   3.384   2.423  15.458 -0.0983 -0.4143 -0.9054
 7797SOL    HW135024   3.369   2.508  15.499 -1.0653 -0.5618 -0.9516
 7797SOL    HW235025   3.410   2.440  15.368  0.5979  4.5213  0.2032
 7798SOL     OW35026   1.592   3.124   7.592  0.4723  0.9132 -0.2215
 7798SOL    HW135027   1.627   3.107   7.679  0.0403  2.1296  0.1920
 7798SOL    HW235028   1.499   3.110   7.606  0.5024  0.4910 -0.4558
 7799SOL     OW35029   2.744   3.968   9.320  0.2017 -0.5516 -0.1715
 7799SOL    HW135030   2.742   4.014   9.404  0.7279  0.1285 -0.5305
 7799SOL    HW235031   2.688   3.893   9.343  1.3496 -1.5173 -0.5664
 7800SOL     OW35032   4.665   4.166   4.671  0.0681 -0.4125  0.3162
 7800SOL    HW135033   0.007   4.143   4.622  0.4881 -1.5383  1.5499
 7800SOL    HW235034   4.702   4.145   4.756  1.8935 -0.3638 -0.4457
 7801SOL     OW35035   3.234   1.525  12.245 -0.2727  0.3266 -0.2911
 7801SOL    HW135036   3.291   1.524  12.168  0.4132 -4.1628  0.2598
 7801SOL    HW235037   3.268   1.446  12.288  0.6141  0.0416 -1.5405
 7802SOL     OW35038   2.736   3.939  14.049 -0.3185  0.4334  0.1317
 7802SOL    HW135039   2.726   3.999  14.122  0.6054  0.0451  0.5734
 7802SOL    HW235040   2.786   3.987  13.982  0.5684  0.2557  0.6724
 7803SOL     OW35041   3.943   3.405  16.479  0.3677 -0.5619 -0.1603
 7803SOL    HW135042   3.950   3.356  16.397 -2.3550  0.5488 -1.0508
 7803SOL    HW235043   3.999   3.359  16.542 -1.6778  1.0311  2.8027
 7804SOL     OW35044   2.904   0.051   3.404 -0.6369  0.3213  0.8450
 7804SOL    HW135045   2.851   0.130   3.413 -3.2876 -1.7031  3.4090
 7804SOL    HW235046   2.927   0.058   3.312 -0.1266 -1.2456  0.8460
 7805SOL     OW35047   3.333   4.211   4.354 -0.0939 -0.0681 -0.3009
 7805SOL    HW135048   3.398   4.141   4.369  0.9106  0.9178 -0.0222
 7805SOL    HW235049   3.376   4.291   4.383  1.0948 -0.3002 -1.3997
 7806SOL     OW35050   4.682   4.061   6.699 -0.2336 -0.2128 -0.1741
 7806SOL    HW135051   0.032   4.048   6.662  0.3911  2.7040  0.2444
 7806SOL    HW235052   4.698   4.024   6.786  1.0454  1.4342  0.2844
 7807SOL     OW35053   2.782   1.442   4.944 -0.4137  0.3492  0.3598
 7807SOL    HW135054   2.851   1.499   4.909  2.1626 -1.7425  2.0060
 7807SOL    HW235055   2.720   1.513   4.931 -0.2119  0.6652  1.1551
 7808SOL     OW35056   2.374   0.157   5.973  0.1227 -0.8098 -0.5556
 7808SOL    HW135057   2.372   0.222   5.902 -2.0150 -2.8684 -2.3989
 7808SOL    HW235058   2.435   0.091   5.942  1.8179  1.1192 -1.2841
 7809SOL     OW35059   0.676   1.184  14.265  0.2989 -0.4340 -0.0074
 7809SOL    HW135060   0.588   1.204  14.235  1.3072  3.2102 -0.5196
 7809SOL    HW235061   0.650   1.111  14.321 -0.6863 -0.7768 -0.9307
 7810SOL     OW35062   2.262   1.410   3.549 -0.5255  0.0846 -0.1848
 7810SOL    HW135063   2.239   1.317   3.551  0.2537 -0.1477 -1.7394
 7810SOL    HW235064   2.183   1.444   3.507  1.5525  3.9418 -0.9530
 7811SOL     OW35065   3.924   0.697   0.169 -0.2838  0.1938 -0.5809
 7811SOL    HW135066   3.951   0.615   0.210 -1.3355  0.0154 -0.2407
 7811SOL    HW235067   4.002   0.753   0.165 -0.6591  0.8817  1.6142
 7812SOL     OW35068   1.085   1.292  11.948  0.1377  0.6009  0.1022
 7812SOL    HW135069   1.072   1.358  11.880 -0.7595 -0.9269 -1.2281
 7812SOL    HW235070   1.008   1.235  11.946  0.7428 -0.2535  0.8885
 7813SOL     OW35071   3.969   3.737   1.362 -0.3206  0.1784 -0.0827
 7813SOL    HW135072   3.914   3.811   1.388 -0.0078  0.3232  0.1585
 7813SOL    HW235073   3.947   3.676   1.432 -0.9202  1.3421  0.7313
 7814SOL     OW35074   3.046   2.579   7.146  0.5266  0.4345 -0.0809
 7814SOL    HW135075   3.057   2.673   7.156  2.7640  0.3238 -1.6394
 7814SOL    HW235076   3.008   2.573   7.059 -1.5142  2.0238  0.6989
 7815SOL     OW35077   3.992   4.525   2.538  0.3213  0.2130 -0.4853
 7815SOL    HW135078   4.085   4.514   2.519  0.3917  1.7190 -1.0703
 7815SOL    HW235079   3.939   4.452   2.505  0.0076 -0.6762  1.9744
 7816SOL     OW35080   3.645   4.017  12.451  0.0826  0.3353  0.4417
 7816SOL    HW135081   3.737   3.991  12.450 -0.8615 -2.9375 -1.3788
 7816SOL    HW235082   3.640   4.024  12.546  1.5397 -1.2394  0.6346
 7817SOL     OW35083   2.691   1.968   6.527  0.2009  0.4903  0.0203
 7817SOL    HW135084   2.738   1.900   6.577  1.4262  1.3815  0.0964
 7817SOL    HW235085   2.770   2.012   6.495  1.7791 -0.5696  2.3788
 7818SOL     OW35086   1.575   3.277   4.038 -0.0200  0.5665  0.1487
 7818SOL    HW135087   1.647   3.339   4.049  1.1852 -0.7365 -0.4041
 7818SOL    HW235088   1.607   3.206   3.983 -2.3435 -2.0630  2.1857
 7819SOL     OW35089   1.557   1.083   3.585  0.3398  0.1346  0.3334
 7819SOL    HW135090   1.497   1.040   3.646 -1.7070 -0.4804 -2.1167
 7819SOL    HW235091   1.527   1.173   3.602  1.0590  0.3892  0.2462
 7820SOL     OW35092   1.496   1.515   6.324  0.0937  0.3415  0.5904
 7820SOL    HW135093   1.586   1.549   6.330 -0.7412  2.8483 -1.1292
 7820SOL    HW235094   1.454   1.589   6.281  0.1245  0.9607  1.6186
 7821SOL     OW35095   1.008   2.884   3.462 -0.2710 -0.3205  0.4210
 7821SOL    HW135096   1.031   2.887   3.555 -1.8558  2.6023  0.7324
 7821SOL    HW235097   0.988   2.791   3.457  0.0660 -0.3981  0.4908
 7822SOL     OW35098   2.962   3.389  12.080  0.0942  0.3621 -0.1964
 7822SOL    HW135099   2.868   3.408  12.084 -0.1562 -0.4814 -1.9354
 7822SOL    HW235100   2.989   3.402  12.171  1.4266  0.7281 -0.6368
 7823SOL     OW35101   0.862   3.793  11.784 -0.2037  0.0330  0.2562
 7823SOL    HW135102   0.929   3.740  11.827 -0.7715 -0.3603  0.6489
 7823SOL    HW235103   0.795   3.724  11.785  0.4402 -0.5877  0.9442
 7824SOL     OW35104   1.197   1.306   1.383  0.1616  0.5612 -0.7215
 7824SOL    HW135105   1.194   1.344   1.471  0.1612  2.3273 -1.4810
 7824SOL    HW235106   1.257   1.233   1.396 -2.2584 -1.2553  0.1565
 7825SOL     OW35107   2.505   2.750  15.326  0.1974  0.0220 -0.0386
 7825SOL    HW135108   2.443   2.742  15.253 -1.1574  1.2107  0.9948
 7825SOL    HW235109   2.591   2.766  15.287  0.2890  1.7532  0.9089
 7826SOL     OW35110   3.680   0.749  16.285  0.2084 -0.4812 -0.1803
 7826SOL    HW135111   3.668   0.777  16.195 -1.2728  1.4047  0.6144
 7826SOL    HW235112   3.592   0.756  16.321 -0.9657 -1.4911 -2.9235
 7827SOL     OW35113   4.437   1.877   3.489 -0.5727 -0.2924  0.2898
 7827SOL    HW135114   4.456   1.793   3.448 -1.1098 -0.5384  0.5454
 7827SOL    HW235115   4.414   1.840   3.575  0.6473  2.0482  1.6243
 7828SOL     OW35116   1.920   0.659   7.331  0.5976  0.0264 -0.5992
 7828SOL    HW135117   1.937   0.570   7.362  1.1147 -0.0921 -1.2015
 7828SOL    HW235118   2.010   0.692   7.332  0.2238  0.9510  1.4170
 7829SOL     OW35119   3.306   4.127   8.802  0.4569 -0.6766  0.1395
 7829SOL    HW135120   3.368   4.062   8.768  0.4119  0.0205 -1.2600
 7829SOL    HW235121   3.364   4.151   8.875  0.1084 -1.7254  0.7630
 7830SOL     OW35122   1.155   1.151   2.289 -0.4760 -0.4125  0.0982
 7830SOL    HW135123   1.188   1.109   2.210  1.3080  0.6579  0.2917
 7830SOL    HW235124   1.189   1.091   2.355  0.0416  0.0147  0.2201
 7831SOL     OW35125   2.789   1.108   3.094 -0.3257  0.5011  0.1384
 7831SOL    HW135126   2.742   1.177   3.047  0.0422 -1.1317 -2.6790
 7831SOL    HW235127   2.717   1.048   3.074 -0.3778  0.6253 -0.0515
 7832SOL     OW35128   0.634   2.131  13.812  0.4983  0.2831  0.3926
 7832SOL    HW135129   0.707   2.106  13.755 -0.1369 -3.0595  1.0274
 7832SOL    HW235130   0.597   2.205  13.764 -0.1660 -0.6878 -0.5810
 7833SOL     OW35131   1.156   1.756   4.724  0.5307 -0.2758 -0.2574
 7833SOL    HW135132   1.127   1.779   4.812 -1.8308  0.6372 -1.2718
 7833SOL    HW235133   1.080   1.779   4.669 -0.5434 -1.6387  0.6616
 7834SOL     OW35134   2.050   1.361   5.867  0.2217  0.1383  0.1714
 7834SOL    HW135135   1.968   1.403   5.893  0.0323 -1.9655  2.8980
 7834SOL    HW235136   2.044   1.391   5.776 -0.9206  1.4373  0.6783
 7835SOL     OW35137   1.730   0.526   2.523 -0.1794  0.1331  0.6029
 7835SOL    HW135138   1.738   0.435   2.549 -0.1605 -0.7375 -2.4912
 7835SOL    HW235139   1.803   0.543   2.463  0.4937  2.2586  2.0103
 7836SOL     OW35140   2.486   1.677  10.653  0.4735  0.0359 -0.2699
 7836SOL    HW135141   2.541   1.610  10.693  0.0515  0.0514  0.3435
 7836SOL    HW235142   2.411   1.673  10.713 -0.5105 -2.1554 -1.6829
 7837SOL     OW35143   3.394   3.186   3.384  0.1202 -0.2067 -0.4670
 7837SOL    HW135144   3.388   3.127   3.459  2.0588 -1.2932 -1.1575
 7837SOL    HW235145   3.481   3.226   3.385 -0.5539  1.2288 -0.1496
 7838SOL     OW35146   2.175   2.003   0.830  1.1012 -0.2491 -0.0501
 7838SOL    HW135147   2.144   2.054   0.905  2.0663 -1.5305  1.2249
 7838SOL    HW235148   2.139   2.059   0.761 -1.4821 -2.2284 -0.3072
 7839SOL     OW35149   2.954   1.944  12.768  0.1819  0.1115  0.1988
 7839SOL    HW135150   2.958   1.924  12.862  0.0475  0.5206  0.2916
 7839SOL    HW235151   2.904   2.026  12.771  2.2018  1.2704  2.3138
 7840SOL     OW35152   1.185   0.509   1.696 -0.2187 -0.0737  0.0108
 7840SOL    HW135153   1.154   0.428   1.655 -0.4618 -0.3415  0.7234
 7840SOL    HW235154   1.114   0.570   1.674 -0.0120  0.6424  1.3129
 7841SOL     OW35155   4.374   3.679   8.092 -0.3909  0.6685 -0.0114
 7841SOL    HW135156   4.445   3.721   8.141 -0.9361 -0.2632  1.5809
 7841SOL    HW235157   4.303   3.684   8.156 -2.0237 -1.6304 -1.6493
 7842SOL     OW35158   0.438   4.495   5.633 -0.3069 -0.2456 -0.3257
 7842SOL    HW135159   0.499   4.441   5.684 -0.8259 -0.9301 -0.4232
 7842SOL    HW235160   0.429   4.448   5.550 -0.2530  0.0529 -0.5013
 7843SOL     OW35161   3.855   1.229   2.421  0.1028 -0.3220 -0.2265
 7843SOL    HW135162   3.861   1.200   2.512 -0.7740 -0.4290 -0.1967
 7843SOL    HW235163   3.861   1.147   2.372  2.6905  0.5176 -1.2734
 7844SOL     OW35164   4.452   0.834  14.785 -0.0849 -0.3131 -0.6226
 7844SOL    HW135165   4.407   0.750  14.769 -1.0725  0.3519 -1.3794
 7844SOL    HW235166   4.430   0.881  14.704  0.5322 -1.5963 -1.5400
 7845SOL     OW35167   1.976   4.437   7.015 -0.1659 -0.6979 -0.1994
 7845SOL    HW135168   1.907   4.466   6.955 -0.0325  0.4113  0.1946
 7845SOL    HW235169   2.027   4.368   6.972  0.6476  0.0637 -0.4630
 7846SOL     OW35170   3.821   2.656   6.320 -0.1212  0.2174  0.2824
 7846SOL    HW135171   3.743   2.668   6.373  1.2947  0.3082  2.3540
 7846SOL    HW235172   3.882   2.727   6.341 -0.4889  0.9678 -1.2020
 7847SOL     OW35173   2.664   0.200  11.329  0.0993  0.1003  1.2578
 7847SOL    HW135174   2.694   0.291  11.322 -1.6141  0.5761  0.0023
 7847SOL    HW235175   2.747   0.155  11.312 -0.2671  0.0819 -0.4692
 7848SOL     OW35176   0.540   4.712   2.351  0.5315 -0.0132 -0.2544
 7848SOL    HW135177   0.547   0.037   2.423  0.7131 -0.6485  0.2772
 7848SOL    HW235178   0.621   4.660   2.355  0.0025 -0.7509  0.7096
 7849SOL     OW35179   1.692   4.481   3.107  0.3444 -0.1227 -0.3529
 7849SOL    HW135180   1.712   4.387   3.106 -1.2489 -0.4534 -0.3597
 7849SOL    HW235181   1.599   4.485   3.130  0.5147  2.3249 -0.1762
 7850SOL     OW35182   1.124   0.799   1.427  1.0049  0.1464  0.1338
 7850SOL    HW135183   1.141   0.808   1.521 -0.2533  0.7959  0.3050
 7850SOL    HW235184   1.039   0.758   1.443  0.0760  1.0851 -2.3514
 7851SOL     OW35185   1.965   1.035   4.160  0.0463  0.0538  0.1751
 7851SOL    HW135186   1.913   1.052   4.081 -1.1679 -2.6192  0.3955
 7851SOL    HW235187   1.983   0.941   4.160  2.6252  0.5341  0.9782
 7852SOL     OW35188   2.392   2.294  13.586 -0.5163  0.6488  0.2107
 7852SOL    HW135189   2.422   2.327  13.501  1.2259  2.7334  1.6532
 7852SOL    HW235190   2.322   2.353  13.612 -0.6529 -0.3022  1.9652
 7853SOL     OW35191   1.858   1.175   5.446 -0.0867  0.2800 -0.4213
 7853SOL    HW135192   1.850   1.081   5.460  1.4026  0.2145 -0.0490
 7853SOL    HW235193   1.767   1.199   5.466 -0.8540 -1.7196 -1.4039
 7854SOL     OW35194   1.632   2.474   4.141  0.3196 -0.1192 -0.0839
 7854SOL    HW135195   1.599   2.537   4.077 -0.3808 -0.9275 -0.5220
 7854SOL    HW235196   1.563   2.478   4.207  0.1017  2.4822 -0.4456
 7855SOL     OW35197   2.553   4.427  10.718 -0.1294 -0.6795 -0.4827
 7855SOL    HW135198   2.576   4.517  10.739  0.7422 -1.0267  0.0337
 7855SOL    HW235199   2.458   4.423  10.705 -0.4203  0.4150  1.3932
 7856SOL     OW35200   3.373   1.263   7.932  0.3436  0.0110  0.0563
 7856SOL    HW135201   3.413   1.301   8.010  0.5720  1.1611 -0.6301
 7856SOL    HW235202   3.282   1.255   7.961 -0.2298 -0.4168 -1.8783
 7857SOL     OW35203   2.266   0.621   2.269 -0.9930  0.7457  0.0823
 7857SOL    HW135204   2.295   0.707   2.238 -2.8294  1.7832  1.2433
 7857SOL    HW235205   2.294   0.624   2.360 -0.8571 -0.0253  0.0653
 7858SOL     OW35206   0.553   2.595   5.953 -0.4953  0.1691 -0.1709
 7858SOL    HW135207   0.600   2.642   6.022 -2.8109 -0.0836  1.5588
 7858SOL    HW235208   0.609   2.518   5.958  0.0630  0.5388 -0.6972
 7859SOL     OW35209   3.881   1.644  11.879 -0.0197 -0.6682  0.0042
 7859SOL    HW135210   3.939   1.652  11.955  1.7366  1.2778 -1.5337
 7859SOL    HW235211   3.795   1.627  11.916  0.2502  2.7118  2.1701
 7860SOL     OW35212   4.222   2.313   8.671 -0.3491 -0.0712 -0.3178
 7860SOL    HW135213   4.169   2.233   8.674  0.9702 -0.9100  0.2920
 7860SOL    HW235214   4.274   2.303   8.592 -0.2756 -0.6483 -0.1952
 7861SOL     OW35215   4.141   2.112  15.622  0.1153  0.2992 -0.3912
 7861SOL    HW135216   4.132   2.152  15.708 -1.0015  0.7638 -0.7296
 7861SOL    HW235217   4.103   2.025  15.638 -0.2101  0.7226  1.1231
 7862SOL     OW35218   2.260   4.391   2.669 -0.1172 -0.0929 -0.0764
 7862SOL    HW135219   2.166   4.382   2.650 -0.6311  2.5744  1.2706
 7862SOL    HW235220   2.291   4.414   2.581  2.1784 -0.3512  0.6682
 7863SOL     OW35221   0.055   4.078  11.934 -0.1679  0.5440 -0.5685
 7863SOL    HW135222   4.701   4.066  11.961 -0.3719 -0.1467 -1.5295
 7863SOL    HW235223   0.091   4.012  11.994  0.4012  2.6947  1.4338
 7864SOL     OW35224   4.516   0.648   8.992  0.2350  0.1647  0.5051
 7864SOL    HW135225   4.527   0.659   8.897 -0.9120 -0.8573  0.2640
 7864SOL    HW235226   4.444   0.586   8.984  0.8501 -0.5099  0.1237
 7865SOL     OW35227   1.051   1.923   4.922  0.2825 -0.3582  0.7194
 7865SOL    HW135228   0.980   1.987   4.921  0.9154  0.3107 -0.9362
 7865SOL    HW235229   1.018   1.856   4.982  3.6400 -1.2141  1.6230
 7866SOL     OW35230   4.680   1.214  16.302  0.0414 -0.6201  0.4798
 7866SOL    HW135231   4.707   1.126  16.328 -0.8480 -1.1823 -0.5411
 7866SOL    HW235232   0.011   1.253  16.358  0.1160 -1.1968  0.7941
 7867SOL     OW35233   0.420   0.414  11.144  0.0603 -0.7812  0.3492
 7867SOL    HW135234   0.437   0.437  11.053  1.8144 -0.0978  0.8593
 7867SOL    HW235235   0.403   0.499  11.183 -3.7352 -1.2317 -0.3442
 7868SOL     OW35236   1.656   0.362   6.190 -0.5462  0.1473 -0.0300
 7868SOL    HW135237   1.721   0.295   6.207  0.7837  1.3711 -0.2624
 7868SOL    HW235238   1.581   0.314   6.225 -1.7744  1.6657 -0.5724
 7869SOL     OW35239   0.948   3.867  16.967  0.4605 -0.3221  0.4708
 7869SOL    HW135240   1.020   3.921  16.933  1.0296  0.1597  2.4173
 7869SOL    HW235241   0.988   3.825  17.043 -0.1661 -1.0047  0.4244
 7870SOL     OW35242   3.840   1.880  16.467 -0.3079  0.0939  0.2880
 7870SOL    HW135243   3.839   1.896  16.561 -0.8970  1.1055  0.1119
 7870SOL    HW235244   3.765   1.930  16.436 -1.7936 -2.6590 -0.5180
 7871SOL     OW35245   2.488   1.410   8.057  0.2279  0.0151 -0.1222
 7871SOL    HW135246   2.430   1.429   7.983  1.1721  0.4945 -0.7375
 7871SOL    HW235247   2.447   1.338   8.105  0.6242 -0.7795 -0.9540
 7872SOL     OW35248   1.101   0.829  15.312  0.2714 -0.3716  0.2393
 7872SOL    HW135249   1.152   0.793  15.384  0.6687  1.5797  0.9295
 7872SOL    HW235250   1.122   0.922  15.320  0.5011 -0.3823 -0.2306
 7873SOL     OW35251   0.996   2.284   2.550  0.3512  0.3129  0.3214
 7873SOL    HW135252   1.085   2.287   2.585 -0.3744  2.4783  1.9641
 7873SOL    HW235253   0.965   2.215   2.608 -0.0154 -2.4633 -3.1677
 7874SOL     OW35254   2.812   4.207  16.398 -0.3699 -0.0617  0.2968
 7874SOL    HW135255   2.753   4.218  16.473 -0.7238  0.6896 -0.0866
 7874SOL    HW235256   2.887   4.156  16.427  0.0359  0.7539  0.6845
 7875SOL     OW35257   3.118   2.942   8.490 -0.6426 -0.1580  0.5137
 7875SOL    HW135258   3.075   2.857   8.480  0.0890 -0.5324  0.5936
 7875SOL    HW235259   3.060   2.993   8.432  1.0580 -0.5828 -1.5455
 7876SOL     OW35260   1.054   1.445   0.285 -0.2611 -0.3718 -0.3439
 7876SOL    HW135261   0.991   1.414   0.350  0.5058  2.1784  1.6197
 7876SOL    HW235262   1.109   1.497   0.343 -0.5365  0.3851 -0.7684
 7877SOL     OW35263   1.851   1.705   6.593  1.1519  0.1216  0.8729
 7877SOL    HW135264   1.939   1.696   6.630 -0.3726 -0.8716  4.2388
 7877SOL    HW235265   1.848   1.800   6.579 -0.6935 -0.0359  0.2124
 7878SOL     OW35266   1.060   1.710  11.119 -0.3464 -0.5369 -0.3872
 7878SOL    HW135267   1.030   1.641  11.179 -0.5955  0.2377  0.3899
 7878SOL    HW235268   0.985   1.715  11.060  1.2912  1.7093 -2.2660
 7879SOL     OW35269   2.789   4.404   2.023 -0.1474  0.1458 -0.3817
 7879SOL    HW135270   2.879   4.420   1.995  0.8612 -2.8459  1.1597
 7879SOL    HW235271   2.813   4.366   2.108 -2.9744  0.6770  0.6626
 7880SOL     OW35272   3.331   2.305   6.143  0.2462 -1.1163  0.2744
 7880SOL    HW135273   3.328   2.397   6.116  2.6347 -1.0594  0.2055
 7880SOL    HW235274   3.422   2.293   6.168 -0.0685 -2.1889  0.9288
 7881SOL     OW35275   2.146   3.328  11.935  0.6591  0.2078  0.7419
 7881SOL    HW135276   2.129   3.326  11.841  0.0298  0.7651  0.8447
 7881SOL    HW235277   2.063   3.292  11.966  1.2643  1.1684  3.4792
 7882SOL     OW35278   4.397   1.502   4.326  0.0082 -0.5877  0.5826
 7882SOL    HW135279   4.423   1.419   4.367  3.7904 -0.1427 -0.9272
 7882SOL    HW235280   4.476   1.555   4.330  0.5129 -1.2856 -0.0564
 7883SOL     OW35281   1.195   0.424   2.061  0.3877  0.2080 -0.3133
 7883SOL    HW135282   1.247   0.472   2.126 -2.3584  0.4690  1.6949
 7883SOL    HW235283   1.265   0.365   2.031  2.3395  1.8822  0.9160
 7884SOL     OW35284   0.888   4.379   5.962  0.4462 -0.0331  0.5004
 7884SOL    HW135285   0.952   4.358   5.893 -0.7282  0.7245 -0.8240
 7884SOL    HW235286   0.948   4.384   6.036 -0.5904  1.9012  1.1789
 7885SOL     OW35287   2.491   0.917   7.471  0.0386  0.6131  0.3915
 7885SOL    HW135288   2.450   0.900   7.556  2.4957 -0.8304  1.2841
 7885SOL    HW235289   2.420   0.934   7.409  0.8632 -2.0530 -1.3375
 7886SOL     OW35290   2.306   0.413   9.144  0.1307  0.2921 -0.3689
 7886SOL    HW135291   2.211   0.426   9.147 -0.2282 -2.2138 -0.6403
 7886SOL    HW235292   2.327   0.382   9.055 -0.5736 -1.0592 -0.0579
 7887SOL     OW35293   4.467   4.377   8.617 -0.1161 -0.0902 -0.2454
 7887SOL    HW135294   4.454   4.382   8.712 -0.4519 -0.3842 -0.2739
 7887SOL    HW235295   4.443   4.286   8.597  1.4901 -0.2914 -1.2222
 7888SOL     OW35296   2.400   0.923   7.733  0.2158 -0.0222  0.1812
 7888SOL    HW135297   2.453   0.902   7.810  1.8018 -1.7817 -1.3782
 7888SOL    HW235298   2.321   0.871   7.745  0.2878  0.0195  0.8169
 7889SOL     OW35299   3.605   4.035   3.891 -0.2707  0.6956  0.5626
 7889SOL    HW135300   3.625   4.034   3.798 -1.2429 -2.4705  0.3952
 7889SOL    HW235301   3.529   4.094   3.884 -1.4183 -0.8609 -0.0390
 7890SOL     OW35302   3.746   2.685   5.217  0.6192  0.5686  0.1002
 7890SOL    HW135303   3.672   2.634   5.248  0.5468  1.4639  1.3917
 7890SOL    HW235304   3.805   2.616   5.187  1.1533  1.1886 -0.2719
 7891SOL     OW35305   2.442   3.456  11.125  0.4905 -0.3184 -0.2118
 7891SOL    HW135306   2.436   3.497  11.212  0.6674  1.1480 -0.8943
 7891SOL    HW235307   2.537   3.453  11.127  0.4953  0.2748  0.9479
 7892SOL     OW35308   4.283   0.892  13.356 -0.0441  0.2529 -0.0188
 7892SOL    HW135309   4.346   0.963  13.370  2.2527 -1.2969 -2.5884
 7892SOL    HW235310   4.299   0.877  13.263  0.4542 -0.1973  0.1393
 7893SOL     OW35311   1.666   3.444   1.661 -0.4704  0.6548  0.0794
 7893SOL    HW135312   1.639   3.505   1.729 -0.6562  0.0512  0.5426
 7893SOL    HW235313   1.670   3.511   1.592  2.3094  1.9940  1.5266
 7894SOL     OW35314   2.835   0.680   0.596  0.1097 -0.0330  0.6212
 7894SOL    HW135315   2.927   0.659   0.613 -0.1073  0.0097  1.8309
 7894SOL    HW235316   2.834   0.772   0.567  1.8873 -1.4405 -3.9864
 7895SOL     OW35317   1.444   4.288   7.760 -0.2297  0.2479 -0.1930
 7895SOL    HW135318   1.477   4.259   7.844  0.4411  2.4577  0.3060
 7895SOL    HW235319   1.484   4.221   7.705  0.3125  1.3835 -1.2017
 7896SOL     OW35320   1.841   3.149   4.247 -0.1397 -0.2240  0.2104
 7896SOL    HW135321   1.866   3.237   4.275  0.6362 -0.4730  0.3036
 7896SOL    HW235322   1.746   3.150   4.257 -0.2240  0.5964 -0.7640
 7897SOL     OW35323   3.153   3.399   6.535 -0.5948 -0.4627 -0.0134
 7897SOL    HW135324   3.118   3.439   6.615  0.4989 -2.8560  1.6475
 7897SOL    HW235325   3.227   3.360   6.581 -0.2169  0.3044  0.0200
 7898SOL     OW35326   0.590   1.803   4.788 -0.0121 -0.4979  0.0643
 7898SOL    HW135327   0.612   1.796   4.881  0.8488  0.2842 -0.0763
 7898SOL    HW235328   0.552   1.715   4.782  0.4820 -0.9035  3.2447
 7899SOL     OW35329   1.930   0.347   6.545  0.1467  0.4656  0.9037
 7899SOL    HW135330   1.941   0.435   6.583  0.4848  0.0073  1.8772
 7899SOL    HW235331   1.903   0.308   6.628 -1.0949 -1.1274 -0.2527
 7900SOL     OW35332   2.764   4.297  10.819  0.1745  0.1603 -0.5744
 7900SOL    HW135333   2.752   4.334  10.906 -1.5042  0.1699 -0.8107
 7900SOL    HW235334   2.709   4.353  10.765  0.7237  0.6452 -0.6311
 7901SOL     OW35335   2.686   1.672   4.564 -0.1204 -0.4332 -0.1865
 7901SOL    HW135336   2.772   1.654   4.525 -0.5695  3.3519 -2.9395
 7901SOL    HW235337   2.669   1.757   4.522  2.4041  0.6093  0.8579
 7902SOL     OW35338   1.182   4.695   2.774 -0.2824 -0.0159  0.1610
 7902SOL    HW135339   1.183   4.610   2.731 -0.8080 -0.0034  0.1265
 7902SOL    HW235340   1.110   0.010   2.738  0.0887  0.0107 -0.5349
 7903SOL     OW35341   2.265   0.779   4.289  0.6432 -0.1835  0.2738
 7903SOL    HW135342   2.246   0.775   4.383  0.4508 -0.2663  0.2305
 7903SOL    HW235343   2.180   0.784   4.246 -0.3854  1.2043  2.4805
 7904SOL     OW35344   3.962   0.536  17.064  0.6424 -0.2174 -0.6244
 7904SOL    HW135345   4.028   0.572  17.005 -1.8873 -0.6236 -3.6569
 7904SOL    HW235346   3.886   0.592  17.049  1.9672  1.7573  0.0306
 7905SOL     OW35347   1.272   0.458   4.961  0.2396  0.6008 -0.0385
 7905SOL    HW135348   1.179   0.445   4.940  0.3895 -1.9333  0.8879
 7905SOL    HW235349   1.268   0.520   5.034 -3.6828  0.5252 -0.1522
 7906SOL     OW35350   3.969   1.501   4.047 -0.2937 -0.0901 -0.6073
 7906SOL    HW135351   3.889   1.488   4.099 -1.2781  2.6069 -1.4875
 7906SOL    HW235352   4.007   1.413   4.053  0.7772  0.6257  2.9957
 7907SOL     OW35353   0.363   3.577   5.174 -0.4239  0.1220  0.3080
 7907SOL    HW135354   0.309   3.501   5.150  0.4322 -0.7782  1.2343
 7907SOL    HW235355   0.347   3.571   5.268  0.3505  0.4309  0.4571
 7908SOL     OW35356   0.804   1.711  12.077  0.1437 -0.0427  0.1940
 7908SOL    HW135357   0.781   1.803  12.085  1.7516  0.3027  0.8333
 7908SOL    HW235358   0.874   1.716  12.013 -0.4958  1.7379 -0.3655
 7909SOL     OW35359   1.428   0.263   4.818 -0.4829  0.2449  0.2509
 7909SOL    HW135360   1.360   0.195   4.809 -1.2109  1.1143 -0.7648
 7909SOL    HW235361   1.383   0.323   4.877  0.9430  1.7049 -0.1694
 7910SOL     OW35362   0.164   1.713   4.277 -0.1883 -0.4582  0.1005
 7910SOL    HW135363   0.200   1.658   4.345 -1.7300 -1.6123 -0.0027
 7910SOL    HW235364   0.230   1.719   4.208  0.1794  0.3032  0.5182
 7911SOL     OW35365   1.050   0.338   5.933 -0.6063  0.1478 -0.0855
 7911SOL    HW135366   1.096   0.392   5.996  2.3604 -1.7865 -0.5807
 7911SOL    HW235367   0.991   0.283   5.984 -0.5007  1.1853  1.1293
 7912SOL     OW35368   3.346   2.439   9.421 -0.1311  0.0956 -0.0953
 7912SOL    HW135369   3.296   2.510   9.379  0.1602  0.1888 -0.2846
 7912SOL    HW235370   3.322   2.366   9.364  0.9892 -1.2571  1.1718
 7913SOL     OW35371   3.556   1.234  16.567  0.2105 -0.5132  0.1543
 7913SOL    HW135372   3.561   1.221  16.472 -0.4208  1.3854 -0.1186
 7913SOL    HW235373   3.473   1.197  16.596 -1.4327  2.6000 -0.7280
 7914SOL     OW35374   3.386   3.647   0.666 -0.2181 -0.0996 -0.0237
 7914SOL    HW135375   3.428   3.565   0.642 -1.5571 -0.1782 -2.0728
 7914SOL    HW235376   3.345   3.628   0.751 -0.2945  1.3256  0.2543
 7915SOL     OW35377   3.587   1.531   9.209  0.2825 -0.1151  0.0643
 7915SOL    HW135378   3.581   1.567   9.121 -1.5723  0.0099  0.2264
 7915SOL    HW235379   3.673   1.562   9.235  0.2146  0.8386 -0.8556
 7916SOL     OW35380   4.064   1.381   7.759 -0.3639  0.1120 -0.0171
 7916SOL    HW135381   3.970   1.397   7.744 -0.7580 -1.8652  0.3902
 7916SOL    HW235382   4.075   1.291   7.730  0.7114  0.4857 -0.7963
 7917SOL     OW35383   1.145   2.029  11.070 -0.2089  0.3370 -0.5634
 7917SOL    HW135384   1.232   1.988  11.077  0.5726  1.8560 -1.4135
 7917SOL    HW235385   1.141   2.065  11.158  0.3748  1.2432 -0.9073
 7918SOL     OW35386   3.483   1.728   5.837 -0.6941  0.0831  0.5828
 7918SOL    HW135387   3.524   1.806   5.799  2.0375 -1.0805  1.1994
 7918SOL    HW235388   3.397   1.770   5.841  0.0971  1.5913  2.0722
 7919SOL     OW35389   1.335   1.515  15.654 -0.4641  0.2976  0.0348
 7919SOL    HW135390   1.368   1.598  15.620  4.0491 -1.1620  0.8221
 7919SOL    HW235391   1.314   1.477  15.568 -1.8501  1.1204  0.0016
 7920SOL     OW35392   0.091   1.596  17.570  0.1630 -0.3075  0.5019
 7920SOL    HW135393   0.050   1.529  17.624  0.2815  0.8989  2.0689
 7920SOL    HW235394   0.036   1.670  17.596 -1.2349  0.2089 -3.7604
 7921SOL     OW35395   1.448   0.541   2.467 -0.7427 -0.0764  0.6421
 7921SOL    HW135396   1.540   0.564   2.481 -0.8043 -0.2742  1.3383
 7921SOL    HW235397   1.449   0.447   2.448 -2.6852  0.4483 -2.0937
 7922SOL     OW35398   0.730   2.953   5.295  0.2667 -0.3700 -0.6615
 7922SOL    HW135399   0.733   3.003   5.214 -0.1896 -0.4215 -0.7130
 7922SOL    HW235400   0.658   2.892   5.278 -0.9337  0.7324  0.3971
 7923SOL     OW35401   3.734   4.503   6.709 -0.1534  0.4453 -0.2072
 7923SOL    HW135402   3.691   4.511   6.794 -0.3762 -2.7738  0.0037
 7923SOL    HW235403   3.730   4.407   6.708  0.8974  0.3482  3.7775
 7924SOL     OW35404   0.966   4.167   5.452 -0.2582  0.1189 -0.2110
 7924SOL    HW135405   1.055   4.139   5.474  0.5278  3.2629  0.5885
 7924SOL    HW235406   0.949   4.112   5.375  0.3535 -1.7704  0.9806
 7925SOL     OW35407   0.521   2.792   5.632  0.0936  0.1022  0.2763
 7925SOL    HW135408   0.555   2.876   5.601  0.1180 -0.5989 -1.6307
 7925SOL    HW235409   0.599   2.736   5.629  0.0246  0.0283 -0.2899
 7926SOL     OW35410   0.252   4.083  13.990  0.2707 -0.6025 -0.2160
 7926SOL    HW135411   0.158   4.081  14.010  0.3041 -0.2991 -0.0486
 7926SOL    HW235412   0.269   3.989  13.980 -0.3627 -0.5742 -1.5573
 7927SOL     OW35413   0.868   1.611   4.903  0.1582 -0.5931  0.4306
 7927SOL    HW135414   0.773   1.607   4.913  0.1182  1.1678  0.8276
 7927SOL    HW235415   0.881   1.545   4.835 -1.1924 -1.9308  1.4844
 7928SOL     OW35416   0.513   3.217  12.001 -0.5290  0.0339 -0.1286
 7928SOL    HW135417   0.486   3.136  11.957  2.3150 -0.3525 -1.1560
 7928SOL    HW235418   0.437   3.273  11.988  0.1424  1.3291  1.5132
 7929SOL     OW35419   0.732   0.790  13.765 -0.4908  0.0476 -0.1203
 7929SOL    HW135420   0.669   0.819  13.700  2.2414  1.9526 -1.9225
 7929SOL    HW235421   0.709   0.698  13.752  0.2602 -0.1786  0.1407
 7930SOL     OW35422   1.816   3.885   5.912  0.5842  0.0729 -0.2592
 7930SOL    HW135423   1.824   3.790   5.903 -0.2577  0.0051 -0.2702
 7930SOL    HW235424   1.847   3.894   6.002  2.8581 -0.0304 -1.0299
 7931SOL     OW35425   3.932   0.063   6.161 -0.6012  0.3113 -0.2135
 7931SOL    HW135426   3.848   0.043   6.202 -0.3106  1.0815  0.7660
 7931SOL    HW235427   3.961   4.709   6.164 -0.5697  0.3256 -0.0589
 7932SOL     OW35428   0.826   3.190  10.843  0.4911 -0.0749 -0.4366
 7932SOL    HW135429   0.782   3.210  10.925  0.9367 -2.1740  0.3169
 7932SOL    HW235430   0.784   3.110  10.811  2.8190 -1.1770 -0.7256
 7933SOL     OW35431   4.189   4.170   2.931 -0.4403  0.4634  0.0804
 7933SOL    HW135432   4.157   4.097   2.876  0.8943 -0.4318  0.4843
 7933SOL    HW235433   4.154   4.247   2.887 -1.8513 -0.4119 -0.3363
 7934SOL     OW35434   2.153   0.052   1.191  0.7622 -0.4827 -0.3132
 7934SOL    HW135435   2.238   0.016   1.166 -0.5211 -1.1766 -3.5672
 7934SOL    HW235436   2.092   4.716   1.186  1.0502 -0.5875 -2.1289
 7935SOL     OW35437   4.321   0.597   7.321 -0.1853 -0.1232  0.4778
 7935SOL    HW135438   4.246   0.583   7.264 -0.0989  0.4613  0.2144
 7935SOL    HW235439   4.307   0.687   7.351 -0.1294 -0.8794  2.7796
 7936SOL     OW35440   1.825   3.466   6.208  0.0207  0.1221 -0.4988
 7936SOL    HW135441   1.811   3.387   6.155  0.2797  0.1134 -0.5535
 7936SOL    HW235442   1.743   3.515   6.204  1.1735  2.0137 -1.2434
 7937SOL     OW35443   3.847   1.674  12.985  0.0029 -0.6453 -0.5700
 7937SOL    HW135444   3.790   1.682  13.062 -1.1926  2.2575 -1.7506
 7937SOL    HW235445   3.932   1.706  13.016 -0.8527  1.0397  0.0460
 7938SOL     OW35446   1.887   3.748  14.921  0.4664 -0.1844  0.2208
 7938SOL    HW135447   1.917   3.826  14.875 -0.1864 -0.3621 -0.4958
 7938SOL    HW235448   1.970   3.701  14.912 -1.1939 -2.2656 -3.8273
 7939SOL     OW35449   4.226   3.003   9.477 -0.2190  0.4345  0.0455
 7939SOL    HW135450   4.192   2.984   9.389 -0.3061 -0.5742  0.3050
 7939SOL    HW235451   4.274   3.084   9.460 -1.4557  1.3404  0.8253
 7940SOL     OW35452   0.565   2.422  12.612  0.2998 -0.0135 -0.2528
 7940SOL    HW135453   0.576   2.494  12.674 -1.9585 -0.6166  0.8503
 7940SOL    HW235454   0.552   2.460  12.525 -2.2155 -1.4334 -0.4882
 7941SOL     OW35455   1.471   2.552   7.778  0.2691 -0.2155  0.1695
 7941SOL    HW135456   1.389   2.571   7.823  1.1891 -0.6404  2.0388
 7941SOL    HW235457   1.451   2.462   7.753 -0.2107  0.2586 -1.1227
 7942SOL     OW35458   1.806   0.671   9.051  0.6301  0.0265 -0.5432
 7942SOL    HW135459   1.782   0.637   8.965  0.8926  1.0812 -1.0337
 7942SOL    HW235460   1.897   0.695   9.035  1.1164 -0.9242  0.7863
 7943SOL     OW35461   2.601   3.453   7.765  0.7290 -0.7412  0.5508
 7943SOL    HW135462   2.545   3.499   7.703  1.3066  0.4580  0.9100
 7943SOL    HW235463   2.658   3.524   7.794  2.0007 -1.7494  0.5179
 7944SOL     OW35464   1.467   2.813   0.917 -0.1676  0.4084 -0.1735
 7944SOL    HW135465   1.436   2.773   0.836 -0.2082 -1.0991  0.5928
 7944SOL    HW235466   1.536   2.755   0.949 -0.9103 -1.5415 -2.1002
 7945SOL     OW35467   1.826   1.140  13.565 -0.5151 -0.3904 -0.2707
 7945SOL    HW135468   1.767   1.182  13.628  1.4520  0.9068  0.7033
 7945SOL    HW235469   1.846   1.059  13.613  0.0049 -0.9807 -1.4795
 7946SOL     OW35470   3.777   0.471  16.366  0.3000 -0.3429  0.0854
 7946SOL    HW135471   3.760   0.485  16.459  0.3502 -1.7805  0.3206
 7946SOL    HW235472   3.774   0.560  16.332 -1.5717 -0.1666  0.7350
 7947SOL     OW35473   1.903   0.999   6.081  0.4162 -0.1005 -0.3748
 7947SOL    HW135474   1.880   0.906   6.073  0.2709 -0.1153  0.2240
 7947SOL    HW235475   1.826   1.030   6.034  1.3564  1.4605 -0.8839
 7948SOL     OW35476   4.200   0.899   8.841  0.1636 -0.5826 -0.1503
 7948SOL    HW135477   4.178   0.991   8.826 -0.8303 -1.3376 -3.4833
 7948SOL    HW235478   4.176   0.895   8.933 -0.1035 -1.2499 -0.2456
 7949SOL     OW35479   3.936   4.276  11.789  0.2366  0.8571  0.7778
 7949SOL    HW135480   3.968   4.347  11.845 -2.2505  1.5422  1.3356
 7949SOL    HW235481   3.986   4.205  11.832  0.0079  2.5635  3.8629
 7950SOL     OW35482   2.201   3.180   9.327 -0.0340  0.0753  0.1521
 7950SOL    HW135483   2.276   3.136   9.287  0.0568  0.4547 -0.0901
 7950SOL    HW235484   2.138   3.116   9.292 -0.1706  0.9781 -1.2562
 7951SOL     OW35485   3.746   1.866  15.667  0.3571 -0.1145  0.1467
 7951SOL    HW135486   3.685   1.795  15.648  2.8853 -1.8657 -1.3707
 7951SOL    HW235487   3.819   1.851  15.607 -1.4302 -1.4322 -1.7080
 7952SOL     OW35488   0.902   4.699   8.625 -0.0284  0.0776 -0.3035
 7952SOL    HW135489   0.912   0.017   8.703  2.0927  1.9832 -1.9081
 7952SOL    HW235490   0.980   4.645   8.638 -2.7167 -4.1507 -1.9798
 7953SOL     OW35491   0.862   2.268   4.132  0.6031  0.3304  0.3064
 7953SOL    HW135492   0.815   2.217   4.067 -0.8075  0.9669  0.8177
 7953SOL    HW235493   0.906   2.192   4.169 -0.3201 -1.4310 -2.2052
 7954SOL     OW35494   2.306   3.125   2.451  0.2948  0.0991 -0.1597
 7954SOL    HW135495   2.276   3.058   2.513  1.2697 -0.3470 -0.1778
 7954SOL    HW235496   2.217   3.149   2.424 -0.4645 -1.5506  0.8520
 7955SOL     OW35497   0.469   4.712   3.017 -0.1735 -0.2078 -0.3426
 7955SOL    HW135498   0.476   0.011   3.106 -1.0730 -0.3569 -0.2084
 7955SOL    HW235499   0.464   4.618   3.037  0.1133  0.4664  2.9828
 7956SOL     OW35500   2.178   0.807   7.948  0.0726  0.0657 -0.1254
 7956SOL    HW135501   2.221   0.780   8.029  0.2339  0.0114 -0.2284
 7956SOL    HW235502   2.089   0.774   7.959  0.6343 -0.7718  1.9759
 7957SOL     OW35503   2.971   0.570   7.952  0.0816 -0.3330  0.5279
 7957SOL    HW135504   3.052   0.621   7.951 -1.4216  2.0396  1.2174
 7957SOL    HW235505   2.983   0.521   7.871  0.4900  1.3284 -0.4048
 7958SOL     OW35506   0.986   0.601   9.711 -0.0126 -0.4461  0.0602
 7958SOL    HW135507   1.046   0.550   9.656  1.8791  1.2810  0.4971
 7958SOL    HW235508   0.940   0.534   9.761  0.0107  1.3697  2.5256
 7959SOL     OW35509   2.547   1.691  16.271  0.0421  0.1428 -0.2934
 7959SOL    HW135510   2.490   1.749  16.220 -1.5830  0.0997  1.4936
 7959SOL    HW235511   2.532   1.605  16.231 -0.9359  1.0249 -1.8313
 7960SOL     OW35512   0.869   1.017  17.387  0.2159 -0.1600  0.2309
 7960SOL    HW135513   0.879   0.970  17.305 -3.3137 -0.2995 -0.1098
 7960SOL    HW235514   0.777   1.041  17.377  0.3091  0.4219  0.7454
 7961SOL     OW35515   1.972   0.572   8.291  0.2313  0.0276  0.4162
 7961SOL    HW135516   2.066   0.574   8.274  0.2099  1.5495  0.4961
 7961SOL    HW235517   1.960   0.655   8.336 -1.2960 -1.5273  2.9189
 7962SOL     OW35518   2.350   0.357  10.045  0.2095  0.1010 -0.4236
 7962SOL    HW135519   2.320   0.448  10.044  0.9965  0.3656 -0.7759
 7962SOL    HW235520   2.408   0.359   9.968  2.9912  3.2376  1.7319
 7963SOL     OW35521   1.166   0.439   9.364 -0.3525 -0.0054  0.2984
 7963SOL    HW135522   1.084   0.420   9.410  0.7703 -0.3656  2.1101
 7963SOL    HW235523   1.194   0.353   9.335  3.4938  1.7564 -1.1787
 7964SOL     OW35524   2.736   3.847  15.525 -0.3615  0.6922 -0.0817
 7964SOL    HW135525   2.761   3.939  15.519  0.4931  0.7268  4.0032
 7964SOL    HW235526   2.641   3.851  15.523 -0.3380  1.4029  0.5643
 7965SOL     OW35527   4.444   0.701   6.348 -0.2156 -1.1482 -0.0908
 7965SOL    HW135528   4.349   0.714   6.354 -0.0877  0.1070 -0.7365
 7965SOL    HW235529   4.461   0.650   6.427 -0.2790 -1.1578 -0.0834
 7966SOL     OW35530   3.877   4.388   5.940  0.5065  0.0888  0.2942
 7966SOL    HW135531   3.828   4.444   5.880  0.6875 -1.8185 -1.6124
 7966SOL    HW235532   3.831   4.411   6.021 -2.2782 -2.0993 -0.6515
 7967SOL     OW35533   3.260   3.768  10.989 -0.1067  0.6186 -0.6509
 7967SOL    HW135534   3.272   3.800  11.078 -0.9866 -2.5994  0.6303
 7967SOL    HW235535   3.166   3.755  11.002 -0.0304 -2.0342 -2.7039
 7968SOL     OW35536   2.285   2.242   3.186  0.6713 -0.6174  0.2986
 7968SOL    HW135537   2.376   2.258   3.163  0.2959 -1.5318 -1.7860
 7968SOL    HW235538   2.288   2.243   3.282 -0.8469  0.7476  0.3490
 7969SOL     OW35539   2.917   2.164   6.949 -0.0331 -0.3943  0.5526
 7969SOL    HW135540   2.967   2.210   7.016 -1.4869  0.7483  0.8481
 7969SOL    HW235541   2.839   2.130   6.994  0.1709 -0.4339  0.8769
 7970SOL     OW35542   3.667   2.925  16.437 -0.2105 -0.1567 -0.4475
 7970SOL    HW135543   3.580   2.961  16.418  0.5027  0.0888 -3.2203
 7970SOL    HW235544   3.684   2.959  16.524  0.0073  0.8202 -0.8778
 7971SOL     OW35545   2.180   1.843   2.402 -0.2836  0.1227 -0.5083
 7971SOL    HW135546   2.136   1.888   2.474 -3.9273 -2.2161 -1.3347
 7971SOL    HW235547   2.177   1.755   2.439 -0.6242  0.2527 -0.2308
 7972SOL     OW35548   4.691   2.117  12.400  0.1931  0.1151  0.1876
 7972SOL    HW135549   4.728   2.036  12.364  0.9387 -0.4693  2.2917
 7972SOL    HW235550   0.008   2.121  12.478 -0.9738 -1.1097  1.0478
 7973SOL     OW35551   0.997   2.245   6.869  0.2157  0.3382 -0.5079
 7973SOL    HW135552   1.022   2.282   6.953 -0.2484  0.7509 -0.5482
 7973SOL    HW235553   1.019   2.153   6.878 -1.2221 -0.3181 -3.5920
 7974SOL     OW35554   2.023   4.224   6.323  0.4179 -0.2986 -0.1453
 7974SOL    HW135555   1.956   4.249   6.260  1.5383  1.1121 -0.7850
 7974SOL    HW235556   2.051   4.307   6.361 -0.6644  1.0832 -2.3771
 7975SOL     OW35557   3.034   2.846   6.624  0.4003 -0.3485 -0.2533
 7975SOL    HW135558   3.018   2.896   6.545 -1.8824  0.5286  0.7664
 7975SOL    HW235559   2.988   2.765   6.601  0.0716 -0.5373  1.0522
 7976SOL     OW35560   3.571   3.982   8.764  0.2516 -0.2306 -0.0476
 7976SOL    HW135561   3.621   3.901   8.756  1.7894  0.6492  0.5886
 7976SOL    HW235562   3.590   4.019   8.850 -2.7137 -1.1412  1.0016
 7977SOL     OW35563   4.728   1.416  17.738  0.0657  0.2634  0.2173
 7977SOL    HW135564   0.048   1.340  17.745  0.9200  0.6737 -2.2133
 7977SOL    HW235565   4.638   1.384  17.731 -0.2172  1.4053 -1.5301
 7978SOL     OW35566   2.648   4.259   7.509  0.0420 -0.3742  0.0727
 7978SOL    HW135567   2.670   4.186   7.566 -0.2240 -0.4576  0.0696
 7978SOL    HW235568   2.674   4.229   7.422 -0.6880  1.7826 -0.9067
 7979SOL     OW35569   4.365   3.272  10.997  0.3544 -0.3195  0.0279
 7979SOL    HW135570   4.420   3.340  10.957  0.1499  0.6634  1.4302
 7979SOL    HW235571   4.280   3.315  11.005  0.5779 -0.0159  0.7201
 7980SOL     OW35572   3.064   2.721   2.949  0.2747  0.3829  0.0316
 7980SOL    HW135573   3.116   2.758   2.877  0.5053  0.5480  0.2814
 7980SOL    HW235574   3.117   2.644   2.970  0.8483  0.0836 -2.5311
 7981SOL     OW35575   1.720   4.422   4.228 -0.3348  0.2573  0.3803
 7981SOL    HW135576   1.740   4.343   4.279  0.7481  0.5304  0.3584
 7981SOL    HW235577   1.628   4.407   4.206 -0.2830 -0.0105  0.3376
 7982SOL     OW35578   0.052   2.858   5.601 -0.2704 -0.6390 -0.4099
 7982SOL    HW135579   0.122   2.853   5.666 -0.0153  1.2612 -0.5241
 7982SOL    HW235580   4.726   2.898   5.661  0.1643 -0.0191 -0.3689
 7983SOL     OW35581   1.988   4.418   0.923  0.0749  0.0055 -0.1751
 7983SOL    HW135582   1.964   4.510   0.916 -0.3805 -0.0959  0.0560
 7983SOL    HW235583   1.927   4.388   0.990  0.4810  1.1354  0.6947
 7984SOL     OW35584   0.608   4.297   6.998 -0.2637 -0.2823 -0.0253
 7984SOL    HW135585   0.676   4.276   6.934 -1.7641 -1.3081 -1.2794
 7984SOL    HW235586   0.636   4.381   7.034 -0.4881  0.2002 -0.9928
 7985SOL     OW35587   1.103   3.446   5.274  0.2530 -0.2123 -0.1692
 7985SOL    HW135588   1.097   3.526   5.326  0.9258  1.2087 -2.2720
 7985SOL    HW235589   1.164   3.396   5.327 -0.3185  0.5775  1.2247
 7986SOL     OW35590   0.602   4.117  15.464 -0.1649 -0.4271 -0.2531
 7986SOL    HW135591   0.636   4.160  15.386  0.6762 -0.7470 -0.0617
 7986SOL    HW235592   0.573   4.191  15.518 -0.4570 -1.7174  1.3865
 7987SOL     OW35593   4.485   3.067  11.903  0.3868  0.2179 -0.2813
 7987SOL    HW135594   4.453   2.978  11.917  1.8678  0.1629  2.7841
 7987SOL    HW235595   4.404   3.118  11.901 -0.9620 -1.8735  0.6874
 7988SOL     OW35596   0.901   2.981   7.457 -0.4595  0.0527  0.1486
 7988SOL    HW135597   0.995   2.998   7.457 -0.7749  1.7444  1.6233
 7988SOL    HW235598   0.881   2.982   7.363  0.7664  0.1964 -0.1118
 7989SOL     OW35599   1.974   0.610  16.126  0.1391  0.1472 -0.1913
 7989SOL    HW135600   1.898   0.643  16.079  1.2110  2.3428 -0.4122
 7989SOL    HW235601   2.031   0.586  16.053  0.8065 -1.0940  0.7437
 7990SOL     OW35602   0.548   0.272   7.411  0.0058  0.4340 -0.1931
 7990SOL    HW135603   0.608   0.204   7.380 -0.6757 -0.0596 -0.4117
 7990SOL    HW235604   0.470   0.247   7.362 -0.5731  0.6817  0.6112
 7991SOL     OW35605   2.627   4.146   8.937 -0.0032  0.1443 -0.4725
 7991SOL    HW135606   2.633   4.236   8.904 -2.1354 -0.4798 -2.5770
 7991SOL    HW235607   2.566   4.104   8.876  0.0383 -0.0384 -0.3879
 7992SOL     OW35608   3.795   3.812  11.079  0.4348 -0.4203 -0.2181
 7992SOL    HW135609   3.825   3.721  11.075 -2.8066 -1.5054 -0.0155
 7992SOL    HW235610   3.756   3.830  10.994  1.1987  1.4174 -0.1770
 7993SOL     OW35611   4.207   3.596   3.062  0.8905 -0.3444  0.5370
 7993SOL    HW135612   4.301   3.599   3.078  1.2232 -2.6904 -1.0056
 7993SOL    HW235613   4.213   3.616   2.968  2.9016  1.3875  1.0267
 7994SOL     OW35614   1.171   2.154   7.249 -0.4131  0.1052  0.1025
 7994SOL    HW135615   1.266   2.161   7.247 -0.3070 -1.9725 -1.1207
 7994SOL    HW235616   1.161   2.120   7.338 -0.1118 -0.3398 -0.0336
 7995SOL     OW35617   1.113   1.357  16.074  0.0110 -0.3767 -0.0387
 7995SOL    HW135618   1.150   1.398  15.995  0.6344 -0.8002  0.0300
 7995SOL    HW235619   1.039   1.416  16.085 -0.5756 -1.0498 -0.4461
 7996SOL     OW35620   2.131   2.230  15.281  0.4297  0.2740  0.0801
 7996SOL    HW135621   2.190   2.224  15.356  1.9871  0.8854 -1.0882
 7996SOL    HW235622   2.064   2.166  15.305 -0.9018  1.1600 -1.2593
 7997SOL     OW35623   3.093   2.288   8.274  0.3872  0.5536 -0.4217
 7997SOL    HW135624   3.186   2.307   8.276  0.5696 -0.3979  0.1139
 7997SOL    HW235625   3.064   2.345   8.203 -0.9260 -0.1846 -0.4849
 7998SOL     OW35626   1.210   3.294   2.282  0.5924  0.0403 -0.6882
 7998SOL    HW135627   1.158   3.322   2.207  0.6188  1.3748 -0.2133
 7998SOL    HW235628   1.263   3.223   2.245  0.3718 -0.0733 -0.7855
 7999SOL     OW35629   2.468   3.599  11.366 -0.1166 -0.1845 -0.0106
 7999SOL    HW135630   2.490   3.692  11.364  0.1315 -0.2661 -1.1083
 7999SOL    HW235631   2.480   3.587  11.460  2.0302  1.9990 -0.0063
 8000SOL     OW35632   3.867   3.996   2.291 -0.5321  0.7401  0.1960
 8000SOL    HW135633   3.880   3.963   2.380 -0.9843  2.0674  0.7517
 8000SOL    HW235634   3.775   3.977   2.273 -0.6474  2.1141 -0.6273
 8001SOL     OW35635   2.149   3.729   8.437  0.2244  0.9007 -0.6081
 8001SOL    HW135636   2.231   3.776   8.449  0.1865  0.5582  0.9571
 8001SOL    HW235637   2.154   3.656   8.498  0.1186  0.3588 -1.2422
 8002SOL     OW35638   0.394   1.533  15.768 -0.1817  0.8293 -0.4119
 8002SOL    HW135639   0.306   1.567  15.787 -0.4818 -0.5233  0.5926
 8002SOL    HW235640   0.428   1.588  15.698  1.3123 -0.7254 -0.8786
 8003SOL     OW35641   3.748   4.446  11.676 -0.9539 -0.0584 -0.0651
 8003SOL    HW135642   3.813   4.387  11.715  0.6531 -0.1774 -2.9147
 8003SOL    HW235643   3.737   4.407  11.589 -0.0309  1.9426 -1.0824
 8004SOL     OW35644   3.318   4.091   1.618  0.1522  0.6212 -0.0129
 8004SOL    HW135645   3.245   4.151   1.601 -0.4142  0.0282  0.3445
 8004SOL    HW235646   3.314   4.084   1.714 -1.6345  0.5220 -0.0951
 8005SOL     OW35647   2.860   1.271   3.743 -0.8281  0.0205 -0.2187
 8005SOL    HW135648   2.776   1.309   3.766 -0.0541 -0.5371  3.6661
 8005SOL    HW235649   2.840   1.182   3.713  0.6770 -1.2364  2.4559
 8006SOL     OW35650   3.019   2.055  12.113 -0.8290  0.5101 -0.3514
 8006SOL    HW135651   3.020   2.047  12.017 -0.8557 -0.0730 -0.3042
 8006SOL    HW235652   3.113   2.062  12.132 -0.4368 -0.6547 -1.8054
 8007SOL     OW35653   4.658   3.462   3.025  0.0911 -0.1967 -0.3718
 8007SOL    HW135654   4.681   3.447   2.933 -1.9522  0.8513 -1.0622
 8007SOL    HW235655   4.630   3.378   3.060 -0.2457 -0.2292 -0.7177
 8008SOL     OW35656   0.474   2.209   0.521 -0.2734 -0.0782 -0.5649
 8008SOL    HW135657   0.442   2.164   0.599 -1.3469  0.7257 -0.5549
 8008SOL    HW235658   0.538   2.140   0.501  0.1080  0.6479 -1.8295
 8009SOL     OW35659   0.334   0.595   9.040  0.3659  0.1971 -0.0711
 8009SOL    HW135660   0.268   0.645   9.087 -0.6470 -1.0055 -0.2120
 8009SOL    HW235661   0.283   0.548   8.974 -1.7966  1.0458  1.0039
 8010SOL     OW35662   2.206   1.911  12.810  0.1590 -0.0651  0.3453
 8010SOL    HW135663   2.271   1.901  12.879 -0.2848 -0.2429  0.7369
 8010SOL    HW235664   2.176   1.820  12.810  0.6178 -0.2162 -0.1768
 8011SOL     OW35665   4.132   2.106  16.727 -0.9232  0.1061  0.3671
 8011SOL    HW135666   4.137   2.038  16.794  0.6990 -0.5616 -0.4290
 8011SOL    HW235667   4.222   2.136  16.714 -0.5072 -2.1412 -1.9933
 8012SOL     OW35668   0.346   0.515   3.521 -1.1046  0.2361  0.3480
 8012SOL    HW135669   0.262   0.518   3.568 -0.5221  0.3269  1.3753
 8012SOL    HW235670   0.369   0.423   3.509  0.0581  0.5540  0.1523
 8013SOL     OW35671   4.506   4.148  15.506  0.1041  0.5843  0.4196
 8013SOL    HW135672   4.593   4.184  15.526  0.1864  1.2686 -1.1384
 8013SOL    HW235673   4.528   4.061  15.537  3.2063  0.4253 -2.1027
 8014SOL     OW35674   0.585   0.031   8.613  0.2599  0.1777 -0.6987
 8014SOL    HW135675   0.616   0.122   8.610 -0.7093  0.4596 -1.8479
 8014SOL    HW235676   0.524   0.029   8.539 -0.0258  0.4670 -0.4687
 8015SOL     OW35677   4.707   3.671  10.324  0.2542 -0.1325 -0.2503
 8015SOL    HW135678   4.717   3.723  10.404  1.4014 -0.1777 -0.3627
 8015SOL    HW235679   4.621   3.695  10.291 -0.0303  0.4585  0.9391
 8016SOL     OW35680   1.213   0.183   9.293  0.1783 -0.3161  0.3744
 8016SOL    HW135681   1.159   0.150   9.221 -0.5211  1.7972 -0.0831
 8016SOL    HW235682   1.245   0.102   9.333 -0.3283 -1.4341 -1.4741
 8017SOL     OW35683   4.537   0.865   5.346  0.2616  0.0277  0.1388
 8017SOL    HW135684   4.592   0.805   5.295  0.1856 -0.4910  0.6639
 8017SOL    HW235685   4.460   0.811   5.361  1.0282 -1.2940 -0.6529
 8018SOL     OW35686   3.723   3.216  17.706  0.0008  0.3679 -0.2450
 8018SOL    HW135687   3.641   3.234  17.659  0.3819  0.9018 -0.7032
 8018SOL    HW235688   3.735   3.292   0.016  0.0228 -1.0404  1.6623
 8019SOL     OW35689   1.877   1.779   3.001  0.2268  0.3817 -0.5628
 8019SOL    HW135690   1.882   1.741   3.089  0.5937 -1.8130 -1.5229
 8019SOL    HW235691   1.789   1.749   2.978  1.0319 -2.6404  0.2670
 8020SOL     OW35692   3.923   1.894   7.800 -0.4103  0.1668  0.4831
 8020SOL    HW135693   3.874   1.875   7.880  0.4601 -0.0414  0.9678
 8020SOL    HW235694   3.993   1.829   7.804  0.9234  1.5057 -0.8894
 8021SOL     OW35695   1.418   3.730   3.238 -0.2154  0.3228 -0.3460
 8021SOL    HW135696   1.432   3.636   3.242  0.9629  0.4803 -0.6887
 8021SOL    HW235697   1.361   3.732   3.315 -1.6685 -1.9837 -1.3848
 8022SOL     OW35698   2.409   0.528  15.241 -0.0832  0.0966  0.0736
 8022SOL    HW135699   2.455   0.610  15.260 -2.3941  1.8873 -2.0684
 8022SOL    HW235700   2.410   0.481  15.324  3.0962  1.2534  0.7176
 8023SOL     OW35701   1.152   1.131   9.538 -0.0293 -0.3650 -0.2195
 8023SOL    HW135702   1.193   1.081   9.467  1.4049  0.8962 -0.2806
 8023SOL    HW235703   1.231   1.173   9.572 -0.5740  0.5809 -0.1208
 8024SOL     OW35704   2.286   0.428   4.907  0.4748 -0.1619 -0.5019
 8024SOL    HW135705   2.233   0.384   4.973  1.4817  0.3402  0.6213
 8024SOL    HW235706   2.364   0.375   4.923  0.5416  1.0854  3.2319
 8025SOL     OW35707   3.761   0.753   6.832 -0.2784  0.2246 -0.1252
 8025SOL    HW135708   3.678   0.723   6.794 -0.8360  1.1363  0.3584
 8025SOL    HW235709   3.825   0.701   6.785 -1.9881  0.1462 -2.3723
 8026SOL     OW35710   4.316   3.880   4.465 -0.3926 -0.0255  0.4977
 8026SOL    HW135711   4.282   3.903   4.551  1.7838  0.6848  1.1873
 8026SOL    HW235712   4.256   3.812   4.437  0.2785 -1.3242  2.2322
 8027SOL     OW35713   1.704   3.325  14.211 -0.1752 -0.1487  0.3835
 8027SOL    HW135714   1.785   3.370  14.235 -0.3614 -1.5355  3.6315
 8027SOL    HW235715   1.710   3.253  14.273 -1.6422 -0.1683  0.5163
 8028SOL     OW35716   3.761   1.671  17.431  0.0777  0.2255 -0.7734
 8028SOL    HW135717   3.798   1.621  17.358 -1.1825 -0.9378 -0.6157
 8028SOL    HW235718   3.696   1.724  17.385 -1.6365 -2.7281 -1.7205
 8029SOL     OW35719   3.497   2.649   7.662  0.3322  0.5054 -0.7333
 8029SOL    HW135720   3.428   2.714   7.676 -0.4796 -0.9519  1.9196
 8029SOL    HW235721   3.474   2.578   7.721  0.2156  2.4410  1.5479
 8030SOL     OW35722   4.508   0.291   7.063 -0.1653 -0.8917  0.4030
 8030SOL    HW135723   4.603   0.297   7.077 -0.3927  2.5914  0.4275
 8030SOL    HW235724   4.488   0.383   7.045  0.1334 -1.2629 -1.9053
 8031SOL     OW35725   2.137   2.183  14.977 -0.1641  0.3374 -0.2174
 8031SOL    HW135726   2.118   2.245  15.047  0.5662 -0.9181  1.0920
 8031SOL    HW235727   2.120   2.236  14.900  1.6116  1.3134  0.0654
 8032SOL     OW35728   1.040   3.150   2.876 -0.5507  0.6575  0.4127
 8032SOL    HW135729   0.975   3.216   2.856 -0.5899  0.4273 -0.2157
 8032SOL    HW235730   1.031   3.148   2.972 -1.3555  1.1312  0.3407
 8033SOL     OW35731   3.922   4.417   1.595  0.0851 -0.0121  0.0068
 8033SOL    HW135732   3.914   4.435   1.502  0.6905  2.0388  0.3551
 8033SOL    HW235733   3.838   4.378   1.620  0.5856 -0.8954  0.3272
 8034SOL     OW35734   4.390   1.870  14.023  0.0294  0.2003  0.5825
 8034SOL    HW135735   4.402   1.959  14.056 -1.1134  1.5123 -2.4411
 8034SOL    HW235736   4.335   1.829  14.090  0.0052  0.7590  0.9036
 8035SOL     OW35737   2.534   0.973  17.598 -0.2373 -0.1507 -0.8454
 8035SOL    HW135738   2.538   0.878  17.613 -1.4405  0.0136  0.5226
 8035SOL    HW235739   2.494   1.004  17.679 -0.9434  0.3474 -1.3965
 8036SOL     OW35740   1.072   0.968  13.755 -0.7294 -0.2854 -0.2455
 8036SOL    HW135741   1.026   1.052  13.753 -0.3165 -0.0845 -1.3026
 8036SOL    HW235742   1.090   0.955  13.848  0.9190  0.8006 -0.4152
 8037SOL     OW35743   2.033   2.557   4.424  0.0924  0.4926 -0.2817
 8037SOL    HW135744   2.013   2.463   4.417 -1.2354  0.8790 -1.7706
 8037SOL    HW235745   2.050   2.577   4.333  0.6981 -1.3596 -0.5739
 8038SOL     OW35746   0.487   2.669   6.530  0.4762  0.3310 -0.3309
 8038SOL    HW135747   0.458   2.630   6.447 -3.6563  0.2549  1.1219
 8038SOL    HW235748   0.405   2.660   6.580  1.1123 -0.4301  0.5639
 8039SOL     OW35749   4.594   1.886   2.538  0.2679 -0.1961  0.8825
 8039SOL    HW135750   4.626   1.945   2.606 -2.1221  0.4507  1.4317
 8039SOL    HW235751   4.503   1.872   2.563 -0.1628 -0.5811 -0.9133
 8040SOL     OW35752   0.167   2.252  10.658  0.5187  0.1518  0.2599
 8040SOL    HW135753   0.150   2.331  10.606 -1.2735  0.4524  1.2722
 8040SOL    HW235754   0.127   2.195  10.593 -1.6948  0.5298  1.2617
 8041SOL     OW35755   0.423   1.289   4.760 -0.2620 -0.3434 -0.4066
 8041SOL    HW135756   0.425   1.205   4.806  1.0645  0.2402  0.6256
 8041SOL    HW235757   0.330   1.303   4.780  0.3668  0.8234  1.7970
 8042SOL     OW35758   4.161   3.406   6.300 -0.4559 -0.1533 -0.2755
 8042SOL    HW135759   4.092   3.468   6.278  0.5475  0.1395 -2.5415
 8042SOL    HW235760   4.231   3.417   6.237 -0.4356 -1.5926 -0.5086
 8043SOL     OW35761   2.598   3.259   5.859  0.4031  0.3505 -0.4495
 8043SOL    HW135762   2.544   3.333   5.832  0.2743  0.8743  1.2651
 8043SOL    HW235763   2.547   3.189   5.819  2.6210 -0.6606 -1.5003
 8044SOL     OW35764   3.441   0.894  13.731 -0.5347  0.7672 -0.5289
 8044SOL    HW135765   3.383   0.890  13.655  2.1068  0.3425 -2.4733
 8044SOL    HW235766   3.370   0.889  13.796 -1.5053  0.9234 -1.5734
 8045SOL     OW35767   2.546   2.326   3.094 -0.0221 -0.5652 -0.1724
 8045SOL    HW135768   2.586   2.412   3.110 -2.3598  0.8523 -1.9084
 8045SOL    HW235769   2.621   2.267   3.083  0.5740  0.2346 -0.4655
 8046SOL     OW35770   0.695   1.864   3.300  0.3465 -0.3368  0.4282
 8046SOL    HW135771   0.669   1.779   3.334 -0.0723 -0.2393  0.3540
 8046SOL    HW235772   0.725   1.910   3.378 -0.1263  0.3450  0.2059
 8047SOL     OW35773   2.332   1.131   0.598 -0.1258  0.0310  0.8766
 8047SOL    HW135774   2.300   1.218   0.622  0.4592  1.1981 -2.4799
 8047SOL    HW235775   2.273   1.079   0.652 -0.0519  0.1779  1.0991
 8048SOL     OW35776   4.325   0.174  17.339  0.2547  0.5077 -0.4631
 8048SOL    HW135777   4.362   0.102  17.288 -0.6560 -0.5416  0.3482
 8048SOL    HW235778   4.283   0.235  17.279 -0.6114 -0.9669 -1.3427
 8049SOL     OW35779   3.569   1.360   6.737  0.3280 -0.4803  0.5672
 8049SOL    HW135780   3.497   1.306   6.770  0.1998 -1.9320 -2.0890
 8049SOL    HW235781   3.646   1.303   6.738 -0.1146 -1.1266 -3.9065
 8050SOL     OW35782   0.062   3.588   3.800  0.3347 -0.0762 -0.8302
 8050SOL    HW135783   0.032   3.677   3.815 -0.4527 -0.7596  1.6637
 8050SOL    HW235784   4.715   3.543   3.811  1.1866 -1.4970 -0.1015
 8051SOL     OW35785   2.022   1.580   6.222 -0.0980  0.1022 -0.1503
 8051SOL    HW135786   2.074   1.660   6.232 -1.2074  0.7520  0.3223
 8051SOL    HW235787   2.002   1.584   6.128  1.7892 -0.0463 -0.5712
 8052SOL     OW35788   1.532   0.923   2.430  0.7016 -0.0743 -0.6069
 8052SOL    HW135789   1.527   0.988   2.361 -2.2267 -0.4319 -0.7163
 8052SOL    HW235790   1.614   0.878   2.409  0.8005  0.3734 -1.1625
 8053SOL     OW35791   1.536   4.416   8.433 -0.3091  0.3490  0.1222
 8053SOL    HW135792   1.525   4.326   8.402 -1.2299  0.8599 -1.0732
 8053SOL    HW235793   1.619   4.410   8.479  0.0797 -0.5770 -0.7049
 8054SOL     OW35794   4.638   4.088   1.877 -0.2777 -0.1702  0.0711
 8054SOL    HW135795   4.552   4.085   1.837 -1.2552 -1.5621  2.2640
 8054SOL    HW235796   4.621   4.052   1.964  2.9949 -1.8784  0.0141
 8055SOL     OW35797   4.138   4.113   1.545 -0.5184  0.1595  0.4274
 8055SOL    HW135798   4.068   4.061   1.583 -1.4316  1.0216 -0.0395
 8055SOL    HW235799   4.098   4.154   1.468  0.2602  0.3113  0.1086
 8056SOL     OW35800   0.848   1.982   3.482 -0.0273 -0.4579  0.0775
 8056SOL    HW135801   0.907   1.964   3.555  0.4527  1.8805  0.2495
 8056SOL    HW235802   0.839   2.075   3.498  1.9184 -0.2105 -0.2744
 8057SOL     OW35803   2.760   3.353  12.560 -0.1431 -0.0622  0.0915
 8057SOL    HW135804   2.711   3.391  12.487 -0.6352  3.2902  2.1782
 8057SOL    HW235805   2.698   3.281  12.575  1.0495 -0.7206  1.7945
 8058SOL     OW35806   4.043   3.972   0.168 -0.1654 -0.2209 -0.3376
 8058SOL    HW135807   3.987   3.929   0.233 -3.0264  2.4806 -0.9840
 8058SOL    HW235808   4.095   4.025   0.228 -1.1814  0.7587 -0.3044
 8059SOL     OW35809   1.725   0.447   5.932  0.1521  0.0958 -0.1858
 8059SOL    HW135810   1.813   0.412   5.919  0.1140 -0.1796  0.2851
 8059SOL    HW235811   1.703   0.427   6.023 -1.9976  0.4417 -0.6307
 8060SOL     OW35812   1.566   3.108   7.962  0.3661 -0.0643  0.2823
 8060SOL    HW135813   1.628   3.165   7.916 -0.5476  0.4059 -0.3630
 8060SOL    HW235814   1.513   3.183   7.991  1.6802  1.2140 -0.5970
 8061SOL     OW35815   3.269   1.996   1.739 -0.4404  0.0784  0.0090
 8061SOL    HW135816   3.234   2.030   1.656 -1.3157  1.4244  0.9431
 8061SOL    HW235817   3.190   1.944   1.757 -0.6517  0.9658  1.6176
 8062SOL     OW35818   2.695   2.687  15.807 -0.5332  0.5589 -0.0288
 8062SOL    HW135819   2.752   2.709  15.733 -1.9400  0.5350 -1.1254
 8062SOL    HW235820   2.705   2.592  15.797 -0.5838  0.5257  0.2653
 8063SOL     OW35821   2.306   0.783  11.682 -0.8377  0.1397  0.0283
 8063SOL    HW135822   2.361   0.835  11.741  1.0641 -0.2252 -1.4185
 8063SOL    HW235823   2.269   0.720  11.743  2.6104  0.3629  2.3151
 8064SOL     OW35824   4.342   2.614   3.330 -0.0033  0.0765 -0.4604
 8064SOL    HW135825   4.270   2.554   3.311 -1.5298  0.4819  3.9327
 8064SOL    HW235826   4.361   2.588   3.420  0.0547  0.0573 -0.4785
 8065SOL     OW35827   2.890   1.627  15.830 -0.4222  0.1532 -0.0182
 8065SOL    HW135828   2.971   1.610  15.879  1.2274  1.5375 -2.2608
 8065SOL    HW235829   2.908   1.717  15.803 -1.2737 -0.3128 -2.0650
 8066SOL     OW35830   4.285   1.795   3.702 -0.5010  0.1261  0.0865
 8066SOL    HW135831   4.216   1.791   3.635  0.8646  0.8054 -1.3478
 8066SOL    HW235832   4.288   1.708   3.743 -3.2334  0.8873  1.9061
 8067SOL     OW35833   4.184   2.822   8.630  0.0134  0.9043  0.1578
 8067SOL    HW135834   4.228   2.898   8.667 -1.1382  0.5130  2.3962
 8067SOL    HW235835   4.104   2.824   8.683 -0.3712  0.8626 -0.4275
 8068SOL     OW35836   3.746   1.509   0.125  0.0011  0.1609 -0.6591
 8068SOL    HW135837   3.796   1.517   0.043 -0.6212 -0.4859 -1.0949
 8068SOL    HW235838   3.815   1.527   0.188 -1.6184  1.9541  0.5940
 8069SOL     OW35839   0.685   1.168  14.784 -0.6621 -0.1797  0.6668
 8069SOL    HW135840   0.592   1.175  14.806 -0.8310  0.8972 -0.3338
 8069SOL    HW235841   0.698   1.075  14.769  0.3139  0.0901 -0.1321
 8070SOL     OW35842   1.169   0.293  12.223 -0.5384 -1.0160  0.7449
 8070SOL    HW135843   1.136   0.320  12.138  2.0181 -0.5131 -0.0920
 8070SOL    HW235844   1.263   0.305  12.207 -0.3197 -2.6011  0.8808
 8071SOL     OW35845   0.185   3.136   5.775 -0.6995  0.0929  0.1162
 8071SOL    HW135846   0.102   3.105   5.740 -0.0594 -0.6771 -0.7306
 8071SOL    HW235847   0.146   3.219   5.801 -0.4577 -0.6407  2.8585
 8072SOL     OW35848   2.738   1.497   6.957 -0.4584 -0.0576 -0.5943
 8072SOL    HW135849   2.659   1.461   6.997  0.0649 -0.8393 -0.2482
 8072SOL    HW235850   2.774   1.548   7.029 -1.4453 -0.5793  0.2585
 8073SOL     OW35851   3.525   1.584  11.624 -0.1372 -0.4280 -0.2077
 8073SOL    HW135852   3.515   1.560  11.716  1.7099 -0.9175 -0.1418
 8073SOL    HW235853   3.588   1.515  11.605  0.0753 -0.2128 -0.2848
 8074SOL     OW35854   4.467   4.469   3.817  0.4543  0.2185  0.2254
 8074SOL    HW135855   4.457   4.484   3.723 -0.5364  1.0539  0.4600
 8074SOL    HW235856   4.493   4.378   3.806 -1.7933 -0.3968  0.1349
 8075SOL     OW35857   2.912   3.706   2.120  0.1602 -0.1103 -0.4163
 8075SOL    HW135858   2.874   3.791   2.096 -0.7991  0.0285  1.6905
 8075SOL    HW235859   2.848   3.651   2.074 -0.1747 -0.7207  0.8047
 8076SOL     OW35860   2.662   1.631  10.072  0.0752 -0.6561  0.2649
 8076SOL    HW135861   2.631   1.585  10.150  1.1574  0.3433  1.2819
 8076SOL    HW235862   2.587   1.683  10.043 -0.3555 -0.1532  2.2596
 8077SOL     OW35863   1.864   1.930   7.753 -0.2846  0.5354 -0.9648
 8077SOL    HW135864   1.813   1.999   7.795  0.4956 -0.2182  1.2657
 8077SOL    HW235865   1.924   1.901   7.822  0.0202  0.6477 -1.1836
 8078SOL     OW35866   2.157   2.105   9.559  0.1967  0.1402 -0.1896
 8078SOL    HW135867   2.227   2.047   9.531  3.3518  1.7971  4.2035
 8078SOL    HW235868   2.087   2.042   9.572 -1.2713  2.1685  1.7421
 8079SOL     OW35869   3.909   0.580   6.365  0.1752 -0.1998 -0.4162
 8079SOL    HW135870   3.928   0.540   6.280 -1.3189  0.1624 -0.9137
 8079SOL    HW235871   3.889   0.671   6.340 -0.3202 -0.0998  0.3493
 8080SOL     OW35872   0.549   2.586   8.088 -0.0070 -0.6314 -0.3804
 8080SOL    HW135873   0.536   2.536   8.169 -0.1680 -0.2089 -0.1489
 8080SOL    HW235874   0.462   2.585   8.048  0.9191 -1.2024 -2.3837
 8081SOL     OW35875   0.351   0.608   9.342 -0.8894  0.1721 -0.0357
 8081SOL    HW135876   0.391   0.634   9.425  0.0287  0.6404 -0.6309
 8081SOL    HW235877   0.406   0.654   9.278  1.4256 -1.7685  0.5634
 8082SOL     OW35878   2.786   4.731   4.046  0.8623 -0.6542 -0.2536
 8082SOL    HW135879   2.839   0.007   3.967  0.9217 -0.4851 -0.1846
 8082SOL    HW235880   2.808   0.076   4.090  0.8294 -0.9615  0.3210
 8083SOL     OW35881   1.055   4.686  14.141 -0.1820 -1.0635  0.0815
 8083SOL    HW135882   1.054   0.038  14.105  0.8112 -0.2394  2.0482
 8083SOL    HW235883   1.080   4.640  14.061  1.7679  0.6917 -0.3346
 8084SOL     OW35884   2.776   2.638   2.237 -0.2426  0.3618 -0.0720
 8084SOL    HW135885   2.711   2.708   2.229 -3.0037 -2.3038 -1.0660
 8084SOL    HW235886   2.731   2.604   2.314 -0.8112 -1.2983 -1.1408
 8085SOL     OW35887   1.207   4.667   3.940 -0.0593  0.0972 -0.4738
 8085SOL    HW135888   1.286   4.613   3.936  0.5843  1.0501 -0.9641
 8085SOL    HW235889   1.150   4.598   3.908 -0.6487  0.7092 -0.7380
 8086SOL     OW35890   3.637   3.799  10.349  0.0641  0.3788 -0.2735
 8086SOL    HW135891   3.631   3.750  10.267  1.2125  0.0450 -0.1604
 8086SOL    HW235892   3.578   3.743  10.400  0.7345  0.5179  0.6471
 8087SOL     OW35893   1.248   3.623   7.447  0.6257 -0.3197 -0.5686
 8087SOL    HW135894   1.263   3.588   7.359  2.0104 -0.3292 -0.3234
 8087SOL    HW235895   1.244   3.545   7.501  0.5626 -0.0323 -0.1554
 8088SOL     OW35896   2.849   0.570   9.177 -0.0447  0.1418 -0.1254
 8088SOL    HW135897   2.912   0.505   9.207  1.0651  1.8943  1.3776
 8088SOL    HW235898   2.871   0.587   9.085  0.8674  2.0813  0.4384
 8089SOL     OW35899   2.419   4.221   2.808  0.3602 -0.0472  0.4664
 8089SOL    HW135900   2.475   4.192   2.736 -0.6375 -0.9509  0.0498
 8089SOL    HW235901   2.359   4.284   2.768 -0.3012 -1.0016 -0.0207
 8090SOL     OW35902   4.212   1.565   6.080  0.3977 -1.3172 -0.0262
 8090SOL    HW135903   4.173   1.622   6.146  1.7901 -0.9836  0.5099
 8090SOL    HW235904   4.304   1.577   6.102 -0.1418  0.8887  1.0836
 8091SOL     OW35905   1.266   0.771   4.823  0.2233 -0.2805  0.1717
 8091SOL    HW135906   1.336   0.825   4.860  0.4354  0.7555 -1.7635
 8091SOL    HW235907   1.206   0.761   4.897 -0.1612 -0.2843 -0.1386
 8092SOL     OW35908   1.667   2.129   9.898  0.2569 -0.3949  0.3506
 8092SOL    HW135909   1.628   2.045   9.923  1.0068 -1.7742 -3.1738
 8092SOL    HW235910   1.594   2.186   9.923  0.6018  0.2820 -0.1925
 8093SOL     OW35911   1.549   4.083   5.136  0.2180 -0.2029  0.0863
 8093SOL    HW135912   1.529   4.144   5.065 -2.0080 -0.9932  0.0424
 8093SOL    HW235913   1.593   4.009   5.095 -0.0935 -0.5593  0.3889
 8094SOL     OW35914   0.194   1.630   1.230 -0.6673 -0.0030  0.6653
 8094SOL    HW135915   0.129   1.626   1.160  2.0638  1.3115 -1.9747
 8094SOL    HW235916   0.181   1.717   1.267 -1.8199 -0.6102  1.6737
 8095SOL     OW35917   3.578   1.937   5.703  0.3572 -0.7270 -0.0472
 8095SOL    HW135918   3.537   1.985   5.631 -1.4349  0.8048  1.9978
 8095SOL    HW235919   3.670   1.966   5.701  1.3666 -4.0688 -2.2964
 8096SOL     OW35920   0.826   0.066   2.415  0.4571 -0.5021 -0.2584
 8096SOL    HW135921   0.812   0.158   2.391  0.8154 -0.4399 -0.2385
 8096SOL    HW235922   0.848   0.024   2.332 -1.4915  0.7568 -1.4137
 8097SOL     OW35923   1.140   3.460   4.609 -0.0480  0.3081  0.3077
 8097SOL    HW135924   1.198   3.533   4.588  1.7326 -1.7417 -1.9941
 8097SOL    HW235925   1.192   3.405   4.668 -0.4199 -0.2018  0.1638
 8098SOL     OW35926   1.683   0.428   6.881 -0.1427 -0.1959 -0.2557
 8098SOL    HW135927   1.695   0.445   6.974  2.1064 -2.7739 -0.0754
 8098SOL    HW235928   1.655   0.514   6.848  2.2822  1.4250  1.8211
 8099SOL     OW35929   0.962   4.153   0.922  0.3531  0.5858  0.3152
 8099SOL    HW135930   0.901   4.223   0.900  0.5373  0.4807 -0.5212
 8099SOL    HW235931   0.990   4.171   1.012  1.5307 -1.8465  0.4431
 8100SOL     OW35932   0.192   3.931  12.114 -0.6556  0.4262 -0.3468
 8100SOL    HW135933   0.256   3.882  12.166 -0.7582  1.0928  0.4190
 8100SOL    HW235934   0.196   4.017  12.158  1.2620  1.8932 -3.3931
 8101SOL     OW35935   3.054   2.544   6.855  0.8214 -0.0929 -0.1807
 8101SOL    HW135936   3.088   2.468   6.807  0.3282  0.6491 -1.7006
 8101SOL    HW235937   3.023   2.600   6.784 -0.7198  0.4948  0.9702
 8102SOL     OW35938   4.019   0.512   1.826 -0.3593 -0.5029 -0.3013
 8102SOL    HW135939   4.038   0.427   1.865 -0.9654  0.8553  2.9102
 8102SOL    HW235940   4.077   0.533   1.753  0.4882  0.1957  0.5834
 8103SOL     OW35941   3.695   1.414   1.303 -0.1080 -0.2271 -0.1219
 8103SOL    HW135942   3.667   1.401   1.213  1.2424  0.9153 -0.6977
 8103SOL    HW235943   3.616   1.399   1.354  0.5079 -2.3214  0.2369
 8104SOL     OW35944   4.257   4.277   4.238  0.2667 -0.5831 -0.2608
 8104SOL    HW135945   4.188   4.214   4.256  0.1510  0.2650  2.2721
 8104SOL    HW235946   4.331   4.239   4.285  0.6214  0.2566 -0.1309
 8105SOL     OW35947   4.577   3.182   7.134 -0.0482 -0.0333 -0.1136
 8105SOL    HW135948   4.625   3.151   7.211  1.7071  0.9765 -0.8220
 8105SOL    HW235949   4.625   3.124   7.076 -0.3053  1.8862 -2.2083
 8106SOL     OW35950   3.898   0.920   0.879 -0.0946 -0.9446 -0.1172
 8106SOL    HW135951   3.906   0.828   0.855  0.5051 -0.7417 -0.7156
 8106SOL    HW235952   3.849   0.944   0.801  0.1442  0.2339  0.0873
 8107SOL     OW35953   0.406   1.039   2.732 -0.1414  0.1591 -0.6923
 8107SOL    HW135954   0.348   1.050   2.657 -0.9001  0.1285 -0.1162
 8107SOL    HW235955   0.366   1.106   2.787  0.5463  1.5405 -1.8775
 8108SOL     OW35956   2.589   3.055   2.440  0.3608 -0.4342  0.4370
 8108SOL    HW135957   2.572   3.127   2.502  0.9987  0.5838 -0.5711
 8108SOL    HW235958   2.505   3.009   2.440 -0.7319  1.5657 -1.5472
 8109SOL     OW35959   2.725   0.602   3.277  0.0788 -1.1729 -0.3635
 8109SOL    HW135960   2.685   0.658   3.344  1.2558  0.5191 -1.0804
 8109SOL    HW235961   2.813   0.632   3.255 -0.8008  0.8852 -1.0723
 8110SOL     OW35962   0.720   2.326   7.701 -0.4119 -0.4145  0.4187
 8110SOL    HW135963   0.665   2.379   7.642  0.7370 -0.5903 -0.8099
 8110SOL    HW235964   0.784   2.390   7.734 -0.5309  0.6740 -1.4225
 8111SOL     OW35965   0.537   3.548  12.012 -0.9356 -0.8361  0.4517
 8111SOL    HW135966   0.574   3.589  12.091 -2.7202  0.0508  0.8353
 8111SOL    HW235967   0.453   3.594  12.010  0.6780  2.0213 -2.2759
 8112SOL     OW35968   3.719   0.611   3.078  0.2624 -0.1027 -0.3655
 8112SOL    HW135969   3.768   0.688   3.050 -1.5637  1.2440  0.1523
 8112SOL    HW235970   3.704   0.625   3.172 -0.4378 -0.2511 -0.4525
 8113SOL     OW35971   2.366   3.611   2.035  0.0117 -0.2589 -0.1768
 8113SOL    HW135972   2.375   3.524   2.075 -0.8175 -0.0175  0.5344
 8113SOL    HW235973   2.353   3.576   1.947  0.0304  0.6681 -0.5395
 8114SOL     OW35974   1.599   1.538   7.978 -0.1474 -0.2797  0.0006
 8114SOL    HW135975   1.525   1.591   8.008  0.4142 -0.1452  1.1162
 8114SOL    HW235976   1.633   1.599   7.913  2.4912 -1.0050  0.6958
 8115SOL     OW35977   0.985   1.427   5.431 -0.1852  0.5448  0.3152
 8115SOL    HW135978   0.890   1.424   5.441 -0.0788 -1.1411  0.8570
 8115SOL    HW235979   1.007   1.491   5.499  0.5194  2.1577 -1.4183
 8116SOL     OW35980   0.932   1.314   9.618  0.1437  0.6759  0.4294
 8116SOL    HW135981   0.914   1.261   9.695  0.9140 -2.3882 -1.5331
 8116SOL    HW235982   1.019   1.285   9.593 -0.4602 -1.4840  0.8362
 8117SOL     OW35983   1.642   1.221   5.185 -0.1768 -0.1135  0.4163
 8117SOL    HW135984   1.727   1.263   5.169 -1.6397  3.3472  1.6469
 8117SOL    HW235985   1.586   1.298   5.193 -0.8946 -0.4629 -1.3160
 8118SOL     OW35986   2.696   4.346  10.185  0.2770 -0.1617  0.7004
 8118SOL    HW135987   2.661   4.431  10.158  0.0266 -0.4046  0.2610
 8118SOL    HW235988   2.713   4.363  10.277 -1.9820 -0.7033  1.2329
 8119SOL     OW35989   2.443   3.020   2.950 -0.7271  0.2787 -0.3805
 8119SOL    HW135990   2.419   3.113   2.952 -1.3626  0.1071 -0.2079
 8119SOL    HW235991   2.499   3.009   2.873 -1.0932  0.8294 -0.7296
 8120SOL     OW35992   3.816   4.103   7.050  0.1635 -0.3368  0.1624
 8120SOL    HW135993   3.861   4.177   7.010  1.1352  0.0114  1.8991
 8120SOL    HW235994   3.790   4.145   7.132  0.7214  1.9754 -0.8513
 8121SOL     OW35995   2.588   2.862   4.132  0.5172 -0.0904  0.0302
 8121SOL    HW135996   2.525   2.809   4.084  0.2657 -0.1059  0.3733
 8121SOL    HW235997   2.545   2.866   4.218  0.3855 -0.9905  0.0137
 8122SOL     OW35998   3.526   3.748   6.290 -0.5478 -0.3230 -0.1089
 8122SOL    HW135999   3.580   3.749   6.369 -2.4711 -1.3791  1.2036
 8122SOL    HW236000   3.511   3.655   6.273 -1.5128 -0.5113  1.8161
 8123SOL     OW36001   0.804   1.524   8.816  0.2827 -0.2952  0.2156
 8123SOL    HW136002   0.837   1.562   8.897  2.9250 -0.9394 -0.5291
 8123SOL    HW236003   0.727   1.479   8.851 -1.0474 -0.0225 -2.3929
 8124SOL     OW36004   2.602   0.689   8.948 -0.5058  0.4715  0.4431
 8124SOL    HW136005   2.666   0.625   8.918 -1.3161 -0.2231  0.1765
 8124SOL    HW236006   2.637   0.778   8.941  3.6043 -1.2893 -0.8899
 8125SOL     OW36007   0.511   2.421   9.372  0.2211  0.1209  0.3205
 8125SOL    HW136008   0.420   2.447   9.384  0.1131 -0.9935  1.9255
 8125SOL    HW236009   0.513   2.354   9.440 -0.5700 -0.7319 -0.4812
 8126SOL     OW36010   4.505   1.568   3.077 -0.8261  0.2984 -0.3204
 8126SOL    HW136011   4.579   1.512   3.098 -0.2163  0.2616 -2.6486
 8126SOL    HW236012   4.520   1.645   3.132  0.2555  1.0677 -1.7191
 8127SOL     OW36013   1.927   1.276   3.061 -0.5961  0.0830 -0.5120
 8127SOL    HW136014   1.871   1.209   3.022  0.1655 -0.2965 -0.9549
 8127SOL    HW236015   1.877   1.311   3.135  1.8822  0.2609  1.0831
 8128SOL     OW36016   1.570   2.897   0.118 -0.0944 -0.2465  0.2579
 8128SOL    HW136017   1.658   2.920   0.089 -1.1155 -0.1080 -2.6763
 8128SOL    HW236018   1.553   2.815   0.072  0.4450  0.1515 -0.6478
 8129SOL     OW36019   3.925   3.887  17.681  0.3167  0.0379 -0.3989
 8129SOL    HW136020   3.959   3.917   0.019  1.7875 -0.2206 -0.8939
 8129SOL    HW236021   3.857   3.826  17.709 -0.7698  0.8546 -1.3003
 8130SOL     OW36022   0.405   2.043   4.742  0.1943  0.0266  0.6890
 8130SOL    HW136023   0.314   2.041   4.772 -0.5440 -2.1320 -1.6156
 8130SOL    HW236024   0.437   1.955   4.759  1.5112  0.3602 -0.1003
 8131SOL     OW36025   2.922   0.194   1.983  0.7399  0.1888  0.0710
 8131SOL    HW136026   2.885   0.267   1.933  0.9637 -1.4510 -2.4581
 8131SOL    HW236027   3.014   0.219   1.977 -0.1018  2.8617 -2.0432
 8132SOL     OW36028   3.651   2.433   5.279 -0.3428 -0.5642 -0.1554
 8132SOL    HW136029   3.695   2.371   5.337  2.1117  0.4394 -0.9190
 8132SOL    HW236030   3.595   2.371   5.232  1.0386 -2.5620  0.8141
 8133SOL     OW36031   2.065   3.311  11.681  0.0355  0.1383 -0.3818
 8133SOL    HW136032   1.991   3.257  11.653 -1.3736  0.7304  2.2082
 8133SOL    HW236033   2.055   3.378  11.613 -1.1479  0.0156 -0.3363
 8134SOL     OW36034   3.321   3.104   1.910  0.1626  0.3888  0.4961
 8134SOL    HW136035   3.254   3.036   1.918 -0.3059  0.7291 -0.5827
 8134SOL    HW236036   3.319   3.156   1.991 -1.2510 -0.7398  1.1934
 8135SOL     OW36037   4.380   4.445  12.488  0.3434 -0.1086  0.1933
 8135SOL    HW136038   4.406   4.458  12.396  1.0769  1.2087  0.5856
 8135SOL    HW236039   4.455   4.491  12.525  1.3493 -0.9270 -0.8524
 8136SOL     OW36040   3.101   2.222  14.444 -0.4513 -0.3404  0.2635
 8136SOL    HW136041   3.017   2.267  14.445 -1.3156 -1.8478 -1.7564
 8136SOL    HW236042   3.080   2.140  14.398 -1.4271 -0.5168  1.0158
 8137SOL     OW36043   0.872   3.675   0.781 -0.3158 -0.1746  0.2787
 8137SOL    HW136044   0.921   3.732   0.841  0.6909 -0.7918  0.0541
 8137SOL    HW236045   0.804   3.737   0.755 -0.1264  0.5266  1.4384
 8138SOL     OW36046   1.554   1.166   9.081  0.2831  0.1226  0.1280
 8138SOL    HW136047   1.516   1.200   9.162  0.7588  1.1574 -0.0932
 8138SOL    HW236048   1.489   1.103   9.050 -0.6631  0.5309  1.2859
 8139SOL     OW36049   3.863   4.199   3.595  0.6261  0.2798 -0.2984
 8139SOL    HW136050   3.792   4.200   3.659  0.3866 -0.0657 -0.5572
 8139SOL    HW236051   3.813   4.190   3.513  2.3344  1.3743 -1.4618
 8140SOL     OW36052   3.731   0.279   1.498 -0.4068  0.0389 -0.2929
 8140SOL    HW136053   3.802   0.315   1.446  0.0598  0.5524  0.7042
 8140SOL    HW236054   3.775   0.195   1.509 -0.8176  0.0788  1.7228
 8141SOL     OW36055   0.020   2.602   4.175  0.5006 -0.3727 -0.1577
 8141SOL    HW136056   0.093   2.586   4.234  0.0849  1.0723  0.7463
 8141SOL    HW236057   0.021   2.520   4.125 -0.4336 -1.6484  1.9140
 8142SOL     OW36058   4.023   4.126   4.978 -0.0672 -0.0924  0.3359
 8142SOL    HW136059   3.935   4.096   4.956 -0.2386  0.7944 -0.1788
 8142SOL    HW236060   4.060   4.147   4.892  1.9941 -0.7621  1.0717
 8143SOL     OW36061   3.901   1.363  12.528 -0.4057  0.6537 -0.5025
 8143SOL    HW136062   3.834   1.296  12.535 -0.7932  1.4617  3.6574
 8143SOL    HW236063   3.991   1.330  12.536 -0.6946  0.0922  0.3530
 8144SOL     OW36064   0.461   0.722   9.574  0.9092  0.5817 -0.1877
 8144SOL    HW136065   0.554   0.707   9.558  1.6261  0.2994  4.0645
 8144SOL    HW236066   0.454   0.816   9.556 -1.9560  0.4259  0.0891
 8145SOL     OW36067   0.405   0.967   6.000  0.4753 -0.5812 -0.2908
 8145SOL    HW136068   0.318   0.951   6.037  0.0433  2.1062 -0.1327
 8145SOL    HW236069   0.437   0.879   5.980 -1.3708 -1.2151 -0.4240
 8146SOL     OW36070   0.169   0.828   8.573  0.8398  0.6165 -0.2102
 8146SOL    HW136071   0.144   0.889   8.504  1.0788  1.1142  0.1413
 8146SOL    HW236072   0.097   0.769   8.550  1.3915  0.3368 -1.2013
 8147SOL     OW36073   3.476   4.467   4.025  0.5779 -0.2603 -0.0404
 8147SOL    HW136074   3.542   4.415   4.072  0.7546 -0.8695 -0.9574
 8147SOL    HW236075   3.428   4.486   4.106  1.0071  0.1610  0.1122
 8148SOL     OW36076   0.160   3.763   8.254 -0.1678  0.3549 -0.3118
 8148SOL    HW136077   0.248   3.753   8.290 -0.1514  3.0111  0.3550
 8148SOL    HW236078   0.178   3.730   8.166  0.1668 -1.8234  0.5641
 8149SOL     OW36079   1.332   4.347   6.213  0.0781 -0.3430 -0.0027
 8149SOL    HW136080   1.396   4.407   6.175 -0.2044  0.7380  1.2035
 8149SOL    HW236081   1.347   4.355   6.308 -1.2795  2.0849  0.0008
 8150SOL     OW36082   4.145   2.787   2.880  0.3316  0.7155 -0.1882
 8150SOL    HW136083   4.220   2.832   2.920  1.4052  0.0606 -1.4708
 8150SOL    HW236084   4.105   2.865   2.842  1.9266  2.2856  1.3440
 8151SOL     OW36085   1.990   4.021   2.711  0.0198  0.1541 -0.2305
 8151SOL    HW136086   2.001   4.038   2.618 -2.8235 -1.6354 -0.8811
 8151SOL    HW236087   2.072   3.978   2.734  0.2473  1.2084  0.9558
 8152SOL     OW36088   4.508   3.484   4.764 -0.4830  0.4676 -0.4444
 8152SOL    HW136089   4.469   3.456   4.846 -2.0269  2.2584 -0.5789
 8152SOL    HW236090   4.545   3.406   4.723 -1.8538 -1.3323  1.7809
 8153SOL     OW36091   0.144   4.558  11.052 -0.4703 -0.6431 -0.1171
 8153SOL    HW136092   0.070   4.602  11.008 -0.6487 -1.2809 -0.4564
 8153SOL    HW236093   0.143   4.478  10.999 -0.1229 -1.8196  1.6884
 8154SOL     OW36094   4.510   4.023   3.864 -0.5479 -0.1897  0.1451
 8154SOL    HW136095   4.466   4.068   3.792 -0.7846 -2.0207 -0.8402
 8154SOL    HW236096   4.598   4.048   3.837  0.4023 -2.1827  1.4571
 8155SOL     OW36097   2.521   2.935   5.341  0.2301 -0.1831 -0.0825
 8155SOL    HW136098   2.531   2.840   5.348 -0.9439 -0.2188  0.9967
 8155SOL    HW236099   2.611   2.967   5.352 -0.2359  1.4886 -1.0926
 8156SOL     OW36100   3.396   3.415   3.959  0.4766  0.0889  0.6120
 8156SOL    HW136101   3.302   3.406   3.980  0.7258 -0.7609  1.3823
 8156SOL    HW236102   3.417   3.327   3.927 -2.9094 -0.6823  0.4700
 8157SOL     OW36103   0.282   0.616  15.485  0.1311  0.4276  0.7072
 8157SOL    HW136104   0.309   0.570  15.405  1.6449  1.3916  0.6689
 8157SOL    HW236105   0.255   0.698  15.444  1.0083  0.9632  1.2163
 8158SOL     OW36106   1.516   3.645  10.339 -0.1365  0.1083 -0.2465
 8158SOL    HW136107   1.426   3.612  10.330  0.2270 -1.0518  0.3555
 8158SOL    HW236108   1.520   3.740  10.347  0.1531  0.2880 -2.4516
 8159SOL     OW36109   3.405   3.735   7.979 -0.1549  0.3706  0.9053
 8159SOL    HW136110   3.333   3.685   8.017 -0.0871  0.0697  0.6385
 8159SOL    HW236111   3.398   3.725   7.884  3.1094  0.9384  0.6067
 8160SOL     OW36112   1.755   0.852   8.216  0.7739 -0.0044  0.1398
 8160SOL    HW136113   1.721   0.767   8.245  1.6188 -0.4186 -0.0698
 8160SOL    HW236114   1.758   0.886   8.305  1.0385 -1.2008  0.5884
 8161SOL     OW36115   0.314   0.878  12.950  0.0081 -0.5378  0.2355
 8161SOL    HW136116   0.254   0.921  12.889  0.3956 -0.8844 -0.3866
 8161SOL    HW236117   0.385   0.837  12.900  0.1304  0.9303 -0.7639
 8162SOL     OW36118   3.792   1.051   1.482 -0.0020 -0.3705 -0.1375
 8162SOL    HW136119   3.755   1.061   1.395 -0.5177 -1.3738 -0.0324
 8162SOL    HW236120   3.729   1.089   1.542 -1.0219 -1.0506 -0.7834
 8163SOL     OW36121   3.596   0.028   1.390  0.1940 -0.3863 -0.0315
 8163SOL    HW136122   3.563   0.059   1.474 -3.0091 -2.1192 -0.6563
 8163SOL    HW236123   3.681   4.726   1.413  1.0540  0.5559 -1.6516
 8164SOL     OW36124   1.336   4.520   2.618  0.1372  0.3532 -0.0004
 8164SOL    HW136125   1.281   4.558   2.550 -1.8080 -2.6987 -0.1678
 8164SOL    HW236126   1.383   4.454   2.567  1.0531  0.7099  0.3968
 8165SOL     OW36127   0.850   2.301   7.421 -0.3994 -0.4287 -0.2927
 8165SOL    HW136128   0.822   2.237   7.486 -1.7145 -0.0190 -0.4534
 8165SOL    HW236129   0.924   2.351   7.455 -3.0394  1.7281  2.2008
 8166SOL     OW36130   3.885   0.986   6.851 -0.4714  0.1385 -0.1230
 8166SOL    HW136131   3.821   0.920   6.827  0.7913 -1.2992  0.5023
 8166SOL    HW236132   3.882   0.972   6.946 -1.6758 -4.6551 -0.8900
 8167SOL     OW36133   3.609   0.539   8.898 -0.2639 -0.3357  0.2029
 8167SOL    HW136134   3.635   0.452   8.927  0.8067  0.0319  0.3586
 8167SOL    HW236135   3.539   0.566   8.958  0.3506 -0.9170  1.1796
 8168SOL     OW36136   1.270   2.391   1.955  0.9283 -0.0623 -0.1037
 8168SOL    HW136137   1.331   2.426   1.890 -0.0595  2.0799  0.1151
 8168SOL    HW236138   1.225   2.332   1.895 -0.7718  2.0212 -0.8924
 8169SOL     OW36139   2.462   1.721   8.367 -0.3763  0.5903 -0.1946
 8169SOL    HW136140   2.370   1.743   8.381 -0.3130  2.7775 -3.0724
 8169SOL    HW236141   2.468   1.727   8.272  1.5801 -1.6945 -0.2050
 8170SOL     OW36142   2.778   2.160   7.591  0.0974 -0.5254 -0.0590
 8170SOL    HW136143   2.786   2.074   7.551 -0.2996 -0.6102  0.0462
 8170SOL    HW236144   2.849   2.153   7.655  0.0754  1.3461  0.1844
 8171SOL     OW36145   0.024   1.924   4.630  0.1873 -0.2806 -0.5362
 8171SOL    HW136146   4.716   2.008   4.644  0.2333 -0.6314  1.7184
 8171SOL    HW236147   0.026   1.909   4.536  0.8016 -1.6872 -0.2904
 8172SOL     OW36148   3.490   3.145   4.683  0.7408 -0.4689 -0.4931
 8172SOL    HW136149   3.486   3.175   4.592 -0.9406 -2.2273 -1.0050
 8172SOL    HW236150   3.399   3.137   4.711  0.8350 -0.9505 -0.3162
 8173SOL     OW36151   3.028   2.976   9.044 -0.3082 -0.3380  0.0590
 8173SOL    HW136152   3.121   2.995   9.053 -0.1779 -0.3706 -1.1436
 8173SOL    HW236153   3.012   3.053   8.990 -0.2198  0.0273  0.5553
 8174SOL     OW36154   2.757   2.253   4.513  0.0259 -0.2385  0.8086
 8174SOL    HW136155   2.702   2.221   4.585  0.3976 -0.2746  1.0733
 8174SOL    HW236156   2.748   2.347   4.526  0.8126  0.1893 -1.8927
 8175SOL     OW36157   2.819   0.548  13.787  0.1180 -0.2677 -0.3064
 8175SOL    HW136158   2.817   0.487  13.714 -2.3183  1.4233 -1.6381
 8175SOL    HW236159   2.799   0.489  13.860  0.5739  1.1145  0.9345
 8176SOL     OW36160   0.180   2.605   1.866  0.2104  0.0985  0.2361
 8176SOL    HW136161   0.134   2.594   1.783 -1.4683  0.0749  1.1815
 8176SOL    HW236162   0.130   2.679   1.900  0.0551  0.4911 -0.8470
 8177SOL     OW36163   4.313   0.715   0.839  0.2034 -0.1900  0.2145
 8177SOL    HW136164   4.325   0.804   0.804 -1.5855 -0.8081 -1.9805
 8177SOL    HW236165   4.401   0.678   0.839  0.5922  0.6793 -2.2582
 8178SOL     OW36166   1.130   3.166  14.285 -0.1707  0.1625 -0.1332
 8178SOL    HW136167   1.075   3.093  14.256  0.6409 -0.0340 -1.1799
 8178SOL    HW236168   1.146   3.151  14.378 -1.8482  3.0614  0.5941
 8179SOL     OW36169   1.086   2.549   5.361  0.3724 -0.3564 -0.1658
 8179SOL    HW136170   1.152   2.491   5.399 -0.0373 -0.6841  0.0578
 8179SOL    HW236171   1.055   2.488   5.294 -1.2998  2.1830 -1.7021
 8180SOL     OW36172   0.424   0.562   4.200  0.7732  0.1472 -0.3825
 8180SOL    HW136173   0.460   0.650   4.210 -0.2972  0.5349  0.0733
 8180SOL    HW236174   0.396   0.571   4.109 -0.7429  2.9433  0.3581
 8181SOL     OW36175   1.489   3.050  14.102  0.1899 -0.3733 -0.2797
 8181SOL    HW136176   1.572   3.066  14.059 -0.3806  0.4929 -1.0660
 8181SOL    HW236177   1.427   3.079  14.035 -1.1748 -0.1137  1.0871
 8182SOL     OW36178   3.134   4.141  17.488  0.3845 -0.0939 -0.6208
 8182SOL    HW136179   3.051   4.094  17.484  0.3479 -0.1336  0.6656
 8182SOL    HW236180   3.189   4.083  17.435  1.0203  0.9975 -1.1678
 8183SOL     OW36181   2.988   3.201   9.453  0.2559 -0.1819 -0.4316
 8183SOL    HW136182   3.070   3.155   9.437  2.0911  2.4542  1.3732
 8183SOL    HW236183   2.942   3.157   9.524 -1.4199  0.3627 -1.1712
 8184SOL     OW36184   0.740   4.556   5.808  0.5304  0.2540  0.5355
 8184SOL    HW136185   0.809   4.610   5.768 -0.1251  2.5864  2.5485
 8184SOL    HW236186   0.790   4.496   5.863 -1.5084 -3.3720 -1.5446
 8185SOL     OW36187   0.156   0.411  15.107  0.0479 -0.3103  0.3425
 8185SOL    HW136188   0.092   0.454  15.050 -0.2690 -1.7420 -0.3647
 8185SOL    HW236189   0.089   0.354  15.145 -1.0292  0.8093  0.1592
 8186SOL     OW36190   1.940   3.463   6.863 -0.1183 -0.6551  0.1183
 8186SOL    HW136191   1.985   3.485   6.781 -0.3189 -1.0164 -0.0888
 8186SOL    HW236192   1.996   3.397   6.904  0.3182 -0.1350  0.3620
 8187SOL     OW36193   1.090   3.193  10.834  0.4566 -0.1718  0.5854
 8187SOL    HW136194   0.996   3.205  10.822  0.7927 -0.9310 -2.5503
 8187SOL    HW236195   1.115   3.146  10.755 -0.3236  2.0006 -0.9719
 8188SOL     OW36196   4.437   2.183   3.551 -0.3205  0.1315  0.4340
 8188SOL    HW136197   4.413   2.168   3.642 -0.4976 -3.0688 -0.1489
 8188SOL    HW236198   4.513   2.239   3.567 -0.4070 -0.3581  2.4684
 8189SOL     OW36199   3.379   3.784  10.136  0.2158  0.0032  0.3687
 8189SOL    HW136200   3.320   3.804  10.208  0.1993 -1.2309  0.6923
 8189SOL    HW236201   3.313   3.775  10.067 -0.0391 -1.1314  0.7557
 8190SOL     OW36202   0.789   0.937   6.198  0.1403 -0.2294 -0.6389
 8190SOL    HW136203   0.794   1.028   6.167  0.5842 -0.6403 -1.7576
 8190SOL    HW236204   0.714   0.892   6.159  1.3817 -4.0067  1.3483
 8191SOL     OW36205   3.147   2.055  17.490 -0.0228 -0.1879 -0.2572
 8191SOL    HW136206   3.146   2.051  17.394  2.3007  3.3166 -0.3985
 8191SOL    HW236207   3.083   1.988  17.514 -0.3601 -0.4293 -1.7930
 8192SOL     OW36208   0.085   2.805   4.837 -0.1387  0.1271 -0.1051
 8192SOL    HW136209   0.042   2.790   4.921 -0.3054 -1.4235 -0.4719
 8192SOL    HW236210   0.147   2.870   4.871  0.5118  0.4750 -1.9662
 8193SOL     OW36211   0.005   3.552  10.967  0.1045  0.2390  1.1499
 8193SOL    HW136212   0.057   3.504  11.032  0.2794  0.5184  1.2151
 8193SOL    HW236213   0.069   3.622  10.956  0.3290 -0.3182 -1.0482
 8194SOL     OW36214   0.320   2.847   1.398 -0.8255 -0.1935  0.1810
 8194SOL    HW136215   0.284   2.763   1.366 -0.2834 -1.3099  2.5521
 8194SOL    HW236216   0.253   2.912   1.376  1.0151  2.0608  1.2521
 8195SOL     OW36217   3.163   1.454   8.921 -0.0249 -0.3093 -0.2099
 8195SOL    HW136218   3.244   1.491   8.888 -0.6346 -0.1031 -1.4783
 8195SOL    HW236219   3.171   1.366   8.884 -2.0136 -0.3381 -0.5951
 8196SOL     OW36220   2.130   3.837   5.739 -0.2850  0.3039  0.1511
 8196SOL    HW136221   2.121   3.931   5.725 -1.5506  0.1101 -0.3545
 8196SOL    HW236222   2.135   3.826   5.834  1.7010 -0.0389  0.0172
 8197SOL     OW36223   2.974   2.891   4.096 -0.2504  0.1554  0.5054
 8197SOL    HW136224   2.931   2.975   4.114 -1.2495 -0.5012  1.1602
 8197SOL    HW236225   2.987   2.900   4.001  0.1423 -0.2770  0.5194
 8198SOL     OW36226   4.263   3.418   6.562  0.1273 -0.4321  0.4069
 8198SOL    HW136227   4.208   3.409   6.484  0.4499  0.5944  0.0661
 8198SOL    HW236228   4.249   3.333   6.604  2.5459 -0.7127  0.6367
 8199SOL     OW36229   3.565   2.964   1.858  0.2299  0.0560 -0.4694
 8199SOL    HW136230   3.488   2.988   1.909  0.0666 -1.2861 -0.0972
 8199SOL    HW236231   3.550   2.986   1.766  0.4509  1.1311 -0.2509
 8200SOL     OW36232   1.294   4.734   9.997  0.5869 -0.4958  0.0494
 8200SOL    HW136233   1.221   4.674   9.981  0.2306 -0.4311  1.3964
 8200SOL    HW236234   1.347   4.729   9.917  1.0287  0.4913  0.2771
 8201SOL     OW36235   3.661   4.318   7.709  0.0875  0.1259  0.2542
 8201SOL    HW136236   3.696   4.229   7.719  0.8146  0.3563 -0.1718
 8201SOL    HW236237   3.625   4.330   7.797  2.0521  1.8179  0.8487
 8202SOL     OW36238   2.845   0.956   2.387 -0.6946  0.0351  0.1764
 8202SOL    HW136239   2.835   0.924   2.477  0.5324 -1.0555 -0.0636
 8202SOL    HW236240   2.932   0.995   2.390 -0.2260 -0.9357 -0.7687
 8203SOL     OW36241   2.237   1.723  10.780 -0.0088  0.1477  0.1378
 8203SOL    HW136242   2.159   1.721  10.725  1.3324 -0.9349 -1.6976
 8203SOL    HW236243   2.228   1.634  10.813  1.5562  0.5110  1.5692
 8204SOL     OW36244   2.680   3.005   1.179 -0.1920  0.4108  0.2866
 8204SOL    HW136245   2.629   2.929   1.148 -0.1184  0.3199  0.3895
 8204SOL    HW236246   2.603   3.052   1.212  0.5147  2.3867 -0.8879
 8205SOL     OW36247   4.183   1.349  17.430  0.0259  0.3715 -0.4132
 8205SOL    HW136248   4.214   1.356  17.340  1.0421 -1.3987 -0.2057
 8205SOL    HW236249   4.094   1.331  17.401  0.0701 -0.9185  0.2441
 8206SOL     OW36250   4.388   0.962  14.552  0.1151  0.2927 -0.6054
 8206SOL    HW136251   4.455   0.927  14.493  1.6370 -0.8186  1.7443
 8206SOL    HW236252   4.309   0.950  14.500 -1.1417 -2.2145  1.8710
 8207SOL     OW36253   2.858   4.477   6.894  0.1328 -0.6865  0.4165
 8207SOL    HW136254   2.858   4.413   6.823  0.0454  1.2040 -1.2980
 8207SOL    HW236255   2.776   4.452   6.935 -0.1453 -1.1035 -0.3861
 8208SOL     OW36256   3.135   1.568   7.270 -0.0088  0.2776 -0.0441
 8208SOL    HW136257   3.171   1.588   7.357  2.4547  2.2115 -1.5105
 8208SOL    HW236258   3.105   1.654   7.240  1.5596  0.8178 -0.0268
 8209SOL     OW36259   0.205   3.591   1.189  0.2467  0.0665 -0.0099
 8209SOL    HW136260   0.136   3.525   1.202 -0.9322  1.1174 -0.9753
 8209SOL    HW236261   0.284   3.546   1.220 -0.6106 -2.4503 -1.4130
 8210SOL     OW36262   2.779   0.180  10.737  0.1173  0.5008 -0.7024
 8210SOL    HW136263   2.772   0.110  10.672 -1.7851 -2.4508  2.6989
 8210SOL    HW236264   2.724   0.153  10.810  2.2809  1.9018  1.4403
 8211SOL     OW36265   2.317   2.730   6.333  0.1833 -0.0610  0.0775
 8211SOL    HW136266   2.309   2.653   6.277  2.0531  0.7361 -1.3133
 8211SOL    HW236267   2.267   2.801   6.292 -0.1177 -0.1181  0.3498
 8212SOL     OW36268   0.136   3.504   4.253 -0.2264  0.7110  0.3259
 8212SOL    HW136269   0.133   3.419   4.297  0.3242  0.1040 -0.7824
 8212SOL    HW236270   0.224   3.500   4.215 -0.3176  1.1007  0.0750
 8213SOL     OW36271   4.399   3.185  16.888  0.0342  1.1290 -0.6502
 8213SOL    HW136272   4.451   3.107  16.907  1.4787  2.2474 -0.0136
 8213SOL    HW236273   4.359   3.203  16.973  0.6572 -2.5552  0.4184
 8214SOL     OW36274   2.338   4.233   2.169  0.3767  0.4825 -0.1980
 8214SOL    HW136275   2.256   4.185   2.160 -0.2081  1.5580 -0.4504
 8214SOL    HW236276   2.317   4.306   2.112  0.0562  0.3722 -0.2218
 8215SOL     OW36277   1.775   4.710  16.449 -0.1394  0.4298 -0.2564
 8215SOL    HW136278   1.721   0.048  16.423  0.4800  0.2356 -2.1084
 8215SOL    HW236279   1.742   4.639  16.393 -0.1264 -0.6947  1.1561
 8216SOL     OW36280   2.566   0.183   2.228 -0.0042 -0.7830 -0.5751
 8216SOL    HW136281   2.491   0.240   2.247  0.3002 -0.3133 -0.7598
 8216SOL    HW236282   2.548   0.094   2.257 -1.9721 -0.6559 -1.4164
 8217SOL     OW36283   2.160   3.686   6.883  0.2133  0.4974  0.1276
 8217SOL    HW136284   2.074   3.645   6.894  0.7672 -0.5553  0.4927
 8217SOL    HW236285   2.217   3.612   6.904 -1.8395 -1.6321 -1.8253
 8218SOL     OW36286   0.946   0.308   9.488 -0.1215 -0.1719 -0.0749
 8218SOL    HW136287   0.868   0.355   9.518  0.1010 -0.7234  1.3993
 8218SOL    HW236288   0.918   0.268   9.406  2.1198 -0.9285 -0.4529
 8219SOL     OW36289   0.926   3.144   7.813  0.1984  0.1789 -0.0541
 8219SOL    HW136290   0.936   3.072   7.875 -0.0020  1.1998  1.1726
 8219SOL    HW236291   0.951   3.216   7.871 -0.7331  2.3941 -2.4046
 8220SOL     OW36292   3.051   4.667   4.318 -0.4870 -0.8728 -0.1907
 8220SOL    HW136293   3.112   0.001   4.339  1.2504 -2.2046 -0.7298
 8220SOL    HW236294   3.059   4.641   4.226  1.3264  0.3113 -0.3708
 8221SOL     OW36295   0.209   2.493   4.366 -0.1473 -0.2148  0.2857
 8221SOL    HW136296   0.301   2.475   4.348  0.0092  0.1448  0.7623
 8221SOL    HW236297   0.208   2.497   4.461  0.1760 -0.5280  0.3018
 8222SOL     OW36298   0.697   0.988   3.915  0.2760  0.7253  0.2164
 8222SOL    HW136299   0.634   1.057   3.900 -2.1228 -1.1596  1.5912
 8222SOL    HW236300   0.760   1.023   3.978  0.3274 -1.5551  1.4503
 8223SOL     OW36301   4.390   2.445   7.805  0.3298 -0.1483 -0.0008
 8223SOL    HW136302   4.434   2.500   7.869  0.4704  0.8620 -0.9708
 8223SOL    HW236303   4.447   2.438   7.729  1.1437 -1.6734  0.7467
 8224SOL     OW36304   1.905   1.253  15.335  0.2989  0.0731  0.2901
 8224SOL    HW136305   1.978   1.241  15.396  0.2021  1.1380  0.6085
 8224SOL    HW236306   1.924   1.345  15.319  1.8810 -0.3555 -0.3666
 8225SOL     OW36307   4.659   2.019   0.039 -0.1860 -0.4003  0.1774
 8225SOL    HW136308   0.010   1.985   0.057 -0.9028 -0.0468  4.3699
 8225SOL    HW236309   4.630   1.960  17.715  0.7445 -2.2350  1.3474
 8226SOL     OW36310   0.538   3.861   1.448  0.4112 -0.8789 -0.5981
 8226SOL    HW136311   0.469   3.861   1.382  2.4900 -0.3277 -2.7440
 8226SOL    HW236312   0.503   3.935   1.498  2.3768 -2.0744  2.5408
 8227SOL     OW36313   1.800   0.849   3.302 -0.3891  0.1067  0.0468
 8227SOL    HW136314   1.879   0.892   3.269 -1.0157  0.5697 -0.8720
 8227SOL    HW236315   1.814   0.756   3.283 -1.0338 -0.0650  0.3939
 8228SOL     OW36316   2.225   2.794   6.927 -0.3965 -0.1779  0.5627
 8228SOL    HW136317   2.213   2.782   7.021 -2.6247 -1.4158  0.1325
 8228SOL    HW236318   2.300   2.737   6.911 -0.3611 -0.3288  1.2695
 8229SOL     OW36319   2.027   0.607   4.511 -0.0583 -0.0080 -0.4282
 8229SOL    HW136320   1.939   0.586   4.541 -0.3645 -1.0107 -2.0415
 8229SOL    HW236321   2.067   0.520   4.522 -0.2377 -0.3066 -2.2283
 8230SOL     OW36322   1.041   1.742  11.922 -0.2424 -0.7447 -0.7459
 8230SOL    HW136323   1.023   1.776  11.834 -0.1775  1.6895  0.1954
 8230SOL    HW236324   1.134   1.728  11.907  0.1229  0.2254  0.6741
 8231SOL     OW36325   4.592   1.247   5.940  0.1326 -0.0688 -0.2178
 8231SOL    HW136326   4.583   1.221   5.848  0.6976  0.9311 -0.5494
 8231SOL    HW236327   4.572   1.166   5.988 -1.2366 -0.1354 -0.8858
 8232SOL     OW36328   4.541   0.990   8.809 -0.3197 -0.1092 -0.1259
 8232SOL    HW136329   4.530   0.974   8.715 -0.6770 -0.0873 -0.0882
 8232SOL    HW236330   4.597   1.068   8.803  0.3360 -0.4667  1.6041
 8233SOL     OW36331   4.703   2.539   2.984  0.2498  0.0995 -0.0109
 8233SOL    HW136332   4.701   2.578   2.896 -0.9279  0.6166  0.2339
 8233SOL    HW236333   4.620   2.576   3.016 -0.7906 -0.1492 -2.3596
 8234SOL     OW36334   3.399   4.459  12.056  0.6671 -0.1164  0.0608
 8234SOL    HW136335   3.468   4.412  12.102 -2.7812 -2.0616  3.1797
 8234SOL    HW236336   3.451   4.519  12.002  0.1834  1.2489  1.0989
 8235SOL     OW36337   2.354   4.605   5.666  0.5284 -0.8673  0.4269
 8235SOL    HW136338   2.447   4.580   5.666  1.2863  2.0240  1.6839
 8235SOL    HW236339   2.325   4.544   5.734 -0.4186  1.0783  1.7330
 8236SOL     OW36340   3.352   4.573   4.922  0.1429 -0.5807  0.3264
 8236SOL    HW136341   3.417   4.506   4.945  1.9422  1.4332  1.1528
 8236SOL    HW236342   3.325   4.543   4.836 -2.6448 -2.2111  1.7632
 8237SOL     OW36343   4.471   1.468  10.760 -0.4637  0.5816  0.2459
 8237SOL    HW136344   4.462   1.449  10.667  0.2143  0.6117  0.1768
 8237SOL    HW236345   4.394   1.522  10.780 -0.4670  1.0793 -1.1065
 8238SOL     OW36346   2.014   3.348   9.980  0.5735  0.0690 -0.0720
 8238SOL    HW136347   1.930   3.338  10.025 -0.1698  1.2232 -1.2058
 8238SOL    HW236348   2.041   3.261   9.950  0.4505  0.5174 -1.4923
 8239SOL     OW36349   1.791   1.840   0.742 -0.9675 -0.1253 -0.3949
 8239SOL    HW136350   1.802   1.887   0.660  0.8780 -1.2945 -0.8115
 8239SOL    HW236351   1.847   1.763   0.732  2.2424  2.1634 -0.1433
 8240SOL     OW36352   2.507   2.097   5.824 -0.1113 -0.3858  0.4171
 8240SOL    HW136353   2.568   2.169   5.808 -1.3739  0.5573 -0.2581
 8240SOL    HW236354   2.421   2.139   5.821  0.0740 -0.0182  0.2561
 8241SOL     OW36355   0.128   1.691   3.856  0.0352  0.8360 -0.0826
 8241SOL    HW136356   0.109   1.766   3.912  1.5952  1.3300 -0.2158
 8241SOL    HW236357   0.222   1.684   3.873  0.2786 -0.1323 -1.7881
 8242SOL     OW36358   3.494   4.645   3.280 -0.4337 -0.8551  0.0640
 8242SOL    HW136359   3.550   4.588   3.332  0.0907 -1.1189 -0.7823
 8242SOL    HW236360   3.530   4.731   3.301 -0.4381 -0.8288 -0.0327
 8243SOL     OW36361   0.027   4.502   9.145  0.1038  0.2183  0.4601
 8243SOL    HW136362   0.098   4.539   9.093  0.3723  0.5851  1.0860
 8243SOL    HW236363   4.690   4.504   9.084  1.1011 -0.4234 -0.7589
 8244SOL     OW36364   2.830   2.122   9.107 -0.1343  0.3439  0.0660
 8244SOL    HW136365   2.745   2.097   9.142 -0.8325  0.7959 -1.3345
 8244SOL    HW236366   2.880   2.098   9.185 -0.9744 -0.2664  0.4168
 8245SOL     OW36367   2.401   4.380   8.723 -0.0415  0.1139 -0.2185
 8245SOL    HW136368   2.362   4.398   8.808 -2.5386  0.7193 -1.5016
 8245SOL    HW236369   2.492   4.388   8.751 -0.3967 -2.6663  1.7471
 8246SOL     OW36370   0.737   3.019  12.965 -0.2794 -0.1623 -0.6192
 8246SOL    HW136371   0.751   2.994  13.056  1.8280  1.5961 -0.4593
 8246SOL    HW236372   0.735   2.932  12.924 -2.0448 -1.1224  1.5517
 8247SOL     OW36373   2.131   0.122  14.241 -0.4317 -0.5655 -0.0088
 8247SOL    HW136374   2.131   0.205  14.193 -1.6233 -0.3484  0.3711
 8247SOL    HW236375   2.065   0.143  14.307  0.1453  0.8998  0.1045
 8248SOL     OW36376   4.368   2.789  11.887 -0.6790 -0.6139 -0.7452
 8248SOL    HW136377   4.376   2.694  11.894 -0.3499 -0.7284 -2.5572
 8248SOL    HW236378   4.306   2.800  11.814 -0.5507  1.5328 -0.5373
 8249SOL     OW36379   3.738   1.943   2.412  0.8035  0.0602  0.2484
 8249SOL    HW136380   3.822   1.905   2.436  2.0438  1.1933 -2.2090
 8249SOL    HW236381   3.694   1.871   2.367  0.8542 -1.3503  2.4694
 8250SOL     OW36382   0.774   3.515  16.093 -0.1281  0.2999 -0.3847
 8250SOL    HW136383   0.822   3.571  16.032 -2.2510  0.0129 -2.3209
 8250SOL    HW236384   0.841   3.465  16.141  0.7838  1.4485 -0.4622
 8251SOL     OW36385   2.473   0.526   6.344  0.1082 -0.2466 -0.0709
 8251SOL    HW136386   2.537   0.552   6.411 -1.0014 -0.5039  1.0688
 8251SOL    HW236387   2.511   0.584   6.277  2.8787 -2.5801 -0.5424
 8252SOL     OW36388   0.684   4.551   0.363 -0.0599  0.2153 -0.6726
 8252SOL    HW136389   0.721   4.483   0.420 -0.9605  0.7645  0.5440
 8252SOL    HW236390   0.669   4.497   0.285  2.5140  1.1416 -1.8162
 8253SOL     OW36391   2.373   2.314   7.177 -0.1820  0.2031  0.6926
 8253SOL    HW136392   2.353   2.221   7.166 -2.0970  0.5438  1.3685
 8253SOL    HW236393   2.455   2.319   7.128  0.1989 -0.0267  1.2981
 8254SOL     OW36394   0.268   4.448   2.723  0.5610 -0.2224 -0.0226
 8254SOL    HW136395   0.252   4.374   2.665 -0.2812  0.4892 -0.7018
 8254SOL    HW236396   0.363   4.445   2.734  0.5698  0.3763  0.0816
 8255SOL     OW36397   4.406   3.245  16.112 -0.0585  0.0519  0.4118
 8255SOL    HW136398   4.315   3.252  16.085  0.3338 -0.5722 -1.1053
 8255SOL    HW236399   4.423   3.335  16.140  0.4721  0.3912 -1.0041
 8256SOL     OW36400   3.091   1.051  10.593 -0.8841 -1.0192  0.3218
 8256SOL    HW136401   3.174   1.095  10.576 -2.0758  1.3007  0.3460
 8256SOL    HW236402   3.038   1.100  10.529 -1.5345 -0.6539  1.1410
 8257SOL     OW36403   3.009   0.374   9.256 -0.7794 -0.4363  0.2248
 8257SOL    HW136404   3.035   0.290   9.294  0.2925 -0.5562 -0.7677
 8257SOL    HW236405   2.984   0.337   9.171  0.1659 -1.5574  0.4278
 8258SOL     OW36406   0.896   0.496   8.861  0.6990 -0.3427 -0.9359
 8258SOL    HW136407   0.816   0.520   8.815  0.2342 -0.6726 -0.2980
 8258SOL    HW236408   0.959   0.537   8.802 -1.3603  2.5101 -1.1213
 8259SOL     OW36409   0.607   1.293   2.799  0.6045 -0.0591 -0.1738
 8259SOL    HW136410   0.519   1.254   2.794  1.8461 -2.4680 -3.4902
 8259SOL    HW236411   0.661   1.214   2.792  2.7351  1.5947 -1.8611
 8260SOL     OW36412   1.303   2.376   5.402  0.1375  0.0945  0.5621
 8260SOL    HW136413   1.282   2.329   5.482 -2.1144 -0.3218 -0.2938
 8260SOL    HW236414   1.366   2.314   5.365  0.0955 -0.3952  1.3089
 8261SOL     OW36415   4.296   1.228   3.182 -0.0383  0.1330 -0.1982
 8261SOL    HW136416   4.380   1.246   3.224 -0.5226 -2.1894  1.8346
 8261SOL    HW236417   4.235   1.246   3.253 -0.1606 -1.3775  0.0834
 8262SOL     OW36418   1.901   2.387   5.791 -0.2215  0.3572  0.4272
 8262SOL    HW136419   1.843   2.393   5.715 -1.7740 -0.0968  1.5634
 8262SOL    HW236420   1.852   2.318   5.836  0.0085 -0.1312 -0.0689
 8263SOL     OW36421   2.245   0.102   8.827  0.3795 -0.3063  0.3720
 8263SOL    HW136422   2.177   0.160   8.861  0.5174 -1.9266  3.3634
 8263SOL    HW236423   2.208   0.077   8.742  1.2553  2.2699 -0.7686
 8264SOL     OW36424   2.984   1.535  14.480 -0.2447 -0.0304 -0.5276
 8264SOL    HW136425   3.074   1.565  14.471 -0.5642  1.0069 -0.2483
 8264SOL    HW236426   2.985   1.465  14.545  0.8075  1.5949  1.2069
 8265SOL     OW36427   1.271   0.929   9.748  0.0832 -0.1004 -0.3144
 8265SOL    HW136428   1.291   0.881   9.668  3.2130  0.3582  0.2276
 8265SOL    HW236429   1.296   1.019   9.729  0.6558 -0.1936  0.0183
 8266SOL     OW36430   2.079   1.125   5.106 -0.1075 -0.1880 -0.3940
 8266SOL    HW136431   2.110   1.097   5.192 -0.6173 -0.2457 -0.2260
 8266SOL    HW236432   2.154   1.103   5.051  0.3389  0.4550 -0.0323
 8267SOL     OW36433   0.032   0.549   6.331 -0.1676  0.1187  0.0115
 8267SOL    HW136434   4.696   0.535   6.270 -0.1203 -0.5892  0.1125
 8267SOL    HW236435   0.045   0.454   6.337 -1.7288 -0.2368 -1.9220
 8268SOL     OW36436   2.698   2.860   3.014 -0.4081 -0.4083 -0.1180
 8268SOL    HW136437   2.721   2.861   2.922  1.3489 -1.4908  0.3186
 8268SOL    HW236438   2.615   2.908   3.008 -0.8708 -0.8002  3.1921
 8269SOL     OW36439   2.136   1.555  15.518 -0.0510  0.0008 -0.0645
 8269SOL    HW136440   2.121   1.472  15.564  0.1998 -1.0489 -1.8976
 8269SOL    HW236441   2.216   1.547  15.467 -1.1184  2.3411 -2.0984
 8270SOL     OW36442   4.575   3.580   5.608 -0.6687  0.4563  0.2443
 8270SOL    HW136443   4.611   3.620   5.687 -0.2339  0.5633 -0.0098
 8270SOL    HW236444   4.512   3.650   5.591 -0.6048  0.3781 -0.2932
 8271SOL     OW36445   3.181   3.395   5.882  0.4094  0.5597  0.1718
 8271SOL    HW136446   3.088   3.373   5.878  0.1103  1.7178  0.8621
 8271SOL    HW236447   3.201   3.433   5.797 -0.6836  1.9787  0.5561
 8272SOL     OW36448   4.346   3.672  10.461  0.0674 -0.6555 -0.3801
 8272SOL    HW136449   4.370   3.725  10.385  0.0785  0.8076  0.6420
 8272SOL    HW236450   4.252   3.674  10.444 -0.2437 -1.6133  1.2159
 8273SOL     OW36451   4.023   2.058   7.086  1.0733  0.1358  0.2056
 8273SOL    HW136452   4.047   2.150   7.075  1.4517  0.1578  1.2111
 8273SOL    HW236453   3.930   2.057   7.063  0.5804  0.1555  2.2498
 8274SOL     OW36454   3.286   4.603   9.363 -0.5632 -0.1588 -0.2939
 8274SOL    HW136455   3.191   4.596   9.353 -1.1030  3.8820  1.7670
 8274SOL    HW236456   3.285   4.645   9.450  0.1290 -1.4363  0.3297
 8275SOL     OW36457   2.015   3.995   6.475  0.4808 -0.6636 -0.3686
 8275SOL    HW136458   2.011   4.078   6.427 -1.0947  1.0107  2.6100
 8275SOL    HW236459   2.082   3.940   6.436  2.8864  1.3305  0.9832
 8276SOL     OW36460   0.893   1.098  12.882 -0.2884 -0.2070  0.3267
 8276SOL    HW136461   0.885   1.106  12.787 -1.0485  1.8923  0.5581
 8276SOL    HW236462   0.987   1.109  12.896 -0.2941 -0.3049  0.4398
 8277SOL     OW36463   0.291   3.084   2.329 -0.2181 -0.6488  0.0523
 8277SOL    HW136464   0.246   3.029   2.265  0.5907 -0.9817 -0.2286
 8277SOL    HW236465   0.270   3.044   2.414 -1.3403 -0.5252 -0.1688
 8278SOL     OW36466   0.721   0.440   4.319 -0.0669  0.8678 -0.6920
 8278SOL    HW136467   0.675   0.493   4.384  2.3575  1.5695  0.4446
 8278SOL    HW236468   0.803   0.410   4.359 -0.3461 -0.0893 -0.8416
 8279SOL     OW36469   0.317   0.502  16.839 -0.3440  0.6126 -0.6761
 8279SOL    HW136470   0.364   0.431  16.796  0.6876  0.9734 -0.1258
 8279SOL    HW236471   0.279   0.461  16.917  1.0710  0.7309  0.0744
 8280SOL     OW36472   1.214   4.658  14.718 -0.1855 -0.3777 -0.8925
 8280SOL    HW136473   1.224   0.016  14.726  0.6758 -0.6862  1.8742
 8280SOL    HW236474   1.290   4.644  14.663  0.8126  3.2360 -0.4283
 8281SOL     OW36475   4.411   2.936  16.489 -0.2006 -0.1863  0.3696
 8281SOL    HW136476   4.391   2.961  16.399  0.2086 -2.2106 -0.2961
 8281SOL    HW236477   4.478   2.867  16.484 -1.0042 -0.9206 -0.2439
 8282SOL     OW36478   0.312   0.322   8.533  0.3968  0.0087  0.0482
 8282SOL    HW136479   0.225   0.338   8.568  0.6098  1.1586  0.0707
 8282SOL    HW236480   0.338   0.259   8.600  0.5642  0.9905  0.8935
 8283SOL     OW36481   3.406   2.022   2.641  0.4154 -0.1500  0.2472
 8283SOL    HW136482   3.463   1.945   2.635  0.7123  0.0399  0.6131
 8283SOL    HW236483   3.386   2.011   2.734  1.9542  2.3484  0.8631
 8284SOL     OW36484   2.161   1.886  17.588  0.1578  0.2709 -0.8666
 8284SOL    HW136485   2.252   1.914  17.595  0.0892  0.3023 -0.0289
 8284SOL    HW236486   2.140   1.933  17.507  3.7696  2.6475 -0.3978
 8285SOL     OW36487   0.316   4.245  16.047 -0.1528  0.0965  0.3416
 8285SOL    HW136488   0.230   4.222  16.083  0.9425 -0.8270  2.4003
 8285SOL    HW236489   0.290   4.310  15.982  0.5751  0.4654  0.4152
 8286SOL     OW36490   4.603   4.728   7.001 -0.8416 -0.1101 -0.1162
 8286SOL    HW136491   4.684   4.708   6.955 -1.0718 -0.9377 -0.1577
 8286SOL    HW236492   4.620   0.078   7.037  1.8100 -1.1396  1.0269
 8287SOL     OW36493   1.706   1.515   3.472  0.1837  0.0218  0.3159
 8287SOL    HW136494   1.760   1.550   3.544 -1.2808  0.6074  1.1235
 8287SOL    HW236495   1.632   1.575   3.478  0.8541  0.9900 -1.1877
 8288SOL     OW36496   4.301   3.823  15.727 -0.3706 -0.5756  0.4208
 8288SOL    HW136497   4.241   3.893  15.701  1.3266  0.3372 -1.0166
 8288SOL    HW236498   4.353   3.812  15.648 -2.5989 -0.2657 -1.0902
 8289SOL     OW36499   0.971   0.441   1.359 -0.2047  0.0035  0.2925
 8289SOL    HW136500   0.937   0.503   1.424 -1.7199  1.8424 -2.2563
 8289SOL    HW236501   1.021   0.384   1.418 -1.1757 -2.3655 -1.1715
 8290SOL     OW36502   1.575   4.046  11.847 -0.1723 -0.7339 -0.1883
 8290SOL    HW136503   1.610   3.957  11.853 -3.3930 -2.0284 -0.5681
 8290SOL    HW236504   1.486   4.018  11.828 -0.3676  0.9495 -1.7679
 8291SOL     OW36505   4.722   0.037  10.408  0.2462 -0.0957 -0.4700
 8291SOL    HW136506   4.695   4.725  10.330  0.1779  0.7455 -0.9709
 8291SOL    HW236507   4.657   0.006  10.471 -1.7087  1.2966 -1.7770
 8292SOL     OW36508   2.250   1.102  13.340 -0.7674  0.4662  0.1091
 8292SOL    HW136509   2.231   1.029  13.282 -1.4421 -0.1029  1.0411
 8292SOL    HW236510   2.346   1.109  13.335 -0.5626 -0.8807  1.9165
 8293SOL     OW36511   1.590   3.620   6.118  0.1993 -0.0481  0.1359
 8293SOL    HW136512   1.588   3.714   6.133  1.0015 -0.1945  1.1199
 8293SOL    HW236513   1.504   3.596   6.083 -1.2730  1.3506  2.8244
 8294SOL     OW36514   1.379   4.318  15.600 -0.6000  0.0270 -0.9460
 8294SOL    HW136515   1.324   4.384  15.557 -4.0330 -2.1745  0.0817
 8294SOL    HW236516   1.357   4.239  15.551 -0.2156 -2.2410  2.5352
 8295SOL     OW36517   3.415   4.580   6.270  0.5585 -0.3991 -0.1508
 8295SOL    HW136518   3.352   4.520   6.230  0.5540  0.1922 -1.0522
 8295SOL    HW236519   3.390   4.577   6.362  2.7656 -0.3196  0.4503
 8296SOL     OW36520   2.006   2.435   9.743 -0.1890 -0.0039 -0.2030
 8296SOL    HW136521   2.032   2.510   9.797  1.2493  0.6510 -1.8230
 8296SOL    HW236522   1.980   2.364   9.803  1.1836  1.6258  2.3158
 8297SOL     OW36523   0.754   2.364   6.929 -0.5064  0.3752  0.0182
 8297SOL    HW136524   0.841   2.326   6.911  0.8827  3.8932 -0.7232
 8297SOL    HW236525   0.696   2.320   6.867  0.2608 -1.2833  0.4795
 8298SOL     OW36526   0.618   3.415   2.312  0.4174  0.2854 -0.4737
 8298SOL    HW136527   0.589   3.408   2.221 -0.0834 -0.3992 -0.2668
 8298SOL    HW236528   0.539   3.381   2.354 -0.2418 -0.4168 -2.3229
 8299SOL     OW36529   4.222   2.135   6.298 -0.4462 -0.2527  0.1648
 8299SOL    HW136530   4.162   2.142   6.224  0.6668  1.2869 -0.6111
 8299SOL    HW236531   4.307   2.104   6.266 -0.0192  1.4993 -0.4199
 8300SOL     OW36532   3.494   4.653   0.393  0.0712  0.1702  0.5311
 8300SOL    HW136533   3.457   4.644   0.480 -0.9851 -2.3677 -0.1926
 8300SOL    HW236534   3.524   4.565   0.368 -0.5737 -0.0762  0.6347
 8301SOL     OW36535   4.164   0.872  17.520 -0.1301 -0.0442 -0.0447
 8301SOL    HW136536   4.154   0.836  17.608  1.3440  1.8959  0.9243
 8301SOL    HW236537   4.134   0.797  17.469 -0.0350 -0.4877  0.5663
 8302SOL     OW36538   3.492   2.147   8.085 -0.1474 -0.0767 -0.1787
 8302SOL    HW136539   3.491   2.178   8.176  0.2625  2.9328 -1.2117
 8302SOL    HW236540   3.583   2.143   8.056 -0.2863 -1.0132 -0.4600
 8303SOL     OW36541   0.988   1.455   8.051  0.0357 -0.1049 -0.1592
 8303SOL    HW136542   0.930   1.379   8.040  3.0004 -2.3258 -0.7226
 8303SOL    HW236543   0.976   1.499   7.967 -0.1531  1.0290  0.4758
 8304SOL     OW36544   1.957   1.914   3.401 -0.1044  0.1193 -0.1400
 8304SOL    HW136545   1.968   1.988   3.342  0.2454 -0.3406 -0.6500
 8304SOL    HW236546   1.975   1.842   3.341 -3.2762  0.9462 -2.0328
 8305SOL     OW36547   3.099   0.124   3.961 -0.4652 -0.6006 -0.2227
 8305SOL    HW136548   3.056   0.141   3.878  0.2881  2.7564  0.0885
 8305SOL    HW236549   3.159   0.198   3.967 -0.6558 -0.4551 -0.1025
 8306SOL     OW36550   1.639   0.547   5.576 -0.4186  0.7244 -0.0989
 8306SOL    HW136551   1.730   0.575   5.562 -0.3049 -0.1397 -1.0272
 8306SOL    HW236552   1.650   0.455   5.601 -0.6960  0.8715  0.5754
 8307SOL     OW36553   4.235   0.268   1.680 -0.1196  0.8996  0.2315
 8307SOL    HW136554   4.201   0.210   1.748 -0.7436  1.1940  0.1747
 8307SOL    HW236555   4.325   0.237   1.666 -0.3713 -0.2993  1.1945
 8308SOL     OW36556   1.262   0.182   2.419 -0.0309 -0.4136  0.0471
 8308SOL    HW136557   1.262   0.167   2.514  0.0931  1.6915  0.3817
 8308SOL    HW236558   1.336   0.241   2.405 -0.3357  0.4053  1.8067
 8309SOL     OW36559   2.826   3.688   8.961 -0.3370 -0.1031 -0.3761
 8309SOL    HW136560   2.878   3.655   9.035 -0.1938 -1.1129 -0.9235
 8309SOL    HW236561   2.773   3.751   9.009 -0.6827  0.4416 -1.4946
 8310SOL     OW36562   4.028   4.119  13.277 -0.3093  0.3026  0.5037
 8310SOL    HW136563   4.120   4.117  13.251 -0.1404  0.5209  1.0886
 8310SOL    HW236564   4.032   4.165  13.361 -0.3758 -0.2370  0.8064
 8311SOL     OW36565   4.246   0.564  17.260  0.6300 -0.1639 -0.0069
 8311SOL    HW136566   4.199   0.481  17.253 -0.4434  0.5617 -1.4669
 8311SOL    HW236567   4.183   0.613  17.313 -0.1426 -0.6935 -0.4195
 8312SOL     OW36568   1.050   1.608   5.629  0.3871  0.5479 -0.6418
 8312SOL    HW136569   1.032   1.626   5.721  0.4543  2.6424 -1.0299
 8312SOL    HW236570   1.082   1.692   5.595  0.2669  1.3548  1.2450
 8313SOL     OW36571   1.231   1.222   5.225 -0.4463  0.0023  0.4389
 8313SOL    HW136572   1.279   1.203   5.144 -0.7038  0.9170  0.0709
 8313SOL    HW236573   1.222   1.132   5.255 -2.5698 -0.4073 -1.4893
 8314SOL     OW36574   4.456   2.662   3.055  0.3086  0.4805 -0.2117
 8314SOL    HW136575   4.477   2.744   3.100 -0.9797  0.6965 -0.0051
 8314SOL    HW236576   4.375   2.642   3.101  0.1008  2.3736  0.2315
 8315SOL     OW36577   2.172   2.287   6.150  0.5074  0.6542 -0.1845
 8315SOL    HW136578   2.246   2.345   6.166  0.8342  0.5023 -1.1188
 8315SOL    HW236579   2.114   2.341   6.096  1.0211  2.3354  0.9286
 8316SOL     OW36580   1.697   3.804  11.776 -0.0486  0.0654 -0.0570
 8316SOL    HW136581   1.771   3.744  11.785 -1.6995 -2.0718 -0.4719
 8316SOL    HW236582   1.642   3.764  11.709 -0.6599 -0.0099  0.4839
 8317SOL     OW36583   3.240   1.095   3.927 -0.6105 -0.3844  0.0574
 8317SOL    HW136584   3.174   1.129   3.987 -0.8324 -1.7235  0.5627
 8317SOL    HW236585   3.208   1.123   3.841 -0.4284 -2.2472 -0.6164
 8318SOL     OW36586   3.253   2.496   0.288 -0.0904 -0.3278  0.0822
 8318SOL    HW136587   3.246   2.551   0.366 -1.3168 -0.8612  0.3440
 8318SOL    HW236588   3.242   2.561   0.218  0.0263 -0.3292  0.0629
 8319SOL     OW36589   1.570   2.642   1.589  0.1801  0.3550  0.2610
 8319SOL    HW136590   1.651   2.648   1.537 -0.1262 -0.8939 -0.3689
 8319SOL    HW236591   1.509   2.624   1.518  0.6811 -0.3953  0.0189
 8320SOL     OW36592   2.187   3.246   9.601  0.0561 -0.2277  0.3185
 8320SOL    HW136593   2.194   3.202   9.516 -1.0531 -0.4958  0.3652
 8320SOL    HW236594   2.146   3.327   9.572 -0.3272 -0.6874 -0.4281
 8321SOL     OW36595   2.677   3.253  13.996 -0.2451 -0.0354  0.0984
 8321SOL    HW136596   2.655   3.299  13.915 -2.6636 -2.0393 -0.3572
 8321SOL    HW236597   2.692   3.328  14.054  0.1502 -0.6365  0.7813
 8322SOL     OW36598   0.392   0.125   7.208 -0.1694  0.0185  0.1502
 8322SOL    HW136599   0.305   0.094   7.231 -0.2606 -0.2031 -0.4781
 8322SOL    HW236600   0.425   0.045   7.165  1.1138 -0.1497  1.4459
 8323SOL     OW36601   0.144   2.870   0.297  0.0030 -0.6037 -0.0326
 8323SOL    HW136602   0.165   2.777   0.313 -0.8318 -0.8466 -0.3848
 8323SOL    HW236603   0.083   2.880   0.370  1.7845 -1.4476  1.6066
 8324SOL     OW36604   2.550   4.392   3.688 -0.2033  0.0002 -0.0385
 8324SOL    HW136605   2.566   4.435   3.772  0.9392 -1.3445  0.4135
 8324SOL    HW236606   2.476   4.334   3.706  1.1962 -1.2977  1.4360
 8325SOL     OW36607   0.339   0.829   2.916  0.2434 -0.3703 -0.2370
 8325SOL    HW136608   0.363   0.864   2.830 -1.3928  0.8259 -0.2148
 8325SOL    HW236609   0.417   0.781   2.943  1.4542  0.4935 -2.2210
 8326SOL     OW36610   1.616   4.706   4.558  0.2021 -0.2853 -0.4159
 8326SOL    HW136611   1.569   4.623   4.558 -0.4378  0.0797 -1.2210
 8326SOL    HW236612   1.574   0.011   4.483  1.6826 -0.8133 -1.5388
 8327SOL     OW36613   0.889   3.624   3.452  0.3171 -0.2756 -0.0119
 8327SOL    HW136614   0.865   3.547   3.401  1.3209 -1.0809  0.7254
 8327SOL    HW236615   0.983   3.605   3.462  0.7193  2.7978  1.9046
 8328SOL     OW36616   2.572   1.080  12.192 -0.6898 -0.0444  0.4457
 8328SOL    HW136617   2.609   1.166  12.213  0.1574  0.0416 -1.4049
 8328SOL    HW236618   2.598   1.086  12.100 -1.0756  0.3871  0.3610
 8329SOL     OW36619   4.118   1.756  14.471 -0.0996 -0.2904 -0.0858
 8329SOL    HW136620   4.169   1.824  14.516  1.1859 -1.5141  0.2952
 8329SOL    HW236621   4.063   1.730  14.546  0.7289  1.5051  1.1580
 8330SOL     OW36622   4.234   1.606   3.040  0.0081 -0.3376 -0.1110
 8330SOL    HW136623   4.223   1.584   3.132 -0.5637  2.6303  0.5530
 8330SOL    HW236624   4.322   1.570   3.033  0.9117  1.9251 -0.3327
 8331SOL     OW36625   4.147   0.078   6.382  0.5422 -0.0820 -0.0232
 8331SOL    HW136626   4.090   0.003   6.363  2.4714 -1.8013  0.9377
 8331SOL    HW236627   4.214   0.035   6.436  0.4208 -0.0608  0.1444
 8332SOL     OW36628   3.392   4.165  11.028  0.1520 -0.8981  0.5687
 8332SOL    HW136629   3.320   4.190  10.971 -1.1110  0.3375  2.7188
 8332SOL    HW236630   3.401   4.237  11.091  0.4675 -1.1451  0.8057
 8333SOL     OW36631   1.275   4.653   7.386  0.1408 -0.1874  0.1144
 8333SOL    HW136632   1.358   4.619   7.421 -0.6460 -0.1208  1.9750
 8333SOL    HW236633   1.299   4.651   7.293  2.0447  0.3722  0.5961
 8334SOL     OW36634   2.195   3.893   4.834  0.9020 -0.0375 -0.1393
 8334SOL    HW136635   2.220   3.879   4.925  0.3441  0.6576  0.1251
 8334SOL    HW236636   2.285   3.921   4.817  0.8827 -0.4780 -0.9538
 8335SOL     OW36637   2.278   2.808  17.258  0.0784 -0.1912  0.0247
 8335SOL    HW136638   2.233   2.886  17.226 -0.7860 -1.1430 -1.1000
 8335SOL    HW236639   2.295   2.769  17.172 -2.6613 -3.7923  1.0842
 8336SOL     OW36640   3.612   0.354   3.741 -0.9964  0.6180  0.8460
 8336SOL    HW136641   3.559   0.409   3.684 -0.6733  1.5792  1.4757
 8336SOL    HW236642   3.578   0.265   3.731  0.0896  0.3294 -0.3026
 8337SOL     OW36643   4.521   3.043   9.268  0.0277  0.3334 -0.5037
 8337SOL    HW136644   4.552   3.128   9.299 -0.8115  0.7489 -0.7988
 8337SOL    HW236645   4.467   3.085   9.200  1.0414  0.7670 -1.0328
 8338SOL     OW36646   1.402   0.034  13.541  0.2822 -0.1024  0.7928
 8338SOL    HW136647   1.364   0.061  13.457  0.9777 -0.3607  0.3949
 8338SOL    HW236648   1.493   0.011  13.523  0.5976  2.9445 -1.5547
 8339SOL     OW36649   2.036   1.578  14.103 -0.3374  0.2005  0.5702
 8339SOL    HW136650   2.037   1.485  14.078  2.1436  0.3174  0.1883
 8339SOL    HW236651   2.017   1.580  14.197 -0.4998 -0.2787  0.5511
 8340SOL     OW36652   1.627   1.834   5.669 -0.6209  0.1995 -0.0355
 8340SOL    HW136653   1.708   1.875   5.641  0.0930 -0.3687  1.2076
 8340SOL    HW236654   1.591   1.911   5.713  3.0792  2.0650 -0.3024
 8341SOL     OW36655   3.590   2.629   5.932  0.0936 -0.4626  0.4117
 8341SOL    HW136656   3.575   2.715   5.971  0.3103 -0.5008  0.5840
 8341SOL    HW236657   3.667   2.599   5.981  0.9083 -1.8799 -1.7456
 8342SOL     OW36658   0.834   0.325   6.541 -0.1657  0.0584  0.2718
 8342SOL    HW136659   0.752   0.311   6.493 -0.4669  0.5755  0.6373
 8342SOL    HW236660   0.810   0.413   6.571  1.2231  1.0012 -1.3332
 8343SOL     OW36661   3.601   0.808   9.930  0.1861 -0.2238 -0.2811
 8343SOL    HW136662   3.523   0.852   9.964  0.3399 -1.0930  1.1819
 8343SOL    HW236663   3.567   0.720   9.948  0.7969 -0.9830 -2.8029
 8344SOL     OW36664   4.432   2.894   5.815 -0.0569  0.6310 -1.1861
 8344SOL    HW136665   4.373   2.831   5.857 -0.9557  1.5617 -1.0538
 8344SOL    HW236666   4.382   2.974   5.834  0.5827  0.9228 -0.7294
 8345SOL     OW36667   4.305   0.212   8.271  0.1960  0.9530 -0.2529
 8345SOL    HW136668   4.216   0.209   8.236  0.7410 -0.2593 -1.5014
 8345SOL    HW236669   4.314   0.118   8.280 -0.0327  0.9885  0.3715
 8346SOL     OW36670   1.101   3.406  17.011  0.1286  0.4786  0.1625
 8346SOL    HW136671   1.018   3.433  17.050 -0.0525  0.1597 -0.0023
 8346SOL    HW236672   1.133   3.486  16.969  0.1401  0.4996  0.2112
 8347SOL     OW36673   0.342   3.949   4.516  0.0597  0.2106  0.3600
 8347SOL    HW136674   0.281   3.883   4.484 -0.7723  1.0423  0.2365
 8347SOL    HW236675   0.409   3.968   4.450  1.9986 -1.0581  1.9614
 8348SOL     OW36676   2.546   2.756   6.660  0.6684  0.6266  0.4008
 8348SOL    HW136677   2.616   2.707   6.704  0.2478  0.1982  0.5903
 8348SOL    HW236678   2.514   2.817   6.726  1.0387 -1.0391  2.1153
 8349SOL     OW36679   3.306   3.314   0.156  0.0594 -0.1655  0.3522
 8349SOL    HW136680   3.355   3.374   0.212 -1.5950  0.7551  0.8128
 8349SOL    HW236681   3.278   3.375   0.088 -0.9683  1.2568  2.0681
 8350SOL     OW36682   4.490   1.559   3.422 -0.1142  0.1871  0.3403
 8350SOL    HW136683   4.428   1.589   3.355 -0.6002 -1.1908  0.1631
 8350SOL    HW236684   4.499   1.464   3.411  0.8789  0.5120 -1.6184
 8351SOL     OW36685   1.452   1.924   7.811  0.6244  0.3773  0.3708
 8351SOL    HW136686   1.361   1.925   7.781  1.4827  1.2723 -2.2084
 8351SOL    HW236687   1.435   1.964   7.896  4.4541  0.8357  0.9097
 8352SOL     OW36688   2.585   4.115   3.945  0.5875  0.3018  0.1894
 8352SOL    HW136689   2.586   4.199   3.990 -0.3806  0.4406 -0.0420
 8352SOL    HW236690   2.577   4.056   4.020  0.5397  1.5876  1.1975
 8353SOL     OW36691   2.395   0.082   6.341  0.4063 -0.2927  0.1974
 8353SOL    HW136692   2.369   0.046   6.257 -0.8651 -2.4105  1.4951
 8353SOL    HW236693   2.367   0.007   6.394  0.2261  0.6129  1.3724
 8354SOL     OW36694   1.770   1.926   3.819 -0.4074 -0.1146  0.2178
 8354SOL    HW136695   1.812   1.902   3.736 -1.4830 -2.3574  0.3318
 8354SOL    HW236696   1.805   2.014   3.834  1.4754 -0.7621 -0.2946
 8355SOL     OW36697   0.274   0.641   2.400  0.3629  0.3572  0.1965
 8355SOL    HW136698   0.259   0.553   2.366  0.3746  0.1258  0.7877
 8355SOL    HW236699   0.333   0.628   2.474 -0.2069 -1.1632  0.3803
 8356SOL     OW36700   1.605   4.159   1.012 -0.4312  0.2296 -0.1961
 8356SOL    HW136701   1.585   4.251   1.029  0.5699  0.2869  0.6890
 8356SOL    HW236702   1.681   4.134   1.066 -0.4804  1.3769  0.4074
 8357SOL     OW36703   1.246   3.597   6.210 -0.0260  0.0216 -0.4816
 8357SOL    HW136704   1.247   3.683   6.168  1.1436 -0.0912 -0.6792
 8357SOL    HW236705   1.183   3.559   6.148  2.6943 -3.6233 -0.9973
 8358SOL     OW36706   2.096   0.607   3.479 -0.3285 -0.2937  0.4035
 8358SOL    HW136707   2.164   0.653   3.431 -0.0177  1.1878  2.2926
 8358SOL    HW236708   2.140   0.522   3.484 -1.4745 -0.8135  1.6537
 8359SOL     OW36709   2.076   0.990   8.963  0.2347 -0.0741 -0.1551
 8359SOL    HW136710   2.131   1.035   8.899  0.0689  0.7974  0.3125
 8359SOL    HW236711   1.987   1.000   8.927  0.1778  1.2610  0.3639
 8360SOL     OW36712   0.572   0.516   2.087 -0.2293 -0.3401  0.0637
 8360SOL    HW136713   0.656   0.560   2.093 -1.9220  3.0771 -1.2947
 8360SOL    HW236714   0.602   0.427   2.069  0.6067 -0.0709  0.1171
 8361SOL     OW36715   4.495   2.974   2.376 -0.2085  0.4502 -0.0982
 8361SOL    HW136716   4.563   3.006   2.435  0.6270 -1.8808  0.2190
 8361SOL    HW236717   4.540   2.890   2.362 -1.3006  0.2711 -2.5485
 8362SOL     OW36718   0.024   3.387   9.608  0.6156  0.7361  0.2699
 8362SOL    HW136719   4.675   3.356   9.640  1.7199 -1.7865  0.7666
 8362SOL    HW236720   0.071   3.394   9.691 -1.2754  0.0357  1.4089
 8363SOL     OW36721   4.381   4.157   1.757 -0.3790  0.2432  0.2110
 8363SOL    HW136722   4.386   4.242   1.715  0.1422  0.4797  0.7604
 8363SOL    HW236723   4.313   4.119   1.700  0.6661 -0.4651 -0.5599
 8364SOL     OW36724   0.023   3.903   3.710 -0.8647  0.3987 -0.2107
 8364SOL    HW136725   0.077   3.865   3.640  0.3483  0.0702  0.8974
 8364SOL    HW236726   4.680   3.917   3.659 -0.3761  0.2909 -1.0028
 8365SOL     OW36727   1.004   2.327  11.548 -0.4618  0.3625 -0.3709
 8365SOL    HW136728   0.923   2.312  11.501 -0.5235 -0.2475 -0.0630
 8365SOL    HW236729   0.975   2.371  11.628 -1.1698  2.3345 -1.7192
 8366SOL     OW36730   0.636   1.456  10.179  0.0512 -0.5003  0.5906
 8366SOL    HW136731   0.682   1.381  10.216 -4.2047 -2.6364  1.6284
 8366SOL    HW236732   0.605   1.411  10.100  1.0885  2.8636 -1.7188
 8367SOL     OW36733   1.604   2.749   7.627  0.2307  0.5009  0.0315
 8367SOL    HW136734   1.593   2.671   7.681  1.2133 -0.6462 -1.4409
 8367SOL    HW236735   1.539   2.807   7.667 -0.8568 -0.3059 -0.5593
 8368SOL     OW36736   4.160   3.228  12.947 -0.0292 -0.9478 -0.0847
 8368SOL    HW136737   4.200   3.235  12.861  0.6491  0.9588  0.3897
 8368SOL    HW236738   4.099   3.156  12.931 -2.3060  0.4633  2.2487
 8369SOL     OW36739   2.708   4.310   5.326 -0.2987  0.3177 -0.3763
 8369SOL    HW136740   2.788   4.286   5.372 -0.0659 -0.3377 -1.1318
 8369SOL    HW236741   2.657   4.231   5.313  1.1617 -0.6134 -0.3943
 8370SOL     OW36742   3.403   3.644  13.168 -0.0615  0.1926  0.2195
 8370SOL    HW136743   3.420   3.731  13.132  0.3415 -0.2328 -0.6168
 8370SOL    HW236744   3.309   3.650  13.154 -0.3104 -0.6630  1.4678
 8371SOL     OW36745   1.385   4.477   2.892  0.2234  0.3282  0.0539
 8371SOL    HW136746   1.376   4.520   2.807  1.2055 -1.3152 -0.8882
 8371SOL    HW236747   1.451   4.412   2.866 -1.1482 -1.4789  1.0585
 8372SOL     OW36748   3.570   0.606   4.636  0.6415 -0.9732  0.1699
 8372SOL    HW136749   3.634   0.651   4.692  1.9408 -1.6130 -0.7948
 8372SOL    HW236750   3.499   0.661   4.669  0.1599 -2.0445  0.9013
 8373SOL     OW36751   4.418   1.876   6.043  0.2558  0.3244 -0.3334
 8373SOL    HW136752   4.328   1.873   6.011  0.6187 -0.4141 -1.2694
 8373SOL    HW236753   4.463   1.847   5.964  1.7140  1.8107 -0.0556
 8374SOL     OW36754   4.578   3.724  14.441 -1.0368 -0.4069  0.1331
 8374SOL    HW136755   4.629   3.659  14.490 -2.9339 -0.9629  1.3848
 8374SOL    HW236756   4.640   3.797  14.440 -0.7303 -0.6953 -1.9163
 8375SOL     OW36757   4.643   0.545   4.864 -0.1793  0.4047 -0.3036
 8375SOL    HW136758   4.555   0.561   4.827 -0.6614  0.2446  0.7871
 8375SOL    HW236759   4.629   0.515   4.953 -0.0922  0.2941 -0.3282
 8376SOL     OW36760   3.440   1.801   1.823 -0.3216  0.2850 -0.2197
 8376SOL    HW136761   3.395   1.848   1.752 -1.8882  0.3495  0.8149
 8376SOL    HW236762   3.523   1.770   1.786 -0.2358 -0.6960  0.8015
 8377SOL     OW36763   3.560   2.786  12.198  0.0717 -0.3960 -0.1142
 8377SOL    HW136764   3.620   2.849  12.157 -2.0594  1.4644 -0.3944
 8377SOL    HW236765   3.499   2.844  12.242 -0.8369 -1.1033 -0.4486
 8378SOL     OW36766   0.023   4.078   1.633 -0.6768 -0.3728 -0.0211
 8378SOL    HW136767   4.716   4.102   1.715 -0.4980 -1.1451  0.3017
 8378SOL    HW236768   4.725   3.993   1.607 -1.8605  0.2600 -0.4737
 8379SOL     OW36769   4.699   1.978   5.483  0.1340 -0.0359 -0.0607
 8379SOL    HW136770   4.722   2.016   5.568  2.8970 -0.5888 -0.5670
 8379SOL    HW236771   0.041   1.996   5.433 -0.2787 -2.2513 -1.5367
 8380SOL     OW36772   2.006   0.507   3.062  0.1292 -0.8145 -0.0360
 8380SOL    HW136773   2.020   0.473   2.974  1.6113 -0.0777 -0.0906
 8380SOL    HW236774   1.952   0.584   3.045  0.5459 -0.2400  1.2898
 8381SOL     OW36775   1.158   4.093   1.943  0.3206  0.5466  0.1762
 8381SOL    HW136776   1.100   4.018   1.955 -1.0951  1.3809 -1.5749
 8381SOL    HW236777   1.236   4.063   1.991  0.6876  0.1686 -0.6631
 8382SOL     OW36778   1.914   2.122   7.014 -0.1159  0.3761 -0.3594
 8382SOL    HW136779   1.946   2.034   7.033 -1.9426 -0.7017 -2.3039
 8382SOL    HW236780   1.833   2.098   6.970  0.5384 -2.0835 -0.2161
 8383SOL     OW36781   3.891   2.470   8.369  0.5328 -0.5908 -0.1277
 8383SOL    HW136782   3.930   2.551   8.336  0.0867 -0.9114 -1.4741
 8383SOL    HW236783   3.876   2.502   8.457  0.8519 -2.2357  0.5367
 8384SOL     OW36784   0.441   1.071   8.452 -0.3693  0.0282 -0.4185
 8384SOL    HW136785   0.388   1.057   8.374 -0.5837  0.9828 -0.4428
 8384SOL    HW236786   0.516   1.121   8.419  1.5880 -1.1648  2.2672
 8385SOL     OW36787   1.465   3.007   9.239  0.3281  0.4216  0.1717
 8385SOL    HW136788   1.455   3.031   9.331 -2.1957 -0.8120  0.2309
 8385SOL    HW236789   1.451   2.912   9.248  1.9004  0.2665  0.9969
 8386SOL     OW36790   3.539   1.057  11.375  0.2326 -0.2108  0.2793
 8386SOL    HW136791   3.595   1.038  11.450  0.2719 -3.5967 -0.6201
 8386SOL    HW236792   3.573   1.146  11.363  0.5353 -0.3981 -0.2525
 8387SOL     OW36793   2.321   3.036   4.887  0.3107 -0.3823 -0.2190
 8387SOL    HW136794   2.284   2.995   4.965  3.3941 -1.8427  0.4963
 8387SOL    HW236795   2.315   3.129   4.912  1.3295 -0.4860  0.4056
 8388SOL     OW36796   0.721   4.593  16.236  0.9882 -0.4348  0.0877
 8388SOL    HW136797   0.654   4.525  16.245  0.8230 -0.4587 -1.3261
 8388SOL    HW236798   0.749   4.591  16.327  0.7096  1.3484  0.2174
 8389SOL     OW36799   3.522   0.972  12.449 -0.1348  0.3425 -0.2410
 8389SOL    HW136800   3.473   1.042  12.405 -1.2374 -0.1501  0.1906
 8389SOL    HW236801   3.495   0.980  12.541  1.1249  0.3085  0.1223
 8390SOL     OW36802   0.706   1.139   6.962 -0.0857  0.3198 -0.0979
 8390SOL    HW136803   0.770   1.177   6.902  1.4565 -0.2039  1.2209
 8390SOL    HW236804   0.734   1.048   6.955 -1.5764 -0.3290  2.5840
 8391SOL     OW36805   2.492   2.862   3.669  0.2937  0.3633 -0.2922
 8391SOL    HW136806   2.488   2.789   3.608  0.4895 -1.4159  1.8520
 8391SOL    HW236807   2.403   2.854   3.701  0.3961  0.1892 -0.0503
 8392SOL     OW36808   2.378   3.413   3.359  0.4796 -0.1941  0.2495
 8392SOL    HW136809   2.453   3.355   3.368  0.4872 -0.0980  0.8256
 8392SOL    HW236810   2.374   3.423   3.264 -1.4431 -0.1360  0.3471
 8393SOL     OW36811   0.193   1.635  15.391  0.0092 -0.0416  0.8344
 8393SOL    HW136812   0.184   1.665  15.300 -0.0204  1.0372  1.1968
 8393SOL    HW236813   0.131   1.563  15.383  2.3288 -1.8480 -1.1178
 8394SOL     OW36814   0.509   4.642   8.837 -0.7125  0.2016 -0.2537
 8394SOL    HW136815   0.453   4.585   8.785  1.6549 -1.2372 -1.2337
 8394SOL    HW236816   0.532   4.709   8.773  2.5703  0.7520  1.4912
 8395SOL     OW36817   3.091   2.397   3.150 -0.2944  0.1509 -0.7982
 8395SOL    HW136818   3.119   2.420   3.239  1.0605 -0.1719 -1.1427
 8395SOL    HW236819   3.106   2.303   3.150 -0.7211  0.0847 -0.9689
 8396SOL     OW36820   1.664   2.472   1.212  0.4761  0.2692 -0.1244
 8396SOL    HW136821   1.749   2.466   1.256 -1.7059  3.7106  4.4900
 8396SOL    HW236822   1.607   2.453   1.286  0.7933  0.0150  0.0569
 8397SOL     OW36823   3.759   1.527  12.120  0.0784 -0.2820 -0.2119
 8397SOL    HW136824   3.813   1.551  12.196  0.8477 -0.2603 -0.7578
 8397SOL    HW236825   3.753   1.434  12.141 -1.1194  0.0359  0.8595
 8398SOL     OW36826   0.662   0.166   3.483  0.6667  0.7788  0.1856
 8398SOL    HW136827   0.741   0.112   3.480 -1.0300 -1.5783 -1.7957
 8398SOL    HW236828   0.605   0.120   3.544  0.2758  1.2010  0.1433
 8399SOL     OW36829   0.856   4.336  11.513 -0.1578 -0.0702  0.4730
 8399SOL    HW136830   0.897   4.260  11.472 -0.5029 -1.7631  3.2888
 8399SOL    HW236831   0.824   4.293  11.592 -0.0930  0.6002  0.8655
 8400SOL     OW36832   1.145   2.830   2.098 -0.4468 -0.2313  0.2664
 8400SOL    HW136833   1.100   2.843   2.182  0.1143 -0.1745  0.5570
 8400SOL    HW236834   1.211   2.764   2.120  1.6254  1.8259  0.2237
 8401SOL     OW36835   1.740   1.719   8.966 -0.3590  0.0876  0.0096
 8401SOL    HW136836   1.662   1.664   8.961  1.5623 -2.5692 -0.2183
 8401SOL    HW236837   1.758   1.742   8.875 -3.4454  2.4308  0.0048
 8402SOL     OW36838   0.136   3.022   6.791 -0.5164 -0.2813 -0.8299
 8402SOL    HW136839   0.140   2.941   6.739  0.6839 -1.2235  0.7461
 8402SOL    HW236840   0.075   3.079   6.744  0.5557  1.8335  0.3326
 8403SOL     OW36841   3.289   2.333  14.616 -0.6348  0.8629 -0.3860
 8403SOL    HW136842   3.354   2.373  14.559 -1.9097  0.4096 -2.1468
 8403SOL    HW236843   3.215   2.315  14.558  0.8530 -2.9748 -1.0560
 8404SOL     OW36844   2.782   2.145   5.025 -0.1966  0.4796 -0.0322
 8404SOL    HW136845   2.787   2.123   5.118 -1.0930 -2.0261 -0.5849
 8404SOL    HW236846   2.858   2.094   4.999 -0.7769 -1.6843  2.4689
 8405SOL     OW36847   2.952   1.178  17.275 -0.5297 -1.1779 -0.5484
 8405SOL    HW136848   3.044   1.166  17.249  0.3716  1.5422  1.4603
 8405SOL    HW236849   2.916   1.089  17.267 -2.7303 -0.2647 -0.7170
 8406SOL     OW36850   3.839   0.639   7.676  0.0677 -0.1917  0.0621
 8406SOL    HW136851   3.826   0.701   7.604  0.4709  0.0861  0.2333
 8406SOL    HW236852   3.933   0.621   7.673  0.2510  0.5617  1.3096
 8407SOL     OW36853   2.844   3.512   7.182  0.1329  0.0534  0.3057
 8407SOL    HW136854   2.907   3.581   7.203  0.5150 -0.0444 -0.4853
 8407SOL    HW236855   2.777   3.514   7.249 -0.1485 -0.5505  0.0412
 8408SOL     OW36856   3.946   2.522  16.203 -0.0910  0.9111 -0.5269
 8408SOL    HW136857   3.931   2.611  16.232  0.0898  0.8205 -0.1562
 8408SOL    HW236858   3.988   2.551  16.122  1.5533 -2.5089 -0.9131
 8409SOL     OW36859   2.286   3.940   5.448 -0.3401  0.5198 -0.7335
 8409SOL    HW136860   2.195   3.968   5.433 -0.3597 -0.1450 -1.8255
 8409SOL    HW236861   2.283   3.845   5.443 -0.1753  0.4424  0.7469
 8410SOL     OW36862   1.054   0.792   7.387 -0.6675  0.4128 -0.0445
 8410SOL    HW136863   1.126   0.742   7.427 -2.1940 -1.1129  0.8198
 8410SOL    HW236864   1.094   0.800   7.301 -1.1506  1.2445 -0.1864
 8411SOL     OW36865   2.744   2.762   3.748 -0.3740  0.2948  0.0836
 8411SOL    HW136866   2.770   2.743   3.658  0.6868  2.9714 -0.2017
 8411SOL    HW236867   2.653   2.787   3.732 -1.2716 -1.8298  1.8905
 8412SOL     OW36868   4.551   1.903   1.777  0.6874  0.0666 -0.2025
 8412SOL    HW136869   4.511   1.935   1.858  1.2955  0.7739 -0.1794
 8412SOL    HW236870   4.483   1.899   1.710 -0.3280  0.3005  0.8132
 8413SOL     OW36871   1.695   1.696   1.554  0.7550 -0.1457 -0.2726
 8413SOL    HW136872   1.738   1.614   1.580 -1.8317 -1.8297 -1.3087
 8413SOL    HW236873   1.766   1.757   1.575 -0.3599  0.9100  0.4446
 8414SOL     OW36874   3.578   2.107   6.542  0.4561 -0.0086 -0.2603
 8414SOL    HW136875   3.633   2.110   6.464  0.1428 -2.8371 -0.6224
 8414SOL    HW236876   3.488   2.129   6.516  0.5411 -0.0986 -0.6310
 8415SOL     OW36877   2.737   1.321  10.364 -0.1461  0.0906  0.1144
 8415SOL    HW136878   2.675   1.261  10.405 -0.4961  1.8296  2.1172
 8415SOL    HW236879   2.705   1.311  10.274  2.3654 -1.6921 -0.5876
 8416SOL     OW36880   2.861   0.055   6.576 -0.1335 -0.4232  0.1853
 8416SOL    HW136881   2.924   0.003   6.626 -0.4388 -0.2976  0.6974
 8416SOL    HW236882   2.855   0.137   6.625 -0.5623 -0.2066 -0.2247
 8417SOL     OW36883   2.545   3.165   9.661 -0.0750 -0.3256 -0.0083
 8417SOL    HW136884   2.525   3.193   9.751  1.3284 -1.8747  0.7943
 8417SOL    HW236885   2.467   3.113   9.641  0.3912 -0.1396 -2.2878
 8418SOL     OW36886   4.679   2.078   2.341  0.4154 -0.1277 -0.3159
 8418SOL    HW136887   4.626   2.157   2.351  0.4268 -0.0541 -0.8473
 8418SOL    HW236888   4.651   2.020   2.412 -0.5820 -0.8869 -1.3403
 8419SOL     OW36889   1.628   2.863   4.207 -0.0731  0.2311 -0.1094
 8419SOL    HW136890   1.580   2.899   4.282  0.9359 -0.7987  1.0372
 8419SOL    HW236891   1.552   2.822   4.166 -1.2508  2.1122  0.1737
 8420SOL     OW36892   4.519   4.293   2.895  0.3712 -0.2651 -0.0685
 8420SOL    HW136893   4.503   4.382   2.863  3.6390  0.4351  0.2499
 8420SOL    HW236894   4.448   4.289   2.959  1.1299 -0.2554  0.7582
 8421SOL     OW36895   0.612   2.950   7.746 -0.3955 -0.0459  0.3749
 8421SOL    HW136896   0.696   2.904   7.735 -0.4038 -0.0734  0.4252
 8421SOL    HW236897   0.641   2.989   7.828  0.2306 -0.4549  0.3537
 8422SOL     OW36898   3.520   4.231  16.007  0.7192 -0.1494  0.2987
 8422SOL    HW136899   3.508   4.274  15.922  0.9289  1.4410  1.0892
 8422SOL    HW236900   3.440   4.263  16.048  0.3690 -2.2999  1.3053
 8423SOL     OW36901   4.126   1.708  13.015 -0.0019 -0.1673 -0.3372
 8423SOL    HW136902   4.215   1.674  13.010  0.1752 -0.1344  2.8909
 8423SOL    HW236903   4.140   1.803  13.011 -1.1185 -0.0309 -1.0219
 8424SOL     OW36904   1.497   0.338   5.093 -0.1079  0.0946  0.2866
 8424SOL    HW136905   1.451   0.285   5.157 -0.1847 -0.1252  0.0491
 8424SOL    HW236906   1.433   0.406   5.071  0.3216  0.3058 -0.3226
 8425SOL     OW36907   0.337   0.546  12.970 -0.5966  0.0136 -0.3062
 8425SOL    HW136908   0.270   0.576  12.908 -0.5694 -2.6229 -1.5897
 8425SOL    HW236909   0.416   0.584  12.932  0.3195 -1.8387 -0.2558
 8426SOL     OW36910   2.214   1.905   5.375 -0.3966  0.0543 -0.0191
 8426SOL    HW136911   2.264   1.826   5.392 -2.6960 -1.7435 -1.5167
 8426SOL    HW236912   2.228   1.942   5.462  0.0166  2.2839 -1.0430
 8427SOL     OW36913   4.473   1.041   5.154  0.2953 -0.2364  0.1937
 8427SOL    HW136914   4.507   1.128   5.171 -0.6089  0.6674 -2.6204
 8427SOL    HW236915   4.516   0.986   5.220  0.6667 -0.0217  0.1298
 8428SOL     OW36916   0.284   0.890   7.951 -0.2296  0.0027 -0.0411
 8428SOL    HW136917   0.343   0.840   7.895  3.0435  2.5155  1.1952
 8428SOL    HW236918   0.227   0.817   7.976 -1.2523  1.2487  1.2763
 8429SOL     OW36919   0.801   2.010   8.550  0.0263 -0.2887  0.1567
 8429SOL    HW136920   0.882   1.962   8.533  0.5389 -0.0351  1.9288
 8429SOL    HW236921   0.739   1.938   8.562 -2.1245  1.9607  2.4185
 8430SOL     OW36922   2.644   3.248  13.429 -0.2478 -0.4630  0.1533
 8430SOL    HW136923   2.685   3.211  13.507 -1.3447  0.0442  0.9710
 8430SOL    HW236924   2.718   3.263  13.371  0.8221  1.0809  1.9091
 8431SOL     OW36925   0.282   0.095   5.141 -0.1822  0.2727 -0.0772
 8431SOL    HW136926   0.309   0.017   5.092  0.4459  1.6411 -1.8981
 8431SOL    HW236927   0.347   0.148   5.094  0.4408 -1.1948 -0.8661
 8432SOL     OW36928   0.446   3.556   3.312  0.6766 -0.4278 -0.1481
 8432SOL    HW136929   0.507   3.485   3.294 -0.3102 -1.4127  0.4027
 8432SOL    HW236930   0.452   3.539   3.406  1.2597  0.2664 -0.0590
 8433SOL     OW36931   2.278   2.141  16.151  0.1390 -0.6152  0.2317
 8433SOL    HW136932   2.348   2.182  16.100 -1.2150  1.1306 -0.1956
 8433SOL    HW236933   2.297   2.047  16.146  1.7166 -0.3853  2.0481
 8434SOL     OW36934   4.248   4.499   2.497  0.1651 -0.4659 -0.3344
 8434SOL    HW136935   4.328   4.451   2.521  0.2057 -0.0740  0.3305
 8434SOL    HW236936   4.290   4.581   2.471 -0.7946  0.0344 -0.2843
 8435SOL     OW36937   0.252   2.473  16.396 -0.4106 -0.1204 -0.2561
 8435SOL    HW136938   0.336   2.439  16.367  0.6660  0.4044  2.2775
 8435SOL    HW236939   0.252   2.562  16.361 -0.2502 -0.6315 -1.5656
 8436SOL     OW36940   3.960   2.762  15.648  0.3247  0.2457 -0.4298
 8436SOL    HW136941   4.027   2.830  15.657  0.6274 -0.1170  0.0260
 8436SOL    HW236942   4.007   2.679  15.647 -0.0148  0.0336  1.2128
 8437SOL     OW36943   3.838   0.675   1.217  0.1422 -0.6951 -0.6326
 8437SOL    HW136944   3.797   0.608   1.162  0.7582 -0.1947 -1.6961
 8437SOL    HW236945   3.868   0.733   1.147  0.3851 -3.0726 -2.4854
 8438SOL     OW36946   0.627   1.261   6.492  0.1023  0.1910 -0.1279
 8438SOL    HW136947   0.708   1.248   6.542  1.2198  0.0158 -1.9661
 8438SOL    HW236948   0.656   1.323   6.424  0.7519  1.3688  1.2161
 8439SOL     OW36949   2.422   1.133   2.361  0.1881  0.7851 -0.6438
 8439SOL    HW136950   2.463   1.141   2.447 -0.3800  0.6775 -0.3639
 8439SOL    HW236951   2.492   1.144   2.297  1.1095 -0.5558  0.1276
 8440SOL     OW36952   1.077   0.268   1.584  0.2848 -0.1345  0.3702
 8440SOL    HW136953   1.008   0.223   1.632 -0.5213 -0.4384 -1.0816
 8440SOL    HW236954   1.120   0.192   1.546  0.2428 -1.0103  2.0646
 8441SOL     OW36955   4.057   2.993   9.243 -0.1385  0.2199 -0.7694
 8441SOL    HW136956   3.962   3.001   9.235 -0.5192 -1.9090  1.5942
 8441SOL    HW236957   4.068   2.912   9.194 -0.8788 -0.5250  0.2883
 8442SOL     OW36958   1.880   2.131   5.010  0.0993  0.0349 -0.8786
 8442SOL    HW136959   1.948   2.156   4.947  1.4858  0.2764  0.7388
 8442SOL    HW236960   1.872   2.207   5.067  0.9591 -0.4087 -0.1793
 8443SOL     OW36961   3.699   0.718   7.130  0.2788 -0.2467 -0.8317
 8443SOL    HW136962   3.728   0.707   7.040  0.1371  1.3554 -1.0858
 8443SOL    HW236963   3.724   0.635   7.169  1.1984 -0.1858 -1.3065
 8444SOL     OW36964   0.639   2.896  11.251 -0.3771 -0.3575  0.6521
 8444SOL    HW136965   0.705   2.828  11.267  1.6479  1.0286 -1.9723
 8444SOL    HW236966   0.670   2.971  11.202 -0.4414 -2.0540 -2.0154
 8445SOL     OW36967   1.045   4.239   8.717 -0.0046 -0.6514  0.7480
 8445SOL    HW136968   1.117   4.239   8.653  1.3825 -2.8609  2.2843
 8445SOL    HW236969   1.025   4.146   8.706 -0.3311 -0.5413  0.4045
 8446SOL     OW36970   3.221   0.755   5.991 -0.8966 -0.0905 -0.2580
 8446SOL    HW136971   3.208   0.836   5.941  0.3929 -0.6975 -1.5829
 8446SOL    HW236972   3.133   0.722   5.975  0.3879 -2.4858 -2.5289
 8447SOL     OW36973   1.378   3.678   5.111 -0.2695 -0.0675 -0.3648
 8447SOL    HW136974   1.467   3.686   5.145 -1.3688 -1.3011  2.7773
 8447SOL    HW236975   1.400   3.628   5.032  0.2711  0.2853 -0.4406
 8448SOL     OW36976   3.954   4.127   5.960 -0.0993  0.8166  0.0858
 8448SOL    HW136977   3.888   4.059   5.947 -2.2570  2.7374  0.9778
 8448SOL    HW236978   3.905   4.204   5.931  0.0436  0.4032 -1.2437
 8449SOL     OW36979   3.649   0.905  12.731  0.2077  0.4444 -0.0744
 8449SOL    HW136980   3.641   0.812  12.710  0.8009  0.0342  1.5241
 8449SOL    HW236981   3.555   0.927  12.731  0.3035  0.9120  2.7554
 8450SOL     OW36982   2.542   3.221   4.036  0.4889  0.1262 -0.2113
 8450SOL    HW136983   2.564   3.174   3.956  1.9082  0.8187 -0.2100
 8450SOL    HW236984   2.600   3.177   4.097 -0.7915 -0.7900  0.3546
 8451SOL     OW36985   1.928   1.993   4.558  0.1116 -0.3776  0.3922
 8451SOL    HW136986   1.970   2.033   4.634 -0.2482  1.3087 -0.3000
 8451SOL    HW236987   1.987   2.016   4.487  0.0431 -0.8983  0.1685
 8452SOL     OW36988   3.403   1.773   6.463 -0.1993  0.3002  0.2341
 8452SOL    HW136989   3.435   1.734   6.544  0.1617  0.0068 -0.0481
 8452SOL    HW236990   3.462   1.729   6.401 -1.2267 -0.0244 -0.5125
 8453SOL     OW36991   1.183   1.799  11.347 -0.3229  0.4121  0.0848
 8453SOL    HW136992   1.196   1.889  11.317 -0.7299  0.5324  0.2794
 8453SOL    HW236993   1.172   1.750  11.265  1.7575 -0.4481  0.3171
 8454SOL     OW36994   2.134   2.855   5.749  0.9610 -0.7726  0.1446
 8454SOL    HW136995   2.055   2.827   5.702  0.7710  1.3208 -0.7882
 8454SOL    HW236996   2.211   2.839   5.695  2.3038 -0.4514  1.9885
 8455SOL     OW36997   1.761   0.047   1.192 -0.4704 -0.5299  0.9726
 8455SOL    HW136998   1.813   0.110   1.240  0.1744  0.0290 -0.4772
 8455SOL    HW236999   1.682   0.046   1.246 -1.1249 -2.4228  0.0093
 8456SOL     OW37000   0.631   1.648   5.050 -0.7396 -0.0913  0.0032
 8456SOL    HW137001   0.673   1.656   5.135 -0.4231  0.4101 -0.2042
 8456SOL    HW237002   0.588   1.563   5.062  0.0250 -0.6008 -0.8868
 8457SOL     OW37003   0.475   3.287   7.721 -0.0239  0.4080 -0.8057
 8457SOL    HW137004   0.560   3.261   7.686  0.7206 -0.5028  1.7058
 8457SOL    HW237005   0.410   3.257   7.658 -1.7284  1.2028  0.5641
 8458SOL     OW37006   1.927   3.584   2.382  0.1840 -0.3471 -0.2095
 8458SOL    HW137007   1.929   3.529   2.461  1.4176  0.3101  0.2163
 8458SOL    HW237008   1.997   3.546   2.329  1.5279  1.2434  0.4045
 8459SOL     OW37009   4.462   0.562   2.213  0.0871 -0.6779  0.6327
 8459SOL    HW137010   4.506   0.549   2.129 -2.0061  1.2182 -0.7436
 8459SOL    HW237011   4.371   0.571   2.186  0.4348 -2.9464 -1.3628
 8460SOL     OW37012   2.111   3.275   5.803  0.0138 -0.0685 -0.4957
 8460SOL    HW137013   2.063   3.276   5.720  1.3059  1.7460 -1.2265
 8460SOL    HW237014   2.124   3.366   5.830  1.1035 -0.5856  0.7605
 8461SOL     OW37015   3.049   4.501   5.956 -0.3097 -0.5205  0.7273
 8461SOL    HW137016   3.133   4.474   5.918 -1.0147 -1.8938  0.1421
 8461SOL    HW237017   3.080   4.570   6.015 -1.4522 -0.2271  0.9804
 8462SOL     OW37018   0.284   3.002   0.782 -0.3366  0.2464  0.7628
 8462SOL    HW137019   0.377   3.016   0.769 -0.1715 -0.2609  1.4051
 8462SOL    HW237020   0.256   3.016   0.691  0.3796 -0.3013  0.4576
 8463SOL     OW37021   1.329   0.672   4.170  0.0100 -0.3462 -0.5458
 8463SOL    HW137022   1.367   0.587   4.195 -0.1589  0.1299  1.3756
 8463SOL    HW237023   1.236   0.655   4.158 -0.2841  0.0217  1.2161
 8464SOL     OW37024   3.612   1.544   2.640 -0.2825 -0.1148  0.1165
 8464SOL    HW137025   3.706   1.558   2.630 -0.3682 -1.4915 -2.7653
 8464SOL    HW237026   3.607   1.484   2.714 -0.4803  0.0744  0.2550
 8465SOL     OW37027   2.305   4.411   8.979 -0.1288  0.1774  0.2380
 8465SOL    HW137028   2.224   4.452   9.010 -0.7111 -0.8551  0.0829
 8465SOL    HW237029   2.355   4.406   9.060  1.3895  2.2256 -0.5575
 8466SOL     OW37030   1.516   2.181   5.100 -0.9208 -0.7271  0.4518
 8466SOL    HW137031   1.526   2.104   5.156  0.7953 -0.5081  0.4306
 8466SOL    HW237032   1.577   2.171   5.027 -3.3845  2.0641 -2.0067
 8467SOL     OW37033   3.216   0.404  17.074  0.4604  0.8803  0.0631
 8467SOL    HW137034   3.179   0.418  16.987  0.9004  0.2686 -0.2236
 8467SOL    HW237035   3.299   0.367  17.045 -0.2114  0.8087 -1.7644
 8468SOL     OW37036   2.085   1.080   8.099 -0.3115 -0.4217  0.2457
 8468SOL    HW137037   2.072   1.103   8.007 -1.4141 -2.0067 -0.0036
 8468SOL    HW237038   2.003   1.037   8.124 -1.7869  1.7178 -0.8729
 8469SOL     OW37039   1.253   1.864  16.945 -0.4333  0.3318 -0.4705
 8469SOL    HW137040   1.157   1.863  16.945 -0.4404  0.6469 -1.0689
 8469SOL    HW237041   1.283   1.780  16.911 -0.2128  1.4576 -3.0939
 8470SOL     OW37042   0.592   3.209   8.812 -0.0486 -0.1463  0.3328
 8470SOL    HW137043   0.546   3.153   8.875 -0.3660  0.2773  0.4726
 8470SOL    HW237044   0.566   3.291   8.853 -1.7537 -0.5899  0.1586
 8471SOL     OW37045   4.422   2.475   4.765  0.1072 -0.0929 -0.1947
 8471SOL    HW137046   4.382   2.561   4.773 -2.2728 -1.3177  1.2504
 8471SOL    HW237047   4.415   2.451   4.858 -2.7337 -0.4101 -0.4803
 8472SOL     OW37048   0.265   0.786   4.332 -0.0930 -0.1010  0.5818
 8472SOL    HW137049   0.294   0.749   4.416 -1.2874  0.9715  1.4640
 8472SOL    HW237050   0.323   0.861   4.343 -0.9110  0.6112 -0.0040
 8473SOL     OW37051   1.541   3.968   5.869  0.1439  0.0144 -0.3072
 8473SOL    HW137052   1.630   3.931   5.871  0.9326  1.9446  0.4406
 8473SOL    HW237053   1.494   3.927   5.942 -0.6752 -0.0268 -0.8697
 8474SOL     OW37054   2.849   1.935   8.359 -0.2242 -0.2186 -0.3000
 8474SOL    HW137055   2.802   2.009   8.320  5.0100  1.8400 -2.7048
 8474SOL    HW237056   2.858   1.877   8.284  1.5422 -1.3447  0.7632
 8475SOL     OW37057   2.799   0.553  17.082 -0.0567  0.2880  0.9050
 8475SOL    HW137058   2.721   0.567  17.028 -0.1724 -0.2629  0.9303
 8475SOL    HW237059   2.749   0.529  17.161  0.2580 -1.0127  0.7031
 8476SOL     OW37060   3.214   1.800   0.956 -0.0991 -0.5192 -0.1047
 8476SOL    HW137061   3.280   1.799   1.026  0.5305 -0.4973 -0.7013
 8476SOL    HW237062   3.263   1.846   0.888 -1.8485  2.1307  0.4247
 8477SOL     OW37063   3.842   2.007   5.661 -0.2018 -0.0299 -0.3278
 8477SOL    HW137064   3.879   1.923   5.631 -1.0703 -0.8165  0.7904
 8477SOL    HW237065   3.921   2.060   5.651 -0.2856  0.2226  0.3547
 8478SOL     OW37066   4.342   2.390   9.147  1.1731  0.1822  0.1896
 8478SOL    HW137067   4.327   2.404   9.054 -1.5401 -1.7739  0.3129
 8478SOL    HW237068   4.427   2.432   9.158  1.2166  0.4355 -1.0988
 8479SOL     OW37069   1.339   1.638   4.543  0.8481 -0.1552  0.0897
 8479SOL    HW137070   1.303   1.554   4.570 -0.3835  0.0399 -0.9134
 8479SOL    HW237071   1.297   1.696   4.607 -0.2948 -1.6898  0.7376
 8480SOL     OW37072   2.375   2.582   9.689 -0.4579  0.0829 -0.0162
 8480SOL    HW137073   2.435   2.515   9.655 -0.8230 -0.9738  1.3938
 8480SOL    HW237074   2.344   2.538   9.769  1.2949 -3.4938 -1.3223
 8481SOL     OW37075   1.707   3.305   8.663  0.3248 -0.5704 -1.1903
 8481SOL    HW137076   1.737   3.273   8.748  0.8343  0.8849 -0.8195
 8481SOL    HW237077   1.772   3.374   8.649 -0.6567  0.9041  1.6945
 8482SOL     OW37078   0.294   2.690   7.410  0.5869  0.0657  0.1707
 8482SOL    HW137079   0.242   2.769   7.393  0.3479 -0.5137 -1.8266
 8482SOL    HW237080   0.347   2.689   7.331  1.2530 -0.9573  0.6440
 8483SOL     OW37081   1.699   1.336   8.930  0.0827 -0.7446  0.2683
 8483SOL    HW137082   1.646   1.270   8.975  0.2116  0.7299  2.5703
 8483SOL    HW237083   1.635   1.403   8.907  0.6906 -0.6267 -1.0892
 8484SOL     OW37084   3.624   3.227   2.783 -0.8457 -0.0528  0.5706
 8484SOL    HW137085   3.533   3.239   2.755 -1.3897 -3.5497  0.8914
 8484SOL    HW237086   3.627   3.284   2.860 -0.0153  1.6785 -0.7576
 8485SOL     OW37087   3.863   2.809  16.308  0.0028 -0.1266 -0.3460
 8485SOL    HW137088   3.857   2.881  16.245 -0.1306  0.6186  0.5328
 8485SOL    HW237089   3.799   2.832  16.375  0.5807 -0.2795  0.2559
 8486SOL     OW37090   1.767   3.805   8.232  0.1562  0.2010  0.5114
 8486SOL    HW137091   1.715   3.725   8.245 -1.1057  1.3496  2.4930
 8486SOL    HW237092   1.805   3.817   8.319  1.6449 -0.7883  0.0025
 8487SOL     OW37093   4.454   0.057   1.617 -0.1817 -0.4613  0.2103
 8487SOL    HW137094   4.543   0.087   1.598  0.2830 -3.0635 -1.6793
 8487SOL    HW237095   4.473   4.734   1.689  0.0758 -0.2157  0.3486
 8488SOL     OW37096   4.031   4.259   6.188 -0.6140  0.2376  0.5061
 8488SOL    HW137097   3.958   4.204   6.215 -1.8045  1.6583  0.1743
 8488SOL    HW237098   3.989   4.300   6.113 -0.1574 -2.0109 -0.9685
 8489SOL     OW37099   2.020   0.801   5.840  0.1187  0.1519  0.0820
 8489SOL    HW137100   2.031   0.896   5.844  4.9931 -0.3796 -0.3440
 8489SOL    HW237101   2.106   0.783   5.878  1.1346  0.2143 -2.2475
 8490SOL     OW37102   0.729   4.245   3.124 -0.5233  0.3560 -0.4488
 8490SOL    HW137103   0.750   4.193   3.046  2.3892  0.6298  0.1705
 8490SOL    HW237104   0.820   4.264   3.146 -0.6018 -0.6415  0.7141
 8491SOL     OW37105   1.512   4.442   6.669  0.4432  0.2095 -0.1256
 8491SOL    HW137106   1.588   4.443   6.611  0.4213 -2.5904 -0.2109
 8491SOL    HW237107   1.442   4.453   6.606 -2.3056 -1.1569  2.6812
 8492SOL     OW37108   0.114   3.374   9.226  0.2852  0.1399  0.8277
 8492SOL    HW137109   0.139   3.330   9.145 -1.6033 -2.0712  1.4507
 8492SOL    HW237110   0.169   3.332   9.291 -1.2574 -3.4848 -0.2113
 8493SOL     OW37111   3.143   3.685   9.981  0.3503  0.1416 -0.1709
 8493SOL    HW137112   3.122   3.747   9.912  1.2212  1.2304  0.5591
 8493SOL    HW237113   3.112   3.604   9.940  2.2775  0.7497 -2.8002
 8494SOL     OW37114   2.170   4.688   6.080 -0.0846  0.3526 -0.4370
 8494SOL    HW137115   2.079   4.660   6.071 -0.5752  1.6067  0.5422
 8494SOL    HW237116   2.171   0.047   6.067  0.3058  0.5474  1.0751
 8495SOL     OW37117   3.623   1.257  12.377  0.3169  0.3532  0.4652
 8495SOL    HW137118   3.645   1.258  12.284 -2.3186  0.9324 -0.1722
 8495SOL    HW237119   3.686   1.197  12.416 -1.8834 -2.5681 -0.4145
 8496SOL     OW37120   0.712   1.565   6.620  0.4238 -0.5053  0.0869
 8496SOL    HW137121   0.637   1.521   6.660 -2.8654  1.8460 -3.4900
 8496SOL    HW237122   0.701   1.532   6.531 -0.2667 -0.7551  0.2652
 8497SOL     OW37123   2.569   3.029   8.945  0.0732  0.4507  0.1447
 8497SOL    HW137124   2.657   3.061   8.965  0.4688  0.7209 -2.0968
 8497SOL    HW237125   2.578   2.936   8.925  1.3349  0.5765  0.1060
 8498SOL     OW37126   2.088   4.049  11.838 -0.2592  0.3559 -0.3021
 8498SOL    HW137127   2.005   4.096  11.846 -0.5903 -0.1823 -0.5475
 8498SOL    HW237128   2.088   4.022  11.747 -1.8920  0.7774 -0.4213
 8499SOL     OW37129   3.693   3.228  16.233 -0.0811 -0.1400 -0.1294
 8499SOL    HW137130   3.658   3.280  16.305  0.4541 -0.8174  0.6163
 8499SOL    HW237131   3.708   3.287  16.160 -0.2837 -1.2154 -1.0403
 8500SOL     OW37132   2.215   2.894   1.307  0.3307 -0.6807  0.9726
 8500SOL    HW137133   2.272   2.957   1.263  0.7394 -1.1981  0.7686
 8500SOL    HW237134   2.138   2.951   1.315  0.0634 -0.8527 -0.2969
 8501SOL     OW37135   4.569   3.319   9.292 -0.1564  0.3775  0.4309
 8501SOL    HW137136   4.526   3.401   9.268 -0.9380  0.0685  0.7591
 8501SOL    HW237137   4.660   3.334   9.266  0.1099  1.8455  2.1761
 8502SOL     OW37138   3.326   1.888   0.700  0.3606 -0.0640  0.1704
 8502SOL    HW137139   3.373   1.824   0.649 -1.5739  0.4462 -2.2330
 8502SOL    HW237140   3.362   1.969   0.664  0.4658  0.6643  1.9007
 8503SOL     OW37141   0.681   3.965   7.828  0.7101  0.0610 -0.5824
 8503SOL    HW137142   0.615   4.020   7.787  0.1744  0.0511  0.2679
 8503SOL    HW237143   0.686   3.884   7.776  0.5647 -0.4947  0.2572
 8504SOL     OW37144   1.980   4.438   2.299 -0.8182  0.4404 -0.4007
 8504SOL    HW137145   1.939   4.426   2.213  0.8462 -0.0716 -1.1402
 8504SOL    HW237146   1.968   4.533   2.303 -0.5707  0.5088 -1.1658
 8505SOL     OW37147   1.806   1.438   9.376  0.3516  0.2605 -0.2538
 8505SOL    HW137148   1.809   1.452   9.281  0.0513 -0.8968 -0.4268
 8505SOL    HW237149   1.791   1.344   9.364  3.4004 -0.3234  0.3798
 8506SOL     OW37150   3.420   1.242   2.401 -0.1227  0.2555 -0.2936
 8506SOL    HW137151   3.417   1.261   2.495  0.7002  1.1760 -0.4498
 8506SOL    HW237152   3.501   1.291   2.384  0.1163  1.2059  3.4510
 8507SOL     OW37153   0.752   4.663   8.373 -0.1064 -0.5325 -0.1381
 8507SOL    HW137154   0.772   4.646   8.465 -0.1968  0.1239 -0.0031
 8507SOL    HW237155   0.672   4.714   8.383  0.0070 -0.6011  1.1828
 8508SOL     OW37156   1.646   0.646   9.328  0.2787 -0.4330  0.0865
 8508SOL    HW137157   1.706   0.691   9.387 -0.9126  0.9567  0.2233
 8508SOL    HW237158   1.665   0.681   9.241  1.8897 -1.5623 -0.0244
 8509SOL     OW37159   0.809   2.315   3.339  0.0872 -0.1394  0.4814
 8509SOL    HW137160   0.716   2.307   3.315  0.7987 -2.0450 -1.5906
 8509SOL    HW237161   0.816   2.393   3.394  0.8482 -0.1079  0.3381
 8510SOL     OW37162   1.867   2.846  13.801  0.5040  0.2492  0.2392
 8510SOL    HW137163   1.787   2.861  13.852 -0.2834 -0.7304 -0.7076
 8510SOL    HW237164   1.896   2.937  13.795  0.0681  0.3587 -0.2374
 8511SOL     OW37165   3.344   4.487   8.700 -0.2091 -0.1706 -0.9217
 8511SOL    HW137166   3.433   4.456   8.685  0.4098  0.3321  1.6578
 8511SOL    HW237167   3.311   4.454   8.617  0.8953 -0.6969 -1.1523
 8512SOL     OW37168   3.823   3.332   0.263  0.0367 -0.1922  0.7629
 8512SOL    HW137169   3.759   3.390   0.221  0.3322  0.9338  1.8245
 8512SOL    HW237170   3.903   3.383   0.249  0.3661 -0.7705  0.5480
 8513SOL     OW37171   0.330   4.356   4.172  0.0666 -0.1601 -0.4801
 8513SOL    HW137172   0.414   4.384   4.134  0.9109 -2.8368 -0.5589
 8513SOL    HW237173   0.345   4.262   4.176 -0.2865 -0.2238 -0.6564
 8514SOL     OW37174   0.326   1.277   7.837 -0.2581  0.6771  0.2720
 8514SOL    HW137175   0.400   1.217   7.846 -0.1740  0.3182 -2.9463
 8514SOL    HW237176   0.331   1.299   7.744 -1.3501  1.5810  0.4395
 8515SOL     OW37177   2.189   0.614   8.724 -0.0522 -0.0511 -0.2699
 8515SOL    HW137178   2.106   0.660   8.713  1.1552  2.2614  0.1863
 8515SOL    HW237179   2.237   0.677   8.779 -0.1703 -0.4738  0.3177
 8516SOL     OW37180   1.955   4.500   7.701 -0.4070 -0.2930  0.3117
 8516SOL    HW137181   1.922   4.587   7.724  0.7195  0.8474 -2.4126
 8516SOL    HW237182   2.024   4.487   7.767 -0.4539  1.3049  0.6756
 8517SOL     OW37183   4.065   3.511   8.416 -0.3652  0.1284 -0.1465
 8517SOL    HW137184   4.009   3.454   8.469  0.6987  0.3043  1.1697
 8517SOL    HW237185   4.144   3.524   8.469  0.8283  1.2046 -2.1991
 8518SOL     OW37186   3.400   0.666   9.062  0.7338  0.4642  0.0518
 8518SOL    HW137187   3.391   0.582   9.107 -1.2366 -0.0543 -1.2980
 8518SOL    HW237188   3.422   0.725   9.134 -0.1889  2.3087 -1.1779
 8519SOL     OW37189   0.353   1.665   5.029 -0.2222  0.0107  0.2123
 8519SOL    HW137190   0.312   1.681   4.944 -1.6317  0.3039  0.9533
 8519SOL    HW237191   0.447   1.664   5.010 -0.2771  1.5765 -0.1010
 8520SOL     OW37192   2.816   3.513  13.254  0.4642  0.0203  1.0587
 8520SOL    HW137193   2.761   3.590  13.271 -1.5378 -0.8213 -1.6668
 8520SOL    HW237194   2.889   3.544  13.200  1.6616 -0.3020  2.4990
 8521SOL     OW37195   3.351   0.215  11.308 -0.3016  0.0306 -0.4975
 8521SOL    HW137196   3.350   0.224  11.213 -1.7121  1.2759 -0.3679
 8521SOL    HW237197   3.371   0.123  11.322 -0.5869  0.1445  0.6868
 8522SOL     OW37198   4.136   1.911   4.326  0.1202 -0.0645  0.7667
 8522SOL    HW137199   4.083   1.833   4.309 -1.7523  1.3604  0.0868
 8522SOL    HW237200   4.169   1.918   4.237 -1.1497 -0.6721  0.2426
 8523SOL     OW37201   2.334   3.322  11.579 -0.0576 -0.2190 -0.1310
 8523SOL    HW137202   2.316   3.301  11.487 -1.4008 -0.6389  0.2258
 8523SOL    HW237203   2.246   3.307  11.615 -0.9454  1.4163 -1.5769
 8524SOL     OW37204   2.263   4.214   9.706 -0.3433 -0.0036  0.1673
 8524SOL    HW137205   2.328   4.166   9.655 -0.4869  0.8139 -0.7901
 8524SOL    HW237206   2.257   4.156   9.782  0.0485 -0.3835 -0.0973
 8525SOL     OW37207   1.874   4.194  11.823  0.1686  0.8042  0.3601
 8525SOL    HW137208   1.795   4.177  11.771  0.6121 -1.2392  0.3238
 8525SOL    HW237209   1.857   4.276  11.868  0.4818 -0.1128  2.1538
 8526SOL     OW37210   4.265   1.262   3.665 -0.0308 -0.3018  0.3516
 8526SOL    HW137211   4.294   1.269   3.756  0.7620  0.0394  0.0696
 8526SOL    HW237212   4.246   1.351   3.635 -0.7976 -0.1255  1.3720
 8527SOL     OW37213   0.736   0.449   0.925 -0.1645 -0.1950 -0.3584
 8527SOL    HW137214   0.805   0.513   0.943 -0.2390  0.6022 -2.8686
 8527SOL    HW237215   0.665   0.509   0.903 -1.4161 -1.7198 -0.4042
 8528SOL     OW37216   3.488   1.284   9.133 -0.1286  0.2761  0.4583
 8528SOL    HW137217   3.420   1.294   9.066 -0.4249 -0.4271  0.6526
 8528SOL    HW237218   3.489   1.367   9.182 -2.8724  0.0454  0.8902
 8529SOL     OW37219   0.121   4.273  14.532 -0.0696  0.1271  0.3722
 8529SOL    HW137220   0.111   4.243  14.442  0.4192 -4.1467  1.7301
 8529SOL    HW237221   0.202   4.226  14.554  0.1200 -0.3823 -1.3791
 8530SOL     OW37222   2.274   4.372   3.174 -0.5242  0.0067  0.2876
 8530SOL    HW137223   2.358   4.349   3.134  1.1692  1.5501  2.9614
 8530SOL    HW237224   2.289   4.464   3.192  2.0009 -0.0146 -1.7715
 8531SOL     OW37225   1.846   3.279  14.616  0.2390 -0.7673 -0.3842
 8531SOL    HW137226   1.940   3.273  14.631  0.3018  0.9949 -0.0338
 8531SOL    HW237227   1.866   3.348  14.552  1.6696 -0.9269 -0.0930
 8532SOL     OW37228   3.915   2.937   3.866  0.4117 -0.3251 -0.0139
 8532SOL    HW137229   3.975   2.879   3.820 -0.1669 -0.9603  0.0426
 8532SOL    HW237230   3.908   2.899   3.953  1.4235 -0.7531 -0.1193
 8533SOL     OW37231   0.585   0.960   1.387 -0.3417 -0.0195  0.0047
 8533SOL    HW137232   0.677   0.987   1.379 -0.0423 -1.3487 -1.0864
 8533SOL    HW237233   0.541   1.031   1.342 -2.6315  0.6625  3.3179
 8534SOL     OW37234   0.094   2.984  11.950  0.1478 -0.2412  0.6994
 8534SOL    HW137235   0.038   2.980  11.873  1.5695 -0.2656 -0.3299
 8534SOL    HW237236   0.088   2.894  11.983  1.2020 -0.3272  0.6368
 8535SOL     OW37237   4.309   4.707   4.654 -0.1361  0.4023  0.0783
 8535SOL    HW137238   4.249   4.639   4.625 -0.6632  1.0250 -0.3043
 8535SOL    HW237239   4.264   0.044   4.612  1.1582  0.9567 -0.3427
 8536SOL     OW37240   3.063   4.267   6.274 -0.0295  0.4478  0.0197
 8536SOL    HW137241   3.013   4.308   6.344 -2.6573 -1.2322 -0.8903
 8536SOL    HW237242   2.998   4.271   6.204  2.1240 -0.9745 -2.0951
 8537SOL     OW37243   3.137   3.444   4.966  0.5265 -0.2077 -0.1280
 8537SOL    HW137244   3.153   3.351   4.946 -1.0040 -0.4727 -0.1568
 8537SOL    HW237245   3.173   3.441   5.054  1.4793 -0.1371 -0.5153
 8538SOL     OW37246   4.155   3.837  15.305 -0.2343  0.1988  1.0686
 8538SOL    HW137247   4.182   3.922  15.337 -0.3132  0.5832  0.1149
 8538SOL    HW237248   4.066   3.855  15.274  0.7112  0.6728 -1.3617
 8539SOL     OW37249   0.800   2.946   3.069 -0.0838 -0.2530 -0.1564
 8539SOL    HW137250   0.887   2.908   3.076 -0.3889 -0.7851  0.6694
 8539SOL    HW237251   0.745   2.871   3.092  0.7868 -1.1463 -0.9933
 8540SOL     OW37252   0.055   4.511   3.031  0.0872 -0.0100 -0.0724
 8540SOL    HW137253   0.094   4.428   3.006 -0.8383  0.0583 -1.7180
 8540SOL    HW237254   0.097   4.566   2.964 -0.6010  0.6417  0.0340
 8541SOL     OW37255   2.159   3.928   7.264  0.3123  0.3200 -0.4778
 8541SOL    HW137256   2.155   4.020   7.291  0.1687 -0.1246  0.9905
 8541SOL    HW237257   2.071   3.897   7.285  1.3237 -1.6969  0.7541
 8542SOL     OW37258   3.182   1.522   5.958  0.0138 -0.4293 -0.5900
 8542SOL    HW137259   3.198   1.516   6.052 -1.7958 -0.1458 -0.2593
 8542SOL    HW237260   3.266   1.489   5.928  0.3483 -0.4548  0.3760
 8543SOL     OW37261   3.073   2.995   8.051 -0.5997 -0.0189  0.3787
 8543SOL    HW137262   3.064   2.901   8.069 -0.4693 -0.6744 -2.9912
 8543SOL    HW237263   2.990   3.025   8.014 -0.1577  2.6154  1.5805
 8544SOL     OW37264   2.771   0.716  10.804 -0.2148 -0.2472 -0.0277
 8544SOL    HW137265   2.851   0.732  10.753  0.7939 -1.6420  1.0926
 8544SOL    HW237266   2.769   0.620  10.802 -0.5006 -0.2354 -0.3521
 8545SOL     OW37267   4.700   4.277   7.050 -0.5957 -0.2784  0.2734
 8545SOL    HW137268   4.629   4.341   7.054  1.9462  2.5739  0.2944
 8545SOL    HW237269   4.725   4.269   7.142  0.5154 -2.0784 -0.1874
 8546SOL     OW37270   2.206   3.300   3.599 -0.4912  0.6751 -0.1350
 8546SOL    HW137271   2.251   3.383   3.614 -1.6101  1.2957 -0.1666
 8546SOL    HW237272   2.225   3.249   3.678 -0.8627 -1.8167 -1.6405
 8547SOL     OW37273   0.760   4.488   2.900  0.1042 -0.1389  0.0066
 8547SOL    HW137274   0.689   4.470   2.839  0.2055  1.7485 -0.6493
 8547SOL    HW237275   0.722   4.476   2.987  0.6531 -1.9394  0.0039
 8548SOL     OW37276   4.446   0.648   5.953 -0.0976  0.3647  0.5416
 8548SOL    HW137277   4.481   0.670   6.039  0.0507 -0.7604  0.7731
 8548SOL    HW237278   4.392   0.572   5.974  0.1985  0.1801  0.6500
 8549SOL     OW37279   2.470   2.687  12.920 -0.0405  0.3063  0.2071
 8549SOL    HW137280   2.457   2.734  13.002 -0.4321  1.2027 -0.3680
 8549SOL    HW237281   2.491   2.763  12.866  0.4699  0.8220  1.1267
 8550SOL     OW37282   0.152   0.556   7.700  0.0471  0.4767  0.1623
 8550SOL    HW137283   0.110   0.628   7.652 -1.1627 -1.3138 -1.4784
 8550SOL    HW237284   0.197   0.499   7.638  1.2144  1.2148  0.3423
 8551SOL     OW37285   0.365   0.534  12.413  0.4132 -0.4986 -0.0194
 8551SOL    HW137286   0.324   0.513  12.329  1.0292  2.9242 -1.1689
 8551SOL    HW237287   0.360   0.446  12.450  1.3676 -1.4840 -2.2263
 8552SOL     OW37288   1.598   1.724   2.279  0.3217  0.0550  0.4908
 8552SOL    HW137289   1.551   1.771   2.347  0.1485  1.8028 -0.8401
 8552SOL    HW237290   1.652   1.800   2.259 -1.2216  0.7104 -1.2342
 8553SOL     OW37291   2.940   1.502   7.585  0.1979 -0.0548  0.8126
 8553SOL    HW137292   3.016   1.516   7.528 -0.5685  0.2264 -0.1432
 8553SOL    HW237293   2.880   1.557   7.536  0.6703 -0.0272  0.2684
 8554SOL     OW37294   0.291   2.680   8.607 -0.3768  0.1618  0.4296
 8554SOL    HW137295   0.242   2.749   8.562 -1.5668 -1.7607 -1.2280
 8554SOL    HW237296   0.369   2.682   8.552 -0.7574  1.1370 -0.0692
 8555SOL     OW37297   2.619   0.383   9.141 -0.3323 -0.1533 -0.1724
 8555SOL    HW137298   2.697   0.430   9.170 -0.2041  1.0919 -2.5132
 8555SOL    HW237299   2.596   0.437   9.065 -0.6856  2.1415  1.5807
 8556SOL     OW37300   4.324   0.664   3.000 -0.3512  0.0759  0.5109
 8556SOL    HW137301   4.376   0.584   2.999 -0.2403  0.1605 -0.7946
 8556SOL    HW237302   4.303   0.676   3.093 -3.1109  0.0760 -0.1148
 8557SOL     OW37303   3.322   2.401   7.557 -0.4247  0.0863  0.0151
 8557SOL    HW137304   3.299   2.487   7.521  2.2169  0.2018 -1.4006
 8557SOL    HW237305   3.371   2.422   7.636  1.7067 -1.8526 -0.7781
 8558SOL     OW37306   0.174   3.083   1.291 -0.5668 -0.1721  0.3285
 8558SOL    HW137307   0.107   3.062   1.226 -0.7340  2.1405 -0.2173
 8558SOL    HW237308   0.224   3.155   1.255 -0.2205 -0.1961  0.7598
 8559SOL     OW37309   4.468   3.738  11.469  0.1673  0.3419  0.6043
 8559SOL    HW137310   4.381   3.699  11.481  0.3438  0.1373  1.2301
 8559SOL    HW237311   4.500   3.693  11.547 -1.6280 -1.4069  0.3380
 8560SOL     OW37312   0.113   0.863   3.793 -0.0376  0.8011  0.3116
 8560SOL    HW137313   0.170   0.876   3.868 -0.8266  0.5241  0.9639
 8560SOL    HW237314   0.123   0.935   3.731 -1.3496 -0.1428 -1.0097
 8561SOL     OW37315   3.985   1.048   5.979  0.6689  0.4101 -0.0174
 8561SOL    HW137316   4.045   1.121   5.969  2.4244 -0.9431  0.5903
 8561SOL    HW237317   3.921   1.076   6.045 -0.9290  0.7083 -1.6930
 8562SOL     OW37318   0.973   3.573   2.009  0.0461 -0.7840  0.5690
 8562SOL    HW137319   0.879   3.572   1.993  0.2155  2.3777 -0.6157
 8562SOL    HW237320   0.977   3.641   2.076  0.3356  1.9219 -2.1984
 8563SOL     OW37321   2.598   3.206  11.227 -0.4923 -0.2027 -0.6182
 8563SOL    HW137322   2.679   3.195  11.177 -0.8727 -0.4775 -1.1674
 8563SOL    HW237323   2.546   3.144  11.177 -0.8466 -0.6538  0.3283
 8564SOL     OW37324   1.670   3.426   4.775 -0.3907  0.5349  0.1172
 8564SOL    HW137325   1.672   3.332   4.791  0.1793  0.5525  0.1569
 8564SOL    HW237326   1.640   3.426   4.684 -0.5580  0.8890  0.1679
 8565SOL     OW37327   3.703   0.025   6.606 -0.0053 -0.1834  0.7964
 8565SOL    HW137328   3.776   0.071   6.563  0.1706 -0.5959  0.6589
 8565SOL    HW237329   3.734   4.672   6.601  1.3117  0.1978  2.1358
 8566SOL     OW37330   2.053   3.819   5.159 -0.5944  0.4486  0.3634
 8566SOL    HW137331   2.084   3.908   5.174  0.0993  0.0602  1.2606
 8566SOL    HW237332   2.138   3.778   5.138 -0.7185  0.4584 -0.1742
 8567SOL     OW37333   4.731   1.951   0.381 -0.0914  0.1863 -0.0050
 8567SOL    HW137334   0.085   1.962   0.407 -0.6030 -0.6650  2.1851
 8567SOL    HW237335   4.724   1.973   0.288 -2.3218  2.6811  0.7453
 8568SOL     OW37336   1.454   1.943  10.343 -0.4809 -0.8153 -0.1077
 8568SOL    HW137337   1.489   1.914  10.427  0.7862  1.6093  0.1737
 8568SOL    HW237338   1.526   1.945  10.280 -0.5539  0.9252 -0.1242
 8569SOL     OW37339   1.681   2.119   2.427  0.6035  0.2211 -0.1672
 8569SOL    HW137340   1.746   2.126   2.357 -0.4134 -1.0200 -1.2316
 8569SOL    HW237341   1.714   2.177   2.496  3.0302 -0.8354 -0.4111
 8570SOL     OW37342   0.641   1.713   3.039 -0.1582 -0.5717 -0.5269
 8570SOL    HW137343   0.710   1.668   2.990  0.0273 -1.1014  0.2188
 8570SOL    HW237344   0.690   1.751   3.111  1.1930 -2.4130 -0.4744
 8571SOL     OW37345   4.714   4.063  14.187  0.1687 -0.3352  0.4504
 8571SOL    HW137346   4.686   4.055  14.096 -2.0936  1.2366  1.0130
 8571SOL    HW237347   0.013   4.151  14.180  1.2322 -0.9368 -1.6306
 8572SOL     OW37348   1.379   2.072   2.117 -0.0947 -0.0834  0.3255
 8572SOL    HW137349   1.296   2.116   2.100  0.0956  0.1477  0.0112
 8572SOL    HW237350   1.345   1.983   2.129 -0.6160 -0.1918 -1.9570
 8573SOL     OW37351   4.012   3.803   6.162  0.1147 -0.5314 -0.3670
 8573SOL    HW137352   4.079   3.750   6.118  1.9613  3.3829 -2.2968
 8573SOL    HW237353   3.969   3.734   6.213 -0.1905  0.0568  0.1570
 8574SOL     OW37354   2.718   0.858   7.673 -0.1889  0.3918 -0.6071
 8574SOL    HW137355   2.697   0.773   7.712  2.7598 -0.4026 -0.7681
 8574SOL    HW237356   2.645   0.873   7.613 -0.8568 -1.8712 -0.3835
 8575SOL     OW37357   3.053   1.128  12.994  0.0175  0.6890  0.0867
 8575SOL    HW137358   3.079   1.043  13.030 -1.6780 -0.0161 -0.3476
 8575SOL    HW237359   2.959   1.119  13.009 -0.0345 -1.6840 -1.6295
 8576SOL     OW37360   1.048   4.718   0.535  0.2193 -0.0079 -0.0828
 8576SOL    HW137361   1.026   4.646   0.595  0.9100 -0.1864 -0.0403
 8576SOL    HW237362   0.967   0.031   0.536 -0.0843 -0.5072  0.3100
 8577SOL     OW37363   2.919   0.599   1.664 -0.0414 -0.0833  0.1182
 8577SOL    HW137364   2.962   0.660   1.722 -2.7448 -0.9833  3.0833
 8577SOL    HW237365   2.882   0.536   1.725 -2.4656 -0.2313 -1.4908
 8578SOL     OW37366   3.192   1.768   7.962  0.2514  0.5346  0.0692
 8578SOL    HW137367   3.243   1.711   8.020 -0.4749 -0.1255  0.0661
 8578SOL    HW237368   3.202   1.853   8.006  0.6292 -0.1331  1.2839
 8579SOL     OW37369   0.286   0.121  15.076 -0.1513  0.2841  0.5854
 8579SOL    HW137370   0.224   0.055  15.044  1.8594 -1.5326  0.4475
 8579SOL    HW237371   0.225   0.195  15.085  1.1030  1.4108 -0.2655
 8580SOL     OW37372   4.116   2.083   5.606  0.3455 -0.1693  0.2552
 8580SOL    HW137373   4.171   2.041   5.673 -0.1840 -2.7120 -0.8930
 8580SOL    HW237374   4.153   2.167   5.582  1.6422 -0.7815  0.0998
 8581SOL     OW37375   2.069   1.279   6.708 -0.4809 -0.4562  0.6800
 8581SOL    HW137376   2.064   1.277   6.613  1.1705  1.2263  0.5641
 8581SOL    HW237377   2.152   1.239   6.734 -0.7491 -1.5253 -0.1115
 8582SOL     OW37378   0.952   1.134   5.370 -0.1482 -0.0912 -0.4146
 8582SOL    HW137379   1.003   1.215   5.359  0.1555 -0.1329  0.6890
 8582SOL    HW237380   0.892   1.154   5.299 -0.0820  0.2783 -0.3694
 8583SOL     OW37381   4.421   2.882   7.474 -0.1626  0.5725 -0.6583
 8583SOL    HW137382   4.373   2.859   7.554  2.3810  1.3322  1.0692
 8583SOL    HW237383   4.397   2.974   7.469  1.0581  0.7738 -2.7268
 8584SOL     OW37384   2.537   2.810   8.267 -0.5232 -0.4758 -0.3723
 8584SOL    HW137385   2.569   2.778   8.351 -1.1214  0.0928  0.0731
 8584SOL    HW237386   2.602   2.880   8.261 -1.1674  0.0984 -0.7287
 8585SOL     OW37387   2.305   1.924   9.472 -0.1095 -0.5505 -0.2806
 8585SOL    HW137388   2.342   1.889   9.391  0.9000  0.4176 -0.2475
 8585SOL    HW237389   2.304   1.842   9.521 -0.6840 -0.0706  0.5104
 8586SOL     OW37390   2.840   0.933   2.654 -0.3174 -0.6279 -0.4394
 8586SOL    HW137391   2.812   0.844   2.676 -0.2930 -0.2744  1.0097
 8586SOL    HW237392   2.760   0.980   2.678 -1.1052 -1.3240 -1.6791
 8587SOL     OW37393   4.211   0.070  10.650 -0.5725  0.0385  0.1710
 8587SOL    HW137394   4.118   0.069  10.675 -0.5516  0.4968  0.2701
 8587SOL    HW237395   4.250   0.152  10.679 -0.4219  0.1397 -0.3156
 8588SOL     OW37396   1.104   0.614  10.115 -0.4302  0.0337  0.3078
 8588SOL    HW137397   1.100   0.590  10.208  0.3995  0.8779  0.5734
 8588SOL    HW237398   1.065   0.537  10.074 -0.8891 -0.2897  1.3301
 8589SOL     OW37399   3.371   2.909   6.514  0.2211  0.4214 -0.9181
 8589SOL    HW137400   3.348   2.958   6.435 -0.1164  0.8744 -0.5448
 8589SOL    HW237401   3.307   2.941   6.578  0.9645 -1.0682  0.5719
 8590SOL     OW37402   4.406   1.055   2.322  0.3060  0.2989 -0.0239
 8590SOL    HW137403   4.327   1.109   2.319  1.0018  1.3108  0.0426
 8590SOL    HW237404   4.436   1.064   2.412  1.2156 -0.2145 -0.2768
 8591SOL     OW37405   1.108   3.200  13.203  0.0444 -0.0905 -0.2094
 8591SOL    HW137406   1.032   3.256  13.189  0.1912  0.1539 -0.0495
 8591SOL    HW237407   1.143   3.246  13.280  1.1849 -1.8909  0.3557
 8592SOL     OW37408   3.650   3.471   8.593 -0.1479 -0.4476  0.3458
 8592SOL    HW137409   3.561   3.451   8.564  0.0504  2.1694 -2.0682
 8592SOL    HW237410   3.704   3.437   8.521 -1.7050  1.6736 -1.8256
 8593SOL     OW37411   3.809   2.528   0.317  0.3584 -0.6250 -0.5501
 8593SOL    HW137412   3.745   2.458   0.328 -0.9965  0.6823 -0.0043
 8593SOL    HW237413   3.797   2.551   0.225 -1.0650  0.2920 -0.1408
 8594SOL     OW37414   4.179   0.599   2.138  0.0586 -0.6119 -0.7144
 8594SOL    HW137415   4.090   0.604   2.102 -0.0292  0.1242 -0.3804
 8594SOL    HW237416   4.191   0.690   2.165 -2.6656 -1.4923  3.3507
 8595SOL     OW37417   2.512   3.697   7.570  0.0920  0.6504  0.1008
 8595SOL    HW137418   2.477   3.780   7.539 -1.0804 -0.0796 -0.4944
 8595SOL    HW237419   2.441   3.640   7.598  1.2647 -1.4670 -1.2093
 8596SOL     OW37420   1.686   2.286  17.719 -0.9601  0.6413 -0.3645
 8596SOL    HW137421   1.683   2.364  17.663 -0.3438  0.1381 -1.0978
 8596SOL    HW237422   1.599   2.247  17.722 -1.3918  1.5293 -1.1486
 8597SOL     OW37423   0.348   2.009  15.781 -0.1061 -0.3064  0.1570
 8597SOL    HW137424   0.276   2.030  15.840 -1.8181 -2.1011 -1.2969
 8597SOL    HW237425   0.298   1.985  15.703  1.5070 -0.7631 -0.7357
 8598SOL     OW37426   0.994   2.502   4.826  0.0887  0.0671  0.3753
 8598SOL    HW137427   1.023   2.414   4.804 -1.3186 -0.3895  0.3465
 8598SOL    HW237428   0.906   2.503   4.788  0.9147 -0.9864 -1.5636
 8599SOL     OW37429   2.032   0.569   2.073 -0.4282  0.2399 -0.1040
 8599SOL    HW137430   2.093   0.597   2.142 -1.9007  1.2565  0.7865
 8599SOL    HW237431   2.073   0.609   1.997  0.3830  1.6344  1.0466
 8600SOL     OW37432   0.076   3.422   8.225 -0.0825  0.3150 -0.3096
 8600SOL    HW137433   0.077   3.464   8.311 -0.5119  0.3761 -0.3316
 8600SOL    HW237434   4.734   3.445   8.176 -0.0019  1.2462  0.0086
 8601SOL     OW37435   1.617   0.882   6.392  0.2909  0.1588 -0.0172
 8601SOL    HW137436   1.533   0.911   6.359 -1.0638  0.2706  3.4764
 8601SOL    HW237437   1.656   0.969   6.394 -0.5523  0.5263  0.1261
 8602SOL     OW37438   2.076   1.812   2.806  0.4628  0.4562  0.2339
 8602SOL    HW137439   2.024   1.805   2.886 -0.2443 -0.7157 -0.3325
 8602SOL    HW237440   2.021   1.774   2.738 -1.6767  0.9163  1.7109
 8603SOL     OW37441   4.117   3.796  11.773 -0.4663  0.9173 -0.1808
 8603SOL    HW137442   4.094   3.744  11.850  0.1105  1.8928  0.6605
 8603SOL    HW237443   4.203   3.755  11.765 -1.2502 -1.0355  1.3369
 8604SOL     OW37444   4.153   3.361   5.940  0.1557 -0.5979 -0.2098
 8604SOL    HW137445   4.092   3.310   5.887  0.4568 -0.0425 -1.0895
 8604SOL    HW237446   4.116   3.447   5.923  1.3232 -0.2690 -1.0715
 8605SOL     OW37447   1.189   1.828   0.238  0.0470 -0.1980  0.1045
 8605SOL    HW137448   1.223   1.769   0.305 -0.7755  0.5704  1.1882
 8605SOL    HW237449   1.095   1.810   0.234  0.1945 -1.4775  2.6178
 8606SOL     OW37450   0.033   1.941   4.326  0.3200 -0.0834  0.2745
 8606SOL    HW137451   0.081   2.021   4.306 -0.8859  0.3128 -1.0350
 8606SOL    HW237452   0.081   1.867   4.288  1.3996  1.4782 -1.3939
 8607SOL     OW37453   0.795   2.791   3.969  0.1645  0.0078 -0.8355
 8607SOL    HW137454   0.836   2.721   3.917  0.9086 -1.6541  1.9830
 8607SOL    HW237455   0.843   2.862   3.925 -0.2185  0.9897  0.3272
 8608SOL     OW37456   0.246   0.861  13.249  0.6687 -0.0422 -0.1297
 8608SOL    HW137457   0.276   0.885  13.162 -1.0175  0.3297 -0.6058
 8608SOL    HW237458   0.194   0.781  13.236 -0.4716  0.5661  0.6938
 8609SOL     OW37459   4.309   3.651   2.232 -0.2084  0.0106  0.2765
 8609SOL    HW137460   4.260   3.569   2.242  1.9631 -1.1517  1.3508
 8609SOL    HW237461   4.236   3.708   2.207 -0.0193 -0.3334 -1.0956
 8610SOL     OW37462   3.683   3.722   5.026 -0.4173 -0.2815 -0.3299
 8610SOL    HW137463   3.742   3.778   5.076 -0.5318 -0.0847 -0.4133
 8610SOL    HW237464   3.687   3.646   5.083 -2.3007 -0.1077  0.0485
 8611SOL     OW37465   3.763   1.007   4.917 -0.7253  0.5744 -0.9341
 8611SOL    HW137466   3.812   1.039   4.993 -0.1559  2.2156 -1.9970
 8611SOL    HW237467   3.813   1.044   4.844  1.1502 -0.5073 -0.1903
 8612SOL     OW37468   3.295   3.693   5.320 -0.2613 -0.7688  0.1635
 8612SOL    HW137469   3.369   3.730   5.367 -0.8797  0.6035  0.0610
 8612SOL    HW237470   3.217   3.707   5.374 -1.8454 -1.3428 -1.9864
 8613SOL     OW37471   3.502   0.665  12.699  0.9685 -0.2128 -0.6549
 8613SOL    HW137472   3.504   0.600  12.628  2.8324 -2.1845  1.1962
 8613SOL    HW237473   3.487   0.611  12.777 -0.0930 -0.1634 -0.8290
 8614SOL     OW37474   3.484   1.365   6.147 -0.0440 -0.0259 -0.3224
 8614SOL    HW137475   3.520   1.442   6.190  0.5732 -0.4551 -0.0793
 8614SOL    HW237476   3.404   1.355   6.200 -0.4831  0.6860 -0.8549
 8615SOL     OW37477   3.477   1.319   3.951 -0.7485 -0.2390  0.4202
 8615SOL    HW137478   3.390   1.280   3.945 -0.9166  0.0752  0.8231
 8615SOL    HW237479   3.537   1.250   3.923 -1.5261 -1.3585  1.4800
 8616SOL     OW37480   1.414   2.853  12.212  0.1390  0.0744  0.1265
 8616SOL    HW137481   1.368   2.882  12.133 -1.3929 -0.8892  0.6525
 8616SOL    HW237482   1.429   2.936  12.257  2.0171  0.1169 -0.5755
 8617SOL     OW37483   1.898   1.326   5.227 -0.0136  0.2327 -0.1908
 8617SOL    HW137484   1.892   1.260   5.296  2.1452  1.3620  1.0770
 8617SOL    HW237485   1.978   1.297   5.183  1.3062  1.1623  1.5607
 8618SOL     OW37486   2.294   4.414   1.983  0.0011 -0.4368  0.1408
 8618SOL    HW137487   2.278   4.508   1.976 -2.3960 -1.0822 -2.8725
 8618SOL    HW237488   2.351   4.393   1.910 -0.7874  1.2482 -0.9411
 8619SOL     OW37489   1.517   2.605   5.444  0.1726 -0.0364  0.0889
 8619SOL    HW137490   1.454   2.547   5.487 -0.7364  0.2897 -0.7859
 8619SOL    HW237491   1.499   2.583   5.352  0.7117 -1.2924  0.2859
 8620SOL     OW37492   4.467   4.064  14.347 -0.4723 -0.2522  0.4256
 8620SOL    HW137493   4.487   3.971  14.337  2.1832  0.2366  1.1564
 8620SOL    HW237494   4.547   4.101  14.309 -0.5474 -1.3180 -0.7461
 8621SOL     OW37495   3.450   1.803  11.088  0.0404 -0.3873  0.3809
 8621SOL    HW137496   3.474   1.859  11.163  2.1604  1.0232 -1.3443
 8621SOL    HW237497   3.428   1.865  11.018  0.8600 -0.1674  0.3101
 8622SOL     OW37498   2.004   1.361   5.561  0.0555 -0.2310 -0.0959
 8622SOL    HW137499   2.071   1.377   5.495  1.9156  0.4937  1.9364
 8622SOL    HW237500   1.965   1.287   5.515  1.9747 -0.4403 -1.3781
 8623SOL     OW37501   3.207   1.065  17.139 -0.0706  0.0000  0.1387
 8623SOL    HW137502   3.273   1.111  17.087 -0.2469  0.1329  0.0300
 8623SOL    HW237503   3.272   1.027  17.197  0.6070  2.2884  0.8889
 8624SOL     OW37504   3.768   3.326   8.395 -0.4326 -0.6178 -0.0396
 8624SOL    HW137505   3.803   3.360   8.313  1.3451  0.1360  1.0410
 8624SOL    HW237506   3.683   3.295   8.363 -1.6533 -0.2230  2.7943
 8625SOL     OW37507   1.255   2.110   2.447  0.9247 -0.0912  0.2684
 8625SOL    HW137508   1.243   2.178   2.381  0.6013 -1.0586 -0.6672
 8625SOL    HW237509   1.173   2.066   2.425  0.7572  1.1486 -1.4681
 8626SOL     OW37510   0.410   4.129   8.567  0.6219  0.0224 -0.1850
 8626SOL    HW137511   0.454   4.209   8.536 -0.4277  0.3490 -0.8419
 8626SOL    HW237512   0.459   4.097   8.642  0.8597 -1.2443 -0.8833
 8627SOL     OW37513   1.677   1.738   6.954  0.1402 -0.0205 -0.5130
 8627SOL    HW137514   1.700   1.648   6.977 -0.0883 -0.7402 -3.1133
 8627SOL    HW237515   1.764   1.768   6.928  0.4449 -0.4081  0.0693
 8628SOL     OW37516   4.687   2.396   8.437  0.4422 -0.2138 -0.0711
 8628SOL    HW137517   4.723   2.422   8.522 -0.9573  0.3592  0.3470
 8628SOL    HW237518   0.011   2.337   8.393  0.0817 -0.2345 -0.5432
 8629SOL     OW37519   2.662   2.120  13.468 -1.0935 -0.1785  0.0481
 8629SOL    HW137520   2.624   2.164  13.392 -1.2080 -2.3059 -1.1279
 8629SOL    HW237521   2.724   2.187  13.497 -0.7108 -0.5803  0.1526
 8630SOL     OW37522   1.220   1.526  17.109  0.0354 -0.0371  0.5051
 8630SOL    HW137523   1.132   1.564  17.119  0.6869  1.3769  0.8097
 8630SOL    HW237524   1.211   1.489  17.021 -2.7952 -0.0438  0.7766
 8631SOL     OW37525   0.939   3.160  13.639  0.1907  0.5667  0.2108
 8631SOL    HW137526   0.899   3.187  13.722 -2.2795  0.4478 -0.9471
 8631SOL    HW237527   0.911   3.070  13.652  0.1444  0.1713 -2.5384
 8632SOL     OW37528   1.094   3.960   4.477 -0.5226  0.2962  0.1451
 8632SOL    HW137529   1.127   3.896   4.414 -1.2917  1.4553 -1.4063
 8632SOL    HW237530   1.014   3.984   4.432 -0.7229 -2.1918 -0.7830
 8633SOL     OW37531   2.636   2.555   9.112 -0.3747 -0.7172  0.3778
 8633SOL    HW137532   2.622   2.461   9.101 -1.4923 -0.2436 -2.1972
 8633SOL    HW237533   2.724   2.576   9.080 -0.7412 -0.8535 -0.7116
 8634SOL     OW37534   0.548   1.392   5.119  0.3997 -0.1213 -0.1625
 8634SOL    HW137535   0.560   1.342   5.038  0.0258  1.1314 -0.9880
 8634SOL    HW237536   0.498   1.337   5.180 -1.5831  0.1927 -1.5192
 8635SOL     OW37537   3.818   2.220  14.965 -0.0973  0.0176 -0.1757
 8635SOL    HW137538   3.760   2.296  14.976  0.1137  0.2186 -0.4549
 8635SOL    HW237539   3.760   2.145  14.957  0.4451 -0.2037 -2.0422
 8636SOL     OW37540   0.657   4.577   0.783  0.1139 -0.3397  0.4989
 8636SOL    HW137541   0.622   4.640   0.720  0.7566  1.1624  1.6279
 8636SOL    HW237542   0.599   4.598   0.857 -1.3298 -0.8469 -0.4854
 8637SOL     OW37543   0.723   0.210   0.778  0.6642  0.5766  0.1552
 8637SOL    HW137544   0.730   0.286   0.836  0.4968  0.3606  0.4585
 8637SOL    HW237545   0.628   0.204   0.772  0.7226 -0.2761  0.0366
 8638SOL     OW37546   4.348   2.283   6.029  0.7807  0.1423 -0.3613
 8638SOL    HW137547   4.419   2.243   6.079  0.6281 -0.6333 -0.7779
 8638SOL    HW237548   4.398   2.313   5.953 -0.0809  0.9631 -0.6051
 8639SOL     OW37549   0.117   0.047   7.335  0.1735  0.0166  0.2975
 8639SOL    HW137550   0.067   0.125   7.309  0.1887 -0.0314  0.1248
 8639SOL    HW237551   0.129   0.078   7.425 -1.7888  1.2569  0.1280
 8640SOL     OW37552   3.274   3.071   5.634 -0.2386  0.2292 -0.3269
 8640SOL    HW137553   3.226   3.006   5.685 -1.1274 -1.1004 -2.8620
 8640SOL    HW237554   3.250   3.062   5.542  0.9841 -0.5754 -0.5719
 8641SOL     OW37555   3.911   3.368  10.699 -0.0622  0.3017  0.0558
 8641SOL    HW137556   3.823   3.404  10.686 -0.8875 -1.4827  0.7938
 8641SOL    HW237557   3.963   3.425  10.641  0.6666 -1.5404 -1.1073
 8642SOL     OW37558   0.350   2.237   4.527 -0.0639 -0.0704  0.4803
 8642SOL    HW137559   0.350   2.195   4.613  2.9056 -0.6995  0.1541
 8642SOL    HW237560   0.289   2.307   4.552 -0.1114 -0.7470  2.2812
 8643SOL     OW37561   1.722   2.179   5.883  0.4683 -0.2949  0.7390
 8643SOL    HW137562   1.633   2.143   5.881  0.5456 -0.4740  0.5139
 8643SOL    HW237563   1.775   2.114   5.836 -0.5043  0.3228 -1.2182
 8644SOL     OW37564   4.599   4.321   0.860  0.5595 -0.5575 -0.9916
 8644SOL    HW137565   4.515   4.323   0.815 -0.0482  1.6937  0.2443
 8644SOL    HW237566   4.595   4.231   0.893  3.1478 -1.4483 -3.0801
 8645SOL     OW37567   2.516   3.612   6.351  0.0821 -0.9812  0.5006
 8645SOL    HW137568   2.590   3.557   6.378  0.0400 -0.6085  1.3760
 8645SOL    HW237569   2.438   3.556   6.351  0.2503 -1.2165 -1.2017
 8646SOL     OW37570   0.466   3.111  12.998  0.2690 -0.1242 -0.3046
 8646SOL    HW137571   0.558   3.116  13.023  0.5427 -2.3981 -0.8328
 8646SOL    HW237572   0.480   3.100  12.904 -0.7157  2.5475 -0.7613
 8647SOL     OW37573   3.856   3.752   8.452 -0.3652  0.3188  0.9350
 8647SOL    HW137574   3.771   3.726   8.417 -0.6831  0.3419  1.7080
 8647SOL    HW237575   3.903   3.672   8.428  1.3157  1.6176 -0.1315
 8648SOL     OW37576   4.371   4.054   3.612  0.1675  0.1675  0.0852
 8648SOL    HW137577   4.315   3.977   3.618  1.2860 -0.6082  0.7083
 8648SOL    HW237578   4.301   4.113   3.583 -2.1869 -1.7695  1.8456
 8649SOL     OW37579   3.680   0.009   5.087  0.0706 -0.6638  0.4971
 8649SOL    HW137580   3.713   0.028   5.175  0.1329  1.8813 -0.0789
 8649SOL    HW237581   3.681   0.099   5.054  2.4211 -0.9582 -0.2375
 8650SOL     OW37582   4.476   0.330   8.437  0.2437  0.1883  0.0356
 8650SOL    HW137583   4.419   0.337   8.514 -0.0003  2.6849 -0.3731
 8650SOL    HW237584   4.416   0.302   8.368  1.1368 -1.0774 -0.2327
 8651SOL     OW37585   1.195   2.276  13.581 -0.1607  0.2496 -0.7482
 8651SOL    HW137586   1.218   2.281  13.674  0.4943 -1.4959 -0.8011
 8651SOL    HW237587   1.241   2.194  13.564  0.4487  0.6768 -1.1363
 8652SOL     OW37588   3.003   4.045  13.157  0.2412  0.1845  0.3540
 8652SOL    HW137589   2.973   3.973  13.101 -1.7097  1.0641  0.2623
 8652SOL    HW237590   3.041   4.104  13.093 -0.1533 -1.1119 -1.0725
 8653SOL     OW37591   1.383   0.938   5.011  0.8276 -0.4642 -0.2861
 8653SOL    HW137592   1.391   1.021   4.964  2.7638 -0.1711  0.5571
 8653SOL    HW237593   1.307   0.948   5.068  1.0472 -1.1190  0.1187
 8654SOL     OW37594   4.139   1.298   2.046  0.5559 -0.6514 -0.4977
 8654SOL    HW137595   4.188   1.375   2.019  0.9228 -0.4370  0.8112
 8654SOL    HW237596   4.115   1.257   1.963 -1.4388 -0.0715 -0.2254
 8655SOL     OW37597   0.658   3.279   3.629  0.1375 -0.5502  0.1956
 8655SOL    HW137598   0.651   3.193   3.671  0.8881 -2.0987 -2.8874
 8655SOL    HW237599   0.747   3.300   3.599 -0.6533  1.6310 -0.6145
 8656SOL     OW37600   4.089   2.058  13.483 -0.1140  0.0952 -0.6313
 8656SOL    HW137601   4.123   2.021  13.564 -1.0317 -0.9608 -0.7261
 8656SOL    HW237602   4.033   1.984  13.459  1.4689 -1.1179 -0.5824
 8657SOL     OW37603   1.136   1.018   2.971  0.7350 -0.5320 -0.0546
 8657SOL    HW137604   1.058   0.968   2.990 -0.0798  0.3022 -1.1613
 8657SOL    HW237605   1.135   1.006   2.876  2.1870  0.8940 -0.2606
 8658SOL     OW37606   4.202   0.527   1.586  0.1568  0.2766 -0.1252
 8658SOL    HW137607   4.144   0.545   1.512  1.6119  0.8610 -1.1259
 8658SOL    HW237608   4.205   0.431   1.585  1.3783  0.3180 -0.0979
 8659SOL     OW37609   0.952   2.492  13.155 -0.3338  0.2570 -0.0645
 8659SOL    HW137610   0.955   2.405  13.114  1.4064 -1.1062  2.9193
 8659SOL    HW237611   0.985   2.474  13.243  0.2311 -0.6690 -0.4693
 8660SOL     OW37612   0.965   3.718   6.883 -0.2126  0.0586  0.3423
 8660SOL    HW137613   0.962   3.644   6.944 -1.3710  0.7485  1.1050
 8660SOL    HW237614   1.041   3.688   6.832 -2.3880  0.2508 -2.9684
 8661SOL     OW37615   0.761   1.894   4.411  0.4242 -0.0858  0.1543
 8661SOL    HW137616   0.722   1.922   4.328 -0.7610 -0.0179  0.7420
 8661SOL    HW237617   0.822   1.830   4.374 -1.4810 -1.9407  0.1621
 8662SOL     OW37618   0.655   2.730  11.529  0.2524 -0.7845 -0.4967
 8662SOL    HW137619   0.657   2.825  11.517  0.7391 -0.6549  0.6674
 8662SOL    HW237620   0.728   2.700  11.474  2.1614 -0.1921  1.7272
 8663SOL     OW37621   4.081   0.620   2.930  0.5116  0.0223  0.3163
 8663SOL    HW137622   4.176   0.625   2.945  0.5697  0.9855 -0.3258
 8663SOL    HW237623   4.060   0.653   3.017  0.4218  1.8651 -0.3973
 8664SOL     OW37624   3.799   0.762  15.584  1.1934 -0.1304  0.2390
 8664SOL    HW137625   3.883   0.756  15.539  0.9771 -2.1507  0.1282
 8664SOL    HW237626   3.767   0.840  15.539  0.4054 -0.4718  0.2131
 8665SOL     OW37627   2.223   0.492  11.779  0.4794 -0.2763  0.1742
 8665SOL    HW137628   2.149   0.432  11.773  0.0233  0.4054 -1.0998
 8665SOL    HW237629   2.193   0.541  11.856  5.0876 -0.3719  2.0349
 8666SOL     OW37630   4.179   2.076   2.812 -0.0650 -0.0108  0.2692
 8666SOL    HW137631   4.258   2.065   2.759  0.5822 -0.6319  1.3509
 8666SOL    HW237632   4.139   2.153   2.772 -2.0015 -1.5592 -0.7698
 8667SOL     OW37633   1.545   2.902   3.708 -0.3699 -0.1507 -0.4240
 8667SOL    HW137634   1.594   2.821   3.690  1.4926  1.3558 -2.0913
 8667SOL    HW237635   1.455   2.869   3.705 -0.0897 -0.8843 -1.0966
 8668SOL     OW37636   2.847   2.715   1.263  0.3663  0.3718  0.6741
 8668SOL    HW137637   2.884   2.753   1.343 -0.7013 -0.9431  1.8029
 8668SOL    HW237638   2.834   2.799   1.220  2.2434 -0.5077 -1.6173
 8669SOL     OW37639   4.237   1.745  10.568  0.3891  0.4181  0.1620
 8669SOL    HW137640   4.247   1.718  10.660 -0.6874  2.1068  0.7726
 8669SOL    HW237641   4.146   1.722  10.548  0.7619 -2.0011  1.2184
 8670SOL     OW37642   4.017   1.352  16.902 -0.7766  0.2573  0.4800
 8670SOL    HW137643   3.936   1.382  16.860 -0.9658 -1.1616 -0.1669
 8670SOL    HW237644   4.058   1.331  16.818 -1.9970  0.2514 -0.1135
 8671SOL     OW37645   4.589   0.690   8.725 -0.2762 -0.1352  0.0337
 8671SOL    HW137646   4.634   0.651   8.649  1.6697  1.2924  0.4558
 8671SOL    HW237647   4.549   0.764   8.680 -0.4904 -1.1975 -1.5506
 8672SOL     OW37648   3.431   2.175   8.919  0.3706 -0.2228 -0.6310
 8672SOL    HW137649   3.486   2.097   8.928  0.4557 -0.0684  0.2467
 8672SOL    HW237650   3.402   2.189   9.009 -0.6196 -0.5820 -0.8998
 8673SOL     OW37651   0.733   3.983  15.656 -0.1719  0.0774 -0.0886
 8673SOL    HW137652   0.678   4.030  15.593  0.0966 -1.4993 -1.5051
 8673SOL    HW237653   0.821   4.015  15.635  0.2166 -0.1334  1.2368
 8674SOL     OW37654   0.793   1.565   0.054 -0.3210 -0.2911 -0.2864
 8674SOL    HW137655   0.796   1.482   0.101  1.1767 -0.7446 -1.1603
 8674SOL    HW237656   0.853   1.546  17.727 -0.6145 -1.0708 -0.3301
 8675SOL     OW37657   3.286   2.668   6.616 -0.0118  0.0376 -0.1132
 8675SOL    HW137658   3.312   2.757   6.591  0.5039  0.2941  1.3117
 8675SOL    HW237659   3.274   2.629   6.530 -2.1576  0.6634 -0.0872
 8676SOL     OW37660   2.116   4.430  17.279 -0.1449 -0.6030  0.3262
 8676SOL    HW137661   2.147   4.437  17.369 -0.1611 -3.7637  0.5527
 8676SOL    HW237662   2.022   4.448  17.280  0.0047  0.4217 -1.9877
 8677SOL     OW37663   0.354   4.382   0.927 -0.1464  0.1682  0.0652
 8677SOL    HW137664   0.295   4.307   0.929 -0.5216  0.4962  1.3224
 8677SOL    HW237665   0.308   4.441   0.868 -1.2149  0.2708  1.0015
 8678SOL     OW37666   1.729   3.249   5.666 -0.0201  0.2458  0.1892
 8678SOL    HW137667   1.721   3.265   5.572  0.3472  0.5846  0.2115
 8678SOL    HW237668   1.813   3.203   5.655 -0.4673  0.0133 -2.2026
 8679SOL     OW37669   2.176   0.820  14.199 -0.6939  0.2042  0.4839
 8679SOL    HW137670   2.211   0.733  14.215 -2.5981 -0.5415  0.6216
 8679SOL    HW237671   2.245   0.883  14.221  1.2004 -2.5555  2.4511
 8680SOL     OW37672   0.608   3.662   2.462 -0.0221  0.4666  0.5284
 8680SOL    HW137673   0.586   3.582   2.415  0.3478  0.0297  1.1054
 8680SOL    HW237674   0.550   3.727   2.421 -2.0870 -2.3176 -0.9535
 8681SOL     OW37675   4.573   3.558   1.457  0.1228  0.4472 -0.6485
 8681SOL    HW137676   4.595   3.469   1.486  0.7628  1.3999  1.8017
 8681SOL    HW237677   4.512   3.579   1.528  0.8116  2.7661 -0.7574
 8682SOL     OW37678   0.326   1.940   8.756 -0.1388  0.6587  0.3905
 8682SOL    HW137679   0.278   1.890   8.821 -2.2977  1.9426 -0.2429
 8682SOL    HW237680   0.413   1.902   8.771  0.1357  0.6265 -1.2635
 8683SOL     OW37681   4.019   0.267  10.932  0.3580  0.9047  0.1547
 8683SOL    HW137682   4.098   0.286  10.982 -0.0045  0.0613  1.0529
 8683SOL    HW237683   3.958   0.338  10.949 -0.6661  0.1406 -0.3310
 8684SOL     OW37684   2.043   0.949  11.126 -0.2673  0.2176  0.1593
 8684SOL    HW137685   2.117   0.995  11.088 -0.7778 -0.8503 -2.0956
 8684SOL    HW237686   1.999   1.020  11.173  0.3271  0.1862  0.7706
 8685SOL     OW37687   2.300   0.296   5.738  0.5239  0.4922  0.0806
 8685SOL    HW137688   2.348   0.247   5.671 -1.1648  0.3521 -1.0165
 8685SOL    HW237689   2.237   0.354   5.696  2.1320  1.1457 -1.4178
 8686SOL     OW37690   3.520   1.917  11.314 -0.2661  0.8111 -0.6409
 8686SOL    HW137691   3.547   1.888  11.401 -0.9983 -1.9821 -1.3625
 8686SOL    HW237692   3.551   2.008  11.307 -1.3420  1.4204  2.5299
 8687SOL     OW37693   2.951   4.290   7.450  0.6113  0.0829 -0.3372
 8687SOL    HW137694   2.895   4.219   7.423  1.4479 -0.7356  0.0625
 8687SOL    HW237695   2.914   4.360   7.397  0.1193  0.9436  1.1323
 8688SOL     OW37696   2.656   3.753   7.122  0.7202 -0.0640  0.3788
 8688SOL    HW137697   2.716   3.731   7.051  3.2819  0.0470  2.4987
 8688SOL    HW237698   2.620   3.839   7.102 -0.7246 -0.7868 -0.0975
 8689SOL     OW37699   3.958   3.271  13.305 -0.6862 -0.2303 -0.3074
 8689SOL    HW137700   4.006   3.192  13.281 -0.5475 -0.8647  2.1339
 8689SOL    HW237701   3.869   3.245  13.280 -1.2078 -0.1576  1.4853
 8690SOL     OW37702   3.448   3.132   5.838  0.7164 -0.8218 -0.5977
 8690SOL    HW137703   3.448   3.038   5.857 -0.1223 -0.4560  1.2009
 8690SOL    HW237704   3.386   3.143   5.766  0.8297  1.6261 -0.3177
 8691SOL     OW37705   4.216   2.265   4.177  0.6830 -0.1804 -0.4921
 8691SOL    HW137706   4.250   2.349   4.148 -0.0376  0.0108 -0.7782
 8691SOL    HW237707   4.163   2.242   4.101  1.0735 -1.0333 -0.5130
 8692SOL     OW37708   1.313   3.161   3.881 -0.5007 -0.1640 -0.1548
 8692SOL    HW137709   1.271   3.091   3.931  1.7004  0.2234  2.1839
 8692SOL    HW237710   1.378   3.193   3.944 -0.1976 -0.4143 -0.3425
 8693SOL     OW37711   1.783   4.296   7.547  0.0114  0.2081 -0.6468
 8693SOL    HW137712   1.823   4.366   7.598  1.2576 -0.5975 -0.5343
 8693SOL    HW237713   1.743   4.345   7.475 -2.7282 -0.6542  0.3015
 8694SOL     OW37714   1.329   1.800   5.171 -0.1818  0.8068  0.1212
 8694SOL    HW137715   1.371   1.774   5.089 -0.3790 -0.1267  0.3183
 8694SOL    HW237716   1.265   1.731   5.189  1.5905 -0.1411  2.7310
 8695SOL     OW37717   1.142   2.703  13.434  0.6803 -0.1690 -0.3810
 8695SOL    HW137718   1.191   2.781  13.460  1.4295 -1.3822  1.8165
 8695SOL    HW237719   1.160   2.641  13.504 -2.2283  1.2142  1.6182
 8696SOL     OW37720   2.982   1.894   6.815 -0.0628  0.5312 -0.3872
 8696SOL    HW137721   3.042   1.837   6.864  1.3677  1.5774 -0.8998
 8696SOL    HW237722   3.011   1.981   6.842 -4.0067  1.2113  1.5652
 8697SOL     OW37723   1.190   0.206   4.414  0.2894 -0.0038 -0.3878
 8697SOL    HW137724   1.106   0.162   4.400  0.1660  0.0601  0.1442
 8697SOL    HW237725   1.181   0.224   4.508 -0.2318 -0.5085 -0.3379
 8698SOL     OW37726   3.631   1.217  16.867  0.4864 -0.2617  0.2615
 8698SOL    HW137727   3.665   1.295  16.912  2.9868 -1.3473  0.2591
 8698SOL    HW237728   3.666   1.238  16.781  1.7127 -0.7193  0.6486
 8699SOL     OW37729   4.461   1.310   5.442 -0.0944 -0.2672 -0.1152
 8699SOL    HW137730   4.556   1.315   5.450  0.0983 -0.9310 -2.1978
 8699SOL    HW237731   4.437   1.379   5.380  2.7452  2.7020  2.0287
 8700SOL     OW37732   2.464   1.505   3.229 -0.6367 -0.4144 -0.5662
 8700SOL    HW137733   2.516   1.429   3.253  0.2323  0.3225 -0.1077
 8700SOL    HW237734   2.386   1.464   3.191  0.6042 -3.1830 -0.1111
 8701SOL     OW37735   0.870   0.201  10.665  0.0924  0.8436 -0.4390
 8701SOL    HW137736   0.875   0.126  10.724 -0.0443  2.1311  1.1855
 8701SOL    HW237737   0.812   0.251  10.721  1.8080  2.2164  0.1130
 8702SOL     OW37738   3.255   2.909   4.976  0.1556  0.8389 -0.2140
 8702SOL    HW137739   3.308   2.916   5.055 -2.3811 -1.3559  1.6720
 8702SOL    HW237740   3.333   2.890   4.923 -0.3541  0.3272 -0.7826
 8703SOL     OW37741   1.699   2.577   3.233 -0.7535 -0.0742 -0.2440
 8703SOL    HW137742   1.712   2.551   3.142  0.3535 -0.0128 -0.1019
 8703SOL    HW237743   1.708   2.671   3.217  0.0152 -0.1672 -0.3419
 8704SOL     OW37744   0.047   1.616   7.466  0.1548 -0.3345  0.5000
 8704SOL    HW137745   4.730   1.637   7.542 -0.9134 -0.9858 -0.0681
 8704SOL    HW237746   4.709   1.608   7.407  0.0002  0.6140  0.5555
 8705SOL     OW37747   1.541   2.014   9.033  0.6103 -0.0969 -0.2602
 8705SOL    HW137748   1.580   2.083   8.980  2.3091  0.2393  1.4151
 8705SOL    HW237749   1.451   2.046   9.039  0.1439 -1.3323 -0.5089
 8706SOL     OW37750   3.358   0.772   3.093  0.7515  0.7947 -0.0266
 8706SOL    HW137751   3.396   0.704   3.038 -0.6131 -1.5334  1.8883
 8706SOL    HW237752   3.283   0.722   3.125  0.1839  1.3470 -0.5067
 8707SOL     OW37753   2.599   1.647  10.392 -0.0215  0.0837 -0.2314
 8707SOL    HW137754   2.568   1.629  10.481 -1.7401  0.6362 -0.7290
 8707SOL    HW237755   2.661   1.719  10.407  0.4535  0.0487 -2.0123
 8708SOL     OW37756   4.614   2.849   8.429  0.4048  0.4438  0.3039
 8708SOL    HW137757   4.616   2.789   8.355 -0.9671  1.5625 -0.6336
 8708SOL    HW237758   4.542   2.817   8.483  1.7463  2.4955  3.3829
 8709SOL     OW37759   0.216   4.649   7.694  0.1472  0.4046  0.3301
 8709SOL    HW137760   0.263   4.728   7.667  0.9378 -0.4689 -0.8761
 8709SOL    HW237761   0.127   4.670   7.666 -0.0234 -0.8876 -0.1006
 8710SOL     OW37762   3.647   3.754   4.766  0.2955 -0.6569 -0.0619
 8710SOL    HW137763   3.675   3.736   4.855  0.2378  0.3548  0.1498
 8710SOL    HW237764   3.716   3.695   4.734  0.0694 -1.3561  0.7485
 8711SOL     OW37765   1.500   4.140  13.097 -0.8486 -0.3271 -0.5446
 8711SOL    HW137766   1.588   4.175  13.113 -0.7754 -0.7192 -0.0691
 8711SOL    HW237767   1.505   4.047  13.119  2.5480 -0.2136 -0.7736
 8712SOL     OW37768   4.521   2.832  17.180  0.2099  0.3764  0.2650
 8712SOL    HW137769   4.512   2.856  17.272  1.4757 -2.6226  1.1526
 8712SOL    HW237770   4.520   2.736  17.180  2.2321  0.3479  3.3343
 8713SOL     OW37771   0.354   1.390   1.080  0.1792  0.3269  0.3889
 8713SOL    HW137772   0.311   1.372   0.996  3.5521 -1.2797 -1.0060
 8713SOL    HW237773   0.313   1.469   1.115  1.4920  2.2115 -2.3727
 8714SOL     OW37774   1.677   3.082   3.866  0.4501  0.1294  0.2940
 8714SOL    HW137775   1.754   3.037   3.832  1.0499  1.3198  0.0913
 8714SOL    HW237776   1.617   3.039   3.805  0.3922 -0.8506  1.0365
 8715SOL     OW37777   2.920   3.479   7.828 -0.3877  0.0278 -0.3365
 8715SOL    HW137778   2.924   3.385   7.846 -1.0832  0.5651  2.5508
 8715SOL    HW237779   2.979   3.481   7.753  0.1380 -0.8379  0.0567
 8716SOL     OW37780   0.159   1.590   8.193  1.0454 -0.1316  0.3048
 8716SOL    HW137781   0.200   1.533   8.258 -1.3262  0.4798  2.3408
 8716SOL    HW237782   0.195   1.559   8.110  0.1494 -0.9312  0.2163
 8717SOL     OW37783   2.317   0.678   4.813  0.1033  0.4590  0.0790
 8717SOL    HW137784   2.240   0.726   4.843 -2.0022 -2.2292 -1.0034
 8717SOL    HW237785   2.286   0.587   4.819  3.0214 -0.5692 -0.5179
 8718SOL     OW37786   3.513   3.813   6.981  0.1314  0.3172  0.3176
 8718SOL    HW137787   3.475   3.769   7.058 -1.3042  0.9632 -0.0196
 8718SOL    HW237788   3.601   3.826   7.015  0.3893 -1.0094  0.1746
 8719SOL     OW37789   1.718   2.869   3.292  0.1344  0.7018 -0.3592
 8719SOL    HW137790   1.746   2.888   3.203 -2.0244 -0.5193 -1.2993
 8719SOL    HW237791   1.660   2.944   3.307 -0.4592  0.2692 -0.4588
 8720SOL     OW37792   0.635   0.986  14.463  0.3692 -0.0997 -0.0074
 8720SOL    HW137793   0.545   1.016  14.476  0.2074 -0.7417  0.3853
 8720SOL    HW237794   0.663   0.944  14.545  0.6109 -0.7031 -0.3961
 8721SOL     OW37795   2.311   1.782  10.263  0.0826  0.1479 -0.2094
 8721SOL    HW137796   2.236   1.839  10.278 -1.5074 -1.9321 -0.2977
 8721SOL    HW237797   2.377   1.835  10.308  1.0809 -1.3085  0.0564
 8722SOL     OW37798   1.209   0.342   7.290 -0.4124  0.6626 -0.3019
 8722SOL    HW137799   1.298   0.307   7.288 -0.3339  0.8156  0.3683
 8722SOL    HW237800   1.170   0.277   7.232  1.0845 -1.1627  0.7618
 8723SOL     OW37801   1.109   3.285  13.448  0.2246  0.0891  0.6567
 8723SOL    HW137802   1.050   3.251  13.515  0.1895  0.0708  0.6165
 8723SOL    HW237803   1.078   3.375  13.433 -3.3435 -1.1248  0.7089
 8724SOL     OW37804   2.659   0.095   5.300  0.1540  0.0701  0.0412
 8724SOL    HW137805   2.602   0.023   5.272 -0.6842  0.9694 -0.5729
 8724SOL    HW237806   2.686   0.079   5.391  2.0951  3.1940  0.0312
 8725SOL     OW37807   2.787   3.256   7.748 -0.1444  0.2429  0.0817
 8725SOL    HW137808   2.704   3.301   7.767  1.0111  2.0265  0.9636
 8725SOL    HW237809   2.791   3.258   7.653 -2.1196  2.2270  0.0297
 8726SOL     OW37810   3.283   4.379   2.825  0.3195  0.5710 -0.0333
 8726SOL    HW137811   3.313   4.353   2.912  1.3917  1.4746 -0.1237
 8726SOL    HW237812   3.327   4.465   2.821 -2.4561  2.0565  2.0415
 8727SOL     OW37813   3.633   0.155  12.466 -0.0593  0.4439  0.4159
 8727SOL    HW137814   3.665   0.244  12.478  0.1073  0.5854 -1.0357
 8727SOL    HW237815   3.545   0.178  12.438 -0.1726 -0.7780 -0.2446
 8728SOL     OW37816   2.781   3.344   2.149 -0.2879 -0.2147 -0.1987
 8728SOL    HW137817   2.769   3.390   2.066 -0.2027 -0.1064 -0.1506
 8728SOL    HW237818   2.865   3.380   2.175  0.1887 -2.2257  1.0622
 8729SOL     OW37819   3.223   1.230   8.777  0.7941  0.0083 -0.2336
 8729SOL    HW137820   3.275   1.169   8.829 -0.0231 -0.2319  0.3107
 8729SOL    HW237821   3.292   1.280   8.734  1.5607 -0.9760 -0.1522
 8730SOL     OW37822   0.190   4.337  10.879  0.5702  0.0421 -0.4493
 8730SOL    HW137823   0.186   4.244  10.900 -2.4956  0.4067  0.5960
 8730SOL    HW237824   0.282   4.360  10.871  0.2989  1.3178 -0.0240
 8731SOL     OW37825   0.323   0.265   9.539 -0.2399  0.0746  0.1312
 8731SOL    HW137826   0.331   0.347   9.589 -1.0666  0.5534 -0.5195
 8731SOL    HW237827   0.235   0.236   9.563 -1.0120  2.5579  0.3662
 8732SOL     OW37828   0.269   2.562   6.696 -0.0259 -0.3322  0.4254
 8732SOL    HW137829   0.182   2.524   6.703 -1.0460  1.8202 -0.7183
 8732SOL    HW237830   0.284   2.573   6.790  1.5428  0.2971  0.1015
 8733SOL     OW37831   4.313   2.779   6.228 -0.0628 -0.0687  0.1226
 8733SOL    HW137832   4.326   2.748   6.139 -0.9978 -1.4835  0.4637
 8733SOL    HW237833   4.399   2.814   6.250 -0.2017  0.8614 -0.8302
 8734SOL     OW37834   0.734   0.396   9.670  0.4179 -0.1840 -0.4790
 8734SOL    HW137835   0.803   0.387   9.736  1.1849  1.7364 -1.0359
 8734SOL    HW237836   0.660   0.428   9.721  1.4788 -0.1576  1.0354
 8735SOL     OW37837   4.273   2.841   4.920 -0.0548  0.2009  0.0160
 8735SOL    HW137838   4.336   2.798   4.863  0.7048  0.2934  0.7797
 8735SOL    HW237839   4.228   2.762   4.951  0.7011  0.7754  2.6196
 8736SOL     OW37840   2.878   0.626   4.703 -0.5193 -0.1467  0.5116
 8736SOL    HW137841   2.788   0.613   4.735 -0.7176  0.9135  0.4046
 8736SOL    HW237842   2.849   0.684   4.633  1.1022 -0.2091 -0.1930
 8737SOL     OW37843   4.493   2.891  14.879  0.1205 -0.3849  0.1143
 8737SOL    HW137844   4.564   2.936  14.924 -0.7904 -0.7526  1.9088
 8737SOL    HW237845   4.429   2.905  14.949 -0.7028  2.5746 -1.2514
 8738SOL     OW37846   1.637   1.820   6.134 -0.4662  0.3866 -0.5412
 8738SOL    HW137847   1.698   1.890   6.158 -0.4956  0.9699 -2.1458
 8738SOL    HW237848   1.663   1.793   6.046 -0.5405 -1.4289  0.0018
 8739SOL     OW37849   2.349   0.167   4.626  0.3979  0.4023  0.1918
 8739SOL    HW137850   2.275   0.222   4.603  0.5180 -0.3087 -1.8615
 8739SOL    HW237851   2.421   0.230   4.635  0.9574 -0.3039  0.7095
 8740SOL     OW37852   4.176   2.188   6.606 -0.6795 -0.1573 -0.0753
 8740SOL    HW137853   4.141   2.120   6.663  0.4765 -0.3835  0.3818
 8740SOL    HW237854   4.207   2.135   6.533 -0.3617 -0.7525  0.4902
 8741SOL     OW37855   0.967   4.204  12.281  0.4261  0.5672 -0.1013
 8741SOL    HW137856   0.880   4.234  12.305  0.1741 -2.1898  2.5167
 8741SOL    HW237857   0.971   4.212  12.186  0.1100 -1.1625 -0.2588
 8742SOL     OW37858   1.544   1.563   8.997 -0.3281 -0.3337  0.1115
 8742SOL    HW137859   1.458   1.540   8.963 -0.0162 -1.8641  0.3688
 8742SOL    HW237860   1.540   1.510   9.077  0.7749  0.5747  0.7622
 8743SOL     OW37861   0.354   4.418   7.799  0.4662 -0.2110 -0.1041
 8743SOL    HW137862   0.426   4.477   7.820  0.9487 -0.7539 -0.2360
 8743SOL    HW237863   0.298   4.490   7.771  1.0478 -0.1835 -1.1862
 8744SOL     OW37864   0.440   0.212  14.022 -0.3377  0.2590 -0.0458
 8744SOL    HW137865   0.500   0.284  13.999  0.1456  0.9899  3.4776
 8744SOL    HW237866   0.504   0.144  14.043 -2.2329 -0.8136  2.2580
 8745SOL     OW37867   2.834   4.277   6.716  0.4583  0.1663  0.4943
 8745SOL    HW137868   2.819   4.194   6.670 -2.0812  1.4157 -0.9077
 8745SOL    HW237869   2.860   4.233   6.797 -0.0510 -0.1690  0.4761
 8746SOL     OW37870   0.951   2.969  15.738  0.5822 -0.3532 -0.2052
 8746SOL    HW137871   0.997   2.992  15.818  0.1155 -1.0003  0.2459
 8746SOL    HW237872   1.015   2.911  15.697  1.1481  1.1671 -1.4964
 8747SOL     OW37873   0.557   0.483   5.371  0.1404 -0.3282  0.0382
 8747SOL    HW137874   0.628   0.542   5.398 -1.7998  1.7278  0.6854
 8747SOL    HW237875   0.606   0.428   5.310  1.9098  1.6487 -0.3453
 8748SOL     OW37876   0.915   4.645   5.510 -0.5342 -0.0306  0.3044
 8748SOL    HW137877   0.942   4.664   5.600  2.3703  0.2792 -0.6246
 8748SOL    HW237878   0.820   4.645   5.512 -0.5343 -0.3562  0.2425
 8749SOL     OW37879   2.142   0.584  12.240 -0.5375  0.1517 -0.4646
 8749SOL    HW137880   2.203   0.538  12.297 -0.7281  1.7111  0.9919
 8749SOL    HW237881   2.122   0.660  12.295 -0.3899  1.2833 -1.9830
 8750SOL     OW37882   1.157   3.581   3.495 -0.1628 -0.1170  0.0921
 8750SOL    HW137883   1.232   3.524   3.511 -0.7157 -1.4714 -2.1327
 8750SOL    HW237884   1.214   3.657   3.490 -0.9375  0.3480 -1.5182
 8751SOL     OW37885   1.410   4.575   8.937  0.0690  0.4260 -0.6669
 8751SOL    HW137886   1.415   4.647   8.874  0.7298 -1.1825 -2.4276
 8751SOL    HW237887   1.483   4.516   8.922  1.2083  1.3955  1.0385
 8752SOL     OW37888   3.472   3.895   2.816 -0.9311 -0.2832 -0.6563
 8752SOL    HW137889   3.502   3.895   2.907  1.2959 -0.2019 -1.3963
 8752SOL    HW237890   3.465   3.799   2.813 -1.3227 -0.2318 -1.2728
 8753SOL     OW37891   3.773   2.712   3.726  0.1059  0.9267 -0.0088
 8753SOL    HW137892   3.824   2.758   3.659 -0.2217  0.4388 -0.5959
 8753SOL    HW237893   3.698   2.679   3.676 -0.3465  1.0116  0.6209
 8754SOL     OW37894   2.085   2.202   8.213 -0.1824  0.1575  0.1410
 8754SOL    HW137895   1.994   2.231   8.227 -0.2324 -0.9438  2.1383
 8754SOL    HW237896   2.110   2.271   8.151 -0.7084  1.7186  1.6675
 8755SOL     OW37897   1.401   3.855  14.783 -0.2263 -0.2014  0.2389
 8755SOL    HW137898   1.400   3.767  14.745  0.1198  0.2754 -0.8631
 8755SOL    HW237899   1.495   3.871  14.783 -0.8019  3.1315  0.8861
 8756SOL     OW37900   1.369   1.243   5.475 -0.4011 -0.3042 -0.0906
 8756SOL    HW137901   1.290   1.214   5.521 -0.4620 -1.3833 -0.8733
 8756SOL    HW237902   1.349   1.248   5.381  0.0424  1.5709 -0.0919
 8757SOL     OW37903   3.566   0.505   8.369 -0.6751 -0.2707  0.4416
 8757SOL    HW137904   3.634   0.438   8.359 -1.5046 -1.3333  2.0243
 8757SOL    HW237905   3.570   0.517   8.464 -1.2035  0.5904  0.3498
 8758SOL     OW37906   1.928   1.904   8.499 -0.0576 -0.5933  0.6597
 8758SOL    HW137907   2.015   1.918   8.460 -0.2410  1.4629  1.0311
 8758SOL    HW237908   1.914   1.991   8.535 -0.5686 -0.5005  0.2471
 8759SOL     OW37909   4.388   3.079  13.819  0.3787 -0.4595 -0.6169
 8759SOL    HW137910   4.307   3.124  13.842  0.9779  0.9398 -1.2126
 8759SOL    HW237911   4.460   3.132  13.853 -1.8142  2.5360 -0.6274
 8760SOL     OW37912   3.023   4.503   5.600  0.2782  0.2001  0.0443
 8760SOL    HW137913   3.074   4.544   5.530 -1.5045  2.9566  0.3703
 8760SOL    HW237914   3.094   4.485   5.661  2.4851 -1.3990 -2.9763
 8761SOL     OW37915   1.566   3.410   4.520  0.2396  0.4704  0.4533
 8761SOL    HW137916   1.484   3.458   4.506 -0.2342 -0.8048 -1.2220
 8761SOL    HW237917   1.550   3.319   4.496  0.3551  0.5910 -0.0910
 8762SOL     OW37918   0.390   2.397   3.412 -0.7694 -0.1911  0.0885
 8762SOL    HW137919   0.399   2.323   3.472  0.8692 -0.2037 -0.1836
 8762SOL    HW237920   0.297   2.391   3.387 -1.5419 -0.5531  3.0607
 8763SOL     OW37921   3.939   0.751  12.558  0.4684  0.3096 -0.3048
 8763SOL    HW137922   3.940   0.691  12.483 -1.0461  0.5784 -0.5305
 8763SOL    HW237923   3.917   0.836  12.518  0.9811  0.4165 -0.3642
 8764SOL     OW37924   4.283   0.687   8.423  0.1165 -0.6961 -0.6785
 8764SOL    HW137925   4.300   0.691   8.518  1.2517 -0.6872 -0.8776
 8764SOL    HW237926   4.368   0.648   8.404  0.8511 -0.2415  1.6166
 8765SOL     OW37927   4.042   3.547   5.554  0.3088 -0.1305 -0.2074
 8765SOL    HW137928   4.007   3.517   5.470 -0.9614  1.3003 -0.2162
 8765SOL    HW237929   4.123   3.592   5.530  1.3462 -0.1885  3.2660
 8766SOL     OW37930   3.615   3.295   8.803 -0.2878 -0.3220 -0.0987
 8766SOL    HW137931   3.536   3.335   8.840 -0.6582  0.1342 -1.3802
 8766SOL    HW237932   3.618   3.352   8.726 -2.9361  2.8495  2.1305
 8767SOL     OW37933   1.769   0.731   9.563 -0.0857 -0.2248  0.2451
 8767SOL    HW137934   1.840   0.793   9.580 -1.3497  1.0055  1.0179
 8767SOL    HW237935   1.700   0.770   9.616 -0.7372 -0.9908 -0.0325
 8768SOL     OW37936   4.281   3.296   4.461 -0.1913  0.4599 -0.1456
 8768SOL    HW137937   4.187   3.296   4.443 -0.1164  1.5040 -0.5316
 8768SOL    HW237938   4.307   3.379   4.422  0.5550 -0.2576 -1.1991
 8769SOL     OW37939   0.806   2.600   7.649  0.0630  0.0599 -0.2466
 8769SOL    HW137940   0.829   2.689   7.676 -0.8495  0.3873 -0.5272
 8769SOL    HW237941   0.734   2.619   7.588 -0.3613  1.2346  0.6187
 8770SOL     OW37942   0.899   2.325   9.294  0.3970 -0.8244  0.3111
 8770SOL    HW137943   0.919   2.406   9.341  0.7054 -0.9935  0.4727
 8770SOL    HW237944   0.905   2.268   9.370  2.4131 -0.5375  0.3682
 8771SOL     OW37945   3.695   4.514  12.123  0.0498 -0.2360  0.5695
 8771SOL    HW137946   3.693   4.493  12.029  2.8954  0.9122  0.2721
 8771SOL    HW237947   3.667   4.605  12.128 -3.7179 -1.4558  1.6339
 8772SOL     OW37948   1.272   2.853   6.338  0.4567 -0.5592 -0.3418
 8772SOL    HW137949   1.324   2.808   6.405  1.3696  0.2185 -0.5199
 8772SOL    HW237950   1.302   2.943   6.348  0.6992 -0.8100  1.1119
 8773SOL     OW37951   4.651   0.928   0.200  0.2943 -0.0124  0.0932
 8773SOL    HW137952   4.694   0.949   0.117  1.0196 -3.6692 -0.4866
 8773SOL    HW237953   4.563   0.962   0.189 -0.0743 -0.5424  1.3190
 8774SOL     OW37954   3.937   2.699   8.253 -0.0211  0.0051 -0.2556
 8774SOL    HW137955   3.968   2.781   8.294  1.0339 -0.4873 -0.0535
 8774SOL    HW237956   3.849   2.734   8.240  0.3390  0.5073 -1.3486
 8775SOL     OW37957   4.196   3.291   9.214  0.3547 -0.2443  0.0425
 8775SOL    HW137958   4.125   3.236   9.183  0.5663  0.1000 -1.0648
 8775SOL    HW237959   4.232   3.318   9.129 -1.3240 -1.8662 -1.1695
 8776SOL     OW37960   4.119   3.659  10.024  0.3343  0.5153  0.0960
 8776SOL    HW137961   4.062   3.586  10.002 -0.8060  1.5602 -0.3725
 8776SOL    HW237962   4.055   3.723  10.053  1.1521  1.7417 -0.7860
 8777SOL     OW37963   4.552   3.327  17.695 -0.2341  0.3178 -0.1499
 8777SOL    HW137964   4.618   3.394  17.682 -1.1524  1.6358  2.0860
 8777SOL    HW237965   4.547   3.287  17.608  1.1605 -0.3452  0.0748
 8778SOL     OW37966   0.129   3.743   7.943  0.3908  0.2678 -0.3660
 8778SOL    HW137967   0.174   3.660   7.957 -1.0229 -0.7096 -1.6492
 8778SOL    HW237968   0.126   3.752   7.847 -1.4784  1.4460 -0.2057
 8779SOL     OW37969   4.588   1.572   8.351  0.4992 -0.0147  0.2087
 8779SOL    HW137970   4.631   1.523   8.421 -2.6383 -1.4488  1.1125
 8779SOL    HW237971   4.661   1.619   8.310  1.4197 -2.6364 -1.1793
 8780SOL     OW37972   3.401   1.034  12.681  0.9975  0.6275  0.1676
 8780SOL    HW137973   3.406   1.128  12.699 -1.0564  0.2817  2.5259
 8780SOL    HW237974   3.325   1.015  12.735  1.4178 -0.7371  0.2930
 8781SOL     OW37975   1.293   2.218   6.268 -0.3980  0.0294 -0.1394
 8781SOL    HW137976   1.218   2.265   6.304  0.4224  1.1619  0.0908
 8781SOL    HW237977   1.367   2.267   6.305 -0.6773 -0.0706  0.5491
 8782SOL     OW37978   2.985   1.978   4.677  0.2538  0.7101 -0.1899
 8782SOL    HW137979   2.982   2.057   4.732  0.2489  0.8922 -0.4532
 8782SOL    HW237980   3.079   1.972   4.658  0.2112 -1.1680  0.1621
 8783SOL     OW37981   1.830   1.663  10.974  0.7375  0.3873  0.2749
 8783SOL    HW137982   1.869   1.713  10.903 -0.6345 -0.3315 -0.9873
 8783SOL    HW237983   1.759   1.725  10.989 -1.7026 -2.1317 -0.7873
 8784SOL     OW37984   4.386   3.980  16.087  0.0803  0.2239 -0.1197
 8784SOL    HW137985   4.472   4.015  16.062  0.1951 -1.7086 -2.3892
 8784SOL    HW237986   4.332   4.059  16.086  1.1816  0.9836  0.4228
 8785SOL     OW37987   0.946   0.770   9.128  0.2478 -0.6822 -0.3275
 8785SOL    HW137988   0.888   0.737   9.197 -1.1930 -0.2176 -1.2994
 8785SOL    HW237989   0.896   0.767   9.046  1.1781 -0.1510 -0.9080
 8786SOL     OW37990   1.449   2.354  10.552 -0.2144  0.2572  0.0159
 8786SOL    HW137991   1.466   2.290  10.621  1.6359  0.4315 -0.2849
 8786SOL    HW237992   1.353   2.360  10.553 -0.2488  0.0195 -0.9917
 8787SOL     OW37993   3.892   2.178  10.132 -0.0159  0.4438 -0.3770
 8787SOL    HW137994   3.881   2.092  10.090 -1.4934 -0.1147  1.1794
 8787SOL    HW237995   3.866   2.159  10.222 -0.5374  0.9511 -0.4228
 8788SOL     OW37996   1.035   4.035  11.629 -0.3315 -0.3157  0.2038
 8788SOL    HW137997   1.040   4.011  11.722 -1.2650  1.5520  0.7411
 8788SOL    HW237998   0.952   3.991  11.610 -1.1996  1.9967 -1.3860
 8789SOL     OW37999   0.929   4.718  16.070  0.0565 -0.1977 -0.7546
 8789SOL    HW138000   0.860   4.675  16.121  0.8304 -2.0215 -1.2329
 8789SOL    HW238001   0.940   4.657  15.997  0.3334  0.7023 -1.4568
 8790SOL     OW38002   0.101   2.762   7.104 -0.1677 -0.0449 -0.0149
 8790SOL    HW138003   0.065   2.697   7.164 -0.9508  1.1365  0.7894
 8790SOL    HW238004   0.138   2.700   7.041  0.1970  1.0601 -0.8868
 8791SOL     OW38005   2.949   0.517   2.147  0.0622  0.0241 -0.1514
 8791SOL    HW138006   2.878   0.459   2.172 -0.4032 -0.0956 -1.7564
 8791SOL    HW238007   3.025   0.468   2.178 -0.6535  0.1104  1.7400
 8792SOL     OW38008   1.948   1.674   9.502  0.6688 -0.1654  0.1553
 8792SOL    HW138009   1.927   1.589   9.462  0.6153  1.1230 -2.5705
 8792SOL    HW238010   1.868   1.718   9.473  0.8331 -0.6731 -1.0765
 8793SOL     OW38011   4.578   2.976  16.949  0.7269 -0.6654  0.1327
 8793SOL    HW138012   4.667   3.011  16.956  0.6168 -0.5712  1.0105
 8793SOL    HW238013   4.572   2.919  17.026  2.2526 -0.1312  0.6549
 8794SOL     OW38014   2.331   1.143   3.151  0.1534 -0.2197  0.0126
 8794SOL    HW138015   2.282   1.128   3.070 -1.8729 -1.5072  1.4987
 8794SOL    HW238016   2.267   1.186   3.208 -2.8376 -1.7357 -2.2115
 8795SOL     OW38017   0.105   3.112   3.171 -0.2107 -0.0199 -0.1696
 8795SOL    HW138018   0.078   3.097   3.261 -0.5802 -0.8187 -0.4158
 8795SOL    HW238019   0.198   3.090   3.164 -0.3599 -0.8474  0.5320
 8796SOL     OW38020   2.355   1.862  16.149  0.0370 -0.3048  0.5745
 8796SOL    HW138021   2.297   1.787  16.160  1.6004 -1.1392  2.9555
 8796SOL    HW238022   2.346   1.901  16.236 -0.6121  0.0136  0.3684
 8797SOL     OW38023   1.008   4.126   7.204 -0.2358  0.2894  0.1518
 8797SOL    HW138024   0.975   4.084   7.125 -0.1821 -0.9334  0.7882
 8797SOL    HW238025   0.948   4.087   7.267 -0.0851 -0.8700 -0.4268
 8798SOL     OW38026   3.418   0.865   4.223  0.2001 -0.6796 -0.4562
 8798SOL    HW138027   3.350   0.930   4.244  0.0736 -0.8457 -0.3555
 8798SOL    HW238028   3.463   0.862   4.307  0.7206 -0.1077 -0.7112
 8799SOL     OW38029   4.694   1.060   5.709 -0.3526  0.1687  0.3824
 8799SOL    HW138030   0.004   1.006   5.773  0.0829  1.6976  1.3443
 8799SOL    HW238031   4.707   0.998   5.637 -1.5554 -0.3314  0.6072
 8800SOL     OW38032   0.318   3.687  15.296  0.7168  0.1895  0.0911
 8800SOL    HW138033   0.287   3.634  15.222 -1.2057  0.5324  0.6519
 8800SOL    HW238034   0.337   3.622  15.364  0.6887 -0.0869 -0.1650
 8801SOL     OW38035   2.449   4.120   1.624  0.4684  0.5504 -0.2755
 8801SOL    HW138036   2.510   4.048   1.643 -0.4834 -0.1484  0.1123
 8801SOL    HW238037   2.483   4.175   1.695 -0.2349 -0.2091  0.6474
 8802SOL     OW38038   4.672   2.604  12.472  0.9705  0.0683 -0.1160
 8802SOL    HW138039   4.678   2.636  12.382 -0.5122 -0.9142 -0.5502
 8802SOL    HW238040   0.025   2.574  12.488  2.4396  3.1756 -2.4187
 8803SOL     OW38041   3.209   3.564   9.611  0.4109 -0.0748 -0.3867
 8803SOL    HW138042   3.275   3.580   9.679 -0.9421  1.5532  0.5375
 8803SOL    HW238043   3.151   3.523   9.676 -0.2437 -1.4843 -1.8400
 8804SOL     OW38044   0.152   1.462  16.917  0.1098  0.1043 -0.5574
 8804SOL    HW138045   0.073   1.444  16.866 -1.2320  1.8378  0.9027
 8804SOL    HW238046   0.218   1.432  16.854  0.4389 -2.0023  0.8093
 8805SOL     OW38047   0.933   1.593   3.390 -0.5780 -0.3406 -0.1739
 8805SOL    HW138048   1.006   1.639   3.349 -1.4191  0.1661 -1.0912
 8805SOL    HW238049   0.944   1.507   3.349 -2.5285 -1.4496  1.6832
 8806SOL     OW38050   0.959   2.715  16.536 -0.1325  0.2498 -0.4383
 8806SOL    HW138051   0.924   2.802  16.557 -0.5603  0.1301 -0.6723
 8806SOL    HW238052   1.021   2.714  16.609 -1.1969  1.1428  0.4784
 8807SOL     OW38053   1.379   2.141   3.274  0.2878  0.1185 -0.6178
 8807SOL    HW138054   1.473   2.158   3.269  0.4519 -1.2060 -2.3540
 8807SOL    HW238055   1.376   2.053   3.311  2.3616 -0.2726 -1.3501
 8808SOL     OW38056   2.092   0.811  12.397 -0.4120 -0.0169  0.2391
 8808SOL    HW138057   2.164   0.874  12.394  1.1011 -1.6919  1.1836
 8808SOL    HW238058   2.046   0.855  12.468  0.0131  2.0358 -0.7852
 8809SOL     OW38059   3.659   0.738  12.357  0.1154  0.1679 -0.0902
 8809SOL    HW138060   3.584   0.694  12.317 -1.4301  2.0261  0.7276
 8809SOL    HW238061   3.622   0.809  12.410 -1.4897 -0.3635 -0.5072
 8810SOL     OW38062   4.701   2.131   9.324 -0.1441 -0.1888 -0.0373
 8810SOL    HW138063   0.008   2.050   9.350 -1.7657 -1.3068 -0.7282
 8810SOL    HW238064   0.044   2.183   9.320  0.2171 -0.7779 -0.6084
 8811SOL     OW38065   2.955   0.732   3.244 -0.3405 -0.3797  0.0256
 8811SOL    HW138066   3.033   0.682   3.219 -0.2702  1.0700 -2.6887
 8811SOL    HW238067   2.934   0.766   3.157 -0.8598 -0.1617  0.2341
 8812SOL     OW38068   2.530   0.503   8.048 -0.3772  0.1406 -0.4715
 8812SOL    HW138069   2.620   0.529   8.070 -0.7329  0.4808  0.5827
 8812SOL    HW238070   2.524   0.414   8.081  0.6107 -0.4550 -1.8866
 8813SOL     OW38071   4.165   1.017   1.830 -0.1778  0.1899  0.4088
 8813SOL    HW138072   4.114   0.991   1.753  0.9262  1.7445 -0.8375
 8813SOL    HW238073   4.099   0.990   1.894 -0.8557 -0.2057 -0.4473
 8814SOL     OW38074   3.831   3.066   4.478 -0.7869  0.1330 -0.2264
 8814SOL    HW138075   3.800   3.037   4.392 -0.2172  0.1993 -0.4534
 8814SOL    HW238076   3.881   3.141   4.446 -1.8327  1.3665  1.0634
 8815SOL     OW38077   0.682   2.853   6.671  0.0401  0.3493  0.5070
 8815SOL    HW138078   0.676   2.890   6.583 -0.7635 -0.0744  0.3902
 8815SOL    HW238079   0.612   2.789   6.668  0.2390  0.1802 -0.6332
 8816SOL     OW38080   2.496   2.479   7.763 -0.0513  0.0652 -0.1898
 8816SOL    HW138081   2.482   2.492   7.669  0.4899  0.5402 -0.2078
 8816SOL    HW238082   2.474   2.386   7.761  0.0159  0.0379  0.3426
 8817SOL     OW38083   0.784   0.391   7.529 -0.0110  0.0711 -0.0584
 8817SOL    HW138084   0.824   0.352   7.451 -1.4864  0.4064 -0.9713
 8817SOL    HW238085   0.691   0.389   7.505 -0.0377  1.1608 -0.0048
 8818SOL     OW38086   0.936   4.231   3.841  0.5249 -0.0173  0.1848
 8818SOL    HW138087   0.850   4.192   3.854  0.5747 -0.6675 -1.4657
 8818SOL    HW238088   0.987   4.171   3.897  0.2905 -1.4097 -1.0773
 8819SOL     OW38089   2.435   3.680  15.728 -0.5121  0.2754 -0.3395
 8819SOL    HW138090   2.507   3.616  15.731  0.7905  1.5966 -3.5793
 8819SOL    HW238091   2.376   3.638  15.666 -1.7081 -1.5666  2.0627
 8820SOL     OW38092   3.624   1.631   8.949  0.8634 -0.3842  0.6713
 8820SOL    HW138093   3.577   1.703   8.906  1.2782  0.1775  1.1516
 8820SOL    HW238094   3.711   1.647   8.912  0.8678 -1.8604  0.0470
 8821SOL     OW38095   4.197   1.648  13.314 -0.4087  0.0070  0.0510
 8821SOL    HW138096   4.175   1.635  13.222  4.0339 -0.0748 -1.0244
 8821SOL    HW238097   4.148   1.728  13.333 -1.2919 -0.9321  1.6902
 8822SOL     OW38098   2.339   4.347   5.016 -0.1768  0.2711  0.1161
 8822SOL    HW138099   2.301   4.306   5.094  0.6302 -1.0009 -0.1554
 8822SOL    HW238100   2.424   4.303   5.022  0.1014  0.7642 -0.2391
 8823SOL     OW38101   1.575   2.136   3.684 -0.3761  0.4519 -0.1011
 8823SOL    HW138102   1.614   2.223   3.693 -0.3867  0.5074 -0.5845
 8823SOL    HW238103   1.649   2.107   3.630 -3.4255 -2.2889 -2.7900
 8824SOL     OW38104   2.509   0.770  13.837  0.2232 -0.6465 -0.0044
 8824SOL    HW138105   2.421   0.738  13.859 -0.5088  1.6925  0.4733
 8824SOL    HW238106   2.529   0.691  13.787 -2.1761 -0.9819 -0.4766
 8825SOL     OW38107   3.772   3.876   0.273  0.3437 -0.4111 -0.5206
 8825SOL    HW138108   3.825   3.818   0.328 -2.5467 -2.3897  0.1936
 8825SOL    HW238109   3.694   3.872   0.328 -0.6159 -0.8949 -1.8859
 8826SOL     OW38110   3.516   4.255  13.009  0.1215 -0.6648 -0.2508
 8826SOL    HW138111   3.612   4.257  13.018  0.3406 -0.5001 -2.5730
 8826SOL    HW238112   3.491   4.274  13.099  0.5887 -0.2743 -0.1999
 8827SOL     OW38113   3.474   0.845   1.701  0.5221 -0.0140 -0.4438
 8827SOL    HW138114   3.409   0.909   1.671 -2.4816 -3.2048 -0.6955
 8827SOL    HW238115   3.434   0.767   1.663 -0.8209 -0.1044  1.1806
 8828SOL     OW38116   4.457   2.532  11.859  0.5875  0.2782  0.5005
 8828SOL    HW138117   4.414   2.494  11.782  0.5675 -1.4730  1.3559
 8828SOL    HW238118   4.530   2.582  11.823 -0.9641  1.4440 -0.9849
 8829SOL     OW38119   0.927   2.474   8.718 -0.0846  0.3220  0.1575
 8829SOL    HW138120   0.850   2.506   8.671 -0.2303 -0.3703 -0.0742
 8829SOL    HW238121   0.900   2.384   8.704  1.1264 -0.0685  0.3817
 8830SOL     OW38122   1.903   3.657  11.823 -0.0826 -0.5686 -0.0438
 8830SOL    HW138123   1.877   3.647  11.915 -0.7732 -0.3452 -0.2205
 8830SOL    HW238124   1.996   3.653  11.846 -0.2751  0.3749  0.8887
 8831SOL     OW38125   1.243   1.146   8.053 -0.1097 -0.2876 -0.0209
 8831SOL    HW138126   1.325   1.195   8.048  1.1448 -2.4641 -0.3181
 8831SOL    HW238127   1.273   1.057   8.036  1.5011  0.0939  0.8882
 8832SOL     OW38128   0.564   2.610   9.600  0.2761 -0.7481  0.3700
 8832SOL    HW138129   0.481   2.634   9.640  0.9179 -1.1708  1.9432
 8832SOL    HW238130   0.548   2.553   9.525  0.0813 -1.1485  0.7193
 8833SOL     OW38131   1.370   1.354   7.639 -0.1081 -0.5142 -0.1777
 8833SOL    HW138132   1.392   1.445   7.660  0.3348 -0.6536 -0.0257
 8833SOL    HW238133   1.326   1.328   7.720 -0.1546  0.9087  0.2705
 8834SOL     OW38134   2.434   2.134   8.401  0.2293  0.7945 -0.3218
 8834SOL    HW138135   2.413   2.227   8.406 -1.0226  0.6250 -2.1948
 8834SOL    HW238136   2.499   2.134   8.331 -0.1097 -1.1173 -0.6542
 8835SOL     OW38137   4.198   2.327   7.553  0.2554  0.0557  0.6676
 8835SOL    HW138138   4.151   2.405   7.585 -2.9379 -1.2396 -0.8154
 8835SOL    HW238139   4.142   2.260   7.593  2.0159 -2.3609 -0.9050
 8836SOL     OW38140   4.613   1.616   2.100 -0.0572 -0.1767 -0.0433
 8836SOL    HW138141   4.623   1.711   2.111  4.0778 -0.4993 -0.9950
 8836SOL    HW238142   4.638   1.582   2.186 -1.2164 -1.7628 -0.3429
 8837SOL     OW38143   3.518   1.781   7.445 -0.1436 -0.2416  0.0332
 8837SOL    HW138144   3.456   1.791   7.517  1.5931  4.4442  0.8567
 8837SOL    HW238145   3.600   1.810   7.485 -0.6609 -0.4553  1.2454
 8838SOL     OW38146   1.315   2.868   0.248  0.5608  0.1901  1.0130
 8838SOL    HW138147   1.403   2.898   0.225  0.1393  1.2280  0.7348
 8838SOL    HW238148   1.281   2.820   0.172  2.2179  1.2153 -0.3890
 8839SOL     OW38149   3.466   3.999   7.995  0.6344 -0.0325 -0.2678
 8839SOL    HW138150   3.455   3.904   8.000  0.1794  0.0336 -0.0762
 8839SOL    HW238151   3.391   4.030   8.045  1.1383  0.8929 -0.0786
 8840SOL     OW38152   2.734   1.889   5.808  0.3895  0.0221  0.3125
 8840SOL    HW138153   2.647   1.920   5.834 -0.0010 -0.2880 -0.6525
 8840SOL    HW238154   2.714   1.808   5.762 -1.8602  0.5851  0.2725
 8841SOL     OW38155   0.335   4.736   5.685  0.2276  0.4312  0.1050
 8841SOL    HW138156   0.369   4.647   5.682 -0.3842  0.2219 -0.6982
 8841SOL    HW238157   0.319   0.019   5.593 -1.0723 -1.2045 -0.0125
 8842SOL     OW38158   3.124   1.452   5.051  0.3115 -0.1624 -0.2561
 8842SOL    HW138159   3.160   1.523   4.998 -0.8921  0.2495 -0.5355
 8842SOL    HW238160   3.202   1.409   5.084 -0.7724 -1.0199  1.2061
 8843SOL     OW38161   0.822   1.439   2.502 -0.1283 -0.2664  0.3260
 8843SOL    HW138162   0.760   1.448   2.574  0.3664  1.1105  0.5755
 8843SOL    HW238163   0.900   1.468   2.549  0.6419 -2.2039  0.2603
 8844SOL     OW38164   4.494   2.468  16.569 -0.5993  0.1851 -0.6147
 8844SOL    HW138165   4.422   2.527  16.548 -0.7961  0.4377  0.7884
 8844SOL    HW238166   4.515   2.432  16.482 -0.8981  1.9404 -1.4106
 8845SOL     OW38167   2.475   0.525   7.295 -0.6922 -0.0326  0.9647
 8845SOL    HW138168   2.554   0.540   7.346 -0.6789  0.8438  0.6986
 8845SOL    HW238169   2.506   0.449   7.248 -1.5621  1.1691 -1.5632
 8846SOL     OW38170   1.022   0.586   5.523  0.4958  0.0697  0.1065
 8846SOL    HW138171   1.103   0.550   5.487  0.6333 -0.0422  0.5291
 8846SOL    HW238172   1.044   0.621   5.609 -0.5691  0.4431  0.2258
 8847SOL     OW38173   0.165   1.398  17.195  0.5908 -0.2877 -0.5053
 8847SOL    HW138174   0.182   1.424  17.105 -0.5535 -0.1925 -0.6936
 8847SOL    HW238175   0.154   1.303  17.188 -2.6855  0.0613 -0.1615
 8848SOL     OW38176   0.972   0.950   4.203  0.0354  0.0994 -0.5136
 8848SOL    HW138177   1.057   0.980   4.171 -0.1016 -0.4266 -1.3696
 8848SOL    HW238178   0.987   0.855   4.194  1.8609  0.2341  1.0324
 8849SOL     OW38179   2.910   1.407   2.423 -0.5189  0.0028  0.6260
 8849SOL    HW138180   2.956   1.463   2.486 -0.6137  1.4292 -0.5811
 8849SOL    HW238181   2.860   1.478   2.383 -2.5143 -0.1863  2.8155
 8850SOL     OW38182   1.191   3.793   5.289 -0.0324 -0.0324 -0.0269
 8850SOL    HW138183   1.206   3.888   5.284 -0.7741 -0.0454 -2.1925
 8850SOL    HW238184   1.227   3.763   5.206 -0.5490 -0.8902  0.0668
 8851SOL     OW38185   2.925   1.151   2.823 -0.3279 -0.1668 -0.0942
 8851SOL    HW138186   2.893   1.068   2.788 -2.3718 -0.0962  1.5865
 8851SOL    HW238187   2.916   1.146   2.918 -0.2234  0.2357 -0.0620
 8852SOL     OW38188   3.769   0.388  12.533 -0.1428 -0.2250  0.0613
 8852SOL    HW138189   3.798   0.320  12.593  0.9909  0.4906  0.3250
 8852SOL    HW238190   3.747   0.458  12.594  1.1511 -0.0789  0.3578
 8853SOL     OW38191   2.507   4.284  16.940 -0.1106 -0.9591 -0.3418
 8853SOL    HW138192   2.519   4.344  16.867 -0.5182 -2.7166 -1.8461
 8853SOL    HW238193   2.450   4.335  16.998  0.9689 -1.5573  1.2409
 8854SOL     OW38194   0.956   2.798   1.899 -0.2472  0.1865 -0.3936
 8854SOL    HW138195   0.972   2.881   1.853  0.6318  1.1090  1.5994
 8854SOL    HW238196   0.997   2.814   1.984  0.1690 -0.2579 -0.5134
 8855SOL     OW38197   3.073   2.831   7.120  0.7356  0.2353 -0.3586
 8855SOL    HW138198   3.054   2.916   7.159  1.2068 -0.6297  1.7235
 8855SOL    HW238199   3.119   2.847   7.038 -0.7742 -1.2346 -1.5036
 8856SOL     OW38200   1.927   1.102  10.474 -0.0812  0.0057 -0.0014
 8856SOL    HW138201   1.841   1.143  10.482 -0.5060 -1.0217  0.7412
 8856SOL    HW238202   1.903   1.009  10.479  0.0962 -0.1702 -2.1928
 8857SOL     OW38203   3.463   2.657   2.906 -0.2528 -0.2494  0.0710
 8857SOL    HW138204   3.397   2.588   2.910  1.4038 -1.9167 -1.5333
 8857SOL    HW238205   3.510   2.654   2.989  1.6743  1.4129 -0.9518
 8858SOL     OW38206   1.617   3.551  16.703  0.0825 -0.1230 -0.3250
 8858SOL    HW138207   1.586   3.576  16.790 -0.2625  2.1737 -1.1048
 8858SOL    HW238208   1.565   3.471  16.697 -1.6192  1.0471 -0.8958
 8859SOL     OW38209   2.507   2.645   5.688  1.1162 -0.3864 -0.1770
 8859SOL    HW138210   2.476   2.732   5.662  1.0827 -0.6756 -1.1164
 8859SOL    HW238211   2.602   2.649   5.695  0.6455  4.7560  2.9945
 8860SOL     OW38212   4.422   1.359   0.299 -0.2508  0.1019 -0.7266
 8860SOL    HW138213   4.496   1.307   0.329  1.3913  2.3771 -0.9024
 8860SOL    HW238214   4.439   1.352   0.205  1.2094  2.9430 -0.6554
 8861SOL     OW38215   3.901   1.047   2.668  0.0740 -0.0213 -0.1754
 8861SOL    HW138216   3.866   1.015   2.751  0.8800  2.9978  1.3394
 8861SOL    HW238217   3.993   1.040   2.694 -0.5163 -0.4586  1.8194
 8862SOL     OW38218   3.112   0.353   8.431 -0.4204 -0.1765 -0.3385
 8862SOL    HW138219   3.120   0.272   8.480 -0.6478 -0.8348 -1.3933
 8862SOL    HW238220   3.182   0.344   8.366 -0.3512 -2.7415  0.1112
 8863SOL     OW38221   4.611   1.544   3.879 -0.0431  0.3435  0.2186
 8863SOL    HW138222   4.700   1.576   3.871  0.7421 -1.8695 -0.0978
 8863SOL    HW238223   4.599   1.524   3.972  1.1269  2.5009  0.8237
 8864SOL     OW38224   2.807   2.979  13.018  0.5031  0.3969  1.2086
 8864SOL    HW138225   2.730   3.025  12.983 -0.2175 -1.4918  0.2906
 8864SOL    HW238226   2.865   2.966  12.942 -1.4142 -0.3266 -0.1395
 8865SOL     OW38227   0.878   3.386  15.427  0.2177  0.2609  0.2811
 8865SOL    HW138228   0.811   3.455  15.423  1.1620  1.2423  1.4988
 8865SOL    HW238229   0.860   3.332  15.504  0.1663 -1.2282 -0.7771
 8866SOL     OW38230   2.207   2.934   4.650 -0.4739 -0.0783 -0.5887
 8866SOL    HW138231   2.248   2.975   4.725 -0.5845 -0.4038 -0.3474
 8866SOL    HW238232   2.255   2.985   4.585  0.3357 -0.3723 -0.2161
 8867SOL     OW38233   1.456   0.411  12.212  0.9038  0.0036 -0.0188
 8867SOL    HW138234   1.496   0.490  12.249  0.4993 -2.1019  4.9215
 8867SOL    HW238235   1.537   0.375  12.175  0.9857 -0.0246  0.1839
 8868SOL     OW38236   2.400   0.585   6.910  0.0964  0.6011 -0.3820
 8868SOL    HW138237   2.403   0.523   6.837 -2.5405 -0.3357  0.2736
 8868SOL    HW238238   2.334   0.539   6.962  0.1277 -0.4685 -1.2878
 8869SOL     OW38239   2.469   0.495   3.587  0.1782  0.2528  0.2905
 8869SOL    HW138240   2.383   0.461   3.610  0.2165 -0.1292 -0.1404
 8869SOL    HW238241   2.476   0.461   3.498  1.5277 -0.0442  0.5124
 8870SOL     OW38242   1.238   2.330   2.670  0.3194 -0.4272 -0.0999
 8870SOL    HW138243   1.328   2.314   2.641  0.4039 -0.3510  0.1167
 8870SOL    HW238244   1.250   2.312   2.764 -0.5978  0.7258  0.2406
 8871SOL     OW38245   3.293   1.029   1.329  0.6128  0.2618 -0.0031
 8871SOL    HW138246   3.379   1.068   1.311  1.5087 -0.7453  2.0319
 8871SOL    HW238247   3.303   0.944   1.287  1.7078  2.0167 -3.2730
 8872SOL     OW38248   0.340   0.496   9.694 -0.1769 -0.6506  0.2266
 8872SOL    HW138249   0.348   0.582   9.652 -2.1792  0.0089  1.2124
 8872SOL    HW238250   0.424   0.505   9.739  0.0063 -1.3200  0.0209
 8873SOL     OW38251   0.381   0.528   3.930  0.0198  0.6764 -0.0736
 8873SOL    HW138252   0.301   0.504   3.884  0.1455 -2.1800  1.2206
 8873SOL    HW238253   0.409   0.608   3.884 -1.8074  2.0284  1.1613
 8874SOL     OW38254   2.447   0.906   5.536  0.3357  0.0044  0.1223
 8874SOL    HW138255   2.408   0.819   5.527 -1.2596  0.8282 -1.0034
 8874SOL    HW238256   2.427   0.928   5.627 -0.0764 -1.1931  0.3169
 8875SOL     OW38257   3.577   1.044   0.890  0.0403 -0.5266 -0.2111
 8875SOL    HW138258   3.617   1.053   0.804  1.8185  0.7790  0.7381
 8875SOL    HW238259   3.582   0.949   0.902  1.9426 -0.3931  0.0652
 8876SOL     OW38260   0.244   2.442   3.737 -0.1267 -0.2470  0.3989
 8876SOL    HW138261   0.236   2.482   3.824 -2.0142  1.1372 -0.4091
 8876SOL    HW238262   0.187   2.497   3.684  2.5254  1.3501 -0.7699
 8877SOL     OW38263   1.170   4.659  10.247 -0.3175  0.0926  0.4966
 8877SOL    HW138264   1.253   4.675  10.292 -0.8106  0.4853  1.2685
 8877SOL    HW238265   1.191   4.676  10.156 -1.6780 -0.2870  0.1168
 8878SOL     OW38266   2.854   1.607   6.167 -0.3223 -0.3823  1.1516
 8878SOL    HW138267   2.802   1.612   6.247  0.2583 -1.8400  1.6121
 8878SOL    HW238268   2.838   1.697   6.139  0.6019  0.4301  3.2482
 8879SOL     OW38269   0.989   0.792   9.902  0.0923  0.0940  0.2683
 8879SOL    HW138270   1.050   0.738   9.952 -1.0347 -0.3845  1.1307
 8879SOL    HW238271   0.960   0.730   9.836 -3.5689  4.8191 -2.5505
 8880SOL     OW38272   0.598   3.055   6.020  0.3110 -0.5012 -0.2950
 8880SOL    HW138273   0.646   2.983   5.980 -0.5831 -1.1914 -0.1216
 8880SOL    HW238274   0.600   3.123   5.953 -0.0315 -0.2896 -0.0912
 8881SOL     OW38275   0.143   4.500  16.617  0.3894  0.7170 -0.0427
 8881SOL    HW138276   0.158   4.460  16.531 -0.4662  1.9810 -0.7799
 8881SOL    HW238277   0.070   4.447  16.649  0.9375 -0.6511 -1.0320
 8882SOL     OW38278   3.952   3.012   1.999 -0.9440 -0.5824 -0.5605
 8882SOL    HW138279   3.988   2.980   1.916  0.4070  1.1149 -0.6477
 8882SOL    HW238280   3.956   2.933   2.053 -2.0702  1.0392  1.8799
 8883SOL     OW38281   4.173   0.497  12.923 -0.4989 -0.4314 -0.2577
 8883SOL    HW138282   4.104   0.453  12.973 -1.2779  0.9707 -0.0999
 8883SOL    HW238283   4.124   0.567  12.880  1.0057  1.7453  1.5710
 8884SOL     OW38284   0.493   3.709   4.866  0.0470  0.1988 -0.6813
 8884SOL    HW138285   0.544   3.667   4.797 -0.6988 -0.8540 -0.6000
 8884SOL    HW238286   0.563   3.697   4.930  0.6809  1.0712 -1.2060
 8885SOL     OW38287   4.032   4.147   7.796  0.2341  0.3372  0.6284
 8885SOL    HW138288   4.110   4.094   7.784 -0.2546 -0.7254  2.1515
 8885SOL    HW238289   3.975   4.106   7.731  2.1743 -0.8633 -0.2965
 8886SOL     OW38290   3.291   0.803  10.162 -0.4968  0.1655 -0.5678
 8886SOL    HW138291   3.296   0.707  10.161  3.4719  0.3848 -1.3644
 8886SOL    HW238292   3.222   0.816  10.227  0.3311  1.8057 -0.0324
 8887SOL     OW38293   1.555   4.183   4.483  0.0001  0.6814  0.7523
 8887SOL    HW138294   1.561   4.099   4.529 -1.4637  0.3177  0.2768
 8887SOL    HW238295   1.647   4.209   4.473  0.2819 -0.9424 -0.8369
 8888SOL     OW38296   1.295   1.232  13.939 -0.9610 -0.3170 -0.6170
 8888SOL    HW138297   1.267   1.311  13.985 -3.3804 -0.8301 -1.2256
 8888SOL    HW238298   1.390   1.236  13.955 -1.0166  0.1455 -0.4040
 8889SOL     OW38299   0.587   2.281   6.737  0.7128  0.1670  1.0382
 8889SOL    HW138300   0.591   2.314   6.647  0.8824 -1.3273  0.5027
 8889SOL    HW238301   0.494   2.260   6.752  0.1902  1.6034 -0.1426
 8890SOL     OW38302   3.911   2.575   3.111 -0.0635  0.0218  0.1718
 8890SOL    HW138303   3.864   2.518   3.172  1.0596 -1.3323 -0.2200
 8890SOL    HW238304   3.924   2.531   3.026 -1.4763 -0.6756  0.3030
 8891SOL     OW38305   3.386   2.493   4.367 -0.0850 -0.6238 -0.0687
 8891SOL    HW138306   3.474   2.531   4.363 -0.0454 -1.0512 -4.0589
 8891SOL    HW238307   3.380   2.450   4.281  0.0615  0.7945 -0.7798
 8892SOL     OW38308   4.365   2.173   7.404  0.1118 -0.8865  0.2699
 8892SOL    HW138309   4.306   2.111   7.361 -0.3357 -1.3365  1.5358
 8892SOL    HW238310   4.301   2.236   7.439  0.4509 -0.1938 -0.3463
 8893SOL     OW38311   1.121   1.798   8.089 -0.0979  0.2273 -0.1807
 8893SOL    HW138312   1.051   1.776   8.150  1.1886  1.6423  1.7791
 8893SOL    HW238313   1.068   1.857   8.036 -0.4518 -0.1769 -0.2793
 8894SOL     OW38314   0.804   0.702   2.149 -0.7138 -0.3088  0.1443
 8894SOL    HW138315   0.849   0.773   2.194  0.0494  0.6970 -2.2058
 8894SOL    HW238316   0.877   0.657   2.107  2.1694  2.9327  1.7290
 8895SOL     OW38317   3.190   1.952   9.127  0.4795 -0.3570 -0.6746
 8895SOL    HW138318   3.154   1.915   9.046 -1.9801 -0.2248  0.3648
 8895SOL    HW238319   3.155   1.896   9.196  1.0704  0.2118  0.0834
 8896SOL     OW38320   1.112   0.960   2.697  0.3079 -0.1589 -0.0967
 8896SOL    HW138321   1.039   0.982   2.639  0.2249  0.2478  0.1537
 8896SOL    HW238322   1.106   0.865   2.693  0.0795 -0.1465 -0.0706
 8897SOL     OW38323   4.372   4.186   6.304 -0.0982  0.3034 -0.3000
 8897SOL    HW138324   4.337   4.125   6.239  0.0056  0.7491 -0.7752
 8897SOL    HW238325   4.351   4.136   6.383  0.8855  0.7321  0.2284
 8898SOL     OW38326   0.713   2.432   3.608  0.2533  0.0373  0.4024
 8898SOL    HW138327   0.662   2.420   3.688 -2.0055  1.8878 -0.7428
 8898SOL    HW238328   0.651   2.401   3.543  1.3940 -1.3369 -0.0176
 8899SOL     OW38329   0.589   4.218   2.427 -0.1647  0.2431  0.1876
 8899SOL    HW138330   0.596   4.154   2.356  3.1802 -0.8061  1.4590
 8899SOL    HW238331   0.643   4.173   2.491  0.9177  1.4776  0.1501
 8900SOL     OW38332   4.151   3.800  17.547 -0.4365 -0.4848 -0.0707
 8900SOL    HW138333   4.230   3.816  17.598 -0.3674  0.3364 -0.4416
 8900SOL    HW238334   4.086   3.852  17.594 -1.0063 -2.0210  0.8591
 8901SOL     OW38335   3.549   4.362  13.276 -0.2696  0.0093  0.7140
 8901SOL    HW138336   3.602   4.439  13.254  1.1933 -0.8940  1.1082
 8901SOL    HW238337   3.546   4.369  13.371 -1.1765 -0.0753  0.6888
 8902SOL     OW38338   1.880   0.075   8.121  0.1650  0.2353  0.2113
 8902SOL    HW138339   1.863   0.169   8.112  1.7332  0.5199  0.1854
 8902SOL    HW238340   1.911   0.069   8.212  1.3409  1.1094 -0.1248
 8903SOL     OW38341   0.842   4.182  10.006 -0.0589 -0.4790 -0.3332
 8903SOL    HW138342   0.849   4.265  10.053  2.7300 -1.2161  0.5868
 8903SOL    HW238343   0.752   4.162  10.031  0.8492  0.0238  3.3452
 8904SOL     OW38344   2.402   4.232   6.996 -0.0715 -0.2748  0.3390
 8904SOL    HW138345   2.348   4.261   7.070 -0.0967  1.5640 -0.4077
 8904SOL    HW238346   2.325   4.242   6.939  0.2292 -1.2484 -0.2519
 8905SOL     OW38347   1.485   1.769   4.913  0.2651 -0.7468 -0.0243
 8905SOL    HW138348   1.518   1.789   4.826  1.4983 -1.6720  0.2451
 8905SOL    HW238349   1.447   1.682   4.901 -0.6672 -0.3599  0.1176
 8906SOL     OW38350   2.826   2.475   3.932 -0.4122 -0.0311  0.3295
 8906SOL    HW138351   2.784   2.397   3.969 -1.0076  0.8594  1.5423
 8906SOL    HW238352   2.792   2.539   3.994  0.2881 -0.7759  1.4901
 8907SOL     OW38353   0.918   1.746   8.292 -0.3203  0.1336  0.0042
 8907SOL    HW138354   0.925   1.786   8.378  0.7302 -1.3323  0.5961
 8907SOL    HW238355   0.879   1.661   8.310 -0.9045  0.1165 -1.3289
 8908SOL     OW38356   1.694   3.292   5.405 -0.6089  0.3969 -0.0930
 8908SOL    HW138357   1.703   3.206   5.364 -1.7783 -1.4406  3.4080
 8908SOL    HW238358   1.765   3.333   5.357  0.5084 -0.1267  1.1202
 8909SOL     OW38359   4.340   1.444  14.885  0.2691 -0.0142  0.0426
 8909SOL    HW138360   4.434   1.423  14.885  0.4247  0.6915  1.4776
 8909SOL    HW238361   4.342   1.527  14.838  4.2259 -0.9390 -1.4187
 8910SOL     OW38362   1.844   2.974   3.053  0.5567 -0.5720 -0.6768
 8910SOL    HW138363   1.782   3.039   3.022 -2.4342 -2.7236  0.8881
 8910SOL    HW238364   1.930   3.014   3.038 -0.0085  1.1003  0.6694
 8911SOL     OW38365   3.834   2.951  12.255  0.0197  0.1578  0.1259
 8911SOL    HW138366   3.783   2.926  12.332 -0.7640 -0.9039 -0.7249
 8911SOL    HW238367   3.905   3.002  12.294 -1.1142  3.3809 -2.0160
 8912SOL     OW38368   3.550   0.194   8.644  0.1999 -0.4965 -0.3562
 8912SOL    HW138369   3.550   0.131   8.572 -1.2216  0.0240 -0.8104
 8912SOL    HW238370   3.532   0.147   8.725  0.2712  1.2402  0.6720
 8913SOL     OW38371   1.932   2.979   3.474  0.4669  0.2312  0.0196
 8913SOL    HW138372   1.983   3.053   3.444  0.1650  0.8369  0.9888
 8913SOL    HW238373   1.863   2.982   3.408  2.2656 -0.0002 -1.8538
 8914SOL     OW38374   1.114   0.892   1.673  0.0753 -0.1533  0.8465
 8914SOL    HW138375   1.168   0.968   1.693  0.0752  0.3255 -0.9398
 8914SOL    HW238376   1.055   0.900   1.747 -2.3249 -0.2757 -1.0368
 8915SOL     OW38377   1.459   3.227   4.279  0.0957  0.5429  0.1739
 8915SOL    HW138378   1.385   3.284   4.259  1.0851  1.8671  0.2345
 8915SOL    HW238379   1.504   3.232   4.194  1.0555 -1.6451  0.5432
 8916SOL     OW38380   0.743   3.591   7.478  0.2151 -0.2356 -0.0809
 8916SOL    HW138381   0.810   3.583   7.410  1.8230 -2.2603  1.7729
 8916SOL    HW238382   0.673   3.543   7.435 -0.4233 -0.0930  0.8014
 8917SOL     OW38383   3.026   3.562   1.814  0.0582  0.6037  1.1447
 8917SOL    HW138384   3.107   3.550   1.765 -0.5942 -1.0184  0.4354
 8917SOL    HW238385   3.008   3.474   1.849 -1.4264  1.4342  2.4507
 8918SOL     OW38386   2.916   4.373   3.120 -0.0502 -0.1913 -0.0194
 8918SOL    HW138387   2.993   4.319   3.136 -0.3386 -1.1977 -2.0156
 8918SOL    HW238388   2.874   4.399   3.202  0.0864 -1.1117  0.3416
 8919SOL     OW38389   0.809   3.218   9.397  0.1216 -0.3683  0.0468
 8919SOL    HW138390   0.856   3.224   9.480 -0.3566  0.1972  0.2752
 8919SOL    HW238391   0.746   3.290   9.407 -0.1047 -0.9598  3.0566
 8920SOL     OW38392   2.492   2.859   4.400  0.3681 -0.4744 -0.1356
 8920SOL    HW138393   2.558   2.903   4.453 -0.1382  1.4114 -1.0839
 8920SOL    HW238394   2.418   2.919   4.402  1.1962  0.4703  1.9138
 8921SOL     OW38395   0.143   1.049   7.204  0.2075  0.0724  0.6069
 8921SOL    HW138396   0.192   1.121   7.242 -2.0075  1.1851  1.3623
 8921SOL    HW238397   0.068   1.049   7.264 -1.0696 -2.2488 -0.9695
 8922SOL     OW38398   2.648   3.341  10.413 -0.0421 -0.2971  0.2015
 8922SOL    HW138399   2.703   3.406  10.369  0.1087 -0.1463  0.6144
 8922SOL    HW238400   2.662   3.364  10.505  0.1443  0.0163  0.0935
 8923SOL     OW38401   1.206   1.758   7.828 -0.4624 -0.0863 -0.2342
 8923SOL    HW138402   1.184   1.742   7.920  1.6651 -0.5717  0.1700
 8923SOL    HW238403   1.129   1.806   7.796 -1.0240 -2.4737 -2.4563
 8924SOL     OW38404   4.559   4.006   7.495  0.4340  0.1913  0.0857
 8924SOL    HW138405   4.542   4.071   7.427 -0.5540 -0.4170 -0.2516
 8924SOL    HW238406   4.565   4.046   7.581  2.1352 -2.2690  1.1380
 8925SOL     OW38407   4.235   3.564   4.047  0.0378 -0.2293  0.2819
 8925SOL    HW138408   4.205   3.503   3.979  1.0942  0.8015 -1.1047
 8925SOL    HW238409   4.155   3.595   4.088 -0.1106 -1.5189  0.9693
 8926SOL     OW38410   2.148   1.303   9.547 -0.5824 -0.1703 -0.5467
 8926SOL    HW138411   2.146   1.264   9.460  1.4598 -1.7037  0.0875
 8926SOL    HW238412   2.210   1.375   9.537 -0.3673 -0.7155 -3.2063
 8927SOL     OW38413   4.469   4.450   7.058 -0.0931  0.0800 -0.2623
 8927SOL    HW138414   4.376   4.427   7.057  0.0245 -0.3907 -0.3154
 8927SOL    HW238415   4.462   4.544   7.074  1.7018 -0.2256  2.2611
 8928SOL     OW38416   3.464   0.384  12.806 -0.4018  0.5301 -0.3235
 8928SOL    HW138417   3.397   0.399  12.873  0.4479 -2.1424  1.1158
 8928SOL    HW238418   3.525   0.362  12.875 -1.0236 -0.4033 -0.0793
 8929SOL     OW38419   1.676   4.536   3.424  0.2316  1.3134 -0.0985
 8929SOL    HW138420   1.726   4.587   3.488  1.1726  2.5257 -1.8003
 8929SOL    HW238421   1.749   4.503   3.372 -1.1000  0.0677 -1.2030
 8930SOL     OW38422   3.702   3.622   4.385 -0.1115 -0.0169  0.4300
 8930SOL    HW138423   3.636   3.691   4.376 -1.2681 -1.3666 -1.6492
 8930SOL    HW238424   3.706   3.585   4.296 -0.9636 -0.9890  0.8001
 8931SOL     OW38425   1.017   4.604  16.527  0.3827  0.2286 -0.2862
 8931SOL    HW138426   1.088   4.667  16.510  0.5302  0.0275 -0.4142
 8931SOL    HW238427   0.937   4.653  16.543 -0.5469 -1.4290  0.1599
 8932SOL     OW38428   1.959   3.003   8.619 -0.4327 -0.2824  0.7198
 8932SOL    HW138429   1.891   3.043   8.566 -0.8506 -0.3199  1.2286
 8932SOL    HW238430   1.964   2.912   8.589  1.0804  0.0126  0.0825
 8933SOL     OW38431   0.193   0.047   2.103 -0.1810  0.3548  0.4021
 8933SOL    HW138432   0.232   4.703   2.072 -0.9216  0.3563 -0.5186
 8933SOL    HW238433   0.168   0.082   2.018  0.5181  2.2313  0.9618
 8934SOL     OW38434   0.944   0.498   3.511 -0.5369  0.7306  0.5616
 8934SOL    HW138435   0.868   0.449   3.542 -0.1359 -0.7317 -0.7592
 8934SOL    HW238436   0.926   0.574   3.566  0.9962  2.2867 -1.0976
 8935SOL     OW38437   1.598   3.215   2.322 -0.0187 -0.3211  0.0806
 8935SOL    HW138438   1.612   3.223   2.417  0.8162 -0.2281 -0.0454
 8935SOL    HW238439   1.685   3.185   2.295  0.0087 -0.3038  0.1488
 8936SOL     OW38440   1.887   0.681   5.318 -0.2526 -0.0814 -0.3369
 8936SOL    HW138441   1.933   0.706   5.238 -2.0306 -0.5669 -1.4949
 8936SOL    HW238442   1.835   0.606   5.292 -0.0899  0.2141 -1.4865
 8937SOL     OW38443   1.937   1.180   9.657 -0.2137  0.1378 -0.3367
 8937SOL    HW138444   2.012   1.227   9.620 -0.1909 -0.6169 -1.2601
 8937SOL    HW238445   1.966   1.089   9.659  1.5987  0.7558  1.8347
 8938SOL     OW38446   0.188   3.552   5.821 -0.5197  0.5656  0.3285
 8938SOL    HW138447   0.227   3.522   5.738  0.9947  2.7589  0.2375
 8938SOL    HW238448   0.129   3.477   5.829  1.2278 -1.0114 -1.4312
 8939SOL     OW38449   3.208   1.643   6.244  0.5052  0.0785  0.2690
 8939SOL    HW138450   3.146   1.703   6.287  0.5983  1.3356 -1.3321
 8939SOL    HW238451   3.265   1.710   6.206 -0.6115  0.2656 -1.0727
 8940SOL     OW38452   2.898   0.095  11.196 -0.8323  0.1376  0.2424
 8940SOL    HW138453   2.953   0.174  11.199 -1.1344  0.2264  3.2003
 8940SOL    HW238454   2.956   0.041  11.142  0.0958  0.6904  0.6853
 8941SOL     OW38455   1.349   1.637   0.057 -0.4340 -0.5076 -0.7418
 8941SOL    HW138456   1.327   1.697   0.128  3.1228  0.1801 -0.2287
 8941SOL    HW238457   1.410   1.686   0.001 -1.4466 -0.7202 -2.0484
 8942SOL     OW38458   0.633   3.312   5.834  0.2014 -0.1119  0.2244
 8942SOL    HW138459   0.699   3.381   5.828 -1.9555  1.9327 -0.0665
 8942SOL    HW238460   0.573   3.336   5.762 -0.4360 -0.7297  0.5530
 8943SOL     OW38461   4.514   2.222   5.191  0.1224  0.9725  0.4971
 8943SOL    HW138462   4.526   2.258   5.279 -0.3792  1.2084  0.4703
 8943SOL    HW238463   4.539   2.132   5.209 -4.1939 -0.2789  0.0813
 8944SOL     OW38464   2.032   2.314   1.798 -0.0488 -0.1653 -0.1325
 8944SOL    HW138465   2.068   2.285   1.882  0.1926 -1.1796 -0.5828
 8944SOL    HW238466   2.046   2.408   1.810  0.5590 -0.1611 -0.8323
 8945SOL     OW38467   2.362   0.716   9.809  0.4548  0.1974 -0.1157
 8945SOL    HW138468   2.454   0.735   9.825  0.7183 -0.5674 -0.7032
 8945SOL    HW238469   2.334   0.794   9.762 -1.1488 -1.8303 -2.5427
 8946SOL     OW38470   1.030   2.514   2.142 -0.3800 -1.0539 -0.0088
 8946SOL    HW138471   0.969   2.447   2.171 -0.4839 -1.1085 -0.3503
 8946SOL    HW238472   0.972   2.589   2.132  1.2857  0.4844  1.7000
 8947SOL     OW38473   1.591   4.050   8.862  0.5165 -0.2563  0.1348
 8947SOL    HW138474   1.656   4.082   8.925 -1.3743  1.3518  1.2677
 8947SOL    HW238475   1.652   4.034   8.789 -0.4861 -1.2230 -0.4942
 8948SOL     OW38476   1.156   1.227  10.616 -0.4452 -0.3597 -0.0488
 8948SOL    HW138477   1.213   1.290  10.660  1.8302 -2.8786  0.5910
 8948SOL    HW238478   1.198   1.145  10.639  0.5885 -0.2207 -1.4560
 8949SOL     OW38479   2.295   3.452   6.876  0.3428  0.4638  0.5856
 8949SOL    HW138480   2.360   3.471   6.943 -2.7305  1.8001  3.1707
 8949SOL    HW238481   2.251   3.378   6.918  0.3346  0.1021 -0.0443
 8950SOL     OW38482   1.593   0.566   7.533 -0.0355  0.2921 -0.0189
 8950SOL    HW138483   1.645   0.506   7.480 -0.1104 -0.7737  1.0987
 8950SOL    HW238484   1.662   0.627   7.560 -0.1290  1.3070 -2.0766
 8951SOL     OW38485   0.970   4.384  10.976  0.0458 -0.1032  0.6549
 8951SOL    HW138486   1.050   4.391  11.029 -0.8696 -0.6098  2.1096
 8951SOL    HW238487   1.017   4.362  10.896 -3.7769 -0.5317 -1.4171
 8952SOL     OW38488   0.583   4.628   9.082 -0.1676 -0.0119  0.1062
 8952SOL    HW138489   0.521   4.700   9.092  1.8362  1.8311 -0.6779
 8952SOL    HW238490   0.559   4.605   8.992 -1.5074 -2.1629  1.0126
 8953SOL     OW38491   3.541   1.541   7.376 -0.0771 -0.1579 -0.1036
 8953SOL    HW138492   3.514   1.631   7.395 -3.8629 -0.8454 -2.4038
 8953SOL    HW238493   3.548   1.506   7.465 -0.0067 -1.1583 -0.4974
 8954SOL     OW38494   3.259   0.950   7.215 -0.3862  0.5827  0.7683
 8954SOL    HW138495   3.229   0.964   7.305 -1.2547 -1.2126  0.7598
 8954SOL    HW238496   3.351   0.965   7.234  0.1809  1.8383 -2.9161
 8955SOL     OW38497   3.219   0.601   1.515  0.2510 -0.3979 -0.1272
 8955SOL    HW138498   3.159   0.676   1.516  0.5621 -0.1223 -1.2380
 8955SOL    HW238499   3.309   0.632   1.525 -0.4361  0.5288  3.0578
 8956SOL     OW38500   3.837   2.414   3.319  0.6746  0.1819 -0.9224
 8956SOL    HW138501   3.817   2.321   3.331 -2.6744  1.3638  2.7068
 8956SOL    HW238502   3.758   2.452   3.357  0.6040  0.3429 -1.2320
 8957SOL     OW38503   1.906   3.145   6.428  0.1392  0.1460 -0.0024
 8957SOL    HW138504   1.893   3.091   6.506 -1.5152  1.7106  0.7768
 8957SOL    HW238505   1.826   3.196   6.422 -0.6495 -1.2070 -0.9596
 8958SOL     OW38506   4.268   3.131   2.088  0.2459 -0.5281  0.1848
 8958SOL    HW138507   4.199   3.195   2.077  0.0265 -0.7370  0.3426
 8958SOL    HW238508   4.325   3.175   2.152  0.1129 -1.6463  1.0717
 8959SOL     OW38509   3.844   1.173   8.736 -0.0797  0.0449 -0.5622
 8959SOL    HW138510   3.880   1.197   8.650  0.2117 -1.4457 -0.8431
 8959SOL    HW238511   3.750   1.167   8.720 -0.2714  0.2985  0.4380
 8960SOL     OW38512   1.685   2.398  10.417  0.2236  0.1068 -0.1258
 8960SOL    HW138513   1.599   2.370  10.448  0.3715 -0.5545 -0.3185
 8960SOL    HW238514   1.723   2.424  10.501  2.2062  0.8787 -1.2695
 8961SOL     OW38515   3.735   2.129  16.161  0.0845  0.2962 -0.0757
 8961SOL    HW138516   3.779   2.044  16.168  1.2011  0.8724 -0.1297
 8961SOL    HW238517   3.702   2.133  16.251  1.9210 -1.2594  0.6698
 8962SOL     OW38518   4.622   0.748   3.841  0.3098  0.1633  0.0851
 8962SOL    HW138519   4.629   0.696   3.921 -0.2022  0.1276  0.1051
 8962SOL    HW238520   4.707   0.792   3.835  0.1061  0.8505  2.1114
 8963SOL     OW38521   2.165   3.102   8.160 -0.4026  0.1670 -0.4653
 8963SOL    HW138522   2.228   3.124   8.229 -1.8802 -0.5294  1.0801
 8963SOL    HW238523   2.137   3.184   8.119  0.0452  2.2497  3.3627
 8964SOL     OW38524   2.733   1.157   3.363 -0.5470 -0.5664  0.7935
 8964SOL    HW138525   2.784   1.097   3.416 -2.3083 -2.1403  0.7221
 8964SOL    HW238526   2.781   1.150   3.281  0.9494  0.6411  1.5723
 8965SOL     OW38527   1.163   1.046  12.212 -0.8069  0.1055 -0.1395
 8965SOL    HW138528   1.225   1.076  12.146  0.6803 -2.3593  0.1118
 8965SOL    HW238529   1.228   1.033  12.280 -1.4783  0.0126  0.4864
 8966SOL     OW38530   1.231   1.795   9.097  0.6794 -0.0674  0.2723
 8966SOL    HW138531   1.167   1.861   9.069  0.8013 -1.1123 -2.4877
 8966SOL    HW238532   1.210   1.721   9.040 -0.6843  0.2302  0.3936
 8967SOL     OW38533   2.205   2.684  17.491  0.3995 -0.0630 -0.1662
 8967SOL    HW138534   2.231   2.756  17.434 -1.7150  0.5653 -0.3354
 8967SOL    HW238535   2.285   2.633  17.501  1.3781  1.0675 -2.2964
 8968SOL     OW38536   1.076   1.607  15.723  0.0305  0.1328 -0.1021
 8968SOL    HW138537   1.064   1.520  15.761 -1.6272  1.3093  2.0285
 8968SOL    HW238538   1.153   1.600  15.666  0.0843  0.4275 -0.0651
 8969SOL     OW38539   1.424   4.624   3.413  0.2145 -0.5161  0.3291
 8969SOL    HW138540   1.510   4.599   3.378  0.2110  1.7747 -1.3508
 8969SOL    HW238541   1.364   4.559   3.377  0.6699 -0.1832 -1.0314
 8970SOL     OW38542   4.075   1.102   3.549  0.4136 -0.1009 -0.0412
 8970SOL    HW138543   4.121   1.170   3.599  0.6831 -0.2828 -0.0397
 8970SOL    HW238544   3.985   1.133   3.554  0.1166 -0.7324 -1.4892
 8971SOL     OW38545   1.495   0.837   3.968  0.0289  0.6858  0.3898
 8971SOL    HW138546   1.460   0.775   4.032  0.0681  1.4251  1.1224
 8971SOL    HW238547   1.582   0.801   3.947  0.3207  1.1341  0.8282
 8972SOL     OW38548   2.083   2.057   3.204  0.2751 -0.2409 -0.1973
 8972SOL    HW138549   2.138   2.134   3.190 -1.6343  0.8757 -1.5909
 8972SOL    HW238550   2.136   1.995   3.153  0.9506  0.1917 -0.0276
 8973SOL     OW38551   4.289   3.110   2.503 -0.0796  0.0746 -0.4306
 8973SOL    HW138552   4.337   3.075   2.428  0.0332  0.5132 -0.5577
 8973SOL    HW238553   4.271   3.024   2.542 -2.3939  0.7869  0.0709
 8974SOL     OW38554   2.351   3.541   3.601  0.2881 -0.0100 -0.1333
 8974SOL    HW138555   2.376   3.517   3.512  1.2824 -1.8089  0.6388
 8974SOL    HW238556   2.427   3.510   3.649  0.8529  1.0505 -0.3483
 8975SOL     OW38557   1.477   3.311   0.788 -0.3637  0.5929  0.5683
 8975SOL    HW138558   1.403   3.305   0.849 -0.9374  1.7583 -0.0022
 8975SOL    HW238559   1.444   3.294   0.700  3.1777  2.3568 -1.1202
 8976SOL     OW38560   0.447   1.139   6.330 -0.2483  0.2980 -0.2104
 8976SOL    HW138561   0.469   1.047   6.346 -1.2692  0.0138 -0.3999
 8976SOL    HW238562   0.496   1.188   6.395  1.3968 -0.8326 -0.5938
 8977SOL     OW38563   3.367   3.396   6.700 -0.6270  0.0759 -0.3643
 8977SOL    HW138564   3.455   3.361   6.714 -1.4417 -1.7670  0.2172
 8977SOL    HW238565   3.389   3.489   6.705 -1.0942  0.2154 -0.9211
 8978SOL     OW38566   0.844   0.945   4.687  0.3633  0.3641  0.3603
 8978SOL    HW138567   0.845   0.859   4.644  1.0698  0.2215  0.6555
 8978SOL    HW238568   0.853   0.920   4.779 -0.2737 -0.6884  0.1251
 8979SOL     OW38569   0.776   3.919   1.843 -0.3164  0.7735  0.0207
 8979SOL    HW138570   0.695   3.929   1.894  0.1955  0.9333  0.8039
 8979SOL    HW238571   0.798   4.010   1.823 -0.7701  0.4583 -1.9357
 8980SOL     OW38572   1.062   3.920  12.315 -0.4761  0.2918 -0.5868
 8980SOL    HW138573   1.136   3.912  12.255 -0.7414 -1.7551 -0.6488
 8980SOL    HW238574   1.057   4.015  12.313 -0.3248  0.2454 -3.0358
 8981SOL     OW38575   2.478   0.305   4.163 -0.0995 -0.6377 -0.4039
 8981SOL    HW138576   2.435   0.252   4.229  1.8861 -1.5828  0.1337
 8981SOL    HW238577   2.499   0.379   4.220  0.4900 -0.7668 -0.4551
 8982SOL     OW38578   2.327   4.505  13.976 -0.0551 -0.1388  0.3128
 8982SOL    HW138579   2.315   4.481  13.884 -1.6037  1.8359  0.0189
 8982SOL    HW238580   2.406   4.454  13.998 -0.5622 -0.6174  1.0026
 8983SOL     OW38581   0.605   0.263   9.154 -0.1573 -0.3975  0.2529
 8983SOL    HW138582   0.674   0.197   9.149  1.4372  1.3388 -0.7549
 8983SOL    HW238583   0.600   0.277   9.248 -2.1744  1.5984 -0.1382
 8984SOL     OW38584   1.927   3.611   3.690  0.5306  0.4000  0.5043
 8984SOL    HW138585   1.897   3.701   3.697  0.5073  0.4773 -0.5728
 8984SOL    HW238586   2.015   3.631   3.658 -0.3280  0.5919 -1.7362
 8985SOL     OW38587   3.109   1.365  10.787 -0.4262  0.9940 -0.0309
 8985SOL    HW138588   3.174   1.330  10.848 -1.5005 -2.3962 -0.8205
 8985SOL    HW238589   3.160   1.352  10.707 -2.4459 -3.0308 -0.6856
 8986SOL     OW38590   4.476   1.582   8.015 -0.0578 -0.0474  0.0131
 8986SOL    HW138591   4.515   1.615   8.095  0.3984  1.3416 -0.7853
 8986SOL    HW238592   4.545   1.530   7.973  0.3030 -0.0478  0.6133
 8987SOL     OW38593   2.466   1.997   7.650  0.4451 -0.6593 -0.5569
 8987SOL    HW138594   2.530   1.926   7.642 -0.5621 -1.7973  1.4105
 8987SOL    HW238595   2.384   1.949   7.658  0.8902 -1.0552  1.8984
 8988SOL     OW38596   4.252   1.220  17.655 -0.1488  0.3957  0.4714
 8988SOL    HW138597   4.231   1.284  17.587  1.3699 -1.7468 -1.9917
 8988SOL    HW238598   4.288   1.151  17.599 -2.9983 -1.6102  1.1036
 8989SOL     OW38599   0.009   1.007   9.277  0.2565  0.5858  0.1346
 8989SOL    HW138600   4.680   0.939   9.292 -1.5504  2.1605 -0.7104
 8989SOL    HW238601   0.079   0.963   9.326 -0.3922  1.7235  2.1097
 8990SOL     OW38602   1.057   3.330   0.088 -0.1509 -0.9618  0.2533
 8990SOL    HW138603   1.050   3.260   0.153 -0.2738  0.4006  1.6796
 8990SOL    HW238604   1.149   3.313   0.067  0.2471  1.5191  0.0730
 8991SOL     OW38605   2.331   3.720   4.399  0.2307 -0.2170  0.2460
 8991SOL    HW138606   2.245   3.736   4.437  0.0303  2.8107 -1.5093
 8991SOL    HW238607   2.299   3.700   4.311  0.4038  1.6238 -0.2278
 8992SOL     OW38608   4.153   4.348   3.835  0.4289  0.8691  0.2263
 8992SOL    HW138609   4.240   4.331   3.874  0.0372 -0.9264  0.3268
 8992SOL    HW238610   4.167   4.299   3.754  1.7386  1.6071  0.0025
 8993SOL     OW38611   4.613   0.073   6.714 -0.1634 -0.3086 -0.2529
 8993SOL    HW138612   4.584   0.079   6.623  1.9652  0.5368 -0.8586
 8993SOL    HW238613   4.596   0.164   6.740 -1.0417 -0.0450 -1.7804
 8994SOL     OW38614   1.164   2.839   8.680  0.4052  0.3801 -0.4300
 8994SOL    HW138615   1.186   2.929   8.704 -0.9456  0.5047  0.3105
 8994SOL    HW238616   1.069   2.850   8.680  0.4876  1.0439  2.2122
 8995SOL     OW38617   0.554   0.852   2.388 -0.0593 -0.1359 -0.3741
 8995SOL    HW138618   0.614   0.925   2.373  1.4778 -1.4241 -0.4640
 8995SOL    HW238619   0.517   0.830   2.302 -2.8798 -0.7129  0.9922
 8996SOL     OW38620   1.658   2.236   8.936 -0.4746 -0.2818  0.2905
 8996SOL    HW138621   1.717   2.264   8.867  0.1637  0.4064  1.1206
 8996SOL    HW238622   1.621   2.323   8.950 -0.2804 -0.2331  0.5000
 8997SOL     OW38623   4.012   3.762   7.187  0.5110  0.1780 -0.0085
 8997SOL    HW138624   3.970   3.769   7.273  0.2181  0.0611 -0.1421
 8997SOL    HW238625   4.075   3.692   7.199 -0.3208 -0.8068 -1.3287
 8998SOL     OW38626   1.761   0.522  12.026 -0.0203 -0.3613  0.3829
 8998SOL    HW138627   1.726   0.434  12.011  0.4152 -0.1750 -1.7573
 8998SOL    HW238628   1.722   0.540  12.111  1.5462 -0.0742  1.0417
 8999SOL     OW38629   1.221   3.702  11.797 -0.4270  0.5171 -0.1618
 8999SOL    HW138630   1.181   3.669  11.716  0.2977  0.7096 -0.6023
 8999SOL    HW238631   1.150   3.678  11.857 -1.0958 -0.5241 -1.3621
 9000SOL     OW38632   4.735   1.115   4.694  0.2183  0.0927  0.2921
 9000SOL    HW138633   4.706   1.170   4.621 -1.9070  0.7630  1.6260
 9000SOL    HW238634   0.043   1.042   4.651  0.2415  1.3243 -1.7861
 9001SOL     OW38635   1.206   1.502   8.441 -0.0278  0.1452  0.0936
 9001SOL    HW138636   1.207   1.597   8.427  0.8955  0.3635  1.6247
 9001SOL    HW238637   1.184   1.472   8.353 -0.0142 -0.0389  0.1525
 9002SOL     OW38638   2.270   0.984   8.497  0.2432 -0.3024  0.7859
 9002SOL    HW138639   2.200   1.046   8.518  1.0096  0.7954  0.1414
 9002SOL    HW238640   2.248   0.971   8.405 -0.0657 -0.3826  0.8735
 9003SOL     OW38641   1.673   2.310   4.454 -0.3631  0.1116  0.1630
 9003SOL    HW138642   1.757   2.315   4.408  1.3287 -0.2935  3.1734
 9003SOL    HW238643   1.651   2.217   4.447 -2.1779  0.3434  2.5471
 9004SOL     OW38644   3.917   3.264  13.585  0.1105  0.0108  0.7944
 9004SOL    HW138645   3.932   3.271  13.491 -2.5600 -0.4290  0.3439
 9004SOL    HW238646   4.010   3.259  13.606  0.7390 -0.7786 -2.2505
 9005SOL     OW38647   4.507   0.066   1.191 -0.2222  0.0821 -0.1836
 9005SOL    HW138648   4.451   0.044   1.265  1.0774  0.6504  0.9715
 9005SOL    HW238649   4.464   0.145   1.160  2.5445  1.4791 -0.4625
 9006SOL     OW38650   3.514   1.507  11.877 -0.6969  0.7092 -0.1989
 9006SOL    HW138651   3.488   1.538  11.963 -1.7174  1.2682 -0.7173
 9006SOL    HW238652   3.451   1.440  11.852 -0.6181  0.5985 -0.0960
 9007SOL     OW38653   4.147   2.509   7.763 -1.1940 -0.2145 -0.4491
 9007SOL    HW138654   4.240   2.490   7.774 -0.9794  1.3023  0.4269
 9007SOL    HW238655   4.104   2.486   7.846 -2.4245 -1.1764 -1.3522
 9008SOL     OW38656   0.082   2.908   2.789  0.2194  0.5900 -0.0516
 9008SOL    HW138657   0.046   2.985   2.832  2.2607  1.9461 -0.7888
 9008SOL    HW238658   0.166   2.902   2.836  1.7772 -0.9593 -3.0036
 9009SOL     OW38659   0.320   3.048   8.531 -0.7987  0.6601 -0.3508
 9009SOL    HW138660   0.333   3.142   8.519  1.0548  0.5029  0.4666
 9009SOL    HW238661   0.225   3.035   8.542 -0.5201  0.5982  1.9153
 9010SOL     OW38662   1.472   1.383   8.227  0.0820 -0.1065 -0.7018
 9010SOL    HW138663   1.390   1.430   8.212 -0.3049 -0.6550 -0.3389
 9010SOL    HW238664   1.529   1.446   8.271 -0.5785  0.2472 -0.3625
 9011SOL     OW38665   1.114   4.045   4.915 -0.4090 -0.5717  0.0633
 9011SOL    HW138666   1.201   4.005   4.917  0.2571  0.8145 -1.4327
 9011SOL    HW238667   1.072   4.000   4.989  0.8392 -1.8437  0.0051
 9012SOL     OW38668   0.164   1.302   4.860 -0.1873  0.2570 -0.1449
 9012SOL    HW138669   0.158   1.310   4.956  1.3800 -0.5892  0.0233
 9012SOL    HW238670   0.114   1.222   4.845  0.2964 -0.0337 -0.1842
 9013SOL     OW38671   3.001   0.903   6.202 -0.6606 -0.0458 -0.3602
 9013SOL    HW138672   3.039   0.972   6.149  0.1547  0.9576  1.5497
 9013SOL    HW238673   2.930   0.959   6.235  0.2398  0.9592 -0.1614
 9014SOL     OW38674   4.227   1.646   6.733  0.4440  0.5876  0.4190
 9014SOL    HW138675   4.194   1.698   6.660 -2.3880 -2.5163 -0.4825
 9014SOL    HW238676   4.281   1.586   6.681  0.1582  0.8479 -0.1854
 9015SOL     OW38677   2.137   4.517   4.115 -0.0949 -0.4313  0.0555
 9015SOL    HW138678   2.096   4.601   4.095  0.0541  0.0291  1.6429
 9015SOL    HW238679   2.148   4.521   4.210 -2.2987 -0.7286  0.3319
 9016SOL     OW38680   2.776   2.025   5.555  0.7048 -0.2817  0.1128
 9016SOL    HW138681   2.749   2.000   5.644  1.5968 -2.0380 -0.1094
 9016SOL    HW238682   2.708   2.090   5.537  1.1505  0.4399  1.0123
 9017SOL     OW38683   0.714   4.503  15.316 -0.1741 -0.4198  0.2616
 9017SOL    HW138684   0.747   4.414  15.305  0.7971 -0.3035  2.3737
 9017SOL    HW238685   0.637   4.499  15.259 -0.2876  1.4962  0.2768
 9018SOL     OW38686   3.110   3.877  16.709  0.0763  0.1304 -0.4762
 9018SOL    HW138687   3.050   3.932  16.658  0.1743  0.3525 -0.3499
 9018SOL    HW238688   3.052   3.803  16.729 -1.3760  1.7063  1.1235
 9019SOL     OW38689   3.424   0.177   3.599 -0.5863 -0.7628  0.0979
 9019SOL    HW138690   3.476   0.098   3.615 -0.8454 -1.2152 -1.2431
 9019SOL    HW238691   3.346   0.133   3.563 -1.8118  1.4379  0.0927
 9020SOL     OW38692   4.281   2.465   7.314 -0.7632 -0.0610 -0.7972
 9020SOL    HW138693   4.252   2.448   7.403  0.0285 -0.0886 -0.5500
 9020SOL    HW238694   4.256   2.557   7.309 -1.0475 -0.1517 -1.0640
 9021SOL     OW38695   0.643   0.719   5.726 -0.3069 -0.0782 -0.1382
 9021SOL    HW138696   0.589   0.785   5.683  0.8893  0.3522 -0.9930
 9021SOL    HW238697   0.632   0.741   5.818  0.5077  1.8273 -0.4835
 9022SOL     OW38698   0.077   0.596   9.370 -0.0755 -0.7224  0.4441
 9022SOL    HW138699   0.172   0.583   9.360 -0.2164 -1.4993  0.0631
 9022SOL    HW238700   0.056   0.616   9.279 -0.5533  3.2319  1.4504
 9023SOL     OW38701   0.166   0.629   1.112 -0.2023  0.5490  0.1033
 9023SOL    HW138702   0.207   0.714   1.095  0.0635  0.2195 -0.8769
 9023SOL    HW238703   0.152   0.651   1.204  1.9312 -0.0767  0.5978
 9024SOL     OW38704   0.606   1.842   7.352  0.7442  0.6643  0.3182
 9024SOL    HW138705   0.665   1.911   7.381  4.1973 -1.8960 -0.5323
 9024SOL    HW238706   0.645   1.809   7.271  1.5550  0.9603  0.5873
 9025SOL     OW38707   0.212   2.465   3.109 -0.3439 -0.5770 -0.0116
 9025SOL    HW138708   0.184   2.526   3.177  1.6008  0.6190 -0.2623
 9025SOL    HW238709   0.148   2.491   3.042  1.2446 -0.8964 -1.6706
 9026SOL     OW38710   1.566   0.303   2.380 -0.5658  0.1484 -0.1964
 9026SOL    HW138711   1.636   0.329   2.320 -2.5031  1.4665 -1.8846
 9026SOL    HW238712   1.612   0.261   2.453 -0.2184  2.7966  1.1042
 9027SOL     OW38713   3.072   3.371   7.337 -0.0622 -0.1123  0.3269
 9027SOL    HW138714   3.059   3.356   7.243  1.1142 -0.8778  0.2773
 9027SOL    HW238715   3.154   3.420   7.339 -0.4272  0.6428 -3.0953
 9028SOL     OW38716   2.368   0.642  15.813  0.1076 -0.0059 -0.4241
 9028SOL    HW138717   2.371   0.715  15.875  1.7989  1.1051 -1.8161
 9028SOL    HW238718   2.425   0.675  15.743 -0.7202  2.7272  0.1893
 9029SOL     OW38719   2.942   0.063  15.595  0.0412  0.3482 -0.2142
 9029SOL    HW138720   3.029   0.054  15.633  0.1498  4.1756  0.4003
 9029SOL    HW238721   2.963   0.114  15.516  0.0867 -0.9156 -1.0157
 9030SOL     OW38722   4.075   4.698  15.706 -0.0851  0.3626 -0.0637
 9030SOL    HW138723   4.065   4.707  15.611  0.3793 -1.2243 -0.2502
 9030SOL    HW238724   4.032   0.042  15.734  0.2406  1.2737 -2.1691
 9031SOL     OW38725   2.973   0.478   0.293 -0.0704  0.3750 -0.1043
 9031SOL    HW138726   3.030   0.419   0.243  0.0161 -0.6066  1.1381
 9031SOL    HW238727   2.921   0.418   0.347  2.3151 -1.2993  0.3662
 9032SOL     OW38728   4.355   2.143   3.812 -0.2501  0.1434 -0.2866
 9032SOL    HW138729   4.275   2.101   3.841 -1.4261  2.7096  0.2414
 9032SOL    HW238730   4.424   2.081   3.832  0.5593  1.5372  1.2710
 9033SOL     OW38731   1.826   1.980   1.004  0.4307  0.0119 -0.5309
 9033SOL    HW138732   1.779   2.063   1.007  1.0999  0.3677 -0.1035
 9033SOL    HW238733   1.798   1.938   0.922  0.2469 -0.2719 -0.3224
 9034SOL     OW38734   2.322   1.219  16.790 -0.0987 -0.0302  0.1321
 9034SOL    HW138735   2.397   1.232  16.849  0.6760 -0.6012 -0.7308
 9034SOL    HW238736   2.260   1.167  16.840 -1.2126  1.4741  0.3070
 9035SOL     OW38737   2.192   4.586   8.589 -0.0289 -0.0698  0.3963
 9035SOL    HW138738   2.273   4.551   8.625 -1.0353 -2.4488  0.3362
 9035SOL    HW238739   2.124   4.548   8.645  0.5675 -0.3032  0.9555
 9036SOL     OW38740   2.567   1.022  14.738  0.5611 -0.5250 -0.1718
 9036SOL    HW138741   2.649   1.002  14.784 -0.1212 -0.3148  1.1225
 9036SOL    HW238742   2.600   1.023  14.648  0.6428  0.5781 -0.1203
 9037SOL     OW38743   2.515   0.263   4.969 -0.0635 -0.3121  0.3245
 9037SOL    HW138744   2.590   0.232   4.917  0.1124  1.1215 -0.2646
 9037SOL    HW238745   2.562   0.305   5.041 -0.5492 -2.3091  1.8194
 9038SOL     OW38746   0.200   3.304   4.442  0.1457  0.3128 -0.2788
 9038SOL    HW138747   0.170   3.214   4.453 -3.3736  1.4719 -0.3958
 9038SOL    HW238748   0.214   3.347   4.526 -0.8013  2.6121 -1.2933
 9039SOL     OW38749   2.494   2.868  15.587  0.8282  0.0870  0.3186
 9039SOL    HW138750   2.510   2.934  15.520 -1.3601  1.0624  0.7653
 9039SOL    HW238751   2.471   2.799  15.524  1.0694 -0.3698  0.7287
 9040SOL     OW38752   2.298   1.709   4.533 -0.1495  0.0316 -0.1128
 9040SOL    HW138753   2.225   1.670   4.484  0.4866 -1.0594 -0.1810
 9040SOL    HW238754   2.376   1.676   4.489 -0.7188 -1.6188  0.1044
 9041SOL     OW38755   4.716   0.752   1.707  0.2068 -0.1684 -0.5697
 9041SOL    HW138756   0.020   0.823   1.757 -0.8057  0.4298 -0.5996
 9041SOL    HW238757   4.622   0.764   1.694  0.2456  1.1428  0.4340
 9042SOL     OW38758   1.387   2.652   0.695  0.0848  0.4486  0.3307
 9042SOL    HW138759   1.392   2.729   0.639  1.4922 -0.5830 -0.9780
 9042SOL    HW238760   1.316   2.605   0.650  0.4309  0.7784 -0.5435
 9043SOL     OW38761   0.780   3.149  11.325 -0.1239 -0.1664 -0.4659
 9043SOL    HW138762   0.804   3.240  11.344  3.3586 -0.8695 -1.5509
 9043SOL    HW238763   0.865   3.105  11.320 -0.6061 -1.3938  1.9635
 9044SOL     OW38764   0.246   2.851  10.588 -0.2413  0.2125 -0.0222
 9044SOL    HW138765   0.174   2.889  10.536  0.2245  0.7497 -0.2833
 9044SOL    HW238766   0.197   2.807  10.657 -0.1518 -1.0338 -0.7679
 9045SOL     OW38767   0.426   1.154  14.838  0.4864 -0.3652  0.0632
 9045SOL    HW138768   0.356   1.212  14.867  0.0291 -1.4148  1.0639
 9045SOL    HW238769   0.436   1.087  14.906  0.7995 -0.8473 -0.4612
 9046SOL     OW38770   0.232   0.452  11.461 -0.1771 -0.0926 -0.0403
 9046SOL    HW138771   0.296   0.523  11.459 -1.0666  0.7252  0.3141
 9046SOL    HW238772   0.282   0.371  11.456 -0.5183 -0.2672 -0.6273
 9047SOL     OW38773   4.424   1.046   1.300 -0.1883 -0.2827 -0.1903
 9047SOL    HW138774   4.520   1.042   1.296 -0.1029  1.8279 -0.1142
 9047SOL    HW238775   4.413   1.117   1.363  1.5102 -0.1033 -0.0892
 9048SOL     OW38776   3.735   4.015   2.750  0.1689 -0.1251  0.0794
 9048SOL    HW138777   3.651   3.973   2.766 -0.1647  1.0623  1.3899
 9048SOL    HW238778   3.757   4.050   2.836  2.0029 -0.2826 -0.3357
 9049SOL     OW38779   1.845   0.213   6.791  0.2497  0.0825  0.1695
 9049SOL    HW138780   1.769   0.267   6.814 -1.3547 -2.0971 -0.0042
 9049SOL    HW238781   1.905   0.249   6.857  1.1381 -1.6692  0.3298
 9050SOL     OW38782   3.014   2.785   4.955 -0.3398  0.2627  0.2564
 9050SOL    HW138783   3.024   2.721   5.025  0.4187  1.3322  1.1105
 9050SOL    HW238784   3.094   2.837   4.960 -0.8623  1.0178  0.6187
 9051SOL     OW38785   0.554   1.613  11.174 -0.1261 -0.0558  0.0546
 9051SOL    HW138786   0.581   1.699  11.142 -0.2135 -1.0078 -2.5167
 9051SOL    HW238787   0.481   1.640  11.230 -1.0477  1.7538 -2.0387
 9052SOL     OW38788   3.353   1.317  12.345  0.3539 -0.4376 -0.9822
 9052SOL    HW138789   3.336   1.231  12.306 -0.7814 -0.8819  0.4943
 9052SOL    HW238790   3.444   1.310  12.374  1.2475 -0.3051 -3.8030
 9053SOL     OW38791   0.285   3.029   8.915 -0.6893  0.0730  0.1011
 9053SOL    HW138792   0.363   3.039   8.971 -0.6938  0.9008 -0.0418
 9053SOL    HW238793   0.305   2.946   8.872  1.0428 -0.5924  2.1836
 9054SOL     OW38794   2.816   0.605   0.081  0.3054  0.6317  0.4646
 9054SOL    HW138795   2.909   0.602   0.057  0.5525 -1.1665  1.6106
 9054SOL    HW238796   2.801   0.520   0.122 -0.8298  1.3023  1.4233
 9055SOL     OW38797   2.812   0.277   6.294 -0.0373  0.0761 -0.4824
 9055SOL    HW138798   2.887   0.311   6.245 -1.2058  2.1871 -0.7839
 9055SOL    HW238799   2.848   0.189   6.305 -2.9227 -0.9972  0.2717
 9056SOL     OW38800   3.924   4.427  12.743  0.5719 -0.1781  0.1108
 9056SOL    HW138801   3.913   4.337  12.772 -1.3280 -0.3890 -1.2696
 9056SOL    HW238802   3.831   4.447  12.747  0.8737  1.0755  0.6306
 9057SOL     OW38803   1.045   2.338   7.103 -0.1090  0.0705  0.3040
 9057SOL    HW138804   1.035   2.420   7.152 -1.5589 -1.0526  1.8650
 9057SOL    HW238805   1.089   2.282   7.167  0.9658 -0.9569 -1.3351
 9058SOL     OW38806   1.760   1.584   0.259 -0.1713 -0.4313  0.3432
 9058SOL    HW138807   1.788   1.664   0.215 -1.1292  0.7873  1.9587
 9058SOL    HW238808   1.745   1.625   0.344 -0.7294  2.8704 -1.3430
 9059SOL     OW38809   3.606   2.338   6.193 -0.8428 -0.2413  0.6281
 9059SOL    HW138810   3.632   2.312   6.104  0.3363 -0.5151  1.0521
 9059SOL    HW238811   3.652   2.272   6.246  0.5486 -0.0002 -0.2641
 9060SOL     OW38812   0.075   2.648  10.752  0.2273 -0.2833 -0.0083
 9060SOL    HW138813   0.043   2.579  10.809 -0.4217 -2.1685 -2.6258
 9060SOL    HW238814   0.104   2.712  10.817  0.3227  1.0037 -1.2915
 9061SOL     OW38815   2.852   1.310  17.470 -0.3312 -0.1004  0.4567
 9061SOL    HW138816   2.920   1.338  17.531  0.7237  0.4845 -0.9897
 9061SOL    HW238817   2.907   1.277  17.400  1.4221  0.8380  1.3922
 9062SOL     OW38818   3.959   2.455   4.427  0.4137  0.2041  0.2480
 9062SOL    HW138819   3.960   2.362   4.404  1.4714  0.5432 -1.0284
 9062SOL    HW238820   3.982   2.490   4.341 -1.7693 -1.5723 -1.0482
 9063SOL     OW38821   1.106   4.565   8.713  0.2783 -0.0104 -0.2738
 9063SOL    HW138822   1.120   4.473   8.735 -0.0450  0.5774  2.4734
 9063SOL    HW238823   1.173   4.585   8.648 -0.1155 -1.2502 -1.0687
 9064SOL     OW38824   4.294   0.304  17.576  0.4137 -0.2487  0.6041
 9064SOL    HW138825   4.376   0.296  17.624  1.2409  0.5205 -0.6892
 9064SOL    HW238826   4.301   0.241  17.504 -1.6400 -1.5321  1.5204
 9065SOL     OW38827   2.860   2.072   3.234  0.0829  0.0186  0.0943
 9065SOL    HW138828   2.827   2.056   3.323 -1.1995 -0.6584 -0.5003
 9065SOL    HW238829   2.893   1.982   3.223  1.4882  0.2962  1.8941
 9066SOL     OW38830   0.559   2.541   2.988  0.0930 -0.5690  0.0147
 9066SOL    HW138831   0.546   2.598   2.912 -0.8950 -0.2589  0.4097
 9066SOL    HW238832   0.539   2.452   2.960 -1.5775 -0.2018  0.0263
 9067SOL     OW38833   1.512   3.989   3.213 -0.6307  0.1399 -0.4454
 9067SOL    HW138834   1.476   3.900   3.221 -0.0362 -0.1972 -1.5113
 9067SOL    HW238835   1.597   3.966   3.173 -1.2006  0.2833 -1.7420
 9068SOL     OW38836   2.521   4.544   3.923  0.3311 -0.3023  0.4831
 9068SOL    HW138837   2.515   4.498   4.007  0.1477 -1.3524 -0.1201
 9068SOL    HW238838   2.569   4.624   3.945 -0.1454  0.4516 -1.2734
 9069SOL     OW38839   2.404   2.209   9.417  0.3081 -0.1412  0.3106
 9069SOL    HW138840   2.336   2.146   9.441 -1.1592  2.3492  2.7319
 9069SOL    HW238841   2.424   2.238   9.506  1.1676  3.2552 -0.9555
 9070SOL     OW38842   3.916   4.045   8.480 -0.1926  0.2992 -0.2043
 9070SOL    HW138843   3.948   4.127   8.443  0.1977 -0.5673 -1.8077
 9070SOL    HW238844   3.851   4.020   8.415 -0.6697 -1.7022  1.0450
 9071SOL     OW38845   1.721   1.804   4.201  0.5848 -0.5250 -0.2135
 9071SOL    HW138846   1.786   1.737   4.183  0.7246  0.9561 -5.1483
 9071SOL    HW238847   1.671   1.762   4.272 -1.3728  2.7208  0.3500
 9072SOL     OW38848   1.971   1.522   1.613 -0.0140 -0.1843  0.0221
 9072SOL    HW138849   1.981   1.608   1.654 -0.7861 -2.0727  4.1427
 9072SOL    HW238850   2.065   1.504   1.602  0.0847  0.3428 -0.0316
 9073SOL     OW38851   1.322   2.485   3.320  0.4547  0.1167 -0.1584
 9073SOL    HW138852   1.283   2.566   3.354 -0.0264  0.2041 -0.9211
 9073SOL    HW238853   1.407   2.510   3.286  0.7865  0.7128  1.0932
 9074SOL     OW38854   2.274   2.807   8.195  0.1596 -0.4414 -0.1102
 9074SOL    HW138855   2.368   2.797   8.178  0.5796 -1.1972  2.6328
 9074SOL    HW238856   2.265   2.890   8.148  2.1239 -0.1567  0.0149
 9075SOL     OW38857   2.261   3.832   8.144  0.0927 -0.2584  0.5235
 9075SOL    HW138858   2.195   3.900   8.133 -0.8030 -1.4355 -1.3882
 9075SOL    HW238859   2.215   3.778   8.208 -1.3386 -0.2963 -0.5309
 9076SOL     OW38860   3.836   3.431   6.009  0.2896  0.1319 -0.1171
 9076SOL    HW138861   3.866   3.388   5.929 -1.6496  0.6996 -1.1450
 9076SOL    HW238862   3.740   3.430   6.001  0.3220 -1.4290 -0.3371
 9077SOL     OW38863   0.885   0.462  16.486 -0.1469  0.0120  0.5374
 9077SOL    HW138864   0.887   0.537  16.427 -2.5012 -1.0798 -0.9432
 9077SOL    HW238865   0.920   0.387  16.438 -0.0026  0.3619  0.1005
 9078SOL     OW38866   0.331   1.844   2.996 -0.6393  0.0387 -0.0427
 9078SOL    HW138867   0.238   1.842   2.975 -1.2392  0.6431  2.5972
 9078SOL    HW238868   0.365   1.849   2.906 -2.1799 -0.3569 -0.6526
 9079SOL     OW38869   4.690   4.692   7.645 -0.3005  0.1013 -0.2554
 9079SOL    HW138870   4.621   4.685   7.711 -0.0687  0.9466  0.0699
 9079SOL    HW238871   4.638   4.684   7.565 -0.7513  0.2731  0.0223
 9080SOL     OW38872   1.965   4.302   5.610  0.4454  0.0774  0.4425
 9080SOL    HW138873   1.879   4.294   5.652 -0.3738 -2.0063 -1.6959
 9080SOL    HW238874   1.998   4.213   5.622 -0.6382 -0.3657  0.1317
 9081SOL     OW38875   4.592   0.807   9.404  0.2055  0.0525  0.6810
 9081SOL    HW138876   4.507   0.763   9.415 -0.3926  0.5378 -2.0194
 9081SOL    HW238877   4.651   0.732   9.401  0.6969  0.4971 -0.5202
 9082SOL     OW38878   4.652   3.299   7.951  0.1536 -0.0665  0.4614
 9082SOL    HW138879   0.008   3.318   7.969  0.6878 -1.5658 -0.6528
 9082SOL    HW238880   4.601   3.348   8.014 -0.3214  1.2418 -0.9261
 9083SOL     OW38881   2.438   2.574   4.223  0.1404 -0.0949 -0.0056
 9083SOL    HW138882   2.500   2.506   4.248  0.4366  0.6167  1.2052
 9083SOL    HW238883   2.449   2.643   4.289 -1.8713 -0.5524  0.8251
 9084SOL     OW38884   1.199   2.826  14.669  0.6724 -0.2924  0.4608
 9084SOL    HW138885   1.229   2.819  14.760 -1.7029 -0.6793  1.2420
 9084SOL    HW238886   1.282   2.851  14.630  0.2642  1.0387  0.4407
 9085SOL     OW38887   3.215   3.000   6.739 -0.0895  0.3915 -0.5805
 9085SOL    HW138888   3.150   2.945   6.696  0.0787  1.0729 -1.7139
 9085SOL    HW238889   3.212   2.956   6.824 -2.4664 -0.1940 -0.9663
 9086SOL     OW38890   1.270   4.233   9.196  0.6016 -1.0791 -0.1046
 9086SOL    HW138891   1.222   4.285   9.132 -0.0385 -0.0053  1.2379
 9086SOL    HW238892   1.246   4.284   9.273  1.2204 -1.0262  0.0504
 9087SOL     OW38893   0.952   2.049   6.180 -0.3742 -0.0349  0.1956
 9087SOL    HW138894   1.022   2.111   6.198 -1.0328  0.6339  0.4517
 9087SOL    HW238895   0.948   2.049   6.084 -0.7393 -1.6374  0.1966
 9088SOL     OW38896   2.803   0.170   8.636 -0.1708 -0.2423  0.5548
 9088SOL    HW138897   2.855   0.248   8.618 -1.0040 -0.0380 -0.9209
 9088SOL    HW238898   2.853   0.140   8.712 -0.8039 -1.5936  0.4525
 9089SOL     OW38899   1.809   0.910   5.471 -0.2651  0.6466 -0.2041
 9089SOL    HW138900   1.732   0.853   5.465  1.7314 -2.0147 -0.0287
 9089SOL    HW238901   1.852   0.870   5.396 -0.1861 -0.8739  0.6591
 9090SOL     OW38902   1.962   0.191   5.482 -0.1241 -0.4252 -0.2112
 9090SOL    HW138903   2.004   0.105   5.486  0.4612 -0.0668  1.5886
 9090SOL    HW238904   1.962   0.196   5.386 -1.4832  1.1690 -0.1356
 9091SOL     OW38905   1.409   4.114   4.251 -0.4560  0.0072  0.0164
 9091SOL    HW138906   1.460   4.135   4.329  2.9469 -2.5028 -1.5337
 9091SOL    HW238907   1.439   4.190   4.201  3.4380 -1.0103  0.8172
 9092SOL     OW38908   3.846   4.183  17.638  0.5854 -0.4034 -0.5239
 9092SOL    HW138909   3.896   4.102  17.651  3.3369  0.9161 -2.6846
 9092SOL    HW238910   3.769   4.143  17.598 -0.0800  1.5114 -1.1994
 9093SOL     OW38911   4.007   0.720   1.448  0.7900 -0.3523 -0.3172
 9093SOL    HW138912   3.933   0.728   1.388 -0.9622 -2.3124  1.5608
 9093SOL    HW238913   4.082   0.734   1.389  0.5738 -1.7441 -0.9323
 9094SOL     OW38914   1.448   1.406  10.379 -0.3185  0.2284 -0.1382
 9094SOL    HW138915   1.434   1.312  10.370 -0.0761  0.1607  0.2246
 9094SOL    HW238916   1.532   1.423  10.337  0.4613  3.1166  2.5665
 9095SOL     OW38917   1.067   1.424   5.173  0.4970 -0.4685 -0.1070
 9095SOL    HW138918   1.039   1.428   5.264  0.2709  0.8751 -0.2321
 9095SOL    HW238919   1.123   1.347   5.178  1.8592  0.4377 -1.2118
 9096SOL     OW38920   0.721   4.376   9.762  0.4202  0.2337 -0.4167
 9096SOL    HW138921   0.683   4.348   9.679  1.5226  0.9551 -1.1693
 9096SOL    HW238922   0.646   4.380   9.822  0.0506 -1.6843 -0.7673
 9097SOL     OW38923   2.252   4.266   4.138  0.3910  0.0496  0.3050
 9097SOL    HW138924   2.214   4.199   4.196  3.4401 -1.8062  0.1899
 9097SOL    HW238925   2.194   4.339   4.159 -0.5596 -1.6124  3.4474
 9098SOL     OW38926   2.741   4.720   7.478 -0.1976  0.1452  0.0923
 9098SOL    HW138927   2.787   0.063   7.454  1.0129  0.4180  3.3043
 9098SOL    HW238928   2.777   4.691   7.562  1.1697  1.6618 -0.0003
 9099SOL     OW38929   3.406   4.290   7.396  0.1538  0.0298 -0.5554
 9099SOL    HW138930   3.330   4.255   7.442 -0.6208  0.0911 -1.7814
 9099SOL    HW238931   3.411   4.375   7.440  1.5395  0.7490 -2.1069
 9100SOL     OW38932   3.214   1.395   2.317 -0.2706 -0.1534 -0.2521
 9100SOL    HW138933   3.153   1.379   2.390  0.7254 -0.0115  0.6091
 9100SOL    HW238934   3.290   1.353   2.356 -1.7692 -1.6480  1.0887
 9101SOL     OW38935   1.446   0.948   6.973 -0.4724 -0.1071  0.1171
 9101SOL    HW138936   1.353   0.971   6.975 -0.6910 -0.9220 -1.0774
 9101SOL    HW238937   1.467   0.905   6.891 -0.4494 -1.5652  0.8966
 9102SOL     OW38938   3.130   3.421  13.475 -0.6661  0.1136  0.7208
 9102SOL    HW138939   3.098   3.357  13.411 -0.0746  0.1525  0.3842
 9102SOL    HW238940   3.186   3.368  13.531 -0.0160 -0.4284 -0.4537
 9103SOL     OW38941   0.006   0.604   8.495  0.6789 -0.5948 -0.1138
 9103SOL    HW138942   4.736   0.610   8.400 -0.8204 -4.1930 -0.2226
 9103SOL    HW238943   0.037   0.516   8.516 -1.2430 -0.8717  1.5057
 9104SOL     OW38944   2.965   3.155   5.625 -0.2744 -0.3799  0.6833
 9104SOL    HW138945   2.950   3.209   5.703 -1.4426  0.4862 -0.1426
 9104SOL    HW238946   2.975   3.066   5.658 -0.3588 -0.9189 -0.7338
 9105SOL     OW38947   1.210   0.782  13.406  0.2738  0.4280 -0.5643
 9105SOL    HW138948   1.172   0.751  13.324 -1.2955  0.7723  0.0488
 9105SOL    HW238949   1.301   0.794  13.378  0.1704  0.4961 -0.8718
 9106SOL     OW38950   2.762   1.907   4.796  0.4998  0.0609  0.0768
 9106SOL    HW138951   2.849   1.910   4.755  0.3980  4.7827  0.1436
 9106SOL    HW238952   2.749   1.824   4.841  0.7703  1.0804  2.0283
 9107SOL     OW38953   1.855   3.663   5.015 -0.3061 -0.4136 -0.1697
 9107SOL    HW138954   1.892   3.585   4.974  1.2826  0.1737  0.1566
 9107SOL    HW238955   1.913   3.701   5.081  0.0899  1.4055 -1.5432
 9108SOL     OW38956   1.313   1.458   3.805  0.6290 -0.0282  0.2778
 9108SOL    HW138957   1.367   1.528   3.840  0.3517 -1.2095  3.1263
 9108SOL    HW238958   1.331   1.457   3.711 -0.1023  0.2202  0.1413
 9109SOL     OW38959   0.215   0.909  17.455 -0.0115 -0.1824 -0.1790
 9109SOL    HW138960   0.286   0.943  17.401 -1.5666 -1.1817 -2.8962
 9109SOL    HW238961   0.244   0.819  17.465 -0.3997 -0.1688  1.0379
 9110SOL     OW38962   2.641   0.502   9.483 -0.4212 -0.1995 -0.0446
 9110SOL    HW138963   2.571   0.440   9.461 -1.6043  1.2373 -0.3008
 9110SOL    HW238964   2.672   0.544   9.403 -3.1433  0.4078 -0.7641
 9111SOL     OW38965   1.278   1.964   2.683  0.7306 -0.7545 -0.1226
 9111SOL    HW138966   1.311   2.012   2.759 -1.0299  0.2911 -0.0262
 9111SOL    HW238967   1.282   2.029   2.612 -1.9800 -2.3557 -1.7497
 9112SOL     OW38968   1.255   2.745   3.327  0.1205 -0.1848 -0.4246
 9112SOL    HW138969   1.295   2.808   3.267  0.4897  1.0749  1.1232
 9112SOL    HW238970   1.189   2.808   3.357 -0.3488 -0.4915 -0.8293
 9113SOL     OW38971   4.434   3.980   5.361  0.2612 -0.4946 -0.0562
 9113SOL    HW138972   4.459   4.034   5.286 -0.6175  0.3085  0.2376
 9113SOL    HW238973   4.481   4.026   5.431 -0.6165  0.4364 -0.0789
 9114SOL     OW38974   0.219   0.026   1.227 -0.2643  0.2257  0.1631
 9114SOL    HW138975   0.300   0.068   1.198 -0.0800 -0.7828 -0.7766
 9114SOL    HW238976   0.218   0.039   1.322  0.2585 -0.1887  0.2265
 9115SOL     OW38977   2.480   0.233   5.522 -0.1682  0.5298  0.2178
 9115SOL    HW138978   2.412   0.195   5.467 -0.3503  2.2153 -0.7067
 9115SOL    HW238979   2.517   0.300   5.465 -0.3678 -0.3731 -0.9711
 9116SOL     OW38980   1.586   2.714  17.645 -0.3660  0.1109 -0.0621
 9116SOL    HW138981   1.665   2.682  17.601 -1.4821  0.5326 -2.3533
 9116SOL    HW238982   1.543   2.631  17.663 -1.0826  0.1316 -1.6817
 9117SOL     OW38983   3.151   3.349   4.062 -0.0268  0.3819  0.3697
 9117SOL    HW138984   3.098   3.410   4.113 -2.8145 -2.3273  0.7644
 9117SOL    HW238985   3.126   3.271   4.112  2.1160 -2.0024 -2.2161
 9118SOL     OW38986   3.952   2.021   8.442 -0.1765 -0.1025  0.0575
 9118SOL    HW138987   3.936   2.090   8.377  0.0233  0.4404  0.5854
 9118SOL    HW238988   4.028   1.977   8.404 -1.3126 -0.3409 -1.9475
 9119SOL     OW38989   4.458   1.218   2.932 -0.2911 -0.3731 -0.2255
 9119SOL    HW138990   4.452   1.314   2.933 -3.9551 -0.6385  1.4425
 9119SOL    HW238991   4.447   1.183   2.843  0.8329 -1.3521  0.0237
 9120SOL     OW38992   3.968   3.987   3.845 -0.2466 -0.2113 -0.1181
 9120SOL    HW138993   3.911   4.063   3.829 -0.3426 -0.6169 -1.6940
 9120SOL    HW238994   4.047   4.017   3.890 -1.1983  0.3118  1.2108
 9121SOL     OW38995   4.099   2.452   0.267 -0.1875 -0.5779 -0.2473
 9121SOL    HW138996   4.140   2.366   0.270  0.7861 -0.0612  1.2841
 9121SOL    HW238997   4.006   2.438   0.253 -0.4813  1.1182  0.0280
 9122SOL     OW38998   0.369   3.635   8.053  0.3827  0.5074  0.3010
 9122SOL    HW138999   0.445   3.613   8.000  0.5504  0.9519  0.3634
 9122SOL    HW239000   0.373   3.567   8.121 -2.7479  0.0056 -0.0228
 9123SOL     OW39001   4.435   0.320   2.585 -0.0054  0.1747 -0.3313
 9123SOL    HW139002   4.466   0.316   2.494  1.1953  1.0859  0.0350
 9123SOL    HW239003   4.356   0.371   2.565  1.1005  2.3868  0.9158
 9124SOL     OW39004   4.706   3.685   1.804  0.1940  0.5332  0.7502
 9124SOL    HW139005   4.678   3.751   1.741  1.6872  1.2637  0.8517
 9124SOL    HW239006   0.001   3.742   1.873  0.4068  0.1265  0.9895
 9125SOL     OW39007   3.131   0.892   5.532  0.4157  0.0330 -1.1047
 9125SOL    HW139008   3.044   0.908   5.569  1.3281  0.5514  0.8351
 9125SOL    HW239009   3.146   0.798   5.546  1.6847  0.5111  0.7939
 9126SOL     OW39010   3.802   1.080   3.001  0.2845 -0.3520 -0.1284
 9126SOL    HW139011   3.830   1.030   3.078  0.3013  1.2935  0.9326
 9126SOL    HW239012   3.718   1.120   3.022 -0.3020 -1.0588 -1.1257
 9127SOL     OW39013   0.460   2.586   3.959  0.0070 -0.0360  0.6471
 9127SOL    HW139014   0.424   2.527   4.025  0.2375 -1.5003 -0.5247
 9127SOL    HW239015   0.496   2.525   3.894 -0.9559 -0.3326  0.3890
 9128SOL     OW39016   1.528   1.409   7.376  0.3648  0.2962 -0.0661
 9128SOL    HW139017   1.437   1.402   7.405 -0.0195  0.2950 -1.2488
 9128SOL    HW239018   1.544   1.315   7.384 -0.6365  0.0996 -0.3494
 9129SOL     OW39019   4.056   1.031   3.290 -0.4344  0.1947  0.7915
 9129SOL    HW139020   4.068   1.071   3.376 -1.2371 -1.9452  1.8916
 9129SOL    HW239021   4.045   0.942   3.323  0.3858  0.3094  1.3782
 9130SOL     OW39022   1.014   0.457   4.887  0.0772 -0.1539 -0.2554
 9130SOL    HW139023   0.942   0.499   4.839 -0.4724 -1.6017 -0.6736
 9130SOL    HW239024   0.985   0.367   4.900  0.5663 -0.5453 -1.9942
 9131SOL     OW39025   3.039   1.156   8.259  0.8647  0.8423  0.5547
 9131SOL    HW139026   3.098   1.171   8.333 -0.4867  0.9404  1.5968
 9131SOL    HW239027   2.984   1.232   8.277 -0.3895 -0.4345  2.0502
 9132SOL     OW39028   0.808   2.029   5.024  0.5719 -0.5665 -0.5585
 9132SOL    HW139029   0.726   2.030   4.975  1.5606 -2.4637 -2.2128
 9132SOL    HW239030   0.792   1.976   5.102  0.7346  0.7177  0.3489
 9133SOL     OW39031   3.002   3.321   5.436  0.8582  0.8213  0.0781
 9133SOL    HW139032   3.004   3.247   5.497  0.8220  1.5600  0.9653
 9133SOL    HW239033   2.954   3.281   5.363  0.6643 -0.0528  0.6939
 9134SOL     OW39034   0.517   0.580  15.622  0.1591 -0.0996 -0.2151
 9134SOL    HW139035   0.505   0.492  15.658 -2.0154 -0.4394 -1.8052
 9134SOL    HW239036   0.431   0.592  15.581  0.6080  0.3294 -1.0190
 9135SOL     OW39037   1.831   2.351  10.178 -0.2163  0.0104  0.7252
 9135SOL    HW139038   1.757   2.367  10.119 -0.6598 -1.1400  0.9591
 9135SOL    HW239039   1.804   2.402  10.254  0.1674  0.6558  0.4281
 9136SOL     OW39040   0.363   4.099   4.114  0.0346 -0.2641 -0.3258
 9136SOL    HW139041   0.428   4.046   4.159 -0.2105 -1.1668 -1.0425
 9136SOL    HW239042   0.294   4.034   4.102  2.8617 -3.4800  1.0153
 9137SOL     OW39043   2.823   4.325   3.813 -0.0554  0.1262  0.1474
 9137SOL    HW139044   2.743   4.365   3.779  1.0961  0.8915 -1.7005
 9137SOL    HW239045   2.819   4.234   3.784 -0.3194 -0.7929  3.1750
 9138SOL     OW39046   3.261   1.852   4.354  0.4881 -0.0199 -0.2212
 9138SOL    HW139047   3.178   1.805   4.346 -0.0451  0.5089  2.2579
 9138SOL    HW239048   3.247   1.916   4.284 -1.1963  0.8101  0.8672
 9139SOL     OW39049   3.385   3.538   4.225 -0.2559  0.2720  0.6620
 9139SOL    HW139050   3.398   3.533   4.131  1.2946 -0.3592  0.9022
 9139SOL    HW239051   3.308   3.594   4.230  0.8618  1.9343 -0.5777
 9140SOL     OW39052   0.465   1.983   6.244 -0.2869 -0.1218 -0.1760
 9140SOL    HW139053   0.448   1.893   6.271  0.0716 -0.3658 -0.7715
 9140SOL    HW239054   0.422   2.041   6.307 -0.4632  0.9750 -1.3090
 9141SOL     OW39055   4.736   1.472   2.815  0.3222 -0.0880  0.0339
 9141SOL    HW139056   0.014   1.555   2.770  1.3081 -0.7012 -0.7788
 9141SOL    HW239057   0.022   1.406   2.749 -1.4123 -0.6395 -0.0146
 9142SOL     OW39058   0.798   3.459  13.339 -0.3457 -0.2478  0.1514
 9142SOL    HW139059   0.886   3.495  13.326 -0.0775 -1.8202 -2.4183
 9142SOL    HW239060   0.804   3.389  13.274 -0.2829  1.8627 -2.1456
 9143SOL     OW39061   0.048   0.957  17.649  0.1117  0.3235  0.0166
 9143SOL    HW139062   0.114   0.893  17.673 -0.6942 -0.8347 -0.8713
 9143SOL    HW239063   0.094   0.955  17.565 -2.0155 -0.2768 -1.1196
 9144SOL     OW39064   1.434   4.556  14.568  0.4654  0.1720 -0.1158
 9144SOL    HW139065   1.389   4.514  14.495  2.0407 -1.4743 -0.1367
 9144SOL    HW239066   1.511   4.502  14.586  0.7477  0.2682 -1.0548
 9145SOL     OW39067   4.306   4.084   3.164 -0.0238  0.1467  0.7134
 9145SOL    HW139068   4.354   4.160   3.196  0.7213 -0.8134  1.8931
 9145SOL    HW239069   4.286   4.123   3.080 -0.9108 -1.7801  0.0317
 9146SOL     OW39070   0.667   3.961   2.334 -0.2606  0.1856  0.1639
 9146SOL    HW139071   0.576   3.931   2.331  0.0085 -0.6039 -0.2500
 9146SOL    HW239072   0.686   3.957   2.427  0.9046 -0.2498 -0.0926
 9147SOL     OW39073   1.619   2.166  13.501 -0.0635 -0.2007  0.4056
 9147SOL    HW139074   1.549   2.231  13.499  0.5493  0.5163  2.8629
 9147SOL    HW239075   1.645   2.165  13.408  0.6609 -0.4001  0.6103
 9148SOL     OW39076   0.510   2.631   4.950  0.4652  0.5965 -0.0992
 9148SOL    HW139077   0.528   2.542   4.981 -1.4431  0.7391  1.4087
 9148SOL    HW239078   0.516   2.688   5.027  0.9175  0.8465 -0.3171
 9149SOL     OW39079   4.362   4.688   5.437 -0.4632  0.0818 -0.5485
 9149SOL    HW139080   4.402   4.682   5.351  0.3963  2.7203 -0.3275
 9149SOL    HW239081   4.367   4.599   5.472 -0.6974  0.7056  1.0866
 9150SOL     OW39082   0.135   2.904  16.136  0.3096 -0.2609  0.0371
 9150SOL    HW139083   0.117   2.914  16.043 -2.1051  1.5946  0.6867
 9150SOL    HW239084   0.069   2.963  16.173  1.0311  0.3208  0.4099
 9151SOL     OW39085   4.238   4.446   8.408 -0.3536 -0.1871  0.1927
 9151SOL    HW139086   4.317   4.403   8.441  0.8127  1.0441 -1.0099
 9151SOL    HW239087   4.217   4.483   8.493 -1.1493 -2.3789  0.9647
 9152SOL     OW39088   2.035   3.300   8.394  1.0703 -0.0110  0.5296
 9152SOL    HW139089   1.952   3.268   8.430 -0.6399  4.3770  0.3978
 9152SOL    HW239090   2.006   3.310   8.303  0.3168  0.4114  0.8156
 9153SOL     OW39091   2.264   4.641   6.516  0.8710  0.0959 -0.0770
 9153SOL    HW139092   2.188   4.582   6.513  0.3994  0.8185 -2.8963
 9153SOL    HW239093   2.227   4.721   6.553 -3.5137 -2.0231  0.1782
 9154SOL     OW39094   2.514   3.559   6.058  0.4925 -0.0259 -0.1217
 9154SOL    HW139095   2.480   3.572   5.969  0.3884 -1.5650 -0.3158
 9154SOL    HW239096   2.434   3.554   6.110  1.3554 -0.5713  1.1344
 9155SOL     OW39097   0.850   4.021   7.398  0.4287  0.3431  0.1138
 9155SOL    HW139098   0.902   3.946   7.424 -0.2709 -0.6890 -1.4684
 9155SOL    HW239099   0.765   3.979   7.387  0.2195  1.5169 -3.0026
 9156SOL     OW39100   3.621   1.046   9.146 -1.1393 -0.4257  0.6063
 9156SOL    HW139101   3.578   1.131   9.157 -0.1746  0.1891 -0.5497
 9156SOL    HW239102   3.698   1.072   9.097  0.2422 -2.3470  1.7653
 9157SOL     OW39103   0.848   3.744   2.221 -0.1940 -0.3313  0.4077
 9157SOL    HW139104   0.796   3.804   2.274 -1.3592 -0.3241 -0.7367
 9157SOL    HW239105   0.854   3.664   2.273  0.2166 -0.8500 -0.4207
 9158SOL     OW39106   0.655   1.534   2.716  0.0043 -0.0955 -0.0668
 9158SOL    HW139107   0.721   1.553   2.783 -0.6956 -1.6112  1.0636
 9158SOL    HW239108   0.626   1.448   2.745  1.2941  0.0196  1.5740
 9159SOL     OW39109   1.108   2.759   4.187  0.1010  0.1662 -0.4244
 9159SOL    HW139110   1.196   2.736   4.216 -0.3343 -0.5080  0.3606
 9159SOL    HW239111   1.079   2.684   4.134  0.9881 -0.4379 -0.0581
 9160SOL     OW39112   1.858   3.317   7.882  0.1340 -0.7648 -0.0371
 9160SOL    HW139113   1.888   3.356   7.964 -1.4730  1.2076 -0.3910
 9160SOL    HW239114   1.936   3.270   7.854 -1.3449 -2.4063 -1.4631
 9161SOL     OW39115   0.878   1.330   0.461  0.0785  0.0609 -0.0164
 9161SOL    HW139116   0.885   1.235   0.464  1.3898  0.1548 -0.2184
 9161SOL    HW239117   0.812   1.348   0.529 -0.6600  0.0662 -0.7317
 9162SOL     OW39118   4.632   0.312   4.283 -0.3939 -0.0569  0.0305
 9162SOL    HW139119   4.629   0.221   4.312  0.8311  0.2500  1.1312
 9162SOL    HW239120   4.681   0.302   4.202  0.5499 -1.6958  0.7955
 9163SOL     OW39121   3.645   4.417   8.790 -0.0205  0.4703 -0.2316
 9163SOL    HW139122   3.697   4.364   8.729  1.2494  0.3842  0.9458
 9163SOL    HW239123   3.714   4.436   8.852 -1.6775  1.5780  1.2624
 9164SOL     OW39124   2.796   1.922   7.473 -0.3765  0.1617  0.3735
 9164SOL    HW139125   2.850   1.867   7.416  0.2182  1.2093 -0.0765
 9164SOL    HW239126   2.708   1.892   7.451  0.5633 -2.5701  0.3225
 9165SOL     OW39127   3.687   0.277   8.313  0.1053  0.4918 -1.0182
 9165SOL    HW139128   3.725   0.199   8.353  0.2823  0.0879 -1.9831
 9165SOL    HW239129   3.633   0.239   8.244  0.7337 -3.3053  0.5891
 9166SOL     OW39130   0.835   4.336   8.864 -0.4638  0.5659 -0.6915
 9166SOL    HW139131   0.837   4.298   8.952  1.5077 -0.5483 -1.2081
 9166SOL    HW239132   0.897   4.284   8.813 -2.0872 -0.8746 -1.2119
 9167SOL     OW39133   0.294   3.270   9.378  0.2171 -0.5607 -0.0418
 9167SOL    HW139134   0.311   3.288   9.470  0.1152 -0.6654 -0.0026
 9167SOL    HW239135   0.355   3.200   9.354  1.1948 -0.1157  1.1287
 9168SOL     OW39136   1.996   0.399   7.427  0.1812 -0.2632  0.1182
 9168SOL    HW139137   2.042   0.417   7.509  1.2017  2.8666 -1.1472
 9168SOL    HW239138   2.067   0.359   7.376 -0.0656 -0.7779  0.1749
 9169SOL     OW39139   4.561   0.894   6.638 -0.0674  0.1329 -0.5136
 9169SOL    HW139140   4.548   0.935   6.723  0.2266 -3.1205  1.1215
 9169SOL    HW239141   4.483   0.935   6.599 -2.0627 -1.5441  1.6953
 9170SOL     OW39142   0.375   3.897  11.517 -0.1626  0.1412 -0.5211
 9170SOL    HW139143   0.420   3.817  11.545 -1.1672  0.6215  2.5249
 9170SOL    HW239144   0.421   3.970  11.558  2.5744 -2.6819  1.4836
 9171SOL     OW39145   4.672   3.581  14.655 -0.2535 -0.3363 -0.0426
 9171SOL    HW139146   4.717   3.503  14.688 -0.5142 -1.0391 -1.3641
 9171SOL    HW239147   4.654   3.620  14.741  0.1723 -0.0850 -0.0679
 9172SOL     OW39148   3.027   2.073   7.400 -0.5064  0.0981  0.7031
 9172SOL    HW139149   3.025   2.107   7.490 -0.8224  1.4265  0.1945
 9172SOL    HW239150   2.935   2.053   7.385 -0.1224 -0.5891 -0.7630
 9173SOL     OW39151   1.885   2.585  14.768 -0.2024 -0.2777 -0.2283
 9173SOL    HW139152   1.922   2.621  14.687  1.7215 -0.4647  0.5650
 9173SOL    HW239153   1.887   2.664  14.821 -1.8293  0.8340 -1.8149
 9174SOL     OW39154   3.927   1.385   2.192 -0.1597  0.3913 -0.9186
 9174SOL    HW139155   3.974   1.340   2.122  1.7935  0.5364  0.3016
 9174SOL    HW239156   3.884   1.313   2.239 -0.6340 -0.4362 -2.6056
 9175SOL     OW39157   1.738   0.879   7.356 -0.2129 -0.3101 -0.0903
 9175SOL    HW139158   1.672   0.836   7.302 -0.9958  1.2143 -0.3425
 9175SOL    HW239159   1.796   0.804   7.369 -2.2968 -2.5213 -3.5056
 9176SOL     OW39160   2.952   1.950  13.046  0.3188  0.0928 -0.1158
 9176SOL    HW139161   2.881   1.923  13.104  2.6862 -0.7259  2.4142
 9176SOL    HW239162   2.974   2.030  13.094  1.2591  0.8883 -1.8883
 9177SOL     OW39163   0.296   3.082  17.053  0.7850  0.0475 -0.1612
 9177SOL    HW139164   0.245   3.073  17.133  0.8674 -2.2566 -0.3891
 9177SOL    HW239165   0.347   3.003  17.037  2.9912  1.7722 -1.7559
 9178SOL     OW39166   4.602   0.117   4.855  0.2088  0.3954  0.0320
 9178SOL    HW139167   4.520   0.166   4.856 -0.1839 -0.1866 -2.8250
 9178SOL    HW239168   4.577   0.029   4.885 -1.4911  0.1474 -2.0868
 9179SOL     OW39169   4.698   2.263   5.610  0.1810 -0.6200 -0.1477
 9179SOL    HW139170   4.711   2.249   5.704 -0.0646  4.9407  0.7068
 9179SOL    HW239171   0.048   2.277   5.572 -0.9559  0.6572 -2.3169
 9180SOL     OW39172   3.589   0.434   5.065  0.2589  0.5501 -0.7929
 9180SOL    HW139173   3.573   0.378   5.141 -1.8626  0.4617 -1.2989
 9180SOL    HW239174   3.680   0.462   5.078  0.7512 -2.0166  1.2871
 9181SOL     OW39175   0.763   1.408   4.761  0.1049 -0.0137 -0.0885
 9181SOL    HW139176   0.741   1.351   4.687 -0.3663  0.1890 -0.1031
 9181SOL    HW239177   0.793   1.339   4.821  3.6139  2.8407  1.4405
 9182SOL     OW39178   1.588   0.880   9.679  0.5195 -0.5186  0.0252
 9182SOL    HW139179   1.524   0.894   9.749 -0.3649  2.8935 -1.4302
 9182SOL    HW239180   1.539   0.904   9.600  0.6815 -1.1946 -0.2833
 9183SOL     OW39181   4.735   2.798   7.519 -0.3150  0.0478  0.3394
 9183SOL    HW139182   4.689   2.755   7.591 -0.7698  1.1233  0.6905
 9183SOL    HW239183   4.660   2.835   7.473 -0.7259 -2.3513 -0.9185
 9184SOL     OW39184   1.834   2.985   7.695  0.0402  0.1947 -0.4798
 9184SOL    HW139185   1.792   2.952   7.774 -2.1963 -1.2770 -2.2800
 9184SOL    HW239186   1.785   2.937   7.629 -0.3251 -0.7618  0.4832
 9185SOL     OW39187   3.930   4.712   4.631 -0.1091 -0.1938  0.3591
 9185SOL    HW139188   3.931   0.050   4.571 -1.5076 -0.4809 -0.0272
 9185SOL    HW239189   3.939   4.640   4.568 -0.2177  0.3513 -0.2773
 9186SOL     OW39190   3.568   0.468   6.875 -1.0618 -0.7269 -0.1874
 9186SOL    HW139191   3.580   0.394   6.815 -0.0270  0.6378 -1.6503
 9186SOL    HW239192   3.554   0.529   6.803 -1.7219  0.3544  0.8692
 9187SOL     OW39193   3.333   4.527  12.625 -0.1176  0.3413 -0.7816
 9187SOL    HW139194   3.316   4.554  12.716 -0.8464 -0.3166 -0.7139
 9187SOL    HW239195   3.412   4.578  12.610  1.2650 -1.6567 -0.2086
 9188SOL     OW39196   4.531   3.942   3.220  0.3927 -0.2466 -0.1977
 9188SOL    HW139197   4.489   4.006   3.161 -2.3532  0.6005  2.6886
 9188SOL    HW239198   4.496   3.858   3.190 -0.2773 -0.6491  1.7322
 9189SOL     OW39199   4.284   2.453  16.982  0.0744  0.0300 -0.4423
 9189SOL    HW139200   4.235   2.464  16.901 -2.6915  0.5943  1.3040
 9189SOL    HW239201   4.338   2.532  16.981  0.0828  0.0230 -0.5883
 9190SOL     OW39202   1.379   3.189   9.023 -0.6359  0.4694 -0.2100
 9190SOL    HW139203   1.289   3.157   9.034  0.0268 -1.8759 -1.5795
 9190SOL    HW239204   1.436   3.133   9.075  1.4036  1.4041 -1.4440
 9191SOL     OW39205   3.732   1.697   5.102  0.3677  0.3122  0.0479
 9191SOL    HW139206   3.639   1.675   5.115  0.4942 -0.6988 -0.8130
 9191SOL    HW239207   3.744   1.739   5.187 -0.8450 -0.4269  0.5994
 9192SOL     OW39208   3.412   4.557   3.628 -0.5994  0.1953  0.0454
 9192SOL    HW139209   3.379   4.479   3.672 -0.2220  1.1343  1.9887
 9192SOL    HW239210   3.478   4.522   3.568  0.4351  1.7934  0.2544
 9193SOL     OW39211   0.228   0.765  15.704 -0.6557 -0.1029 -0.3813
 9193SOL    HW139212   0.194   0.727  15.786  0.4443 -1.3222 -0.4946
 9193SOL    HW239213   0.230   0.687  15.648  2.4675  0.3454 -0.8545
 9194SOL     OW39214   3.106   1.243   2.071  0.1446  0.3670 -0.0097
 9194SOL    HW139215   3.137   1.262   2.160 -1.3841  0.2285  0.5412
 9194SOL    HW239216   3.080   1.151   2.075  2.0860 -0.1471  0.8699
 9195SOL     OW39217   3.773   3.662  16.106 -0.0870 -0.0669  0.3323
 9195SOL    HW139218   3.807   3.595  16.047 -3.0629 -1.4426  0.1699
 9195SOL    HW239219   3.855   3.711  16.108 -0.5459  0.6409  2.6826
 9196SOL     OW39220   2.641   0.521   9.757 -0.6035 -0.5352 -0.0782
 9196SOL    HW139221   2.638   0.616   9.769  0.3049 -0.3320 -1.5406
 9196SOL    HW239222   2.652   0.525   9.662 -3.6696  0.4400 -0.4059
 9197SOL     OW39223   2.010   3.459   4.129 -0.1546 -0.4822  0.3775
 9197SOL    HW139224   1.953   3.521   4.175  0.7108 -0.4556  1.4277
 9197SOL    HW239225   1.977   3.477   4.041  0.4237 -0.0506  0.2469
 9198SOL     OW39226   4.507   2.577  16.820  0.1701 -0.2522  0.0789
 9198SOL    HW139227   4.442   2.648  16.822  2.2663  1.6556  0.1491
 9198SOL    HW239228   4.501   2.542  16.731  0.8856  0.0867 -0.0963
 9199SOL     OW39229   3.966   0.040   3.270  0.4749  0.3339 -0.1558
 9199SOL    HW139230   3.977   0.133   3.252  1.6615  0.1740 -0.2187
 9199SOL    HW239231   3.994   4.724   3.196 -0.2865 -0.9637  0.4738
 9200SOL     OW39232   1.405   4.697   9.421 -0.0665 -0.2253 -0.0491
 9200SOL    HW139233   1.500   4.691   9.420 -0.1319 -1.2425  0.0080
 9200SOL    HW239234   1.379   4.649   9.342 -0.1177 -0.5352  0.1559
 9201SOL     OW39235   4.214   0.483   5.996  0.0007  0.2784 -0.0588
 9201SOL    HW139236   4.182   0.463   5.909  1.7058  1.9333 -1.0789
 9201SOL    HW239237   4.227   0.398   6.039  3.1913  0.5626 -0.4760
 9202SOL     OW39238   3.519   3.644   3.597 -0.2658  0.1833 -0.3207
 9202SOL    HW139239   3.459   3.688   3.657 -0.9950 -0.7023 -0.3961
 9202SOL    HW239240   3.469   3.624   3.517 -0.2792 -0.1882 -0.2184
 9203SOL     OW39241   0.242   2.314   8.869 -0.2781  0.1568  0.1165
 9203SOL    HW139242   0.334   2.338   8.873  0.0287 -1.1921  1.0822
 9203SOL    HW239243   0.245   2.251   8.941 -1.3786  0.3432  0.3344
 9204SOL     OW39244   2.517   4.333   6.268  0.1250 -0.3722 -0.1914
 9204SOL    HW139245   2.468   4.289   6.199  1.1020 -0.4453 -0.8422
 9204SOL    HW239246   2.501   4.427   6.263  0.2318 -0.4470 -1.7704
 9205SOL     OW39247   0.224   3.862   0.159  0.0693  0.1154  0.4362
 9205SOL    HW139248   0.164   3.824   0.096 -0.4922  0.9429  0.4801
 9205SOL    HW239249   0.282   3.787   0.171 -2.5758 -2.2796 -1.9597
 9206SOL     OW39250   1.433   1.258   0.258 -0.6245  0.3594 -0.3007
 9206SOL    HW139251   1.487   1.323   0.212  1.7091  0.3480  2.4625
 9206SOL    HW239252   1.362   1.244   0.196 -0.9174  1.7826 -0.2661
 9207SOL     OW39253   0.205   4.448   0.335  0.4740  1.1799  0.1408
 9207SOL    HW139254   0.169   4.534   0.358 -0.6431  1.0912 -1.2940
 9207SOL    HW239255   0.245   4.426   0.420 -0.0534 -1.0410 -0.1771
 9208SOL     OW39256   3.679   3.003   3.734 -0.2374 -0.3341 -0.1319
 9208SOL    HW139257   3.726   2.960   3.806 -1.9806 -2.8222 -0.4525
 9208SOL    HW239258   3.738   3.058   3.683 -0.0819 -0.2375  0.1547
 9209SOL     OW39259   3.369   0.125  11.908  0.0569  0.0098  0.2181
 9209SOL    HW139260   3.427   0.066  11.860 -1.0806 -2.4285  1.8519
 9209SOL    HW239261   3.353   0.202  11.853  0.0128 -0.0447  0.1546
 9210SOL     OW39262   4.028   0.978   1.598  0.4632 -0.0097  0.1055
 9210SOL    HW139263   4.011   0.885   1.583 -0.8146  0.3724 -0.8114
 9210SOL    HW239264   3.965   1.032   1.550  0.0174 -1.6081 -1.0641
 9211SOL     OW39265   1.000   0.868  14.365  0.8133  1.1668 -0.1695
 9211SOL    HW139266   0.934   0.803  14.388  1.3185  0.5753 -0.3927
 9211SOL    HW239267   0.951   0.925  14.306 -2.5430 -1.8368 -0.3202
 9212SOL     OW39268   1.971   3.384   8.121 -0.2255 -0.5183 -0.1622
 9212SOL    HW139269   2.065   3.400   8.113  0.0414 -1.0359  1.9570
 9212SOL    HW239270   1.937   3.473   8.112 -2.7760 -1.5733 -1.0616
 9213SOL     OW39271   0.788   0.858  16.304 -0.1858  0.2874 -0.2312
 9213SOL    HW139272   0.744   0.793  16.249 -1.8588 -0.1971  1.6964
 9213SOL    HW239273   0.726   0.929  16.290 -0.5531 -0.1329 -0.7525
 9214SOL     OW39274   3.369   0.852  11.377 -0.1876  0.3373 -0.0778
 9214SOL    HW139275   3.296   0.910  11.356  0.5621  1.4858  0.5228
 9214SOL    HW239276   3.446   0.909  11.374  0.8244 -1.0549 -0.8730
 9215SOL     OW39277   1.813   3.052   1.957  0.0018  0.0414  0.2220
 9215SOL    HW139278   1.728   3.095   1.955  0.7461  1.5223  0.2283
 9215SOL    HW239279   1.784   2.962   1.966 -0.8071  0.0611 -2.2506
 9216SOL     OW39280   3.830   4.697  11.776  0.1593 -0.6245  0.3205
 9216SOL    HW139281   3.925   4.694  11.775  0.1905  0.6415 -1.6076
 9216SOL    HW239282   3.811   4.613  11.735  1.1693 -1.2736  1.1995
 9217SOL     OW39283   1.063   0.867   3.685  0.0874  0.1270 -0.3121
 9217SOL    HW139284   1.037   0.922   3.611  1.9865  1.3329 -0.0985
 9217SOL    HW239285   1.111   0.936   3.731 -0.6274 -0.2768  1.0590
 9218SOL     OW39286   0.144   4.399   6.760  0.3801  0.0559 -0.1424
 9218SOL    HW139287   0.219   4.374   6.815  0.4322  1.4361  0.4100
 9218SOL    HW239288   0.166   4.361   6.675  2.0895  2.8294 -0.9309
 9219SOL     OW39289   3.581   1.009   6.645  0.2460  0.6546  0.3185
 9219SOL    HW139290   3.563   0.996   6.738  0.4000 -0.4619  0.1864
 9219SOL    HW239291   3.505   0.984   6.592  0.1447  0.3972  0.5864
 9220SOL     OW39292   4.424   2.310   8.429 -0.1456 -0.2647  1.0855
 9220SOL    HW139293   4.429   2.236   8.369 -0.5471 -1.2976  2.3252
 9220SOL    HW239294   4.514   2.341   8.440 -0.0588  0.0499 -0.4937
 9221SOL     OW39295   4.401   3.448   7.361 -0.2078 -0.2442 -0.3606
 9221SOL    HW139296   4.486   3.445   7.315  0.9813 -0.7941  1.8591
 9221SOL    HW239297   4.420   3.465   7.453 -2.9318  2.1667 -0.2605
 9222SOL     OW39298   2.836   0.447  10.722 -0.2340  0.8541 -0.5352
 9222SOL    HW139299   2.809   0.462  10.631  0.1775 -0.9244 -0.9472
 9222SOL    HW239300   2.825   0.352  10.718  0.3236  0.8190 -1.2177
 9223SOL     OW39301   0.376   2.382   4.127  0.0044  0.3526  0.3155
 9223SOL    HW139302   0.410   2.434   4.200  1.3633  1.1013 -0.8356
 9223SOL    HW239303   0.394   2.294   4.159 -2.9655  1.0252  3.7814
 9224SOL     OW39304   0.447   3.470   1.251  0.1682 -0.6306  0.1728
 9224SOL    HW139305   0.513   3.439   1.312 -0.5276 -1.0734  0.6984
 9224SOL    HW239306   0.502   3.499   1.178  1.2283  0.1958  1.3165
 9225SOL     OW39307   3.927   2.959   9.873  0.1374 -0.0619  0.2291
 9225SOL    HW139308   3.967   2.909   9.802  0.6426  0.4886  0.1205
 9225SOL    HW239309   3.994   2.936   9.938  1.8995 -0.4835 -1.7304
 9226SOL     OW39310   4.659   0.318   3.326 -0.0546 -0.6268 -0.0143
 9226SOL    HW139311   4.682   0.374   3.252  0.1971 -0.3218  0.2939
 9226SOL    HW239312   0.008   0.282   3.351  1.0107  1.5390 -0.5060
 9227SOL     OW39313   0.635   0.252   6.065 -0.1918 -0.0793  0.1104
 9227SOL    HW139314   0.585   0.271   5.985  2.7573  1.3864 -1.4091
 9227SOL    HW239315   0.593   0.168   6.083 -0.3354 -0.4969 -2.1014
 9228SOL     OW39316   3.750   2.982   7.928  0.6601  0.1899 -0.6188
 9228SOL    HW139317   3.845   2.976   7.917  0.9874  0.2717  2.2509
 9228SOL    HW239318   3.718   2.923   7.860  0.7089  0.2976 -0.7359
 9229SOL     OW39319   3.327   1.084  12.251 -0.2753  0.1963  0.0024
 9229SOL    HW139320   3.234   1.101  12.236  0.1429 -0.5635 -3.3073
 9229SOL    HW239321   3.354   1.039  12.172  1.9493  1.9607 -0.2259
 9230SOL     OW39322   0.757   1.175   4.574  0.2218 -0.3898  0.1091
 9230SOL    HW139323   0.812   1.189   4.497 -0.8954 -0.1532 -0.6380
 9230SOL    HW239324   0.780   1.086   4.599 -0.6265 -0.8559 -0.8232
 9231SOL     OW39325   4.003   4.391  17.588 -0.1893  0.2086 -0.4049
 9231SOL    HW139326   4.084   4.350  17.557 -0.8650 -0.7131 -0.9357
 9231SOL    HW239327   3.947   4.314  17.588 -0.3020  0.2951  0.4105
 9232SOL     OW39328   0.941   1.085   7.797 -0.4058  0.0207  0.0605
 9232SOL    HW139329   0.905   1.051   7.878 -1.1697 -0.4207 -0.4656
 9232SOL    HW239330   0.927   1.013   7.735  0.2001 -0.5591  0.5984
 9233SOL     OW39331   4.652   0.078  17.511  0.2118  0.3896  0.1316
 9233SOL    HW139332   4.686   0.109  17.427  0.9734  2.2248  1.1012
 9233SOL    HW239333   4.623   4.729  17.480 -0.7022  0.5975  0.4209
 9234SOL     OW39334   3.740   0.582   0.978  0.0203  0.1545 -0.5418
 9234SOL    HW139335   3.820   0.572   0.926 -1.2965  0.5429 -2.6353
 9234SOL    HW239336   3.690   0.648   0.929 -0.7228 -0.8971 -1.1949
 9235SOL     OW39337   0.889   1.845  15.457  0.8118  0.2596  0.2364
 9235SOL    HW139338   0.865   1.884  15.372  0.0068  2.3888  1.4358
 9235SOL    HW239339   0.970   1.891  15.479  2.2639 -2.0126 -0.4060
 9236SOL     OW39340   0.339   2.412  16.129  0.2988 -0.9754  0.1012
 9236SOL    HW139341   0.324   2.495  16.085 -1.3611 -1.4152 -0.1687
 9236SOL    HW239342   0.412   2.431  16.188 -1.2624 -0.5865  1.8969
 9237SOL     OW39343   1.639   3.149   2.989  0.2401  0.0815  0.3026
 9237SOL    HW139344   1.673   3.236   2.966 -0.4904 -0.1960 -1.8097
 9237SOL    HW239345   1.654   3.115   2.901  3.6080 -0.1260  0.9377
 9238SOL     OW39346   2.253   4.663   6.930  0.0900  0.0658 -0.0125
 9238SOL    HW139347   2.292   4.575   6.927  1.0336  0.5531 -2.0512
 9238SOL    HW239348   2.318   4.706   6.985  0.3422  3.6028 -3.1422
 9239SOL     OW39349   3.567   3.335  16.483  0.2185 -0.1241 -0.3529
 9239SOL    HW139350   3.488   3.376  16.450 -0.2213  0.9080  2.0028
 9239SOL    HW239351   3.528   3.256  16.521  0.1429  0.4407  0.7289
 9240SOL     OW39352   3.972   3.249  16.271 -0.2311 -0.0518  0.7259
 9240SOL    HW139353   4.040   3.202  16.222 -1.2650 -0.4778 -0.2942
 9240SOL    HW239354   3.892   3.202  16.249  0.4345 -0.6694 -0.3979
 9241SOL     OW39355   3.872   0.789   2.835 -0.5100 -0.1383 -0.0089
 9241SOL    HW139356   3.884   0.728   2.763 -0.0636  0.7901 -0.7229
 9241SOL    HW239357   3.955   0.764   2.876  0.2184  2.3166  0.0035
 9242SOL     OW39358   3.059   4.110   5.077 -0.3778  0.3940 -0.4081
 9242SOL    HW139359   3.030   4.066   4.997 -1.0570  0.1586 -0.0307
 9242SOL    HW239360   3.082   4.037   5.134 -1.0690 -0.0539 -0.7059
 9243SOL     OW39361   4.293   3.210  16.634 -0.0208  0.0959 -0.1146
 9243SOL    HW139362   4.219   3.264  16.662 -0.2921  0.3247 -1.2852
 9243SOL    HW239363   4.349   3.210  16.712 -1.2132 -0.0303  0.7355
 9244SOL     OW39364   0.427   4.555   6.528  0.3607 -0.0464  0.2814
 9244SOL    HW139365   0.482   4.631   6.545  1.0161 -0.6658  0.9391
 9244SOL    HW239366   0.506   4.501   6.529  0.7262  0.4741 -1.2227
 9245SOL     OW39367   0.541   0.000   6.893  0.0352  0.5940  0.7797
 9245SOL    HW139368   0.515   4.661   6.944 -1.0597 -0.2620 -1.0656
 9245SOL    HW239369   0.637   4.736   6.899 -0.0037 -0.4676  1.2948
 9246SOL     OW39370   1.754   0.815  16.620 -0.2706  0.1709  0.1723
 9246SOL    HW139371   1.774   0.750  16.552  0.3651 -1.6772  2.1090
 9246SOL    HW239372   1.831   0.869  16.601  0.3433  0.3086  3.0578
 9247SOL     OW39373   2.815   4.318   8.160 -0.1445 -0.5266  0.3338
 9247SOL    HW139374   2.778   4.362   8.083 -0.5649 -1.3824  0.0519
 9247SOL    HW239375   2.751   4.336   8.229  1.7437 -1.5988  2.3753
 9248SOL     OW39376   2.279   2.641  16.990  0.3582  0.1067 -0.4476
 9248SOL    HW139377   2.325   2.607  16.913  0.9794 -0.2488  0.0794
 9248SOL    HW239378   2.245   2.723  16.956 -0.0480  1.4617  3.2047
 9249SOL     OW39379   2.296   4.013   4.296  0.0836 -0.6998  0.2082
 9249SOL    HW139380   2.382   4.035   4.259 -0.5983 -0.3285 -1.1583
 9249SOL    HW239381   2.331   3.949   4.358  1.4934 -1.5407 -1.4690
 9250SOL     OW39382   0.160   1.335   5.355 -0.0108  0.4218 -0.2352
 9250SOL    HW139383   0.238   1.357   5.405 -0.5365 -2.5492  1.8845
 9250SOL    HW239384   0.087   1.320   5.416  1.9188 -1.2685  1.6489
 9251SOL     OW39385   4.210   4.106   6.050  0.5860  0.2604  0.2091
 9251SOL    HW139386   4.172   4.187   6.084 -2.7247 -0.4141 -1.8503
 9251SOL    HW239387   4.135   4.051   6.029  0.5527 -0.1396  1.3329
 9252SOL     OW39388   0.042   4.485   1.024 -0.3831 -0.7477  0.2866
 9252SOL    HW139389   0.003   4.457   0.941  0.3586  0.3642 -0.4377
 9252SOL    HW239390   4.716   4.459   1.091 -1.4356 -0.4253 -0.5745
 9253SOL     OW39391   1.992   2.523   3.320 -0.3685  0.2761 -0.2210
 9253SOL    HW139392   1.949   2.591   3.371  2.3916  0.8923  1.2586
 9253SOL    HW239393   1.922   2.484   3.267  0.4790 -1.2045 -0.2650
 9254SOL     OW39394   0.605   1.173   1.602  0.2498  0.0400 -0.3915
 9254SOL    HW139395   0.545   1.167   1.527 -0.8711  1.2783  0.4164
 9254SOL    HW239396   0.690   1.156   1.560  1.3933  1.9173  1.1596
 9255SOL     OW39397   2.467   1.899  10.459 -0.5691  0.0908 -0.5442
 9255SOL    HW139398   2.561   1.882  10.448 -1.2080 -3.8024 -0.0588
 9255SOL    HW239399   2.450   1.840  10.533  0.8412 -0.2783 -0.4992
 9256SOL     OW39400   3.743   2.994   4.956  0.1668 -0.6235  0.0384
 9256SOL    HW139401   3.747   3.021   4.864  0.1096  2.8716  1.0661
 9256SOL    HW239402   3.798   2.916   4.960  0.0137 -0.7452 -0.2364
 9257SOL     OW39403   0.805   3.758   2.630 -0.5728  0.5554  0.0636
 9257SOL    HW139404   0.729   3.729   2.580  1.1543 -0.2759 -2.1058
 9257SOL    HW239405   0.768   3.747   2.718 -1.1420 -1.4125 -0.4144
 9258SOL     OW39406   4.183   0.893  14.406 -0.2472 -0.0839  0.7018
 9258SOL    HW139407   4.195   0.912  14.313 -1.7941  1.4730  0.8315
 9258SOL    HW239408   4.239   0.816  14.422  1.0387  0.0814 -3.1506
 9259SOL     OW39409   3.887   3.923  14.403  0.7221  0.3471 -0.7533
 9259SOL    HW139410   3.942   3.845  14.395 -0.6880 -0.6077 -1.0951
 9259SOL    HW239411   3.936   3.986  14.456  2.0655 -1.1956 -0.1491
 9260SOL     OW39412   4.419   3.742   7.784  0.0024 -0.1063 -0.0160
 9260SOL    HW139413   4.492   3.801   7.807  0.2461 -0.3381 -0.2056
 9260SOL    HW239414   4.402   3.681   7.855  0.8143  1.8585  1.8795
 9261SOL     OW39415   3.386   0.285   5.837 -0.2070  0.0231  0.3382
 9261SOL    HW139416   3.316   0.328   5.788  0.2001  1.5321  1.0985
 9261SOL    HW239417   3.348   0.286   5.925 -1.6056  2.5220 -0.2947
 9262SOL     OW39418   2.090   2.520   2.001  0.4470 -0.0579  0.0744
 9262SOL    HW139419   2.001   2.555   1.999  0.4554 -0.2617 -3.0957
 9262SOL    HW239420   2.121   2.557   1.918  1.2559 -0.8098  0.0432
 9263SOL     OW39421   2.820   2.674   3.475  0.1300 -0.5617  0.3171
 9263SOL    HW139422   2.791   2.703   3.389 -0.1268 -0.0760  0.5695
 9263SOL    HW239423   2.902   2.725   3.475 -0.2432  0.0393  0.9286
 9264SOL     OW39424   1.038   0.149   3.788  0.1740  0.7393 -0.2686
 9264SOL    HW139425   1.072   0.233   3.755  4.1976  0.7255  3.7389
 9264SOL    HW239426   1.072   0.085   3.726 -1.4416  1.5941 -2.0253
 9265SOL     OW39427   2.002   4.365   2.582 -0.2297 -0.2401 -0.0138
 9265SOL    HW139428   1.980   4.396   2.495 -4.9078  0.2352  1.3051
 9265SOL    HW239429   1.977   4.273   2.568 -1.6124  0.0695  0.3373
 9266SOL     OW39430   0.775   1.086   2.852  0.2898 -0.4063  0.0424
 9266SOL    HW139431   0.792   0.992   2.838  1.3895 -0.2894  0.5706
 9266SOL    HW239432   0.740   1.083   2.941 -1.5647  1.4345 -0.6240
 9267SOL     OW39433   4.605   2.072   7.106  0.6251 -0.3353  0.2066
 9267SOL    HW139434   4.609   2.046   7.198  0.2413 -2.0655 -0.2621
 9267SOL    HW239435   4.671   2.021   7.058 -0.9654 -0.3101 -2.0301
 9268SOL     OW39436   0.853   1.623   2.889  0.8740  0.0168  0.2471
 9268SOL    HW139437   0.927   1.575   2.926 -0.1392 -1.2122  0.6775
 9268SOL    HW239438   0.902   1.700   2.860 -0.1478  0.9350  0.9199
 9269SOL     OW39439   2.919   1.080   5.341 -0.1414 -0.1599 -0.3943
 9269SOL    HW139440   2.997   1.053   5.293 -1.7146 -3.0584 -1.3437
 9269SOL    HW239441   2.853   1.022   5.303 -0.6708  0.4008 -0.3362
 9270SOL     OW39442   4.285   2.049   4.742 -0.0952  0.3910  0.0546
 9270SOL    HW139443   4.347   2.058   4.814 -1.1277 -1.5070  1.1792
 9270SOL    HW239444   4.333   2.078   4.664  1.3799  0.8428  1.1356
 9271SOL     OW39445   1.603   4.224   7.106 -0.5126 -0.3162  0.3900
 9271SOL    HW139446   1.641   4.148   7.062  1.3203  0.6344  0.3350
 9271SOL    HW239447   1.542   4.249   7.037  1.5305  0.5781 -1.0692
 9272SOL     OW39448   3.250   3.273   9.844 -0.3674 -0.4990 -0.3872
 9272SOL    HW139449   3.238   3.205   9.911  0.0622 -1.8054 -1.6475
 9272SOL    HW239450   3.269   3.350   9.899 -2.1099 -0.0387 -0.4464
 9273SOL     OW39451   2.661   2.515   9.860  0.6518  0.9275  0.8467
 9273SOL    HW139452   2.694   2.579   9.923  2.4387 -1.1177  2.0012
 9273SOL    HW239453   2.574   2.490   9.891  1.0681 -1.5815  0.0010
 9274SOL     OW39454   3.946   3.544   6.223 -0.3113 -0.0222 -0.3401
 9274SOL    HW139455   3.906   3.501   6.147  1.1753 -0.2934 -0.9794
 9274SOL    HW239456   3.885   3.513   6.290  1.8477 -1.5732  0.9113
 9275SOL     OW39457   1.177   2.269   2.247 -0.0969 -0.0079  0.8363
 9275SOL    HW139458   1.198   2.346   2.194  1.3574 -1.0615 -0.1356
 9275SOL    HW239459   1.082   2.272   2.252 -0.0603  1.2923  0.7187
 9276SOL     OW39460   2.207   4.383   5.755  0.7100 -0.5592  0.8200
 9276SOL    HW139461   2.122   4.420   5.729  0.6211 -1.7112 -0.5485
 9276SOL    HW239462   2.184   4.327   5.829 -2.6551  0.8148  0.8304
 9277SOL     OW39463   1.752   2.961   2.562 -0.0342  0.3562  0.2434
 9277SOL    HW139464   1.779   2.959   2.471 -0.1219  0.2700  0.2197
 9277SOL    HW239465   1.808   2.892   2.596 -0.5319  0.9953  2.3860
 9278SOL     OW39466   3.743   2.994   1.188 -0.6009  0.1116  0.1945
 9278SOL    HW139467   3.799   2.928   1.228 -0.3005  0.0211 -0.3682
 9278SOL    HW239468   3.656   2.986   1.228 -0.4197  0.6561  0.6937
 9279SOL     OW39469   4.464   3.111   9.895 -0.2499  0.3853  0.5464
 9279SOL    HW139470   4.383   3.082   9.854  0.5366  0.2202 -0.8621
 9279SOL    HW239471   4.422   3.156   9.969  0.9652  1.7725  0.3886
 9280SOL     OW39472   2.797   2.528   0.774  0.1583  0.2697 -0.3957
 9280SOL    HW139473   2.815   2.441   0.739  1.1793  0.3376 -0.0360
 9280SOL    HW239474   2.823   2.517   0.865  2.0447 -0.5483 -1.0242
 9281SOL     OW39475   1.107   4.465   3.380  0.2785  0.0524  0.5443
 9281SOL    HW139476   1.118   4.393   3.317 -1.2894  1.9991 -1.9358
 9281SOL    HW239477   1.076   4.414   3.455 -0.8980  0.4566  0.3401
 9282SOL     OW39478   1.284   1.970   4.092 -0.5870 -0.0959  0.4691
 9282SOL    HW139479   1.355   1.990   4.031  0.8760  0.1068  2.2373
 9282SOL    HW239480   1.316   1.887   4.128 -0.1106 -0.7778 -1.5164
 9283SOL     OW39481   3.140   0.326   3.128 -0.3250  0.1185  0.3581
 9283SOL    HW139482   3.162   0.246   3.177  0.3121 -0.7178 -1.3141
 9283SOL    HW239483   3.046   0.308   3.124 -0.0649 -1.6039  1.4793
 9284SOL     OW39484   4.266   3.527   5.187  0.2613  0.1075  0.0911
 9284SOL    HW139485   4.181   3.544   5.148  0.5352 -0.3475 -0.7193
 9284SOL    HW239486   4.303   3.615   5.198 -1.8780  1.0558 -0.4745
 9285SOL     OW39487   4.204   2.575   5.034  0.1355  0.1960 -0.0012
 9285SOL    HW139488   4.291   2.556   5.066 -0.9595 -1.8590  1.7102
 9285SOL    HW239489   4.155   2.570   5.116  1.0968  1.5076  0.6367
 9286SOL     OW39490   3.713   2.663   9.277  0.5746  0.4506  0.6983
 9286SOL    HW139491   3.700   2.596   9.345 -1.8810  0.6363  0.4020
 9286SOL    HW239492   3.655   2.641   9.205  1.0685 -1.4891  0.8889
 9287SOL     OW39493   0.459   1.605  13.132 -0.6076 -0.4534  0.3663
 9287SOL    HW139494   0.495   1.543  13.196  2.4136  0.0872 -0.7880
 9287SOL    HW239495   0.481   1.682  13.185 -0.7415 -1.3361  1.7155
 9288SOL     OW39496   4.293   1.135   7.559  0.5080 -0.4705 -0.6602
 9288SOL    HW139497   4.316   1.123   7.467  2.0933 -0.8962 -0.2054
 9288SOL    HW239498   4.331   1.221   7.579 -1.0625  0.2154 -0.6489
 9289SOL     OW39499   1.730   2.992   9.094 -0.0545 -0.1255 -0.2361
 9289SOL    HW139500   1.649   2.972   9.139  0.1813  0.1686  0.3189
 9289SOL    HW239501   1.762   2.903   9.082  1.1470  0.0245  1.7907
 9290SOL     OW39502   3.219   2.542   4.970 -0.4802  0.2302  0.2720
 9290SOL    HW139503   3.310   2.564   4.948 -0.4023 -0.3509  0.0094
 9290SOL    HW239504   3.176   2.554   4.885 -1.0600 -2.3713  0.1811
 9291SOL     OW39505   3.232   2.393   5.203 -0.2288 -0.1621 -0.4495
 9291SOL    HW139506   3.205   2.451   5.275  0.2203 -2.7940  1.8490
 9291SOL    HW239507   3.206   2.443   5.126 -1.7946 -0.9957 -0.4653
 9292SOL     OW39508   0.509   0.310   6.826 -0.7130  0.6080  0.4784
 9292SOL    HW139509   0.510   0.363   6.746  1.6297 -3.1225 -1.9692
 9292SOL    HW239510   0.434   0.251   6.819 -1.0192  1.1229 -0.5966
 9293SOL     OW39511   4.562   2.424  10.036 -0.5873 -0.5681 -0.4107
 9293SOL    HW139512   4.492   2.361  10.023 -1.8673  0.8365 -0.3012
 9293SOL    HW239513   4.645   2.375  10.034 -0.3620 -0.1968 -0.2795
 9294SOL     OW39514   3.772   2.027   7.279  0.4552  0.6303 -0.5136
 9294SOL    HW139515   3.739   1.940   7.254 -2.1794  1.9908 -1.7757
 9294SOL    HW239516   3.776   2.062   7.190  0.8210 -0.1434 -0.8053
 9295SOL     OW39517   4.264   1.127   6.159 -0.1125 -0.1609 -0.2443
 9295SOL    HW139518   4.355   1.101   6.171  0.6147  0.9064 -3.5115
 9295SOL    HW239519   4.283   1.207   6.109  3.3935 -0.4245  0.6615
 9296SOL     OW39520   3.554   1.794  17.293  0.6684 -0.4495  0.0579
 9296SOL    HW139521   3.584   1.885  17.295 -0.5762 -0.0199 -0.3067
 9296SOL    HW239522   3.553   1.761  17.203  2.7142  0.0764 -0.1626
 9297SOL     OW39523   3.727   0.162  10.799 -1.0459  0.3194  0.2752
 9297SOL    HW139524   3.721   0.160  10.894  1.7397 -2.5212  0.3964
 9297SOL    HW239525   3.655   0.103  10.777  1.7152 -2.5582 -1.0125
 9298SOL     OW39526   4.144   2.779   3.848  0.5660  0.7347  0.2589
 9298SOL    HW139527   4.097   2.736   3.919  1.1051  0.9353  0.7351
 9298SOL    HW239528   4.206   2.710   3.825 -2.9516 -2.7030  1.0373
 9299SOL     OW39529   1.869   0.239   1.339  0.3002  0.5696  0.2588
 9299SOL    HW139530   1.777   0.229   1.363  0.8471  0.6735  2.4196
 9299SOL    HW239531   1.868   0.321   1.290 -0.7699 -0.4450 -1.4057
 9300SOL     OW39532   1.005   4.267   3.144  0.1461 -0.1724 -0.5632
 9300SOL    HW139533   1.058   4.292   3.069  1.2153 -0.3474  0.1421
 9300SOL    HW239534   1.024   4.175   3.161  0.1154  0.0782  0.8282
 9301SOL     OW39535   3.448   2.206   3.350  0.2104  0.3368 -0.2878
 9301SOL    HW139536   3.539   2.234   3.346  0.8766 -1.5435  1.8671
 9301SOL    HW239537   3.437   2.182   3.258  0.3285 -1.5417  0.1943
 9302SOL     OW39538   3.291   0.084   6.688  0.1446  0.0339 -0.8574
 9302SOL    HW139539   3.202   0.063   6.661 -1.1341  2.3778  1.4728
 9302SOL    HW239540   3.337   0.031   6.623 -1.3435 -2.4464  0.1279
 9303SOL     OW39541   2.850   1.106   7.633 -0.1831  0.2763 -0.0991
 9303SOL    HW139542   2.776   1.127   7.575 -0.8936  3.1188  1.8751
 9303SOL    HW239543   2.822   1.018   7.659 -0.5094  0.7790  1.2547
 9304SOL     OW39544   3.116   3.145   4.229  0.5472 -0.4633  0.5838
 9304SOL    HW139545   3.189   3.083   4.217 -0.6471 -1.3257 -2.4096
 9304SOL    HW239546   3.075   3.122   4.312  0.8086 -1.8298  0.3441
 9305SOL     OW39547   2.239   2.880   3.082 -0.0998 -0.8356  0.6815
 9305SOL    HW139548   2.315   2.923   3.042  0.1920 -1.6540  0.3428
 9305SOL    HW239549   2.184   2.956   3.098  0.4251  0.2000 -2.4259
 9306SOL     OW39550   1.815   0.624  16.395 -0.0412  0.5905 -0.3291
 9306SOL    HW139551   1.833   0.596  16.305  1.1769 -0.1422  0.1504
 9306SOL    HW239552   1.824   0.539  16.437  0.2968  1.1994  0.8390
 9307SOL     OW39553   1.755   2.419   2.323  0.0975  0.0028  0.1442
 9307SOL    HW139554   1.662   2.409   2.343  0.5109  0.7993  2.3871
 9307SOL    HW239555   1.765   2.395   2.231 -1.2890 -0.8530  0.2154
 9308SOL     OW39556   2.535   1.323   4.122 -0.4773  0.0840  0.3778
 9308SOL    HW139557   2.621   1.283   4.138 -1.4582 -1.6905  1.2677
 9308SOL    HW239558   2.479   1.257   4.163  0.7825 -0.6575  0.9175
 9309SOL     OW39559   4.231   3.789  15.975  0.1178  0.1559  0.4100
 9309SOL    HW139560   4.261   3.870  16.016  1.4601 -0.0273 -0.2099
 9309SOL    HW239561   4.251   3.809  15.883  1.3697  0.5551  0.7778
 9310SOL     OW39562   0.087   0.242   5.226  0.4878  0.1877 -0.0167
 9310SOL    HW139563   0.164   0.189   5.209  0.3812  0.3176 -0.9400
 9310SOL    HW239564   0.020   0.179   5.253 -0.2954  1.3860  0.8649
 9311SOL     OW39565   4.619   4.069   5.944  0.2333 -0.0990  0.1116
 9311SOL    HW139566   4.554   4.015   5.989 -1.2369  0.6724 -1.0698
 9311SOL    HW239567   4.565   4.148   5.939 -3.3343 -2.3318  3.1266
 9312SOL     OW39568   2.206   4.426   1.259 -0.5836  0.3221  0.0840
 9312SOL    HW139569   2.158   4.360   1.310  1.1122 -0.1147  1.1073
 9312SOL    HW239570   2.138   4.488   1.233  0.7898  1.7303 -0.1287
 9313SOL     OW39571   4.443   1.390   7.589 -0.2217  0.5358 -0.4448
 9313SOL    HW139572   4.523   1.364   7.634 -0.3029 -1.2677 -1.3455
 9313SOL    HW239573   4.476   1.436   7.512  0.1513  1.0977  0.0566
 9314SOL     OW39574   2.924   3.847   2.926 -0.6319  0.3337 -0.3042
 9314SOL    HW139575   2.963   3.931   2.951  1.6020 -0.5933 -0.7538
 9314SOL    HW239576   2.991   3.796   2.881 -1.2256 -0.9300  0.2327
 9315SOL     OW39577   0.517   1.952  12.560  0.2085  0.1661 -0.0275
 9315SOL    HW139578   0.540   1.874  12.509 -0.8773 -1.2312  1.6164
 9315SOL    HW239579   0.479   1.914  12.639 -0.9034  1.2958 -0.0257
 9316SOL     OW39580   0.111   1.569  14.413 -0.3253 -0.2106 -0.0792
 9316SOL    HW139581   0.017   1.574  14.395 -0.5224 -3.0426  0.0703
 9316SOL    HW239582   0.130   1.661  14.396 -1.7685  0.4581  1.8122
 9317SOL     OW39583   4.663   3.459   5.268 -0.6302 -0.0997  0.4177
 9317SOL    HW139584   4.644   3.370   5.300 -1.3462  0.3492  1.2521
 9317SOL    HW239585   4.596   3.469   5.202 -0.5612 -3.0000 -0.1191
 9318SOL     OW39586   0.701   0.054   0.201 -0.0980  0.5269 -0.2182
 9318SOL    HW139587   0.674   0.004   0.278  0.8751  2.5969  1.4751
 9318SOL    HW239588   0.707   0.136   0.249 -1.2867  0.6548 -0.2875
 9319SOL     OW39589   4.499   0.145   3.198 -0.2463  0.2087 -0.3804
 9319SOL    HW139590   4.560   0.201   3.246 -0.3002  1.3605 -1.6530
 9319SOL    HW239591   4.432   0.115   3.261  0.9554 -0.2826  0.6618
 9320SOL     OW39592   0.798   3.991   9.797 -0.3142 -0.0939  0.0071
 9320SOL    HW139593   0.827   4.066   9.849  0.3719 -0.3026 -0.0676
 9320SOL    HW239594   0.785   3.927   9.867  0.1597  1.4278  1.4856
 9321SOL     OW39595   4.273   4.483   1.888  0.1080 -0.4021 -0.5134
 9321SOL    HW139596   4.341   4.549   1.874 -0.6779  0.7060  0.9511
 9321SOL    HW239597   4.267   4.476   1.983 -0.4872  3.3576 -0.2617
 9322SOL     OW39598   4.653   4.429   5.316 -0.5946 -0.0515 -0.3614
 9322SOL    HW139599   4.565   4.445   5.280 -0.2357 -0.4920 -1.4538
 9322SOL    HW239600   4.691   4.390   5.237  1.3737  0.2927  0.4233
 9323SOL     OW39601   0.710   2.182   6.218 -0.3052  0.0113  0.3354
 9323SOL    HW139602   0.648   2.112   6.237 -0.3793  0.0269  0.1421
 9323SOL    HW239603   0.793   2.135   6.219 -0.4899 -0.3300 -2.5142
 9324SOL     OW39604   4.011   1.483   3.620  0.1858  0.3973 -0.1873
 9324SOL    HW139605   4.005   1.405   3.674  0.6462  0.0649 -0.6150
 9324SOL    HW239606   3.980   1.450   3.536 -1.7559  0.1012  0.6523
 9325SOL     OW39607   2.660   4.085  16.812 -0.6078  0.2116  0.3473
 9325SOL    HW139608   2.612   4.141  16.873 -0.3961  1.1859 -0.3732
 9325SOL    HW239609   2.719   4.039  16.872  1.1451  1.0513 -0.7295
 9326SOL     OW39610   2.908   1.485   8.984 -0.5599 -0.2730  0.6338
 9326SOL    HW139611   2.847   1.498   8.911  0.4101 -0.8199 -0.2708
 9326SOL    HW239612   2.997   1.487   8.950  0.0621  2.1746  2.4415
 9327SOL     OW39613   4.329   4.280   0.111  0.1712 -0.3982 -0.0805
 9327SOL    HW139614   4.324   4.375   0.099 -0.3790 -0.2534  1.2190
 9327SOL    HW239615   4.315   4.254   0.020  0.3940 -1.3602  0.1630
 9328SOL     OW39616   0.503   4.146   7.775 -0.1900  0.2963 -0.1533
 9328SOL    HW139617   0.442   4.084   7.815 -0.8881  0.8635 -0.3337
 9328SOL    HW239618   0.490   4.225   7.828  0.0501  1.0712 -1.2440
 9329SOL     OW39619   0.837   4.249   1.855 -0.9628 -0.1135  0.2616
 9329SOL    HW139620   0.884   4.332   1.860  1.4584 -1.4520 -0.0036
 9329SOL    HW239621   0.803   4.248   1.766 -2.0449  2.6386  0.6649
 9330SOL     OW39622   4.145   0.729   6.135  0.3975  0.7145  0.0573
 9330SOL    HW139623   4.161   0.780   6.056  1.0518  3.3402  1.8925
 9330SOL    HW239624   4.143   0.641   6.098  2.0418  0.7608 -0.1572
 9331SOL     OW39625   3.298   3.089  10.034 -0.0230 -0.2911  0.2477
 9331SOL    HW139626   3.290   2.995  10.049  0.7422 -0.7887 -2.6017
 9331SOL    HW239627   3.389   3.102  10.059  0.5576 -0.9979 -1.5387
 9332SOL     OW39628   2.858   0.080  15.958 -0.3319 -0.3245  0.1772
 9332SOL    HW139629   2.947   0.097  15.927 -0.2114  0.4001  0.9070
 9332SOL    HW239630   2.815   0.051  15.878  3.1972 -0.8505 -1.5306
 9333SOL     OW39631   3.399   3.668  10.524  0.0536 -0.3990 -0.3941
 9333SOL    HW139632   3.307   3.682  10.499 -0.2073 -1.0260  0.2109
 9333SOL    HW239633   3.395   3.709  10.611  0.1330  0.0511 -0.6045
 9334SOL     OW39634   0.136   1.106   1.130  0.0826 -0.1047  0.2162
 9334SOL    HW139635   0.185   1.188   1.139 -1.2355  0.5893  1.0066
 9334SOL    HW239636   0.045   1.120   1.105  1.0083 -0.5464 -3.4274
 9335SOL     OW39637   2.584   0.078   2.845  0.6473  0.1260  0.0785
 9335SOL    HW139638   2.607   0.171   2.848 -1.1853  0.5868 -0.3275
 9335SOL    HW239639   2.596   0.054   2.937  2.6988 -0.8580 -0.4511
 9336SOL     OW39640   2.074   3.190   3.386 -0.0776  0.6086 -0.2333
 9336SOL    HW139641   2.127   3.245   3.444 -3.6086  2.6040  1.1116
 9336SOL    HW239642   2.040   3.260   3.331 -0.7272 -0.1772 -0.8176
 9337SOL     OW39643   1.786   1.069   0.909 -0.2291 -0.1879  0.3652
 9337SOL    HW139644   1.758   1.146   0.860  1.0608  0.8978  1.3290
 9337SOL    HW239645   1.835   1.024   0.840 -0.8145 -0.4456  0.1247
 9338SOL     OW39646   1.916   1.823   6.916  0.4291  0.7457  0.2340
 9338SOL    HW139647   1.974   1.752   6.946 -0.1131 -0.6447 -2.0297
 9338SOL    HW239648   1.975   1.874   6.861 -0.5211  1.3149 -0.2508
 9339SOL     OW39649   2.025   2.226   0.670  0.0122  0.6004  0.0925
 9339SOL    HW139650   1.940   2.240   0.711  0.1524 -0.7196  0.8426
 9339SOL    HW239651   2.017   2.281   0.592  2.5180 -0.1811 -0.7375
 9340SOL     OW39652   4.564   1.104  17.628  0.1790  0.5910  0.0724
 9340SOL    HW139653   4.515   1.061  17.559  1.6772  0.4259 -0.8869
 9340SOL    HW239654   4.626   1.034  17.650 -1.6213 -0.7872  0.8010
 9341SOL     OW39655   3.944   1.766   6.011  0.0327  0.6562  0.3360
 9341SOL    HW139656   3.857   1.727   6.003  1.6461 -2.6802 -0.7941
 9341SOL    HW239657   3.923   1.858   6.025  0.1179  0.7172  0.0661
 9342SOL     OW39658   3.567   4.355   7.974 -0.0753 -0.1703  0.3051
 9342SOL    HW139659   3.590   4.437   8.017  0.5620 -1.5967  2.6254
 9342SOL    HW239660   3.517   4.307   8.040 -1.5669  0.7694 -0.1157
 9343SOL     OW39661   0.369   1.742   4.079  0.0013 -0.4659  0.1292
 9343SOL    HW139662   0.416   1.775   4.002 -3.1096  3.0052 -0.2899
 9343SOL    HW239663   0.436   1.702   4.134 -0.0987  0.9063  1.2417
 9344SOL     OW39664   1.730   2.468   0.335  0.0742  0.1577 -0.0522
 9344SOL    HW139665   1.732   2.535   0.266  1.6851  1.2750  1.1103
 9344SOL    HW239666   1.707   2.389   0.285 -0.9484  0.5962 -0.2943
 9345SOL     OW39667   3.431   0.670   7.149 -0.2115  0.2010 -0.1702
 9345SOL    HW139668   3.514   0.702   7.112  0.7430  0.6705  2.3956
 9345SOL    HW239669   3.362   0.687   7.084 -0.4409 -1.7213 -0.4194
 9346SOL     OW39670   0.231   4.294  14.912 -0.5477  0.1452 -0.0323
 9346SOL    HW139671   0.316   4.308  14.869  0.4516 -0.2514  1.7920
 9346SOL    HW239672   0.254   4.265  15.001 -1.7484 -0.9441 -0.0835
 9347SOL     OW39673   0.043   2.446   6.773 -0.3016  0.0188  0.0324
 9347SOL    HW139674   0.021   2.380   6.840  0.5342 -0.6072 -0.3093
 9347SOL    HW239675   4.694   2.487   6.760 -1.1436 -1.6796  0.1685
 9348SOL     OW39676   2.699   0.605   0.352 -0.2779 -0.5913  0.4847
 9348SOL    HW139677   2.753   0.667   0.303  2.6710 -2.8390  0.8663
 9348SOL    HW239678   2.729   0.631   0.439  1.1888  1.5616 -0.6633
 9349SOL     OW39679   4.217   3.765  10.924 -0.2853  0.1709  0.1936
 9349SOL    HW139680   4.306   3.796  10.939  0.4763 -2.3624  0.9043
 9349SOL    HW239681   4.167   3.824  10.982 -2.3559 -1.1039 -0.2964
 9350SOL     OW39682   4.632   3.315   1.569 -0.2188 -0.8205 -0.1228
 9350SOL    HW139683   4.703   3.251   1.572 -0.4337 -1.0050  1.2058
 9350SOL    HW239684   4.606   3.319   1.661 -0.2249 -1.6670 -0.0840
 9351SOL     OW39685   3.851   0.883   0.613 -0.3160  0.1811  0.2540
 9351SOL    HW139686   3.851   0.955   0.550  0.6808 -0.3698 -0.3769
 9351SOL    HW239687   3.883   0.808   0.563  0.7383  0.0417  1.1634
 9352SOL     OW39688   1.461   3.070   8.777 -0.6851 -0.7921  0.0214
 9352SOL    HW139689   1.486   3.079   8.869 -0.4240  0.8698 -0.2257
 9352SOL    HW239690   1.409   3.144   8.747 -0.7261 -1.5858 -1.8341
 9353SOL     OW39691   1.051   3.845   4.725 -0.3989  0.0598  0.1883
 9353SOL    HW139692   1.015   3.919   4.774  1.0139  0.8695  0.0154
 9353SOL    HW239693   1.087   3.886   4.646 -0.3652  1.0029  0.6915
 9354SOL     OW39694   0.254   3.665  10.598 -0.6055 -0.2529 -0.6759
 9354SOL    HW139695   0.333   3.611  10.593 -0.6206 -0.6126  2.7964
 9354SOL    HW239696   0.193   3.596  10.572 -0.2101 -0.7457 -0.3075
 9355SOL     OW39697   4.283   2.232   4.436  0.2907 -0.9494  0.3522
 9355SOL    HW139698   4.250   2.245   4.347 -0.7458 -1.4036  0.6746
 9355SOL    HW239699   4.280   2.322   4.468 -0.1841 -1.3918  1.5239
 9356SOL     OW39700   2.632   1.497   5.999 -0.1256  0.0519  0.1964
 9356SOL    HW139701   2.717   1.489   6.042 -0.0776  0.6806  0.2194
 9356SOL    HW239702   2.654   1.541   5.917  1.2721 -1.0233  0.0060
 9357SOL     OW39703   3.887   0.544   4.294 -0.4504 -0.6717  0.1536
 9357SOL    HW139704   3.945   0.595   4.351 -1.8836  0.8550  0.2247
 9357SOL    HW239705   3.952   0.498   4.240 -1.4579 -2.0726  0.1422
 9358SOL     OW39706   3.271   3.592   6.361  0.2842 -0.0760  0.4022
 9358SOL    HW139707   3.224   3.529   6.415  2.3367 -1.2964  0.7810
 9358SOL    HW239708   3.203   3.642   6.315  1.0668  3.1098  2.7265
 9359SOL     OW39709   0.611   0.545   9.089  0.7620 -0.3419 -0.2420
 9359SOL    HW139710   0.617   0.451   9.104  3.0778 -0.3236 -1.0095
 9359SOL    HW239711   0.519   0.560   9.069  0.6213 -0.2511  0.4590
 9360SOL     OW39712   1.048   1.608   8.718 -0.1188 -0.3352 -0.4125
 9360SOL    HW139713   1.067   1.561   8.799 -1.7649  0.3214  0.3562
 9360SOL    HW239714   0.954   1.599   8.728 -0.0600 -0.0825  0.3864
 9361SOL     OW39715   1.082   2.874  14.153 -0.2381 -0.7156 -0.6161
 9361SOL    HW139716   1.009   2.928  14.121 -0.6413 -0.0941  1.3496
 9361SOL    HW239717   1.151   2.878  14.086  0.9151 -0.0628  0.6058
 9362SOL     OW39718   3.314   1.515   4.640 -0.2134  0.4024 -0.5683
 9362SOL    HW139719   3.334   1.487   4.551  0.4400 -0.4879 -0.1305
 9362SOL    HW239720   3.379   1.585   4.636 -0.7172  0.8877 -0.3314
 9363SOL     OW39721   2.656   2.821   6.418 -0.0574 -0.1690  0.2259
 9363SOL    HW139722   2.608   2.806   6.499 -0.0648  0.6979  0.3796
 9363SOL    HW239723   2.588   2.796   6.355  0.4717  1.5652 -1.0211
 9364SOL     OW39724   4.685   0.342   7.433  0.1505  0.0773  0.1045
 9364SOL    HW139725   4.705   0.422   7.384 -1.5172  0.3601 -0.1005
 9364SOL    HW239726   4.597   0.317   7.405  0.4243  0.2229 -0.8942
 9365SOL     OW39727   1.886   1.172  17.331  0.2585  0.0348  1.0239
 9365SOL    HW139728   1.813   1.180  17.270  0.4721 -0.5594  0.6838
 9365SOL    HW239729   1.963   1.195  17.279 -0.5561 -2.2809 -1.1763
 9366SOL     OW39730   0.914   0.402  10.189  0.4457 -0.5872 -0.5550
 9366SOL    HW139731   0.993   0.410  10.241  0.3940  0.4389 -0.6399
 9366SOL    HW239732   0.871   0.340  10.249  0.2322  0.9211  0.8410
 9367SOL     OW39733   1.486   4.336   4.147 -0.6178 -0.2150  0.2298
 9367SOL    HW139734   1.471   4.364   4.057 -2.2131 -3.0070 -0.3683
 9367SOL    HW239735   1.431   4.386   4.206 -0.3452  0.4183 -0.0526
 9368SOL     OW39736   2.740   2.986   8.230  0.3559 -0.2167  0.5058
 9368SOL    HW139737   2.711   3.026   8.148  0.6741  0.5624  0.7716
 9368SOL    HW239738   2.818   3.033   8.259  0.2684  0.4299 -0.3009
 9369SOL     OW39739   3.912   2.477   5.498  0.2376  0.2907 -0.3503
 9369SOL    HW139740   3.860   2.471   5.418 -1.9578  2.6051  0.9071
 9369SOL    HW239741   3.854   2.519   5.562 -1.0119 -0.9558 -0.6846
 9370SOL     OW39742   0.339   4.297   9.047 -0.0296  0.3287 -0.4662
 9370SOL    HW139743   0.334   4.391   9.030 -1.8609  0.0654 -1.3309
 9370SOL    HW239744   0.420   4.276   9.001  0.6784 -0.9800  1.3410
 9371SOL     OW39745   1.044   3.324   3.565 -0.6683  0.6824 -0.3694
 9371SOL    HW139746   1.072   3.337   3.655 -2.4013  1.1180  0.1066
 9371SOL    HW239747   1.048   3.410   3.522 -0.9288  0.9398  0.1110
 9372SOL     OW39748   1.959   4.193   2.918 -0.2611  0.0272 -0.4166
 9372SOL    HW139749   2.031   4.163   2.975  0.8333 -1.2477 -2.4789
 9372SOL    HW239750   1.990   4.158   2.834 -0.5066  2.8756 -1.6831
 9373SOL     OW39751   2.224   2.856  12.352 -0.2613  0.0856  0.3170
 9373SOL    HW139752   2.255   2.797  12.421  0.9354  1.7106  1.1685
 9373SOL    HW239753   2.187   2.790  12.293  0.1914  0.2077 -0.0981
 9374SOL     OW39754   4.322   2.452   8.895 -0.6142  0.2356 -0.8176
 9374SOL    HW139755   4.395   2.472   8.836 -0.8613 -1.1906 -1.6137
 9374SOL    HW239756   4.264   2.398   8.842 -0.9761  1.0785 -1.2863
 9375SOL     OW39757   0.340   1.229   7.295  0.4376  0.4695 -0.5022
 9375SOL    HW139758   0.377   1.298   7.350  0.0015 -0.8638  1.4188
 9375SOL    HW239759   0.413   1.171   7.274 -0.2283 -0.5224 -0.0170
 9376SOL     OW39760   2.649   2.244  16.193 -0.1819  0.2963 -0.1841
 9376SOL    HW139761   2.742   2.228  16.212  0.2188  2.0187 -0.7632
 9376SOL    HW239762   2.630   2.295  16.272  0.2519 -0.2547  0.2765
 9377SOL     OW39763   3.525   1.730  16.502  0.1520  0.1602  0.7464
 9377SOL    HW139764   3.457   1.798  16.497  0.6951  0.5270 -1.6659
 9377SOL    HW239765   3.578   1.775  16.568 -0.3754  2.4397 -0.3746
 9378SOL     OW39766   3.587   3.623   9.319 -0.7101  0.6108 -0.1889
 9378SOL    HW139767   3.558   3.659   9.402 -0.0556  1.1578 -0.2001
 9378SOL    HW239768   3.606   3.695   9.259 -2.7290  1.8632  0.6951
 9379SOL     OW39769   4.503   3.181  12.442 -0.1556  0.7318 -0.3912
 9379SOL    HW139770   4.462   3.184  12.355  1.6182  1.2081 -1.2084
 9379SOL    HW239771   4.528   3.089  12.447 -0.9570  0.5425  0.1500
 9380SOL     OW39772   0.385   2.470   0.816 -0.1357 -0.0813 -0.2328
 9380SOL    HW139773   0.377   2.471   0.721  3.9717 -0.1141 -0.5679
 9380SOL    HW239774   0.359   2.558   0.843  0.2907 -0.4732  1.4242
 9381SOL     OW39775   4.234   3.181  11.952  0.3483 -0.5339  0.0519
 9381SOL    HW139776   4.139   3.180  11.937  0.2169 -0.5044  0.8995
 9381SOL    HW239777   4.250   3.264  11.907 -0.6914  0.1130  0.8458
 9382SOL     OW39778   3.849   0.709  13.021  0.1641 -0.4234 -0.0375
 9382SOL    HW139779   3.875   0.619  13.036 -1.1783 -0.6211  1.1077
 9382SOL    HW239780   3.925   0.755  13.057  0.6517 -0.3580 -1.1646
 9383SOL     OW39781   4.724   3.679   4.755 -0.7062 -0.2916  0.0751
 9383SOL    HW139782   4.649   3.627   4.728 -0.1280 -1.8166  1.4016
 9383SOL    HW239783   4.695   3.766   4.728 -0.3680  0.2369  1.4037
 9384SOL     OW39784   0.195   2.752  14.066  0.3105 -0.4566  0.2355
 9384SOL    HW139785   0.172   2.806  13.991  0.4844 -1.8699 -0.8358
 9384SOL    HW239786   0.115   2.723  14.109  0.5853  0.3977  1.3154
 9385SOL     OW39787   3.788   4.106   4.129 -0.3654  0.1037 -0.3971
 9385SOL    HW139788   3.709   4.146   4.166 -1.3260 -0.5614 -1.7287
 9385SOL    HW239789   3.809   4.174   4.066  0.4440 -1.5720 -1.9203
 9386SOL     OW39790   3.334   0.946   6.449  0.6933  0.2430  0.3322
 9386SOL    HW139791   3.257   0.899   6.482  0.3203 -1.3306 -2.7322
 9386SOL    HW239792   3.350   0.909   6.362  3.9479 -1.1256  1.5339
 9387SOL     OW39793   0.121   3.981   9.337 -0.3579  0.0204 -0.2176
 9387SOL    HW139794   0.191   3.923   9.368  0.6159  0.7828 -1.0111
 9387SOL    HW239795   0.139   4.050   9.402  0.3192  0.8900 -1.3369
 9388SOL     OW39796   4.644   2.506  12.741 -0.2559 -0.1368  0.2826
 9388SOL    HW139797   4.679   2.543  12.660  0.7385 -0.1730  0.6997
 9388SOL    HW239798   4.623   2.420  12.705  0.1377  0.3142 -0.9941
 9389SOL     OW39799   0.367   3.945   7.906 -0.2946 -0.2105 -0.1648
 9389SOL    HW139800   0.371   3.853   7.931  1.0954  0.7425  2.9578
 9389SOL    HW239801   0.277   3.951   7.873  0.0831 -0.7428 -1.2964
 9390SOL     OW39802   3.372   3.943   4.466  0.3914  0.1527 -0.4963
 9390SOL    HW139803   3.327   3.928   4.549  1.1980  0.5520  0.0203
 9390SOL    HW239804   3.300   3.930   4.405  0.1893  0.8116 -0.4076
 9391SOL     OW39805   4.359   3.016  16.249  0.0977  0.2600  0.3367
 9391SOL    HW139806   4.396   3.072  16.180  1.7098 -2.5615 -1.0974
 9391SOL    HW239807   4.267   3.044  16.249  0.5345  1.6792 -1.9060
 9392SOL     OW39808   0.693   2.262   2.653  0.2222  0.0204  0.0349
 9392SOL    HW139809   0.622   2.243   2.591 -0.0547 -1.3803  0.7770
 9392SOL    HW239810   0.764   2.292   2.596 -0.0379 -4.3583 -2.6140
 9393SOL     OW39811   0.041   1.440   8.865 -0.7034  0.2916  0.1395
 9393SOL    HW139812   0.122   1.480   8.834 -0.6261  0.2448  0.2793
 9393SOL    HW239813   0.058   1.418   8.957 -0.3302 -0.6165 -0.1461
 9394SOL     OW39814   4.021   3.101   5.910  0.2425 -0.1808 -0.6404
 9394SOL    HW139815   4.040   3.086   6.002  0.4416 -2.1881 -1.0054
 9394SOL    HW239816   3.929   3.076   5.918 -0.0216  0.7244 -0.8815
 9395SOL     OW39817   2.218   1.749   0.928  0.2897  0.4845  0.3890
 9395SOL    HW139818   2.142   1.712   0.883  0.9540  0.5957 -0.8134
 9395SOL    HW239819   2.215   1.840   0.899 -0.8136 -0.2778 -1.9144
 9396SOL     OW39820   0.624   1.754   8.499  0.2915 -0.8239  0.2530
 9396SOL    HW139821   0.625   1.815   8.425  1.1885 -1.3852 -0.1983
 9396SOL    HW239822   0.532   1.729   8.504 -0.4080  0.7222 -4.6521
 9397SOL     OW39823   1.921   4.055   4.124  0.0642  0.0705 -0.7301
 9397SOL    HW139824   2.007   4.042   4.084 -0.7243  0.9271 -2.6917
 9397SOL    HW239825   1.944   4.047   4.217 -1.6221 -1.6706 -0.4622
 9398SOL     OW39826   2.823   4.010   3.167 -0.6411 -0.0969  0.5077
 9398SOL    HW139827   2.885   3.979   3.102 -0.3275  3.4400 -0.9165
 9398SOL    HW239828   2.780   4.073   3.109 -0.4939 -1.0277 -0.6019
 9399SOL     OW39829   3.244   2.227   9.196 -0.1765 -0.0294  0.2374
 9399SOL    HW139830   3.225   2.135   9.180  1.4838 -0.3579  0.1198
 9399SOL    HW239831   3.161   2.274   9.191  0.5371  1.0415 -1.5823
 9400SOL     OW39832   2.455   4.035  14.576 -0.0711  0.0413 -0.0796
 9400SOL    HW139833   2.408   4.080  14.506  1.0829 -0.8520 -1.4349
 9400SOL    HW239834   2.468   4.118  14.623 -1.5960 -0.0495  0.4981
 9401SOL     OW39835   1.028   0.319  16.285 -0.2146  0.3098  0.0214
 9401SOL    HW139836   0.994   0.404  16.257 -3.1789 -1.0646 -0.5192
 9401SOL    HW239837   1.043   0.281  16.199 -1.4950  0.4452 -0.2625
 9402SOL     OW39838   1.227   0.915   3.295  0.0383 -0.1237  0.1740
 9402SOL    HW139839   1.279   0.884   3.369 -0.8356 -0.9961  0.4140
 9402SOL    HW239840   1.172   0.985   3.330 -0.1569 -0.0365 -0.3055
 9403SOL     OW39841   2.360   0.503   2.532 -1.0475  0.5433 -0.9843
 9403SOL    HW139842   2.384   0.587   2.572  0.0907 -0.6068  0.7625
 9403SOL    HW239843   2.446   0.462   2.520 -0.9278  1.1254 -2.0863
 9404SOL     OW39844   4.527   3.263   9.651 -0.2479 -0.3000  0.2823
 9404SOL    HW139845   4.467   3.227   9.587  0.9164 -2.6477  0.5058
 9404SOL    HW239846   4.523   3.199   9.723 -0.5420 -0.2672  0.2934
 9405SOL     OW39847   2.913   2.911  15.529  0.3463 -0.0523  0.0712
 9405SOL    HW139848   2.910   2.947  15.441 -1.6430 -0.5150 -0.0443
 9405SOL    HW239849   2.874   2.824  15.516 -1.7576  0.8483  0.4067
 9406SOL     OW39850   3.662   3.459  10.729 -0.0500  0.3146 -0.0840
 9406SOL    HW139851   3.633   3.389  10.787  1.4207 -1.0067 -0.9525
 9406SOL    HW239852   3.632   3.527  10.790  0.0071 -0.1315  0.4383
 9407SOL     OW39853   4.447   2.136  13.834 -0.5295 -0.4035  0.1530
 9407SOL    HW139854   4.361   2.106  13.805  0.3261 -2.3780 -0.3568
 9407SOL    HW239855   4.509   2.075  13.795 -1.5693 -0.4555 -1.4203
 9408SOL     OW39856   1.509   2.518   5.181 -0.1691 -0.0696  0.0079
 9408SOL    HW139857   1.430   2.466   5.164 -1.0744  2.5034 -3.6671
 9408SOL    HW239858   1.566   2.491   5.109 -1.7428 -2.2276 -0.4212
 9409SOL     OW39859   2.933   1.214   7.118  0.9227 -0.6260 -0.4431
 9409SOL    HW139860   2.914   1.254   7.034  1.3726  0.8714  0.1782
 9409SOL    HW239861   2.880   1.135   7.105 -1.2040  0.9267 -0.9700
 9410SOL     OW39862   1.301   2.006   4.885 -0.1644 -0.1643  0.1476
 9410SOL    HW139863   1.218   1.965   4.911 -0.6851  0.9084  0.1835
 9410SOL    HW239864   1.373   1.947   4.906 -0.9385 -1.0505  0.3087
 9411SOL     OW39865   2.792   0.420   1.817  0.3910 -0.0250 -0.0323
 9411SOL    HW139866   2.708   0.379   1.799 -0.7799  1.9597  1.0461
 9411SOL    HW239867   2.765   0.499   1.863  1.7810  0.8909 -0.7761
 9412SOL     OW39868   2.402   4.486   0.844  0.2285 -0.4007  0.5461
 9412SOL    HW139869   2.477   4.471   0.901 -0.1919  2.1906  1.7711
 9412SOL    HW239870   2.347   4.544   0.897 -1.3155 -1.1064 -0.2891
 9413SOL     OW39871   3.657   2.764   6.739  0.0564  0.5202  0.1247
 9413SOL    HW139872   3.606   2.683   6.742  2.1850 -0.8394 -0.1910
 9413SOL    HW239873   3.706   2.769   6.821 -0.8168  1.9840  0.5624
 9414SOL     OW39874   2.110   1.964   4.008  0.4240 -0.1791  0.2994
 9414SOL    HW139875   2.018   1.984   4.026 -0.3122 -1.1504 -2.4001
 9414SOL    HW239876   2.147   2.005   4.087  0.7845 -2.9554  1.5929
 9415SOL     OW39877   4.320   4.110   8.780  0.6240  0.6381  0.3570
 9415SOL    HW139878   4.281   4.115   8.693  0.3738 -2.3327  0.3086
 9415SOL    HW239879   4.277   4.045   8.835  0.4816 -1.0221 -1.7387
 9416SOL     OW39880   4.266   2.016  14.295 -0.3679  0.3490  0.4889
 9416SOL    HW139881   4.210   2.056  14.362  0.8391  1.9586  0.5337
 9416SOL    HW239882   4.268   2.095  14.242 -1.1237  1.0850  1.5560
 9417SOL     OW39883   1.574   4.512  15.724 -0.5823 -0.1740  0.6545
 9417SOL    HW139884   1.502   4.448  15.727 -0.7010  0.0467  2.7271
 9417SOL    HW239885   1.557   4.561  15.804  0.3177  1.6075 -0.2624
 9418SOL     OW39886   0.522   1.291  16.920  0.1459  0.1609 -0.2126
 9418SOL    HW139887   0.488   1.344  16.992 -0.3049 -1.0493  0.4544
 9418SOL    HW239888   0.614   1.273  16.943 -0.1966 -0.5689  0.5745
 9419SOL     OW39889   0.556   1.450  12.491 -0.5453 -0.3521  0.1782
 9419SOL    HW139890   0.481   1.427  12.547  0.1721  0.1523  1.3523
 9419SOL    HW239891   0.516   1.425  12.408 -0.4218  1.7896 -0.5139
 9420SOL     OW39892   1.275   3.144   6.355 -0.1528  0.2282 -0.2042
 9420SOL    HW139893   1.224   3.225   6.350 -0.8430 -0.2689 -1.1472
 9420SOL    HW239894   1.358   3.177   6.322  1.0586 -0.0654  2.5928
 9421SOL     OW39895   3.548   0.949   6.931  0.1031 -0.7651 -0.1594
 9421SOL    HW139896   3.570   1.000   7.009 -3.3517  2.6236 -1.3900
 9421SOL    HW239897   3.592   0.867   6.951 -3.5116 -2.7187 -0.0988
 9422SOL     OW39898   3.559   0.933   2.205  0.0802 -0.1745  0.2953
 9422SOL    HW139899   3.520   0.900   2.125  0.1610 -1.3464  0.7373
 9422SOL    HW239900   3.572   1.022   2.172 -2.2033  0.2197  0.4506
 9423SOL     OW39901   0.236   3.236   6.919 -0.2103 -0.4082 -0.1174
 9423SOL    HW139902   0.148   3.274   6.917 -0.1611 -0.2525  0.8410
 9423SOL    HW239903   0.220   3.159   6.865 -0.4085 -0.8174  0.5193
 9424SOL     OW39904   3.977   3.866  16.101  0.1004  0.8022 -0.2832
 9424SOL    HW139905   4.017   3.951  16.087 -0.1322  1.0189  0.3857
 9424SOL    HW239906   4.057   3.816  16.085  0.6379  0.7838  2.5586
 9425SOL     OW39907   1.063   3.740   5.517  0.5977 -0.3176 -0.0149
 9425SOL    HW139908   0.968   3.754   5.517  0.7073  0.5210  1.5206
 9425SOL    HW239909   1.085   3.750   5.425 -1.0999  1.3040 -0.2703
 9426SOL     OW39910   3.579   4.407   0.330 -0.4744 -0.1325  0.4792
 9426SOL    HW139911   3.635   4.337   0.298 -2.0633 -0.6546 -1.1810
 9426SOL    HW239912   3.496   4.360   0.332 -0.7205  0.1646 -2.3269
 9427SOL     OW39913   4.051   0.701   3.184 -0.1812 -0.2665  0.3326
 9427SOL    HW139914   4.142   0.690   3.213 -0.3487 -1.2805  0.4855
 9427SOL    HW239915   4.010   0.721   3.268 -1.7586  0.5244 -0.6307
 9428SOL     OW39916   4.718   0.203   8.895  0.1867 -0.0740 -0.1520
 9428SOL    HW139917   0.029   0.195   8.977 -1.1135  2.7296  0.8800
 9428SOL    HW239918   4.652   0.271   8.908 -0.0737 -0.2448 -0.5821
 9429SOL     OW39919   3.958   0.137  12.078 -0.2959  0.2662  0.0370
 9429SOL    HW139920   3.884   0.085  12.046 -0.2025 -0.6750  1.3202
 9429SOL    HW239921   3.948   0.130  12.173 -1.9152 -2.6117 -0.3575
 9430SOL     OW39922   0.431   0.008  16.290  0.1815  0.1988 -0.6448
 9430SOL    HW139923   0.449   4.663  16.244 -0.2078 -1.4380  2.1399
 9430SOL    HW239924   0.452   0.068  16.218 -0.3486  2.6533  1.2611
 9431SOL     OW39925   3.435   3.219   8.135 -0.5213 -0.1929 -0.2038
 9431SOL    HW139926   3.407   3.131   8.111 -0.1457  0.4191 -2.8970
 9431SOL    HW239927   3.502   3.248   8.073 -1.2895 -0.8883 -1.3589
 9432SOL     OW39928   1.892   2.968   3.787 -0.7048  0.0085 -0.0132
 9432SOL    HW139929   1.907   2.976   3.693 -2.0693  3.1356  0.0524
 9432SOL    HW239930   1.904   2.874   3.804 -2.8776  0.2099  2.6098
 9433SOL     OW39931   0.192   2.033  15.375  0.0604  0.0931 -0.3726
 9433SOL    HW139932   0.137   2.109  15.391  0.6692  0.5254 -0.3388
 9433SOL    HW239933   0.216   2.042  15.282  1.3927  0.3567 -0.0039
 9434SOL     OW39934   4.228   1.277   8.580 -0.4150 -0.4946 -0.1493
 9434SOL    HW139935   4.322   1.289   8.570  0.0145 -3.1198  0.7117
 9434SOL    HW239936   4.223   1.220   8.657  1.7265  0.4867  0.6988
 9435SOL     OW39937   4.679   3.668   9.030 -0.5691 -0.3872  0.4210
 9435SOL    HW139938   4.656   3.755   8.999 -0.7599 -0.3847  0.5687
 9435SOL    HW239939   4.599   3.649   9.080  0.1598 -0.3432  1.6070
 9436SOL     OW39940   0.309   0.323   7.771  0.0138 -0.1929  1.1630
 9436SOL    HW139941   0.293   0.255   7.706  0.7546  2.3626 -1.7376
 9436SOL    HW239942   0.225   0.325   7.816  0.8438 -0.8127  2.7138
 9437SOL     OW39943   4.716   4.013   0.211  0.6515 -0.3246  0.1650
 9437SOL    HW139944   0.067   3.979   0.195 -0.8897 -4.6381  0.8123
 9437SOL    HW239945   0.008   4.076   0.277  0.3833 -0.1557  0.1216
 9438SOL     OW39946   0.242   3.340   3.064 -0.0014  0.1944  0.2840
 9438SOL    HW139947   0.251   3.399   3.138  1.9924  0.9174 -0.5387
 9438SOL    HW239948   0.222   3.255   3.103  1.8185  0.6056  2.0890
 9439SOL     OW39949   0.879   3.987   1.237 -0.5917  0.3585 -0.0410
 9439SOL    HW139950   0.815   4.059   1.245  0.1793  0.9442  0.8333
 9439SOL    HW239951   0.952   4.035   1.276 -1.1035  0.5383  0.6938
 9440SOL     OW39952   1.751   0.341  10.592 -0.0249  0.1162 -0.1874
 9440SOL    HW139953   1.707   0.340  10.676  1.9230  1.2600  0.8528
 9440SOL    HW239954   1.823   0.278  10.600 -0.8857 -0.5719  2.1139
 9441SOL     OW39955   1.035   4.552  13.412 -0.0868 -0.3181 -0.1632
 9441SOL    HW139956   0.948   4.516  13.397  0.2247 -2.5029  3.2233
 9441SOL    HW239957   1.080   4.480  13.455 -0.1134 -0.7115 -0.8028
 9442SOL     OW39958   4.705   2.394  15.219  0.3631  0.1660 -0.2117
 9442SOL    HW139959   4.622   2.419  15.179 -0.1075 -2.3318 -0.7727
 9442SOL    HW239960   0.034   2.462  15.203  2.4981 -1.4842  1.4998
 9443SOL     OW39961   0.583   4.507   2.695  0.3818  0.7467 -0.2412
 9443SOL    HW139962   0.612   4.598   2.700  0.4499  0.6301  1.6895
 9443SOL    HW239963   0.594   4.485   2.603 -0.2351  1.4959 -0.4916
 9444SOL     OW39964   0.067   2.159   8.017  0.0789 -0.5625 -0.1498
 9444SOL    HW139965   0.001   2.211   7.971  0.1026  0.6698  1.2172
 9444SOL    HW239966   0.148   2.184   7.974 -0.8685 -0.5298 -1.8924
 9445SOL     OW39967   1.405   1.646  16.832  0.3419 -0.2370  0.5170
 9445SOL    HW139968   1.348   1.570  16.830 -2.7662  2.1137 -0.2963
 9445SOL    HW239969   1.483   1.615  16.878  0.0047 -1.1755  0.4467
 9446SOL     OW39970   1.921   4.722   6.410 -0.2417  0.2868  0.0144
 9446SOL    HW139971   1.973   0.058   6.377 -1.3737 -0.3737 -3.2912
 9446SOL    HW239972   1.894   0.017   6.496  1.1898 -0.0350  0.5701
 9447SOL     OW39973   3.498   1.371   6.447 -0.6969 -0.1706 -0.1531
 9447SOL    HW139974   3.512   1.340   6.536  1.1274  1.2158  0.0504
 9447SOL    HW239975   3.409   1.341   6.430 -0.3261 -0.7318 -1.1123
 9448SOL     OW39976   3.465   0.975  10.066 -0.5500  0.0214  0.6431
 9448SOL    HW139977   3.417   0.905  10.110 -0.1542 -0.5322  0.1913
 9448SOL    HW239978   3.421   1.050  10.106  1.4877  1.4541  0.1827
 9449SOL     OW39979   2.339   2.612   8.450 -0.2465  0.2208  0.2751
 9449SOL    HW139980   2.397   2.688   8.446 -0.9064  0.7089 -0.0744
 9449SOL    HW239981   2.335   2.597   8.356 -2.3591  1.8420  0.0999
 9450SOL     OW39982   3.758   1.926   4.168  0.1322  0.2550 -0.8214
 9450SOL    HW139983   3.819   1.976   4.114  1.1561  1.0705  1.0797
 9450SOL    HW239984   3.820   1.893   4.233 -0.5867  0.0580 -0.2416
 9451SOL     OW39985   2.904   3.126  15.269 -0.1394 -0.0447 -0.9383
 9451SOL    HW139986   2.877   3.194  15.330  0.6405 -1.8960  1.4703
 9451SOL    HW239987   2.971   3.172  15.217  0.3198 -0.8120 -1.0278
 9452SOL     OW39988   4.221   1.108   4.524  0.0313 -0.0732 -0.0726
 9452SOL    HW139989   4.129   1.089   4.546 -0.1877  1.8833  0.7776
 9452SOL    HW239990   4.236   1.035   4.464  1.5753  0.0477  0.1802
 9453SOL     OW39991   3.927   2.913   5.681  0.3600  0.9006 -0.3420
 9453SOL    HW139992   3.939   2.825   5.715 -1.5748  0.2038 -1.4565
 9453SOL    HW239993   3.832   2.921   5.668  0.1145 -1.3572 -0.0192
 9454SOL     OW39994   3.037   0.572  13.442 -0.2740  0.1868  0.1338
 9454SOL    HW139995   2.985   0.649  13.465  0.0138  0.6942 -0.8834
 9454SOL    HW239996   2.959   0.524  13.412  1.2319 -1.2766 -1.4438
 9455SOL     OW39997   4.099   1.717   9.413 -0.3516 -0.5906  0.1480
 9455SOL    HW139998   4.140   1.778   9.474 -1.3361 -0.1282  0.3510
 9455SOL    HW239999   4.073   1.650   9.476  1.1485 -1.1935  0.1102
 9456SOL     OW40000   4.700   0.022  16.973 -0.3057 -0.0323 -0.4880
 9456SOL    HW140001   0.019   4.683  16.991  0.6213  1.1695  1.6893
 9456SOL    HW240002   0.028   0.081  16.936  0.0560 -0.4013 -0.4505
 9457SOL     OW40003   0.141   1.019   9.029  0.2300  0.1234  0.2104
 9457SOL    HW140004   0.155   0.946   8.969 -0.1856 -0.9734  1.4466
 9457SOL    HW240005   0.083   0.985   9.098  0.9007 -2.7425 -0.6264
 9458SOL     OW40006   4.093   1.488   6.916  0.0780  0.4232  0.1840
 9458SOL    HW140007   4.107   1.399   6.884 -1.3832  0.1574  0.2592
 9458SOL    HW240008   4.151   1.542   6.862 -0.2659  0.8692  0.2547
 9459SOL     OW40009   2.863   1.861   1.551  0.8345 -0.2267  0.2456
 9459SOL    HW140010   2.907   1.910   1.483  1.5387 -1.1576  0.0248
 9459SOL    HW240011   2.778   1.904   1.544  0.1487 -1.4434  0.9486
 9460SOL     OW40012   3.643   3.904   7.597  0.1974  0.0715 -1.1090
 9460SOL    HW140013   3.596   3.964   7.655  0.5196  0.3776 -1.1639
 9460SOL    HW240014   3.595   3.918   7.516  0.8721 -1.3025 -1.7327
 9461SOL     OW40015   1.435   1.154  10.290 -0.0775  0.1986 -0.4235
 9461SOL    HW140016   1.408   1.139  10.199  1.6331 -1.0010 -0.7299
 9461SOL    HW240017   1.356   1.114  10.328  0.0311  0.2760 -0.1163
 9462SOL     OW40018   4.735   1.563   0.229 -0.2014 -0.3671  0.2437
 9462SOL    HW140019   4.710   1.505   0.157  2.4104 -0.5687 -0.4811
 9462SOL    HW240020   0.068   1.514   0.273 -0.6632 -1.8400 -0.6722
 9463SOL     OW40021   0.169   0.046   8.728  0.2028 -0.0488  0.5946
 9463SOL    HW140022   0.103   4.714   8.722  1.8237 -1.4801 -0.8377
 9463SOL    HW240023   0.114   0.098   8.786 -1.2550 -1.8954  0.8382
 9464SOL     OW40024   4.279   3.887   6.713  0.0707 -0.1715  0.0140
 9464SOL    HW140025   4.187   3.861   6.710 -0.3140  0.8112  2.5714
 9464SOL    HW240026   4.325   3.808   6.685 -0.1011 -0.1588 -0.2981
 9465SOL     OW40027   2.182   3.460  15.780  0.0457  0.3479  0.6478
 9465SOL    HW140028   2.121   3.513  15.830  1.1372  2.3095 -0.0582
 9465SOL    HW240029   2.150   3.494  15.696  0.3421 -0.5380  0.1724
 9466SOL     OW40030   0.155   4.594   5.814  0.1495 -0.1492 -0.5086
 9466SOL    HW140031   0.187   4.571   5.902  0.2494  0.0262 -0.4984
 9466SOL    HW240032   0.218   4.658   5.781 -0.5619 -0.5328 -2.5775
 9467SOL     OW40033   4.310   2.269  14.166  0.2870 -0.5432 -0.4398
 9467SOL    HW140034   4.249   2.303  14.101 -0.5973 -1.3012 -0.0057
 9467SOL    HW240035   4.293   2.341  14.226  1.1157  0.5252 -1.4943
 9468SOL     OW40036   1.433   1.740   3.768 -0.0012  0.2512 -0.1196
 9468SOL    HW140037   1.459   1.817   3.818 -1.0923  1.8431 -2.0312
 9468SOL    HW240038   1.339   1.756   3.774 -0.1630 -0.3488 -1.0407
 9469SOL     OW40039   0.987   0.002   6.257  0.5404 -0.0805  0.5962
 9469SOL    HW140040   0.904   4.699   6.283 -0.4990  2.0686  0.5752
 9469SOL    HW240041   1.002   0.066   6.327  1.0812  0.5174 -0.0656
 9470SOL     OW40042   3.416   1.442   7.644 -0.3862 -0.2353 -0.0847
 9470SOL    HW140043   3.490   1.410   7.696  0.4745  2.1985  0.1853
 9470SOL    HW240044   3.355   1.374   7.671  1.4220 -0.9281  2.2851
 9471SOL     OW40045   3.968   1.976   7.500  0.3280  0.2578 -0.2075
 9471SOL    HW140046   3.907   1.966   7.427  1.1633  0.7164 -0.9630
 9471SOL    HW240047   3.923   1.917   7.560  0.4593  0.0250 -0.3393
 9472SOL     OW40048   1.693   2.517   0.605 -0.2672 -0.5463  0.1743
 9472SOL    HW140049   1.728   2.606   0.601  1.2512 -1.2249 -1.5446
 9472SOL    HW240050   1.707   2.491   0.514 -1.5064  2.0667 -0.7423
 9473SOL     OW40051   0.659   1.654   5.344 -0.2113  0.1324 -0.1316
 9473SOL    HW140052   0.648   1.665   5.438 -1.0045 -1.4402 -0.0508
 9473SOL    HW240053   0.656   1.559   5.337  0.5587  0.0697  0.3797
 9474SOL     OW40054   2.746   4.042   5.783  0.1242 -0.4028 -0.1454
 9474SOL    HW140055   2.672   3.983   5.796  0.3494 -1.4105 -3.3869
 9474SOL    HW240056   2.733   4.109   5.850 -0.3511 -0.7690  0.1246
 9475SOL     OW40057   4.608   3.189   3.053 -0.2537 -0.4014 -0.2477
 9475SOL    HW140058   4.557   3.170   3.132  0.4891  0.5535  0.4592
 9475SOL    HW240059   4.691   3.155   3.084 -0.3281  1.8134  2.4202
 9476SOL     OW40060   2.654   2.284   4.019  0.2792 -0.4443 -0.1489
 9476SOL    HW140061   2.613   2.295   4.106  1.7023 -0.4680  0.5203
 9476SOL    HW240062   2.574   2.264   3.970  0.0623  1.2887 -0.5025
 9477SOL     OW40063   0.194   3.887   2.884 -0.0739  0.4424  0.7801
 9477SOL    HW140064   0.131   3.933   2.940 -3.6407 -3.7335  0.1980
 9477SOL    HW240065   0.275   3.935   2.899 -0.6949  2.2913 -1.7493
 9478SOL     OW40066   4.324   0.486   4.144  0.4680 -0.0481  0.2873
 9478SOL    HW140067   4.374   0.415   4.105 -0.9989 -0.8190 -0.2019
 9478SOL    HW240068   4.289   0.438   4.219 -0.4103  1.5063  0.8816
 9479SOL     OW40069   3.051   2.327   0.561  0.5853 -0.0847 -0.5719
 9479SOL    HW140070   2.999   2.330   0.641 -1.1382 -0.6484 -1.6719
 9479SOL    HW240071   3.136   2.294   0.590 -0.3200  0.4090  2.6694
 9480SOL     OW40072   3.346   0.373   8.298 -0.4164 -0.0424  0.2134
 9480SOL    HW140073   3.339   0.426   8.218 -0.7325 -2.1122 -1.1481
 9480SOL    HW240074   3.430   0.403   8.332 -1.2902  1.2735  1.1745
 9481SOL     OW40075   1.659   2.517   2.635 -0.7227 -0.2488  0.4150
 9481SOL    HW140076   1.594   2.533   2.566  1.4652 -1.0762 -1.8129
 9481SOL    HW240077   1.739   2.557   2.601 -0.1512 -0.1383  1.8809
 9482SOL     OW40078   2.798   2.571   9.594  0.4859 -0.1298 -0.3840
 9482SOL    HW140079   2.798   2.653   9.645  0.9565  0.3453 -1.1557
 9482SOL    HW240080   2.780   2.513   9.668  0.0229  0.2958 -0.1592
 9483SOL     OW40081   2.475   3.989   4.844 -0.3091  0.3907 -0.0991
 9483SOL    HW140082   2.481   4.039   4.925  1.4407 -2.4306  1.5117
 9483SOL    HW240083   2.538   4.042   4.795 -0.2444 -0.0522 -0.4962
 9484SOL     OW40084   0.378   1.394   5.527  0.7014 -0.2920  0.2234
 9484SOL    HW140085   0.426   1.435   5.599 -0.3834 -0.5140  1.0715
 9484SOL    HW240086   0.440   1.326   5.500 -0.7218 -1.4344 -0.1679
 9485SOL     OW40087   2.069   3.737  10.827 -0.1195 -0.0113 -0.0995
 9485SOL    HW140088   1.988   3.702  10.865  0.7859 -0.3538  1.5122
 9485SOL    HW240089   2.099   3.659  10.781 -0.2707  0.3427 -0.7953
 9486SOL     OW40090   1.182   3.632  16.841  0.5123 -0.1113 -0.1043
 9486SOL    HW140091   1.246   3.564  16.820  0.6915 -0.1068  0.4116
 9486SOL    HW240092   1.223   3.675  16.917  0.4559  0.4707 -0.4089
 9487SOL     OW40093   2.342   2.217   3.476  0.1378  0.2501 -0.1386
 9487SOL    HW140094   2.409   2.281   3.453 -1.0450  0.8724 -1.8852
 9487SOL    HW240095   2.390   2.141   3.441 -2.3656 -1.3170 -0.2144
 9488SOL     OW40096   4.108   1.477  17.691 -0.5803 -0.4975  0.4826
 9488SOL    HW140097   4.047   1.551  17.686  2.5105  2.1455  1.4972
 9488SOL    HW240098   4.138   1.475  17.601 -0.6235 -0.8075  0.4750
 9489SOL     OW40099   2.865   3.259  12.823  0.5722  0.0647  0.4268
 9489SOL    HW140100   2.841   3.308  12.745 -0.5160 -1.4214 -0.1922
 9489SOL    HW240101   2.784   3.208  12.831 -0.1230  1.1521  0.2452
 9490SOL     OW40102   1.802   2.467  17.105  0.4244  0.1987 -0.1236
 9490SOL    HW140103   1.739   2.428  17.165 -0.0996 -0.9074 -1.4141
 9490SOL    HW240104   1.740   2.505  17.043  0.7456 -0.5942 -0.9224
 9491SOL     OW40105   1.811   4.134   8.447  0.1238 -0.0054  0.0577
 9491SOL    HW140106   1.718   4.119   8.427 -0.3511  0.3792  2.0576
 9491SOL    HW240107   1.852   4.050   8.427  0.0718  0.0952 -0.4963
 9492SOL     OW40108   0.915   3.589   7.262  0.5342 -0.3395  0.3239
 9492SOL    HW140109   0.995   3.581   7.211  0.7348  1.3291  0.3754
 9492SOL    HW240110   0.869   3.654   7.208 -0.1040  2.0350  3.7468
 9493SOL     OW40111   3.293   0.831   0.184  0.1263  0.1311 -0.2656
 9493SOL    HW140112   3.241   0.907   0.210  2.0785  1.5162 -0.4479
 9493SOL    HW240113   3.229   0.760   0.172  0.2462 -0.1394  0.7105
 9494SOL     OW40114   1.527   2.185  14.859 -0.1685 -0.0655  0.3698
 9494SOL    HW140115   1.447   2.172  14.808  0.6617 -0.0202 -0.9392
 9494SOL    HW240116   1.560   2.095  14.862  0.7808  0.2483 -0.6540
 9495SOL     OW40117   2.208   3.961   9.531 -0.1227 -0.2470  0.2108
 9495SOL    HW140118   2.114   3.950   9.544  0.0838 -0.6408  1.3583
 9495SOL    HW240119   2.249   3.884   9.571  0.4835 -0.4278 -0.7472
 9496SOL     OW40120   2.090   1.439  10.499  0.4662  0.1668  0.4787
 9496SOL    HW140121   2.133   1.353  10.490  0.0401 -0.2282  2.1631
 9496SOL    HW240122   2.062   1.424  10.589  0.0431 -2.0003 -0.0074
 9497SOL     OW40123   0.094   0.970   3.425 -0.0618  0.3997  0.3890
 9497SOL    HW140124   0.074   0.877   3.432  2.4336 -0.2636 -1.2246
 9497SOL    HW240125   0.072   0.977   3.332 -1.8369  1.8370  0.9089
 9498SOL     OW40126   2.971   2.200   5.403  0.6177 -0.0183 -0.0685
 9498SOL    HW140127   3.065   2.183   5.397  0.8324  1.3539 -0.5758
 9498SOL    HW240128   2.938   2.111   5.394 -2.4115  1.0893  0.0902
 9499SOL     OW40129   4.465   1.278  15.395  0.1091 -0.0067 -0.0855
 9499SOL    HW140130   4.402   1.251  15.328 -1.1305  1.7006  0.3838
 9499SOL    HW240131   4.400   1.306  15.460 -1.1888 -0.3572 -1.2409
 9500SOL     OW40132   4.336   3.611  11.189 -0.1111  0.1019 -0.0454
 9500SOL    HW140133   4.374   3.647  11.269  1.6877 -1.0754 -0.3671
 9500SOL    HW240134   4.285   3.686  11.159  0.6009  0.7237  0.3160
 9501SOL     OW40135   3.261   2.666  17.341  0.2775 -0.4290  0.1148
 9501SOL    HW140136   3.315   2.739  17.311  1.0097 -2.2285 -2.9384
 9501SOL    HW240137   3.304   2.588  17.305  2.5184  0.3005  1.2035
 9502SOL     OW40138   4.516   2.337   7.255 -0.1997  0.4176 -0.3093
 9502SOL    HW140139   4.479   2.259   7.295 -3.2162  0.5185 -2.9236
 9502SOL    HW240140   4.429   2.377   7.249 -0.5917 -0.6375 -1.4002
 9503SOL     OW40141   0.822   0.745  15.174 -0.3499 -0.5451  0.2843
 9503SOL    HW140142   0.771   0.703  15.244 -2.4792  0.3658 -0.7126
 9503SOL    HW240143   0.786   0.709  15.093 -2.1111 -1.5749  1.4999
 9504SOL     OW40144   3.464   2.672   7.066  0.0812 -0.6669 -0.2659
 9504SOL    HW140145   3.514   2.694   7.145 -1.7984  0.1750  0.7026
 9504SOL    HW240146   3.484   2.583   7.037  1.4466 -0.2611 -0.5677
 9505SOL     OW40147   3.576   3.872   9.144 -0.5838  0.2587 -0.5045
 9505SOL    HW140148   3.629   3.951   9.130  0.7090 -0.3592  0.9681
 9505SOL    HW240149   3.504   3.906   9.196 -0.4586 -3.4723  2.0822
 9506SOL     OW40150   2.367   2.995   9.540  0.4128 -0.1370 -0.2939
 9506SOL    HW140151   2.308   3.043   9.482 -2.3027 -0.2909  2.3207
 9506SOL    HW240152   2.329   2.907   9.538  0.6979 -0.3289  2.6058
 9507SOL     OW40153   0.760   2.988  13.232  0.3034 -0.0824  0.2013
 9507SOL    HW140154   0.709   2.925  13.282 -0.3391  0.2969  0.0185
 9507SOL    HW240155   0.847   2.955  13.257 -0.8037 -2.5494  0.7406
 9508SOL     OW40156   4.294   4.432  11.858 -0.4755  0.3643 -0.6406
 9508SOL    HW140157   4.312   4.354  11.805  0.3911  0.8998 -1.1451
 9508SOL    HW240158   4.277   4.392  11.943 -1.4140  0.4608 -0.7883
 9509SOL     OW40159   0.198   3.557  15.078  0.6040 -0.0198 -0.8641
 9509SOL    HW140160   0.112   3.524  15.052  0.8954 -1.0044 -0.5900
 9509SOL    HW240161   0.242   3.567  14.994  0.1320  1.2223 -0.9505
 9510SOL     OW40162   0.944   3.533   8.789  0.1329  0.0153  0.1326
 9510SOL    HW140163   0.974   3.444   8.806  1.1051 -0.0464 -1.8240
 9510SOL    HW240164   0.887   3.547   8.865  0.7164  0.5619  0.4749
 9511SOL     OW40165   3.005   3.751   8.057  0.0957  0.3284 -0.1762
 9511SOL    HW140166   3.084   3.702   8.083  0.0610  0.3629 -0.0105
 9511SOL    HW240167   2.952   3.720   8.130  2.0762  0.5699  1.3801
 9512SOL     OW40168   4.331   1.655   9.224  0.3010  0.5228 -0.1265
 9512SOL    HW140169   4.264   1.645   9.291  1.0043 -2.4939  0.1378
 9512SOL    HW240170   4.285   1.603   9.158  1.2848 -0.5396  0.0209
 9513SOL     OW40171   4.228   3.341  11.268 -0.3098  0.3392 -0.4195
 9513SOL    HW140172   4.255   3.420  11.220 -0.2653 -1.0479 -2.7128
 9513SOL    HW240173   4.221   3.367  11.359  0.6416  0.5357 -0.3926
 9514SOL     OW40174   4.458   1.193   5.701 -0.1366 -0.5094 -0.5162
 9514SOL    HW140175   4.544   1.152   5.704  0.7132  1.2622 -0.5468
 9514SOL    HW240176   4.464   1.238   5.617  0.8755  3.3776  1.6277
 9515SOL     OW40177   1.974   3.641   7.619 -0.2380 -0.2052  0.0740
 9515SOL    HW140178   2.004   3.591   7.695  0.2611 -2.3171 -1.5057
 9515SOL    HW240179   2.010   3.591   7.545 -0.9151 -0.4881 -0.0690
 9516SOL     OW40180   1.561   2.882   8.574  0.3437  0.6380 -0.3436
 9516SOL    HW140181   1.539   2.940   8.648 -0.3407 -1.4206  1.0778
 9516SOL    HW240182   1.489   2.896   8.513 -2.7352  1.4784  3.4526
 9517SOL     OW40183   2.553   2.440   5.184  0.0534 -0.1284  0.5470
 9517SOL    HW140184   2.468   2.413   5.217  0.2627 -1.4270  0.0274
 9517SOL    HW240185   2.613   2.411   5.252  0.6047 -1.0440 -0.3185
 9518SOL     OW40186   1.222   3.539   1.881  0.2438 -0.2228 -0.2453
 9518SOL    HW140187   1.132   3.550   1.913  0.5910 -2.2367  1.4636
 9518SOL    HW240188   1.212   3.447   1.855 -0.0188 -0.1977 -0.2327
 9519SOL     OW40189   1.620   3.270   6.373 -0.1404  0.0003 -0.0393
 9519SOL    HW140190   1.553   3.326   6.335 -0.5895  0.1124  0.9295
 9519SOL    HW240191   1.616   3.195   6.314 -0.0544  1.8040 -2.3097
 9520SOL     OW40192   1.576   0.861   3.065  0.4248  0.6904 -0.0760
 9520SOL    HW140193   1.505   0.920   3.041 -0.2794  0.5999  1.7790
 9520SOL    HW240194   1.583   0.873   3.160  1.1919  0.4662 -0.1019
 9521SOL     OW40195   0.402   0.556  15.918 -1.0326 -0.2465 -0.1546
 9521SOL    HW140196   0.443   0.642  15.928 -1.1461 -0.2240  0.1339
 9521SOL    HW240197   0.314   0.586  15.896 -1.4866 -1.6485 -0.2320
 9522SOL     OW40198   0.755   0.235   6.925 -0.6065 -0.0690 -0.0535
 9522SOL    HW140199   0.684   0.226   6.862 -1.5363  0.8189  0.8714
 9522SOL    HW240200   0.809   0.305   6.887  0.6342 -0.7649  0.4216
 9523SOL     OW40201   3.063   0.743   8.629  0.8393  0.0154 -0.8003
 9523SOL    HW140202   3.096   0.794   8.703 -0.1815  0.5579 -0.7128
 9523SOL    HW240203   3.141   0.712   8.583  0.6242 -1.6296 -0.0619
 9524SOL     OW40204   3.702   2.967   8.543  0.4450 -0.4552  0.1191
 9524SOL    HW140205   3.794   2.991   8.548 -0.4541  2.8307  0.7765
 9524SOL    HW240206   3.689   2.967   8.638 -2.0674 -0.0220 -0.2268
 9525SOL     OW40207   0.080   1.236   5.113 -0.0188 -0.0739 -0.3136
 9525SOL    HW140208   4.722   1.248   5.121  0.5752  2.8184  2.0080
 9525SOL    HW240209   0.114   1.278   5.192 -0.1695 -0.2745 -0.1423
 9526SOL     OW40210   2.245   2.917   9.053 -0.1988 -0.2863 -0.3541
 9526SOL    HW140211   2.162   2.887   9.016  0.2838  0.2534 -1.8818
 9526SOL    HW240212   2.258   2.861   9.129 -2.2596  1.1007  1.0476
 9527SOL     OW40213   1.857   1.267  13.326  0.2202 -0.6278  0.1738
 9527SOL    HW140214   1.891   1.349  13.362  0.7047 -0.8371  0.2029
 9527SOL    HW240215   1.865   1.204  13.397 -1.1871 -1.4465 -0.3896
 9528SOL     OW40216   3.223   2.136  13.425  0.6290  0.1353 -0.0439
 9528SOL    HW140217   3.229   2.225  13.459 -1.0028 -0.3010  1.4179
 9528SOL    HW240218   3.315   2.111  13.427  0.7329  0.5729  0.4507
 9529SOL     OW40219   2.032   2.353   6.890  0.5649  0.4568 -0.0059
 9529SOL    HW140220   2.035   2.267   6.934 -1.3362  0.3671 -0.0424
 9529SOL    HW240221   2.116   2.349   6.844  0.9964 -0.1014  0.8174
 9530SOL     OW40222   1.342   0.922  13.664 -0.6095  0.4825  0.1706
 9530SOL    HW140223   1.432   0.954  13.652 -0.0781 -0.9717  0.2121
 9530SOL    HW240224   1.301   1.006  13.684  0.0695 -0.1376  4.1773
 9531SOL     OW40225   0.443   0.218   1.908 -0.0596  0.6403 -0.9343
 9531SOL    HW140226   0.481   0.196   1.993 -3.0211 -0.8642 -0.0078
 9531SOL    HW240227   0.411   0.133   1.879 -3.4370  1.5576  0.1818
 9532SOL     OW40228   3.374   3.848   1.505  0.3222  0.6408 -0.1069
 9532SOL    HW140229   3.347   3.931   1.544  0.8594  0.6448  0.2663
 9532SOL    HW240230   3.292   3.801   1.522  1.9816 -3.2447 -2.9043
 9533SOL     OW40231   3.738   2.748   3.007 -0.2404  0.0464 -0.4716
 9533SOL    HW140232   3.776   2.663   3.029  0.4064  0.4342 -0.0878
 9533SOL    HW240233   3.776   2.752   2.919 -0.5588 -0.0194 -0.6113
 9534SOL     OW40234   2.934   4.686  16.202  0.3417  0.2121 -0.0191
 9534SOL    HW140235   2.850   4.691  16.248  0.6670 -0.3629  0.6178
 9534SOL    HW240236   2.914   4.701  16.109  0.2192 -0.1704 -0.0524
 9535SOL     OW40237   3.605   0.024   8.890  0.4548  0.3802  0.4491
 9535SOL    HW140238   3.525   4.708   8.890  0.6828  0.0254 -0.9235
 9535SOL    HW240239   3.642   0.009   8.977 -2.1933 -1.4118  1.2569
 9536SOL     OW40240   1.811   1.503   6.996 -0.1777  0.0986 -0.2843
 9536SOL    HW140241   1.901   1.534   6.982 -0.7948  1.6822 -0.7037
 9536SOL    HW240242   1.804   1.425   6.941 -1.5433  1.9839 -2.7395
 9537SOL     OW40243   3.527   1.988   1.629  0.2556  0.5746  0.2946
 9537SOL    HW140244   3.601   2.041   1.656  0.0012  0.7702  0.6104
 9537SOL    HW240245   3.463   2.020   1.692  1.8237  0.7726  1.7640
 9538SOL     OW40246   0.693   1.956  13.495  0.3687 -0.0802 -0.2329
 9538SOL    HW140247   0.725   1.892  13.559 -1.8233  0.3990  1.3285
 9538SOL    HW240248   0.747   2.033  13.516  0.5041 -0.5433  1.0679
 9539SOL     OW40249   0.744   3.970   3.586 -0.6576  0.0578 -0.0170
 9539SOL    HW140250   0.787   3.908   3.645  0.0848 -1.7883 -2.5227
 9539SOL    HW240251   0.810   3.979   3.517 -1.5699  0.8529 -0.7867
 9540SOL     OW40252   1.486   1.364   3.569 -0.0284  0.6196  0.0033
 9540SOL    HW140253   1.562   1.417   3.542 -0.6820  2.3977  1.7053
 9540SOL    HW240254   1.416   1.390   3.509 -0.0272 -1.2410 -0.7876
 9541SOL     OW40255   0.847   0.777   4.921 -0.5434 -0.2384 -0.4462
 9541SOL    HW140256   0.907   0.770   4.995  1.3331  1.4043 -1.8188
 9541SOL    HW240257   0.853   0.696   4.870 -0.1764  0.2727 -1.2124
 9542SOL     OW40258   2.168   3.957   4.050  0.0418  0.1468  0.0301
 9542SOL    HW140259   2.216   3.874   4.059  1.3982  0.5814 -3.1659
 9542SOL    HW240260   2.227   4.013   4.101  1.2248 -0.8383 -0.2666
 9543SOL     OW40261   4.196   1.497   1.254 -0.0419 -0.2902 -0.2981
 9543SOL    HW140262   4.115   1.445   1.257 -1.6439  2.3687  1.9275
 9543SOL    HW240263   4.182   1.549   1.175 -0.6455 -0.4127 -0.2725
 9544SOL     OW40264   3.822   3.900   5.241 -0.0129 -0.0486  0.2141
 9544SOL    HW140265   3.776   3.876   5.321 -2.2132  0.7589 -0.7976
 9544SOL    HW240266   3.766   3.976   5.221 -0.7803 -0.9558 -1.0983
 9545SOL     OW40267   2.876   4.112   1.691  0.3008 -0.3182  0.6511
 9545SOL    HW140268   2.898   4.024   1.658  0.3878 -0.5975  1.4476
 9545SOL    HW240269   2.793   4.104   1.739  0.7459 -0.1912  1.4378
 9546SOL     OW40270   0.743   0.978  12.606  0.2794 -0.4157 -0.2900
 9546SOL    HW140271   0.703   0.979  12.518  0.4925 -2.3370 -0.4016
 9546SOL    HW240272   0.828   1.021  12.599  1.4118 -2.6693 -0.1352
 9547SOL     OW40273   0.208   1.216   3.121  0.5489 -0.2788  0.1946
 9547SOL    HW140274   0.176   1.126   3.122  0.2525 -0.1760  0.1061
 9547SOL    HW240275   0.202   1.245   3.212  3.6908 -0.8333  0.5812
 9548SOL     OW40276   0.363   1.460  10.492  0.2867  0.2479 -0.1858
 9548SOL    HW140277   0.391   1.522  10.560 -0.5821  0.4522 -0.0189
 9548SOL    HW240278   0.407   1.382  10.526 -3.7326 -2.7829 -2.1136
 9549SOL     OW40279   2.135   0.256   3.217 -0.4614 -0.3137 -0.3856
 9549SOL    HW140280   2.091   0.341   3.220  1.7422  0.8489 -1.1194
 9549SOL    HW240281   2.171   0.247   3.128  0.2633 -0.3198 -0.0972
 9550SOL     OW40282   1.132   2.280   4.383  0.4343  0.4076  0.4357
 9550SOL    HW140283   1.052   2.333   4.381  0.0282 -0.3271 -2.1206
 9550SOL    HW240284   1.104   2.193   4.412 -0.9899  0.4928 -0.6522
 9551SOL     OW40285   2.178   4.238   0.918  0.3782 -0.5374 -0.1952
 9551SOL    HW140286   2.111   4.301   0.946  0.0412 -1.9519  2.2669
 9551SOL    HW240287   2.178   4.259   0.825  2.5264 -0.1536 -0.1002
 9552SOL     OW40288   3.985   3.099  12.021 -0.1422  0.4367  0.1705
 9552SOL    HW140289   4.032   3.021  12.052  3.9286  1.6868 -2.7624
 9552SOL    HW240290   3.896   3.066  12.022 -0.6486  1.8161  0.3234
 9553SOL     OW40291   4.160   1.008   2.771 -0.2210 -0.3912 -0.3972
 9553SOL    HW140292   4.228   0.941   2.767 -0.7416 -0.9530  0.1577
 9553SOL    HW240293   4.167   1.039   2.861 -1.6095 -2.7472  0.5157
 9554SOL     OW40294   4.028   0.730  14.739  0.1742  0.0225 -0.2334
 9554SOL    HW140295   4.016   0.794  14.809 -2.7168  1.2335 -1.8579
 9554SOL    HW240296   4.123   0.734  14.728  0.7065 -1.9028  3.4025
 9555SOL     OW40297   0.482   3.966   4.742 -0.2361 -0.1206 -0.3696
 9555SOL    HW140298   0.443   3.953   4.656  0.3024 -1.3283 -0.4325
 9555SOL    HW240299   0.468   3.881   4.785  0.1386  0.6887  1.3582
 9556SOL     OW40300   3.523   1.960   5.163  0.0912 -0.8681  0.4949
 9556SOL    HW140301   3.555   1.920   5.244 -1.3367 -0.2322  1.3803
 9556SOL    HW240302   3.571   2.043   5.163  0.1590 -0.9048 -0.0453
 9557SOL     OW40303   2.063   2.205   8.785 -0.0364 -0.1319  0.0764
 9557SOL    HW140304   2.081   2.143   8.855 -0.9031  0.8321  1.1453
 9557SOL    HW240305   2.046   2.283   8.838 -0.5688 -1.8002  2.3540
 9558SOL     OW40306   2.439   1.946  17.507  0.2897  0.6184  0.5165
 9558SOL    HW140307   2.421   1.861  17.467 -0.2266  1.7967 -1.7503
 9558SOL    HW240308   2.487   1.997  17.442 -1.6318  0.1273 -1.2930
 9559SOL     OW40309   3.325   1.369   2.690 -0.1258 -0.1901 -0.0718
 9559SOL    HW140310   3.265   1.299   2.663 -0.2918  1.0922 -3.1620
 9559SOL    HW240311   3.404   1.319   2.707  0.5420  0.9384  0.1175
 9560SOL     OW40312   1.523   3.698   2.190  0.5052 -0.6587 -0.4593
 9560SOL    HW140313   1.434   3.731   2.177  1.0715  1.7695  1.6465
 9560SOL    HW240314   1.505   3.611   2.224 -0.1959 -0.5697 -0.5819
 9561SOL     OW40315   4.004   1.529  15.539 -0.2843 -0.3571  0.5871
 9561SOL    HW140316   3.973   1.616  15.513  2.5501  0.4343 -0.0949
 9561SOL    HW240317   4.081   1.525  15.482  1.1060  0.7041  2.4089
 9562SOL     OW40318   0.539   4.513   4.013  0.0769  0.1460 -0.6652
 9562SOL    HW140319   0.575   4.601   4.012 -0.1134  0.2348  0.5309
 9562SOL    HW240320   0.495   4.516   3.928 -0.7674  0.2849 -0.2291
 9563SOL     OW40321   1.381   0.915   8.001  0.0657 -0.6073  0.0642
 9563SOL    HW140322   1.454   0.894   7.944 -0.6607  1.4587 -1.6293
 9563SOL    HW240323   1.428   0.943   8.080  1.7214  0.9268 -1.4755
 9564SOL     OW40324   1.619   4.691  13.123 -0.0101  0.2226 -0.2760
 9564SOL    HW140325   1.691   4.648  13.170 -0.2879  1.0559  0.9171
 9564SOL    HW240326   1.634   4.653  13.036 -2.4829  0.3175 -0.7227
 9565SOL     OW40327   4.238   0.806   6.955  0.3705  0.0566 -0.4836
 9565SOL    HW140328   4.177   0.785   6.884  2.1785 -0.7776 -1.8059
 9565SOL    HW240329   4.229   0.725   7.004 -0.9664  0.1679 -0.5497
 9566SOL     OW40330   3.558   4.513   7.565  0.7180  0.7965  0.5263
 9566SOL    HW140331   3.632   4.569   7.588  2.0813 -1.7672  2.5363
 9566SOL    HW240332   3.586   4.442   7.623  0.9195  1.1228  0.8249
 9567SOL     OW40333   0.879   2.307   5.412  0.0613 -0.1349 -0.2851
 9567SOL    HW140334   0.919   2.234   5.364 -3.1409 -0.8510 -1.9008
 9567SOL    HW240335   0.945   2.375   5.402 -0.3594  0.1878 -0.8718
 9568SOL     OW40336   2.308   1.391   8.803  1.0857 -0.6094  0.3669
 9568SOL    HW140337   2.387   1.430   8.766 -1.2808  1.6561 -2.4494
 9568SOL    HW240338   2.259   1.471   8.827  1.6158 -0.3410  0.5453
 9569SOL     OW40339   0.838   3.308   5.239  0.1189 -0.6510  0.2740
 9569SOL    HW140340   0.839   3.245   5.167 -4.5745  0.1877 -0.5274
 9569SOL    HW240341   0.923   3.352   5.234  0.8134 -1.9799  0.3271
 9570SOL     OW40342   0.946   2.543   4.062  0.1659 -0.0970 -0.4884
 9570SOL    HW140343   0.933   2.480   3.990  1.0349 -0.1685 -0.5812
 9570SOL    HW240344   0.939   2.493   4.143  3.7137 -1.9856 -1.3596
 9571SOL     OW40345   1.643   3.859   7.329 -0.2097 -0.2700 -0.1862
 9571SOL    HW140346   1.651   3.812   7.246 -2.1460  1.6746 -1.4662
 9571SOL    HW240347   1.569   3.915   7.305  0.5357  0.7713 -0.0990
   4.73681   4.73681  17.74565
