Membrane in water
40347
    1TMC1    C1    1   3.802   3.492  12.376  0.9259 -0.2098  0.6359
    1TMC1    C2    2   3.879   3.602  12.371  0.3522 -0.5216  0.1474
    1TMC1    C3    3   3.946   3.630  12.251  0.2663  0.4778  0.3791
    1TMC1    C4    4   3.780   3.405  12.268 -0.0781  0.3435  0.3074
    1TMC1    C5    5   3.839   3.440  12.150 -0.0202  0.0103  0.0894
    1TMC1    C6    6   3.919   3.545  12.142 -0.4667 -0.4358 -0.4503
    1TMC1     C    7   3.731   3.458  12.500 -0.4293  0.2926  0.2017
    1TMC1     O    8   3.646   3.370  12.484 -0.1701 -0.2235  0.1865
    1TMC1     H    9   3.889   3.669  12.456 -1.0523 -0.2136  0.0635
    1TMC1    H1   10   3.716   3.318  12.274 -0.0521  0.0904 -2.9509
    1TMC1    H2   11   3.965   3.567  12.047  1.4696  0.9861  0.8036
    1TMC1    C7   12   3.820   3.359  12.030  0.1683 -0.2735  0.0946
    1TMC1    C8   13   3.976   3.767  12.225  0.2929  0.0930 -0.4261
    1TMC1    O1   14   3.818   3.388  11.910  0.2041 -0.2916  0.1696
    1TMC1    O2   15   4.019   3.840  12.314  0.6734  0.2456 -0.3313
    1TMC1    O3   16   3.813   3.230  12.080  0.9315  0.8187 -0.1695
    1TMC1    H3   17   3.815   3.227  12.178 -0.7287 -0.2060 -0.1592
    1TMC1    O5   18   3.877   3.801  12.138  0.2735 -0.2642 -0.3848
    1TMC1    H5   19   3.853   3.732  12.073 -0.0716 -0.6907  0.1902
    2MPD2     C   20   3.600   3.359  12.976  0.2246 -0.0357 -0.0442
    2MPD2    C1   21   3.521   3.370  12.862  0.8633 -0.3562 -1.0193
    2MPD2    C2   22   3.581   3.420  12.748 -0.0102 -0.4126  0.1337
    2MPD2    C3   23   3.713   3.466  12.742  0.3058 -0.3772  0.1285
    2MPD2    C4   24   3.778   3.480  12.866  0.5613 -0.4481  0.1652
    2MPD2    C5   25   3.723   3.422  12.976 -0.4219  0.0018 -0.4431
    2MPD2     H   26   3.513   3.415  12.664 -0.7554  2.1545  0.5696
    2MPD2    H1   27   3.878   3.518  12.882  0.0207  0.9509  0.2365
    2MPD2    H2   28   3.569   3.323  13.073  1.5026  0.3096  0.4957
    2MPD2    H3   29   3.769   3.424  13.074 -3.5048  1.8453  0.9455
    2MPD2     N   30   3.775   3.508  12.621 -0.0701  0.2354 -0.2964
    2MPD2    H5   31   3.859   3.565  12.630  0.3389 -0.4007 -0.0322
    2MPD2    N1   32   3.382   3.327  12.861 -0.4011  0.1041 -0.3397
    2MPD2    H7   33   3.333   3.334  12.772 -1.1104 -0.7246 -0.0123
    3TMC1    C1   34   3.722   0.366  11.700 -0.0083  0.0239  0.1206
    3TMC1    C2   35   3.844   0.328  11.754  0.2445 -0.1373  0.0548
    3TMC1    C3   36   3.953   0.340  11.668  0.7713  0.0173  0.0600
    3TMC1    C4   37   3.714   0.427  11.574 -0.1337  0.1548  0.9550
    3TMC1    C5   38   3.827   0.431  11.499  0.3148 -0.6987 -0.3603
    3TMC1    C6   39   3.947   0.383  11.537  0.3527  0.4398 -0.6104
    3TMC1     C   40   3.603   0.348  11.785 -0.2538  0.3506  0.2422
    3TMC1     O   41   3.623   0.306  11.897  0.2942 -0.2011 -0.1835
    3TMC1     H   42   3.857   0.289  11.854  0.3588 -1.5659 -0.5115
    3TMC1    H1   43   3.630   0.481  11.532 -0.8657 -2.9312 -1.5999
    3TMC1    H2   44   4.035   0.400  11.476  0.0155  1.7078 -0.7412
    3TMC1    C7   45   3.797   0.457  11.365 -0.2242 -0.5238 -0.3530
    3TMC1    C8   46   4.077   0.295  11.735  0.8753 -0.3540  0.5570
    3TMC1    O1   47   3.694   0.503  11.321  0.0550 -0.1577 -0.2312
    3TMC1    O2   48   4.070   0.203  11.813  0.1773  0.1928 -0.8829
    3TMC1    O3   49   3.884   0.396  11.286 -0.2053  0.0846 -0.8817
    3TMC1    H3   50   3.950   0.341  11.333 -0.7533 -0.1550 -0.4034
    3TMC1    O5   51   4.194   0.365  11.704 -0.0245  0.0478  0.0541
    3TMC1    H5   52   4.176   0.440  11.644  0.7606 -0.3292 -0.6621
    4MPD2     C   53   3.086   0.382  11.843  0.4637  0.3134  0.1027
    4MPD2    C1   54   3.119   0.421  11.710  0.4596  0.5424  1.0904
    4MPD2    C2   55   3.252   0.421  11.676 -0.5334 -0.0377 -0.1478
    4MPD2    C3   56   3.352   0.379  11.763 -0.0551 -0.6749  0.4021
    4MPD2    C4   57   3.317   0.331  11.887 -0.3233 -0.4828  0.5371
    4MPD2    C5   58   3.188   0.328  11.921  0.9973  0.5975 -0.2287
    4MPD2     H   59   3.287   0.463  11.583 -0.3825 -0.4082 -0.2585
    4MPD2    H1   60   3.394   0.290  11.951 -0.9043 -1.0855  0.8513
    4MPD2    H2   61   2.984   0.373  11.876  0.0759  1.8734 -0.6548
    4MPD2    H3   62   3.151   0.280  12.011 -0.2783  0.1066 -1.0232
    4MPD2     N   63   3.486   0.388  11.721 -0.5558 -0.0781  0.6918
    4MPD2    H5   64   3.499   0.405  11.621  1.6251  0.3499  1.0540
    4MPD2    N1   65   3.017   0.465  11.615 -0.2643  0.6032 -0.5050
    4MPD2    H7   66   3.052   0.499  11.526  0.8715  0.6907 -0.0216
    5TCq1    O1   67   3.241   1.828  10.631 -0.7281 -0.1519  0.3196
    5TCq1    C1   68   3.187   1.708  10.655  0.0212  0.0035 -0.2249
    5TCq1    O2   69   3.228   1.607  10.605  0.0480 -0.1028  0.1033
    5TCq1    C2   70   3.136   1.722  10.788  0.3303  0.3473  0.6508
    5TCq1    C3   71   3.027   1.797  10.800 -0.1350 -0.2911 -0.2383
    5TCq1    C4   72   2.968   1.808  10.918 -0.3556 -0.5590 -0.4942
    5TCq1    C5   73   3.007   1.729  11.027  0.4367 -0.2903  0.8788
    5TCq1    C6   74   3.116   1.649  11.011 -0.6171 -0.2430  0.4561
    5TCq1    C7   75   3.184   1.643  10.887  0.2089  0.0301 -0.4456
    5TCq1    C8   76   3.117   1.521  11.076  0.3369  0.1708 -0.2350
    5TCq1    O4   77   3.182   1.434  11.016 -0.4434 -0.1091  0.0830
    5TCq1    C9   78   2.859   1.897  10.940  0.2819  0.1554  0.2536
    5TCq1    O5   79   2.801   1.885  11.052  0.2988  0.6181 -0.5963
    5TCq1    O6   80   2.859   1.994  10.860 -0.3101  0.2985  0.4344
    5TCq1    H1   81   3.243   1.882  10.713 -0.7865  0.8873 -0.3653
    5TCq1    H2   82   2.979   1.848  10.717 -0.4883  0.3055  0.3275
    5TCq1    H3   83   2.949   1.724  11.118 -1.0991  1.6361  0.0231
    5TCq1    H4   84   3.269   1.577  10.870  1.1021  1.5001 -1.6283
    6MPD2     C   85   2.920   1.369  11.348  0.0079 -0.0640  0.3339
    6MPD2    C1   86   3.011   1.377  11.248  0.4718  0.2896  0.2940
    6MPD2    C2   87   3.091   1.263  11.233 -0.6207  0.1893 -0.4467
    6MPD2    C3   88   3.065   1.144  11.299 -0.0174 -0.1033  0.4539
    6MPD2    C4   89   2.973   1.151  11.402 -0.6424  0.1844  0.1893
    6MPD2    C5   90   2.897   1.266  11.425 -0.4214 -0.2771 -0.5926
    6MPD2     H   91   3.165   1.264  11.154  1.1085  0.9061  1.1804
    6MPD2    H1   92   2.957   1.068  11.469 -3.3187  0.8343  0.3826
    6MPD2    H2   93   2.857   1.457  11.354 -0.1303  0.0183 -2.7636
    6MPD2    H3   94   2.845   1.279  11.519 -0.9399  1.3678 -1.1127
    6MPD2     N   95   3.132   1.017  11.273 -0.4014 -0.3533 -0.4932
    6MPD2    H5   96   3.099   0.935  11.322 -0.7857  2.0470  3.2342
    6MPD2    N1   97   3.029   1.505  11.183  0.4280  0.2105 -0.0499
    6MPD2    H7   98   2.975   1.585  11.215 -2.0332 -0.0548 -3.5522
    7TCq1    O1   99   0.289   1.172  13.017 -0.1464  0.3092 -0.5053
    7TCq1    C1  100   0.418   1.145  13.038 -0.2388  0.4147  0.0512
    7TCq1    O2  101   0.506   1.209  13.097  0.2816  0.2062  0.3402
    7TCq1    C2  102   0.450   1.024  12.975  0.6017 -0.5561 -0.7006
    7TCq1    C3  103   0.383   0.975  12.870  0.2817 -0.0204  0.5037
    7TCq1    C4  104   0.409   0.845  12.832 -0.2010  0.1533  0.1251
    7TCq1    C5  105   0.510   0.768  12.893 -0.5475  0.6633  0.0556
    7TCq1    C6  106   0.563   0.819  13.009 -0.1850  0.2228 -1.0337
    7TCq1    C7  107   0.536   0.947  13.052 -1.0974 -0.4403  0.1101
    7TCq1    C8  108   0.623   0.719  13.096  0.3763  0.0846 -1.0154
    7TCq1    O4  109   0.619   0.603  13.060 -0.4924  0.0743 -0.2012
    7TCq1    C9  110   0.338   0.789  12.723 -0.2306  0.0880 -0.3502
    7TCq1    O5  111   0.252   0.872  12.686 -0.1168 -0.0102 -0.1268
    7TCq1    O6  112   0.368   0.678  12.674 -0.5775 -0.6305  0.5085
    7TCq1    H1  113   0.229   1.099  12.995 -1.2690  1.3900 -1.0165
    7TCq1    H2  114   0.292   1.025  12.840 -0.1535 -1.3397 -0.4066
    7TCq1    H3  115   0.533   0.671  12.850 -0.7391  0.4444  0.4476
    7TCq1    H4  116   0.581   0.985  13.143  2.4691 -1.9970 -1.0323
    8MPD2     C  117   0.792   0.572  13.559 -0.4348  0.2208  0.4132
    8MPD2    C1  118   0.747   0.497  13.455 -0.3011  0.0504 -0.4829
    8MPD2    C2  119   0.711   0.569  13.343  0.0031 -0.7105  0.8618
    8MPD2    C3  120   0.710   0.705  13.330 -0.5202  0.0138 -0.4797
    8MPD2    C4  121   0.763   0.779  13.437 -0.2780  0.4698 -0.5111
    8MPD2    C5  122   0.792   0.707  13.555 -0.6532 -0.3570 -0.3078
    8MPD2     H  123   0.676   0.504  13.263 -0.9805  0.8691  0.0176
    8MPD2    H1  124   0.767   0.887  13.435  0.2708  0.4776  1.5248
    8MPD2    H2  125   0.831   0.519  13.645  0.2817  1.9533  1.1504
    8MPD2    H3  126   0.829   0.758  13.643 -0.1323 -0.1226 -0.6587
    8MPD2     N  127   0.668   0.777  13.218  0.0078  0.1052  0.6517
    8MPD2    H5  128   0.661   0.878  13.232  1.6407  0.1861  0.7821
    8MPD2    N1  129   0.747   0.360  13.474  0.0981  0.0460  0.9481
    8MPD2    H7  130   0.778   0.325  13.564  0.5000  0.2405  0.8848
    9TMC1    C1  131   3.833   4.054  11.166  0.3417  0.1557 -1.4189
    9TMC1    C2  132   3.879   4.036  11.037  0.2513 -0.2702 -0.2785
    9TMC1    C3  133   4.011   4.053  11.014 -0.3594 -0.2633  0.2279
    9TMC1    C4  134   3.929   4.074  11.268 -0.3740 -0.1633  1.0996
    9TMC1    C5  135   4.061   4.077  11.234 -0.3893  0.0962 -0.0975
    9TMC1    C6  136   4.111   4.077  11.110  0.3124  0.7282  0.5335
    9TMC1     C  137   3.693   4.018  11.190 -0.0851  0.0450  0.4525
    9TMC1     O  138   3.639   3.965  11.095 -0.9232  0.4609 -0.0832
    9TMC1     H  139   3.806   4.031  10.957 -0.8936  4.2437  0.4863
    9TMC1    H1  140   3.902   4.079  11.372  0.7303  1.9088  1.2875
    9TMC1    H2  141   4.216   4.087  11.085  0.9206  1.7446  3.4659
    9TMC1    C7  142   4.147   4.082  11.345 -0.1331  0.0674 -0.0769
    9TMC1    C8  143   4.055   4.058  10.879 -0.4948 -0.3096  0.7804
    9TMC1    O1  144   4.105   4.140  11.446  0.5873  0.0469  0.2513
    9TMC1    O2  145   4.163   4.007  10.848 -0.2748  0.3868 -0.4650
    9TMC1    O3  146   4.215   3.965  11.337 -0.2211  0.5299  0.2161
    9TMC1    H3  147   4.201   3.915  11.254 -0.4277 -0.0343  0.5891
    9TMC1    O5  148   3.973   4.139  10.799  0.2367 -0.0226 -0.6500
    9TMC1    H5  149   3.890   4.158  10.847 -0.2410 -0.5520 -1.2642
   10MPD2     C  150   3.425   3.915  11.263 -0.3537 -0.3767 -0.4286
   10MPD2    C1  151   3.524   3.941  11.353  0.1848 -0.3292 -0.0949
   10MPD2    C2  152   3.507   3.916  11.486  0.4415  0.2609  0.2034
   10MPD2    C3  153   3.391   3.855  11.526  1.0189 -0.2370  0.3254
   10MPD2    C4  154   3.296   3.808  11.437 -0.4147 -0.0887 -0.8598
   10MPD2    C5  155   3.309   3.845  11.300 -0.8590 -0.2079 -0.0963
   10MPD2     H  156   3.585   3.942  11.557  0.7687 -2.8070  0.9452
   10MPD2    H1  157   3.208   3.751  11.464  0.0330 -1.0211 -1.3840
   10MPD2    H2  158   3.433   3.935  11.157  2.9673  0.9456  0.0826
   10MPD2    H3  159   3.233   3.825  11.225 -0.7299 -1.0814  0.0084
   10MPD2     N  160   3.369   3.815  11.657 -0.2311  0.3702  0.9387
   10MPD2    H5  161   3.279   3.779  11.687  0.1330 -0.7010  0.7381
   10MPD2    N1  162   3.654   4.000  11.321  0.4019 -0.1317 -0.3002
   10MPD2    H7  163   3.714   4.033  11.396  0.7896  0.5480 -0.8984
   11TCq1    O1  164   2.879   4.062  14.169  0.0008  0.3024 -0.2613
   11TCq1    C1  165   2.874   4.070  14.302 -0.2839  0.3561  0.1243
   11TCq1    O2  166   2.844   4.165  14.368  0.3326 -0.1547 -0.5407
   11TCq1    C2  167   2.884   3.933  14.349 -0.1921  0.4467  0.2928
   11TCq1    C3  168   2.982   3.927  14.446  0.4049  0.3978 -0.4855
   11TCq1    C4  169   3.043   3.803  14.463 -0.7751 -0.1480 -0.4283
   11TCq1    C5  170   2.999   3.692  14.408 -0.5819  0.5015  1.0260
   11TCq1    C6  171   2.901   3.703  14.317  0.5349 -0.0301  0.3295
   11TCq1    C7  172   2.833   3.820  14.289  0.6735  0.6222 -0.0129
   11TCq1    C8  173   2.884   3.591  14.225 -0.2824  0.2378 -0.4129
   11TCq1    O4  174   2.776   3.587  14.161  0.1240  0.1433 -0.0945
   11TCq1    C9  175   3.163   3.804  14.541 -0.0698  0.1940  0.2976
   11TCq1    O5  176   3.214   3.915  14.572  0.0558 -0.5580  0.0777
   11TCq1    O6  177   3.229   3.696  14.555  0.0833 -0.0330  0.1834
   11TCq1    H1  178   2.901   3.969  14.145 -1.7575 -0.0164 -0.6058
   11TCq1    H2  179   3.027   4.016  14.488 -0.7056  1.8824 -2.4132
   11TCq1    H3  180   3.053   3.600  14.429 -2.2791 -0.6916  0.1497
   11TCq1    H4  181   2.762   3.828  14.208  3.3321  1.8215 -2.2276
   12MPD2     C  182   2.918   3.389  14.019 -0.5435  0.4023 -0.6549
   12MPD2    C1  183   2.998   3.398  14.133  0.3189 -0.1620 -0.0853
   12MPD2    C2  184   3.087   3.297  14.163  0.1473 -0.0857  0.0261
   12MPD2    C3  185   3.106   3.191  14.081 -0.2637 -0.5013 -0.6411
   12MPD2    C4  186   3.024   3.184  13.971 -0.5029  0.8371  0.3663
   12MPD2    C5  187   2.934   3.287  13.936  0.0046  0.1967  0.0990
   12MPD2     H  188   3.147   3.304  14.253 -0.5259 -1.4689  0.5824
   12MPD2    H1  189   3.044   3.104  13.901 -1.0688  1.4925 -0.5307
   12MPD2    H2  190   2.853   3.470  13.987  0.4329  2.5991  2.9207
   12MPD2    H3  191   2.891   3.283  13.837  0.8364 -0.1393 -0.2413
   12MPD2     N  192   3.203   3.094  14.097 -0.0181 -0.8511  0.0674
   12MPD2    H5  193   3.208   3.033  14.016 -0.8574  0.2871 -0.8471
   12MPD2    N1  194   2.988   3.501  14.222  0.2230 -0.4724  0.1078
   12MPD2    H7  195   3.068   3.514  14.283 -0.6047 -0.2778  1.1452
   13TCq1    O1  196   3.550   4.103  10.827 -0.1075 -0.1103  0.3536
   13TCq1    C1  197   3.584   4.032  10.721  0.3963 -0.7415  0.0488
   13TCq1    O2  198   3.656   4.077  10.634  0.1233 -0.5744  0.0998
   13TCq1    C2  199   3.458   3.965  10.688  0.2001 -0.3937 -0.6054
   13TCq1    C3  200   3.415   3.998  10.569 -0.2403 -0.1619 -0.6429
   13TCq1    C4  201   3.282   3.990  10.541 -0.1238 -0.3556 -0.5451
   13TCq1    C5  202   3.193   3.946  10.638 -0.0754 -0.0009 -0.1782
   13TCq1    C6  203   3.251   3.904  10.759  0.3292  0.5328 -0.3306
   13TCq1    C7  204   3.385   3.900  10.782  0.1051 -0.4157  0.2275
   13TCq1    C8  205   3.179   3.833  10.859 -0.2138  0.1341  0.2300
   13TCq1    O4  206   3.220   3.834  10.977  0.4043 -0.7341  0.1232
   13TCq1    C9  207   3.223   4.056  10.426 -0.3188 -0.1347 -0.0578
   13TCq1    O5  208   3.098   4.065  10.409 -0.0228  0.1668  0.4378
   13TCq1    O6  209   3.303   4.084  10.333 -0.0660 -0.3850 -0.0920
   13TCq1    H1  210   3.482   4.065  10.888  1.5802 -1.1514  1.5967
   13TCq1    H2  211   3.480   4.045  10.496  0.7008 -1.0050 -0.3477
   13TCq1    H3  212   3.087   3.968  10.635 -0.3436 -1.2842 -0.1199
   13TCq1    H4  213   3.426   3.866  10.877 -2.1511  2.4264  2.2127
   14MPD2     C  214   2.878   3.639  10.801  0.1221  0.8853  0.3670
   14MPD2    C1  215   2.960   3.716  10.870  0.3977 -0.1046  0.4266
   14MPD2    C2  216   2.947   3.711  11.007  1.0477  0.0080 -0.3975
   14MPD2    C3  217   2.852   3.636  11.080  0.2495 -0.2395  0.0187
   14MPD2    C4  218   2.762   3.572  10.998  0.4756  0.1578  0.3931
   14MPD2    C5  219   2.773   3.575  10.858  0.6886 -0.8059  0.2897
   14MPD2     H  220   3.021   3.766  11.064  2.0470  1.6033 -3.2684
   14MPD2    H1  221   2.675   3.521  11.039 -0.0833  0.4693 -0.4008
   14MPD2    H2  222   2.880   3.644  10.693 -2.9779  2.1966  0.3528
   14MPD2    H3  223   2.709   3.522  10.789 -0.2928 -0.3205  0.8323
   14MPD2     N  224   2.842   3.652  11.219  0.4394 -0.7297 -0.7325
   14MPD2    H5  225   2.872   3.742  11.255 -1.3199  0.4976 -2.3269
   14MPD2    N1  226   3.064   3.778  10.802 -0.2010 -0.0018 -0.4298
   14MPD2    H7  227   3.059   3.782  10.701  0.5537  1.5015 -0.4037
   15TCq1    O1  228   0.098   3.461   1.526  0.6915  0.4073  0.1465
   15TCq1    C1  229   0.155   3.353   1.469 -0.4714  0.1299  0.6043
   15TCq1    O2  230   0.252   3.362   1.394  0.8274 -0.3256  0.5281
   15TCq1    C2  231   0.118   3.240   1.549 -0.1228  0.0670 -0.0498
   15TCq1    C3  232   4.733   3.230   1.617  0.3673  0.2630  0.3462
   15TCq1    C4  233   4.695   3.111   1.673  0.0700 -0.3561  0.4022
   15TCq1    C5  234   0.024   2.992   1.636 -0.1140  0.5810  0.0993
   15TCq1    C6  235   0.149   3.006   1.572 -0.4931  0.2352  0.3386
   15TCq1    C7  236   0.197   3.130   1.534 -0.5623  0.2675 -0.2278
   15TCq1    C8  237   0.204   2.894   1.499  0.2579  0.6596  0.0180
   15TCq1    O4  238   0.317   2.900   1.454  0.4515 -0.0250  0.0312
   15TCq1    C9  239   4.573   3.109   1.749  0.1422 -0.7841  0.4820
   15TCq1    O5  240   4.532   2.994   1.774  0.0633  0.0119  0.0679
   15TCq1    O6  241   4.519   3.219   1.776  0.1749  0.2132 -0.2683
   15TCq1    H1  242   0.035   3.425   1.592  0.1822 -0.3455 -0.7472
   15TCq1    H2  243   4.663   3.311   1.632  0.5547  0.4300  0.3188
   15TCq1    H3  244   4.720   2.902   1.681 -1.5058  0.9441 -0.3668
   15TCq1    H4  245   0.285   3.142   1.472  0.7141 -2.5734  0.9945
   16MPD2     C  246   0.002   2.611   1.380  0.1126 -0.5798 -0.2755
   16MPD2    C1  247   0.118   2.674   1.428 -0.4139 -0.3302 -0.6289
   16MPD2    C2  248   0.239   2.606   1.429 -0.5141  0.0783 -0.4193
   16MPD2    C3  249   0.236   2.474   1.373 -0.1826 -0.1069 -0.1917
   16MPD2    C4  250   0.120   2.424   1.313 -0.1281 -0.0961  0.3971
   16MPD2    C5  251   0.002   2.491   1.325 -0.3596  0.0853  0.0945
   16MPD2     H  252   0.327   2.654   1.469 -0.5650 -1.1862  1.1951
   16MPD2    H1  253   0.114   2.328   1.264  0.1233  1.6333 -3.0159
   16MPD2    H2  254   4.638   2.658   1.389  1.1011  0.9570  2.4706
   16MPD2    H3  255   4.639   2.454   1.292 -0.8009  0.4113  1.0316
   16MPD2     N  256   0.357   2.407   1.379  1.0252 -0.4428 -0.5441
   16MPD2    H5  257   0.442   2.456   1.404  0.8816 -1.2902  1.5709
   16MPD2    N1  258   0.104   2.803   1.484 -0.0175  0.0643  0.0080
   16MPD2    H7  259   0.012   2.837   1.506 -0.2256 -0.1470 -0.5354
   17TMC1    C1  260   2.733   2.418  10.622 -1.1738 -0.1216 -0.2258
   17TMC1    C2  261   2.789   2.417  10.750 -0.7722 -0.4133 -0.1126
   17TMC1    C3  262   2.779   2.304  10.825  0.0272  0.1976 -0.2444
   17TMC1    C4  263   2.670   2.300  10.577  0.1716 -0.2116  0.3575
   17TMC1    C5  264   2.659   2.190  10.659 -0.1268 -0.3576 -0.4972
   17TMC1    C6  265   2.710   2.196  10.785 -0.2521  0.2346 -0.0595
   17TMC1     C  266   2.772   2.514  10.521 -0.1600  0.4979  0.2614
   17TMC1     O  267   2.783   2.479  10.406  0.3151 -0.0175 -0.2110
   17TMC1     H  268   2.855   2.494  10.787 -1.6743 -0.0307  0.7060
   17TMC1    H1  269   2.664   2.286  10.469  2.0715  0.5455  0.1489
   17TMC1    H2  270   2.670   2.122  10.853  0.2220  0.7569  0.7861
   17TMC1    C7  271   2.623   2.060  10.599 -0.4244  0.1513 -0.8280
   17TMC1    C8  272   2.795   2.312  10.969 -0.3904 -0.1683  0.2084
   17TMC1    O1  273   2.564   2.038  10.495 -0.7182  0.2282  0.4673
   17TMC1    O2  274   2.779   2.417  11.033  0.2415  0.5177  0.5637
   17TMC1    O3  275   2.729   1.987  10.633  0.3546 -0.2087  0.3820
   17TMC1    H3  276   2.778   2.013  10.714  2.3417  0.5652 -1.0707
   17TMC1    O5  277   2.873   2.204  11.002  0.0695  0.6246  0.5476
   17TMC1    H5  278   2.870   2.138  10.930 -1.4350  1.1757  0.0915
   18MPD2     C  279   2.853   2.781  10.375  0.1370 -0.3395 -0.1214
   18MPD2    C1  280   2.824   2.765  10.509 -1.1651  0.0906 -0.3399
   18MPD2    C2  281   2.838   2.876  10.589 -0.0206  0.5151 -0.0474
   18MPD2    C3  282   2.860   3.005  10.532  0.2217 -0.0242 -0.1549
   18MPD2    C4  283   2.880   3.019  10.396 -0.6118 -0.3328  0.2827
   18MPD2    C5  284   2.872   2.907  10.323  0.5032 -0.3219  0.4048
   18MPD2     H  285   2.835   2.866  10.696 -0.4590 -0.3653 -0.1450
   18MPD2    H1  286   2.886   3.117  10.349 -1.3914 -0.6273 -0.4356
   18MPD2    H2  287   2.876   2.693  10.316  0.5312  1.3251 -2.4854
   18MPD2    H3  288   2.892   2.913  10.217  1.8196  1.6426  0.7603
   18MPD2     N  289   2.882   3.128  10.610 -0.2301  0.8396 -0.0530
   18MPD2    H5  290   2.899   3.212  10.555  0.9055 -1.1062 -2.6799
   18MPD2    N1  291   2.802   2.640  10.574  0.1513  0.1073 -0.3771
   18MPD2    H7  292   2.791   2.642  10.675 -2.1015 -1.1321 -0.5786
   19TMC2    C1  293   4.692   4.054  14.234  0.3077 -0.0750 -0.0054
   19TMC2    C2  294   4.649   4.084  14.109 -0.3271  0.2274 -0.6508
   19TMC2    C3  295   4.530   4.029  14.073  0.3232 -0.2440  0.0602
   19TMC2    C4  296   4.616   3.987  14.329  0.0531 -0.6004  0.1138
   19TMC2    C5  297   4.496   3.942  14.284 -0.1772 -0.5831  0.1263
   19TMC2    C6  298   4.444   3.969  14.163 -0.3203 -0.0588  0.5508
   19TMC2     C  299   0.074   4.122  14.277  0.3152  0.0224  0.2366
   19TMC2     O  300   0.105   4.225  14.217 -0.5712  0.7063  0.4681
   19TMC2     H  301   4.725   4.133  14.050 -1.2793 -0.1537 -2.1866
   19TMC2    H1  302   4.647   3.959  14.429  0.9795  1.5261  0.4317
   19TMC2    H2  303   4.347   3.936  14.128  0.5878 -0.6207 -1.4637
   19TMC2    C7  304   4.434   3.837  14.359  0.4237 -0.3992 -0.4033
   19TMC2    C8  305   4.474   4.054  13.946  0.2182  0.0526 -0.5771
   19TMC2    O1  306   4.516   3.781  14.431  0.5052  0.3459  0.5630
   19TMC2    O2  307   4.360   4.096  13.934 -0.6999  0.6242 -0.1870
   19TMC2    O5  308   4.563   4.033  13.846  0.3949  0.1715 -0.1363
   19TMC2    H5  309   4.629   3.968  13.877  0.2046  0.2279  0.3964
   20MPD2     C  310   0.236   4.276  14.474 -0.3563  0.1085 -0.7203
   20MPD2    C1  311   0.215   4.144  14.487 -0.0943 -0.4718  0.3619
   20MPD2    C2  312   0.276   4.080  14.594 -0.1547 -0.6952 -0.3125
   20MPD2    C3  313   0.374   4.143  14.675  0.7893 -0.6614 -0.4239
   20MPD2    C4  314   0.399   4.277  14.648 -0.1907  0.0624  0.2794
   20MPD2    C5  315   0.324   4.340  14.549 -0.1702  0.8940 -0.4888
   20MPD2     H  316   0.256   3.974  14.611 -0.7246 -0.2022  1.9735
   20MPD2    H1  317   0.472   4.335  14.704  2.2587 -2.8163  0.1112
   20MPD2    H2  318   0.204   4.335  14.389  0.6158 -2.4733 -2.8712
   20MPD2    H3  319   0.340   4.447  14.541  2.6851  0.5056  0.1288
   20MPD2     N  320   0.446   4.079  14.778 -0.3894  0.5657  0.1142
   20MPD2    H5  321   0.490   4.150  14.835  0.0658  0.0448  0.4106
   20MPD2    N1  322   0.122   4.075  14.397 -0.0759  0.2049  0.0309
   20MPD2    H7  323   0.089   3.982  14.418  2.4391 -0.5018  0.8304
   21TMC2    C1  324   1.923   3.788  14.920  0.2826  0.3846  0.1362
   21TMC2    C2  325   1.962   3.691  15.006  0.1252  0.2579 -0.1615
   21TMC2    C3  326   1.948   3.709  15.142 -0.4442 -0.6155 -0.2522
   21TMC2    C4  327   1.901   3.909  14.975 -0.6454  0.8514 -0.9714
   21TMC2    C5  328   1.906   3.932  15.110  0.0108  0.4925  0.0242
   21TMC2    C6  329   1.934   3.827  15.199  0.7414  0.7599 -0.4055
   21TMC2     C  330   1.987   3.790  14.790  0.1634  0.1340  0.3540
   21TMC2     O  331   2.063   3.694  14.760  0.0503  0.0376  0.2442
   21TMC2     H  332   2.004   3.596  14.973  0.8928  0.6985 -0.4678
   21TMC2    H1  333   1.871   3.991  14.911 -1.2273  1.8784  0.6014
   21TMC2    H2  334   1.935   3.860  15.302 -2.2666 -0.2197 -0.0510
   21TMC2    C7  335   1.911   4.070  15.166 -0.4965  0.2754 -0.3925
   21TMC2    C8  336   1.981   3.590  15.218  1.1767 -0.4268  1.3046
   21TMC2    O1  337   1.943   4.077  15.285  0.1311  0.3751 -0.6381
   21TMC2    O2  338   1.931   3.481  15.187  0.3312 -0.2232  0.6134
   21TMC2    O5  339   2.053   3.625  15.327 -0.1533  0.6666 -0.1897
   21TMC2    H5  340   2.107   3.705  15.308  0.0196  0.1817 -1.7172
   22MPD2     C  341   2.192   4.117  14.448  0.2302 -0.1231  0.0095
   22MPD2    C1  342   2.250   4.034  14.543  0.3644 -0.3227 -0.1317
   22MPD2    C2  343   2.168   3.950  14.617  0.1870 -0.0334 -0.8318
   22MPD2    C3  344   2.031   3.962  14.618 -0.1784 -0.0884  0.7077
   22MPD2    C4  345   1.979   4.051  14.525  0.0733 -0.8760 -0.5310
   22MPD2    C5  346   2.054   4.117  14.435  0.0822  0.7645 -0.0730
   22MPD2     H  347   2.209   3.889  14.696  1.5947  0.7796 -0.9257
   22MPD2    H1  348   1.872   4.061  14.512  0.3190  0.8444 -1.1514
   22MPD2    H2  349   2.250   4.188  14.390 -0.4696 -0.7791 -1.4918
   22MPD2    H3  350   2.007   4.176  14.358  0.5596  1.6393  0.3053
   22MPD2     N  351   1.952   3.899  14.715 -0.1334  0.5648  0.3018
   22MPD2    H5  352   1.857   3.933  14.707  0.3108  2.0937  1.5179
   22MPD2    N1  353   2.388   4.031  14.572 -0.3778  0.2358 -0.3741
   22MPD2    H7  354   2.414   3.961  14.642 -0.7713  0.1643 -0.2942
   23TMC2    C1  355   3.826   0.601  14.809  0.1533  0.5076 -0.1153
   23TMC2    C2  356   3.750   0.702  14.862  0.2503 -1.0480 -0.7280
   23TMC2    C3  357   3.625   0.721  14.804 -0.4061  0.0469 -0.3705
   23TMC2    C4  358   3.777   0.522  14.714 -0.9828  0.2395  0.7339
   23TMC2    C5  359   3.657   0.551  14.657 -0.3064  0.4087  0.4684
   23TMC2    C6  360   3.580   0.654  14.699 -0.9302  0.2960  0.5278
   23TMC2     C  361   3.946   0.568  14.874 -0.8464 -0.1758  0.3096
   23TMC2     O  362   3.963   0.628  14.979 -0.4074 -0.3153 -0.3539
   23TMC2     H  363   3.780   0.764  14.946  0.4405 -0.7201 -1.0403
   23TMC2    H1  364   3.826   0.428  14.690 -1.4250  0.1644  0.1364
   23TMC2    H2  365   3.492   0.693  14.649 -0.3957 -0.2405 -0.8274
   23TMC2    C7  366   3.610   0.461  14.555 -0.1411 -0.6356  0.1276
   23TMC2    C8  367   3.529   0.820  14.850  0.8070  0.0301  0.2756
   23TMC2    O1  368   3.698   0.397  14.497 -0.4132 -0.3441  0.3596
   23TMC2    O2  369   3.429   0.856  14.788  0.2981 -0.2167  0.9335
   23TMC2    O5  370   3.563   0.865  14.970  0.1720 -0.4186  0.3887
   23TMC2    H5  371   3.652   0.831  14.993  0.2358  0.1887  1.0294
   24MPD2     C  372   4.409   0.337  14.923 -0.0108  0.1029  0.3147
   24MPD2    C1  373   4.330   0.392  15.016 -0.2508  0.3406  0.6938
   24MPD2    C2  374   4.210   0.450  14.976 -0.1570  0.2820  0.4160
   24MPD2    C3  375   4.166   0.449  14.846  0.8519  0.3929 -0.5103
   24MPD2    C4  376   4.245   0.391  14.755  0.1975 -0.4246  0.4344
   24MPD2    C5  377   4.365   0.334  14.791 -0.3863 -0.1383  0.7267
   24MPD2     H  378   4.143   0.496  15.047 -1.8479 -2.9449  0.9043
   24MPD2    H1  379   4.209   0.380  14.653  0.8173 -1.8757  0.3617
   24MPD2    H2  380   4.512   0.309  14.940 -0.3377 -0.7048  0.9567
   24MPD2    H3  381   4.439   0.287  14.727 -0.7423 -0.6273  0.6754
   24MPD2     N  382   4.039   0.500  14.800  0.0977  0.3327  0.2794
   24MPD2    H5  383   4.016   0.489  14.701 -1.7416 -2.0876  0.9778
   24MPD2    N1  384   4.372   0.393  15.150  0.4649 -0.5276 -0.1727
   24MPD2    H7  385   4.455   0.339  15.171  1.1488  0.4881 -0.2378
   25TMC2    C1  386   2.609   3.292  12.004  0.1041 -0.3912 -0.2395
   25TMC2    C2  387   2.653   3.403  12.076  0.6826 -0.0344  0.6104
   25TMC2    C3  388   2.633   3.412  12.212 -0.8781 -0.3677  0.0845
   25TMC2    C4  389   2.539   3.196  12.066  0.0515  0.5426  0.4291
   25TMC2    C5  390   2.511   3.212  12.202 -0.1388 -0.3231 -0.9295
   25TMC2    C6  391   2.563   3.311  12.280 -0.0734  0.3829  0.1186
   25TMC2     C  392   2.668   3.262  11.876 -0.4289 -0.3199  0.7319
   25TMC2     O  393   2.770   3.324  11.849 -1.0693  0.2954  0.5179
   25TMC2     H  394   2.709   3.482  12.027 -0.8273  0.0148 -1.0294
   25TMC2    H1  395   2.507   3.110  12.009  2.3130  0.3371 -0.5276
   25TMC2    H2  396   2.549   3.318  12.388 -1.5396  1.7025 -0.1664
   25TMC2    C7  397   2.413   3.127  12.263  0.3541 -0.1891 -0.8812
   25TMC2    C8  398   2.672   3.527  12.296 -0.5644 -0.2217 -0.0194
   25TMC2    O1  399   2.422   3.111  12.384  0.1888 -0.0922 -0.0543
   25TMC2    O2  400   2.623   3.552  12.406 -0.1898  0.5396  0.0965
   25TMC2    O5  401   2.726   3.627  12.220  0.6586  0.1922 -0.1712
   25TMC2    H5  402   2.772   3.600  12.138  1.0612  0.2816  0.0237
   26MPD2     C  403   2.722   3.045  11.427  0.2032 -0.2711  0.0502
   26MPD2    C1  404   2.642   2.963  11.498 -0.0202  0.5799  0.2416
   26MPD2    C2  405   2.605   3.008  11.624  1.1954  0.0400  0.0760
   26MPD2    C3  406   2.651   3.135  11.671  0.2168 -0.5982  0.4366
   26MPD2    C4  407   2.720   3.225  11.594 -0.5701 -0.2497 -0.1753
   26MPD2    C5  408   2.759   3.168  11.477  0.9234 -0.4617  0.3942
   26MPD2     H  409   2.539   2.951  11.688  0.9804 -0.3628 -0.5121
   26MPD2    H1  410   2.757   3.323  11.622  1.1847 -1.6018  2.1876
   26MPD2    H2  411   2.754   3.021  11.327 -0.4442 -1.2328  0.0751
   26MPD2    H3  412   2.806   3.238  11.409 -2.0615  0.8285 -0.3293
   26MPD2     N  413   2.609   3.167  11.800 -0.2328 -0.2064  0.1646
   26MPD2    H5  414   2.539   3.102  11.834  1.8106 -1.2573  2.2670
   26MPD2    N1  415   2.603   2.840  11.434 -0.1315  0.6445 -0.0258
   26MPD2    H7  416   2.643   2.831  11.341  0.6362  1.6075  0.2039
   27TMC2    C1  417   1.868   4.608  12.307 -0.5437  0.4831  0.7466
   27TMC2    C2  418   1.858   4.729  12.252  0.2047  0.2456  0.2653
   27TMC2    C3  419   1.965   0.080  12.265  0.4460 -0.1461 -0.4247
   27TMC2    C4  420   1.970   4.570  12.391  0.9779  1.0304  0.4811
   27TMC2    C5  421   2.063   4.669  12.414  0.0244  0.0222  0.3400
   27TMC2    C6  422   2.066   0.056  12.351  0.5297 -0.3945 -0.3504
   27TMC2     C  423   1.745   4.535  12.316 -0.3789 -0.7130 -0.1091
   27TMC2     O  424   1.763   4.414  12.317 -0.0638  0.8958  0.0572
   27TMC2     H  425   1.779   0.017  12.182  0.9261  0.2490 -0.5475
   27TMC2    H1  426   1.977   4.473  12.439  1.3913  0.5548 -0.5369
   27TMC2    H2  427   2.146   0.129  12.360  0.2229  0.0568 -1.2983
   27TMC2    C7  428   2.098   4.672  12.557 -0.2130  0.0286  0.1856
   27TMC2    C8  429   1.999   0.181  12.160 -0.1207 -0.8488 -0.0754
   27TMC2    O1  430   2.077   4.567  12.618 -0.0109 -0.2257  0.1628
   27TMC2    O2  431   2.091   0.172  12.082 -0.2216  0.0524  0.0887
   27TMC2    O5  432   1.888   0.257  12.137 -0.3679  0.2374 -0.1716
   27TMC2    H5  433   1.836   0.254  12.221  2.1550  2.3377  1.4551
   28MPD2     C  434   1.265   4.483  12.472  0.2972  0.0966 -0.2710
   28MPD2    C1  435   1.300   4.616  12.489 -0.0152 -0.0484 -0.0113
   28MPD2    C2  436   1.420   4.662  12.451  0.6384 -0.7746 -0.6315
   28MPD2    C3  437   1.507   4.573  12.394  0.1639 -0.1004  0.7115
   28MPD2    C4  438   1.467   4.444  12.378  0.7568 -0.3892 -0.0250
   28MPD2    C5  439   1.348   4.394  12.419  0.8715  0.5766  0.4331
   28MPD2     H  440   1.446   0.032  12.464 -0.9525 -0.7231  1.9387
   28MPD2    H1  441   1.527   4.366  12.332 -0.1576 -0.5842 -0.8916
   28MPD2    H2  442   1.169   4.443  12.499  0.1637 -0.7721 -2.0695
   28MPD2    H3  443   1.326   4.288  12.415 -0.7378  0.8459  1.7808
   28MPD2     N  444   1.641   4.613  12.366 -0.2553 -0.1556 -0.2001
   28MPD2    H5  445   1.660   4.713  12.368 -1.3575  0.0226  0.9903
   28MPD2    N1  446   1.201   4.699  12.559  0.1480  0.7900 -0.3854
   28MPD2    H7  447   1.130   4.644  12.607  0.1861  0.2114 -0.9727
   29TMC2    C1  448   0.807   2.485  14.612 -0.2715  0.0607 -0.4231
   29TMC2    C2  449   0.773   2.439  14.733 -1.0833 -0.0441  0.3836
   29TMC2    C3  450   0.739   2.537  14.826  0.1878  0.8274 -0.5156
   29TMC2    C4  451   0.808   2.618  14.579 -0.0210  0.2812  0.5898
   29TMC2    C5  452   0.774   2.714  14.668 -1.1516  0.4283  0.5157
   29TMC2    C6  453   0.743   2.675  14.800 -0.3516  0.2585  0.0509
   29TMC2     C  454   0.824   2.382  14.512 -0.3537 -0.3182  0.7644
   29TMC2     O  455   0.858   2.278  14.553  0.1658  0.3996 -0.8000
   29TMC2     H  456   0.765   2.333  14.755  0.7319 -0.4152 -0.7571
   29TMC2    H1  457   0.834   2.643  14.476  2.8628 -1.2839  0.9380
   29TMC2    H2  458   0.716   2.757  14.866  0.2000 -0.4741  1.1999
   29TMC2    C7  459   0.803   2.851  14.632  0.6248  0.0572 -1.0098
   29TMC2    C8  460   0.727   2.487  14.966  0.3634 -0.1471 -0.1664
   29TMC2    O1  461   0.763   2.880  14.520  0.0030  0.6534  0.0503
   29TMC2    O2  462   0.756   2.372  14.997  0.1143  0.0062 -0.2069
   29TMC2    O5  463   0.682   2.585  15.046  0.4201 -0.1329 -0.3052
   29TMC2    H5  464   0.646   2.660  14.994 -3.9897 -2.3286 -0.3693
   30MPD2     C  465   0.728   2.173  14.061 -0.0073 -0.0839  0.2785
   30MPD2    C1  466   0.799   2.128  14.165 -0.2043  0.7222 -0.9560
   30MPD2    C2  467   0.824   2.217  14.262 -0.1251 -0.7885  0.4560
   30MPD2    C3  468   0.756   2.337  14.280  0.2597  0.4653  0.1649
   30MPD2    C4  469   0.682   2.384  14.170  0.0220 -0.6155 -0.1039
   30MPD2    C5  470   0.683   2.303  14.057 -0.2746 -0.0360 -0.6244
   30MPD2     H  471   0.892   2.186  14.340  0.5443 -1.9645 -0.5975
   30MPD2    H1  472   0.642   2.484  14.158  1.2579 -0.3489 -1.9728
   30MPD2    H2  473   0.709   2.119  13.968 -0.5877 -1.7176  1.3511
   30MPD2    H3  474   0.628   2.329  13.967  0.1739 -1.7912 -1.4054
   30MPD2     N  475   0.761   2.419  14.395  0.6027  0.0381  0.0405
   30MPD2    H5  476   0.711   2.506  14.380  2.3752  0.7216 -1.8844
   30MPD2    N1  477   0.858   2.000  14.172 -0.3284 -0.9397 -0.0794
   30MPD2    H7  478   0.914   1.978  14.254 -1.5750 -2.6463  0.3202
   31TMC2    C1  479   3.427   1.369  15.461  0.1333 -0.2439 -0.1206
   31TMC2    C2  480   3.295   1.394  15.453  0.4785 -0.0172 -0.1468
   31TMC2    C3  481   3.230   1.407  15.564  0.3442  0.4039  0.2889
   31TMC2    C4  482   3.489   1.365  15.581  0.3221  0.7139 -0.1795
   31TMC2    C5  483   3.421   1.373  15.699 -0.8865 -0.4006 -0.0948
   31TMC2    C6  484   3.287   1.399  15.688  0.7524 -0.2410  0.5317
   31TMC2     C  485   3.492   1.327  15.343 -0.0453 -0.0195  0.3023
   31TMC2     O  486   3.456   1.378  15.239  0.2415 -0.0676 -0.3057
   31TMC2     H  487   3.247   1.407  15.356 -0.5507  2.5014  0.7067
   31TMC2    H1  488   3.597   1.361  15.591  0.4042  1.2188 -0.8440
   31TMC2    H2  489   3.225   1.413  15.775  1.7663  1.9876  0.8902
   31TMC2    C7  490   3.496   1.355  15.823  0.3878  0.0139  0.2685
   31TMC2    C8  491   3.093   1.437  15.570 -0.7074  0.7215 -0.0524
   31TMC2    O1  492   3.610   1.316  15.808 -0.1003  0.2494  0.7717
   31TMC2    O2  493   3.020   1.398  15.657  0.1861  0.4112 -0.4128
   31TMC2    O5  494   3.072   1.544  15.486 -0.5197  0.1169 -0.2679
   31TMC2    H5  495   3.151   1.591  15.453 -1.0871  0.0712 -1.7100
   32MPD2     C  496   3.866   1.104  15.103  0.1412  0.1724 -0.0503
   32MPD2    C1  497   3.749   1.154  15.056  0.3099 -0.1569 -0.6846
   32MPD2    C2  498   3.657   1.200  15.144  0.2930  0.3729 -0.7034
   32MPD2    C3  499   3.690   1.206  15.277  0.3600  0.4333  0.1418
   32MPD2    C4  500   3.807   1.149  15.324  0.0997 -0.3514 -0.4683
   32MPD2    C5  501   3.894   1.092  15.236  0.4011  0.3185  0.3352
   32MPD2     H  502   3.559   1.236  15.111 -1.0673  0.0870  3.0576
   32MPD2    H1  503   3.834   1.156  15.429  0.1754  1.0364 -0.5806
   32MPD2    H2  504   3.940   1.071  15.030  0.5132 -0.4529  0.6166
   32MPD2    H3  505   3.994   1.062  15.263  0.7597  0.3759 -0.9583
   32MPD2     N  506   3.603   1.252  15.370  0.1597 -0.5407 -0.7218
   32MPD2    H5  507   3.623   1.224  15.466 -2.5163  2.6101  0.7592
   32MPD2    N1  508   3.722   1.165  14.914 -0.3700  0.4348  0.5964
   32MPD2    H7  509   3.796   1.136  14.851 -0.0902  0.3266  0.9764
   33TMC2    C1  510   3.566   3.764  10.222 -0.1754 -0.6215 -0.7212
   33TMC2    C2  511   3.502   3.716  10.107  0.6163 -0.3876 -0.7479
   33TMC2    C3  512   3.556   3.746   9.982 -0.1602 -0.3733 -0.0283
   33TMC2    C4  513   3.691   3.829  10.219  0.4826  0.7326 -0.3840
   33TMC2    C5  514   3.744   3.848  10.090 -0.3827 -0.3897  0.1127
   33TMC2    C6  515   3.672   3.817   9.979  0.0902 -0.1192  0.5965
   33TMC2     C  516   3.524   3.713  10.345  0.6901  0.1193  0.3596
   33TMC2     O  517   3.411   3.667  10.341  0.0898  0.6790  0.2155
   33TMC2     H  518   3.408   3.662  10.107  0.8923 -0.8595  0.2439
   33TMC2    H1  519   3.730   3.888  10.301 -2.6701  1.4166  0.6095
   33TMC2    H2  520   3.709   3.837   9.879  0.9230 -0.6348  0.7988
   33TMC2    C7  521   3.867   3.925  10.077 -0.4803 -0.0871  0.1606
   33TMC2    C8  522   3.463   3.766   9.869  0.4040 -0.5402 -0.5462
   33TMC2    O1  523   3.901   4.002  10.166  0.1489 -0.1634  0.3381
   33TMC2    O2  524   3.495   3.773   9.749  0.3251  0.0134  0.4194
   33TMC2    O5  525   3.343   3.813   9.917 -0.2046 -0.3673 -0.1035
   33TMC2    H5  526   3.344   3.842  10.010 -0.4804 -0.5731 -0.0356
   34MPD2     C  527   3.588   3.571  10.832  0.0600  0.1487  0.1832
   34MPD2    C1  528   3.481   3.561  10.743 -0.4820 -0.2760 -0.6792
   34MPD2    C2  529   3.497   3.601  10.616  0.3088  0.0339 -0.2494
   34MPD2    C3  530   3.613   3.663  10.573 -0.2112  0.4595  0.5153
   34MPD2    C4  531   3.719   3.674  10.659 -0.0545  0.4939  0.0031
   34MPD2    C5  532   3.701   3.637  10.791  0.7396  0.6914 -0.0335
   34MPD2     H  533   3.407   3.613  10.558 -1.3289 -2.0492  1.8841
   34MPD2    H1  534   3.811   3.713  10.618  0.4289  1.0240  1.6042
   34MPD2    H2  535   3.581   3.541  10.936 -0.8124 -2.3496 -0.6199
   34MPD2    H3  536   3.790   3.647  10.853 -0.9389  0.2953  2.4314
   34MPD2     N  537   3.623   3.706  10.437  0.0840 -0.0782  0.2257
   34MPD2    H5  538   3.718   3.732  10.409 -0.4231 -1.7583 -3.0641
   34MPD2    N1  539   3.354   3.509  10.791 -0.4117 -0.5155 -0.5430
   34MPD2    H7  540   3.335   3.516  10.890  1.8159 -1.0329 -0.0795
   35TMC2    C1  541   0.181   0.238  11.301 -0.2468  0.5290 -0.2547
   35TMC2    C2  542   0.099   0.251  11.192  0.6490  0.1398 -0.0322
   35TMC2    C3  543   4.701   0.258  11.215 -0.1583  0.1081 -0.7227
   35TMC2    C4  544   0.129   0.223  11.427  0.6197 -0.0562  0.4200
   35TMC2    C5  545   4.724   0.229  11.444  0.2202  0.3735 -0.3102
   35TMC2    C6  546   4.644   0.251  11.338  0.1323 -0.6059 -0.0732
   35TMC2     C  547   0.322   0.261  11.278 -0.4175 -0.1380 -0.6109
   35TMC2     O  548   0.362   0.253  11.163 -0.7543  0.0477  0.0610
   35TMC2     H  549   0.146   0.255  11.094  1.4988 -1.6763  0.2938
   35TMC2    H1  550   0.184   0.205  11.519  0.4101 -2.3674  0.0929
   35TMC2    H2  551   4.539   0.276  11.346  0.5135  1.3767 -1.5803
   35TMC2    C7  552   4.668   0.162  11.561  0.3017 -0.1191 -0.1776
   35TMC2    C8  553   4.613   0.291  11.107  0.3101 -0.6561  1.3163
   35TMC2    O1  554   0.007   0.145  11.659 -0.5365  0.1569  0.4603
   35TMC2    O2  555   4.493   0.271  11.102 -0.3227 -0.5994  0.4984
   35TMC2    O5  556   4.679   0.389  11.037  0.8645 -0.0012 -0.0493
   35TMC2    H5  557   0.025   0.424  11.081 -0.0357 -0.5373  1.9955
   36MPD2     C  558   0.790   0.431  11.412  0.0906  0.0666 -0.9691
   36MPD2    C1  559   0.745   0.357  11.520  0.3890 -0.0404 -0.1194
   36MPD2    C2  560   0.608   0.304  11.517  0.7294 -1.1950  0.1369
   36MPD2    C3  561   0.527   0.329  11.406 -0.8282  0.4870  0.5754
   36MPD2    C4  562   0.580   0.393  11.297 -0.2163 -0.4306  0.2413
   36MPD2    C5  563   0.709   0.445  11.303  0.2199 -0.2412  0.0669
   36MPD2     H  564   0.570   0.244  11.598 -1.9980 -1.4428 -1.3213
   36MPD2    H1  565   0.519   0.406  11.209 -0.6703  0.2177  0.6523
   36MPD2    H2  566   0.893   0.465  11.410  0.0387  0.1632 -1.8277
   36MPD2    H3  567   0.736   0.491  11.209 -2.0930 -0.5205 -0.7400
   36MPD2     N  568   0.393   0.283  11.400  0.5081  0.6632  0.4862
   36MPD2    H5  569   0.337   0.265  11.482 -1.8966  0.2417 -1.2533
   36MPD2    N1  570   0.834   0.341  11.623  0.6413 -0.6385  0.6003
   36MPD2    H7  571   0.926   0.382  11.611  0.5422 -0.6030 -0.0574
   37TMC2    C1  572   2.073   0.883  11.834 -0.9869  0.3153 -1.3330
   37TMC2    C2  573   1.981   0.923  11.744 -0.5958  0.2716 -0.0937
   37TMC2    C3  574   2.033   0.947  11.615 -0.1993 -0.6777  0.2667
   37TMC2    C4  575   2.208   0.858  11.810 -0.5818  0.0199  0.5860
   37TMC2    C5  576   2.245   0.893  11.687  0.3591  0.7503 -0.1297
   37TMC2    C6  577   2.170   0.946  11.589  0.4125  0.1624  0.3312
   37TMC2     C  578   2.019   0.834  11.960 -0.3225 -0.6457 -0.2049
   37TMC2     O  579   1.912   0.879  11.986  0.2997 -0.1159 -0.1177
   37TMC2     H  580   1.877   0.937  11.771 -0.7343 -0.2906 -0.3361
   37TMC2    H1  581   2.279   0.811  11.878  0.3169  0.3248 -0.1338
   37TMC2    H2  582   2.219   0.979  11.498  0.2464 -0.4752  0.0095
   37TMC2    C7  583   2.384   0.869  11.661 -0.4823  0.0408  0.3180
   37TMC2    C8  584   1.942   0.969  11.502  0.2923 -1.0686  1.0639
   37TMC2    O1  585   2.459   0.852  11.757  0.2306 -0.1984 -0.6424
   37TMC2    O2  586   1.821   0.996  11.520  0.4064  0.2949  0.0523
   37TMC2    O5  587   2.010   0.942  11.391  0.0619 -0.4501 -0.1360
   37TMC2    H5  588   2.101   0.907  11.397  0.8715  1.8578  1.2238
   38MPD2     C  589   2.090   0.685  12.441 -0.3764 -0.1095 -0.2595
   38MPD2    C1  590   2.207   0.652  12.369  0.0242  0.0069  0.3715
   38MPD2    C2  591   2.214   0.687  12.235  0.3587 -0.2930  0.6607
   38MPD2    C3  592   2.107   0.748  12.173 -0.6982 -0.1032 -0.5047
   38MPD2    C4  593   1.990   0.756  12.242  0.8478  1.0321  0.9467
   38MPD2    C5  594   1.987   0.736  12.374 -0.0492  0.1615  0.7084
   38MPD2     H  595   2.305   0.667  12.181 -0.0117 -0.4991  0.1144
   38MPD2    H1  596   1.905   0.798  12.189  0.8478  0.3609  0.4189
   38MPD2    H2  597   2.084   0.660  12.547  3.5867  1.8655  0.4086
   38MPD2    H3  598   1.889   0.748  12.417 -0.0170 -0.5306  0.9772
   38MPD2     N  599   2.112   0.777  12.037  0.1772  0.6348 -0.0349
   38MPD2    H5  600   2.202   0.767  11.990  0.3751 -0.2874  0.5497
   38MPD2    N1  601   2.319   0.572  12.421  0.2337 -0.9587 -0.2695
   38MPD2    H7  602   2.389   0.549  12.351  1.5434  1.5767  0.1855
   39TMC2    C1  603   0.612   2.743   1.734 -0.6733 -0.6818 -1.1698
   39TMC2    C2  604   0.735   2.731   1.800  0.1624 -0.1930 -0.0648
   39TMC2    C3  605   0.813   2.842   1.796 -0.0324 -0.4593 -0.1079
   39TMC2    C4  606   0.562   2.856   1.689  0.1120  0.4889 -1.1328
   39TMC2    C5  607   0.640   2.965   1.704  0.2759 -0.1750 -0.5353
   39TMC2    C6  608   0.774   2.955   1.745 -0.1618  0.2982  0.1939
   39TMC2     C  609   0.520   2.631   1.728  0.1191 -0.5250  0.0646
   39TMC2     O  610   0.398   2.650   1.729 -0.2334  0.0124 -0.4726
   39TMC2     H  611   0.773   2.635   1.832  0.4010  1.1222  3.4986
   39TMC2    H1  612   0.474   2.856   1.625 -0.8177  0.5769  0.1431
   39TMC2    H2  613   0.835   3.043   1.762 -0.9970  0.7631  0.8218
   39TMC2    C7  614   0.585   3.099   1.692 -0.1466  0.3257  0.0822
   39TMC2    C8  615   0.932   2.842   1.873 -0.5968 -0.3693  0.4528
   39TMC2    O1  616   0.479   3.115   1.746  0.0875  0.4028 -0.1208
   39TMC2    O2  617   0.962   2.948   1.932 -0.1636 -0.3231 -0.3443
   39TMC2    O5  618   1.018   2.752   1.828 -0.0315  1.2531  0.9330
   39TMC2    H5  619   0.987   2.681   1.768 -0.3338  2.4265 -0.2720
   40MPD2     C  620   0.609   2.283   1.710 -0.9259 -0.3182  0.7046
   40MPD2    C1  621   0.521   2.385   1.732  0.2958 -0.7937  0.7672
   40MPD2    C2  622   0.389   2.352   1.746 -0.0661 -0.3385 -0.9225
   40MPD2    C3  623   0.346   2.230   1.721  0.0384 -0.9960 -1.0364
   40MPD2    C4  624   0.440   2.129   1.709  0.1058  0.5538 -0.0905
   40MPD2    C5  625   0.570   2.154   1.693  0.4939 -0.6848 -0.9917
   40MPD2     H  626   0.314   2.429   1.765  0.9389 -0.2096  2.5684
   40MPD2    H1  627   0.402   2.028   1.694  1.1979  0.4920 -2.3631
   40MPD2    H2  628   0.715   2.305   1.704 -0.6986 -1.2529  1.3487
   40MPD2    H3  629   0.647   2.079   1.675 -0.3197 -2.2176  1.8872
   40MPD2     N  630   0.216   2.189   1.714  0.6332  0.7571  0.1186
   40MPD2    H5  631   0.204   2.091   1.690 -0.6205  0.4837  1.7923
   40MPD2    N1  632   0.586   2.513   1.736 -0.2975 -0.3649 -0.6815
   40MPD2    H7  633   0.685   2.507   1.718 -0.5537 -0.8311 -1.9601
   41TMC2    C1  634   4.564   0.527  13.751  0.5411  0.0521 -0.7145
   41TMC2    C2  635   4.653   0.553  13.849 -0.3348 -0.1858 -0.2531
   41TMC2    C3  636   0.050   0.580  13.826  0.0310 -1.0492  0.5390
   41TMC2    C4  637   4.613   0.513  13.621  0.2845 -0.5221 -0.1706
   41TMC2    C5  638   0.013   0.551  13.603  0.6891  0.2794 -0.2008
   41TMC2    C6  639   0.103   0.584  13.703 -0.2951  0.1528 -0.1870
   41TMC2     C  640   4.419   0.522  13.779  0.1079 -0.4061 -0.6540
   41TMC2     O  641   4.340   0.461  13.711  0.0424 -0.0105  0.1120
   41TMC2     H  642   4.614   0.564  13.949  1.4917  2.0462  0.2050
   41TMC2    H1  643   4.543   0.502  13.538 -0.7790 -0.3975  0.7073
   41TMC2    H2  644   0.210   0.590  13.690  0.1344 -1.7402  2.5154
   41TMC2    C7  645   0.064   0.553  13.466 -0.2925 -0.0144  0.6901
   41TMC2    C8  646   0.131   0.602  13.939 -0.5944 -0.6459 -0.1186
   41TMC2    O1  647   0.150   0.637  13.446 -0.0319  0.4863 -0.3413
   41TMC2    O2  648   0.075   0.658  14.036 -0.6867 -0.3912  0.2921
   41TMC2    O5  649   0.229   0.511  13.957 -0.3304  0.1192 -0.4362
   41TMC2    H5  650   0.238   0.454  13.878 -0.2899 -0.1472 -0.2378
   42MPD2     C  651   4.162   0.546  13.924  0.3327 -0.5045 -0.0555
   42MPD2    C1  652   4.276   0.606  13.964 -0.7403 -0.1362  0.4024
   42MPD2    C2  653   4.279   0.682  14.075 -0.4955 -0.9615  0.4121
   42MPD2    C3  654   4.161   0.708  14.140 -0.3758  0.1681  0.4080
   42MPD2    C4  655   4.046   0.651  14.098  0.5833  0.2036  0.4137
   42MPD2    C5  656   4.048   0.572  13.988  0.1153  0.6843 -0.1917
   42MPD2     H  657   4.373   0.712  14.119 -0.0241  0.0855 -1.2930
   42MPD2    H1  658   3.955   0.650  14.157 -0.4754  1.0906 -1.2159
   42MPD2    H2  659   4.158   0.483  13.836 -1.1529 -0.6311  0.1089
   42MPD2    H3  660   3.956   0.524  13.956  0.8783 -0.4451 -0.7037
   42MPD2     N  661   4.160   0.772  14.268  0.3785  0.3723  0.6511
   42MPD2    H5  662   4.069   0.793  14.307 -1.3062  0.8665 -3.4831
   42MPD2    N1  663   4.397   0.599  13.892  0.5416 -0.0688 -0.5911
   42MPD2    H7  664   4.484   0.637  13.928 -0.2610 -0.5765  1.8404
   43TMC2    C1  665   1.077   3.673   0.738 -0.6235  0.4238  0.3796
   43TMC2    C2  666   0.951   3.725   0.781 -0.9488 -0.4367 -0.1643
   43TMC2    C3  667   0.962   3.824   0.868 -0.3799 -0.3451  0.2839
   43TMC2    C4  668   1.199   3.728   0.781  0.2597 -0.4359  0.8163
   43TMC2    C5  669   1.187   3.847   0.851  0.2847  0.2228 -0.5545
   43TMC2    C6  670   1.072   3.894   0.906  0.0133  0.3177  0.0882
   43TMC2     C  671   1.079   3.535   0.684 -0.0690  0.1055  0.4972
   43TMC2     O  672   1.191   3.483   0.674  0.2011  0.0559 -0.0974
   43TMC2     H  673   0.855   3.694   0.742  0.1467  0.0433 -3.2325
   43TMC2    H1  674   1.293   3.682   0.754 -0.1422  0.7976 -2.5843
   43TMC2    H2  675   1.050   3.973   0.977 -1.8318  1.7538 -2.1052
   43TMC2    C7  676   1.304   3.927   0.856  0.4762 -0.0589  0.5012
   43TMC2    C8  677   0.839   3.889   0.898  0.0603  0.2090  0.4047
   43TMC2    O1  678   1.403   3.886   0.796  0.2823 -0.0228 -0.2200
   43TMC2    O2  679   0.832   3.948   1.008 -0.0011  0.0279  0.2960
   43TMC2    O5  680   0.781   3.943   0.787 -0.6520  0.1243  0.3183
   43TMC2    H5  681   0.821   3.916   0.702 -1.3004 -0.9442  0.3383
   44MPD2     C  682   0.867   3.108   0.508  0.0693 -0.6131  0.1950
   44MPD2    C1  683   0.997   3.156   0.496 -0.0370 -0.1099  0.2227
   44MPD2    C2  684   1.024   3.279   0.547  0.1557  0.2022 -0.7449
   44MPD2    C3  685   0.926   3.357   0.598  0.3893  0.1017 -0.3363
   44MPD2    C4  686   0.796   3.310   0.611 -0.1960  0.5279  0.3116
   44MPD2    C5  687   0.769   3.180   0.571  0.3335  0.4960  0.4338
   44MPD2     H  688   1.126   3.316   0.546 -0.1603  1.1340  1.1211
   44MPD2    H1  689   0.711   3.363   0.654 -1.3532 -0.8365 -0.3022
   44MPD2    H2  690   0.841   3.012   0.466 -3.1553 -0.6552  2.3053
   44MPD2    H3  691   0.671   3.135   0.574 -1.0831  3.4459 -1.5298
   44MPD2     N  692   0.950   3.485   0.660  0.0985  0.3854 -0.1873
   44MPD2    H5  693   0.872   3.539   0.697  0.9981  1.0390  0.7325
   44MPD2    N1  694   1.102   3.085   0.435  0.0943  0.0672  0.4328
   44MPD2    H7  695   1.186   3.137   0.412  0.2292 -0.5053 -0.3521
   45TMC2    C1  696   2.141   0.916   9.703 -0.3698 -0.6401  0.2812
   45TMC2    C2  697   2.271   0.888   9.666 -0.2050  0.0891  0.3701
   45TMC2    C3  698   2.376   0.979   9.682 -0.6270 -0.1711 -0.4477
   45TMC2    C4  699   2.115   1.035   9.767 -0.5899 -0.4578  0.2302
   45TMC2    C5  700   2.220   1.128   9.779 -0.0491 -0.6077 -0.1483
   45TMC2    C6  701   2.350   1.098   9.751 -0.9193 -0.2184  0.3539
   45TMC2     C  702   2.065   0.801   9.742  0.5545  0.1023 -0.3229
   45TMC2     O  703   2.142   0.709   9.779  0.1555  0.0297  0.6399
   45TMC2     H  704   2.297   0.796   9.614  1.2803  1.4396 -1.3027
   45TMC2    H1  705   2.017   1.052   9.809  0.5889  2.8871  1.6113
   45TMC2    H2  706   2.429   1.166   9.781 -1.0118 -0.3923  1.0038
   45TMC2    C7  707   2.188   1.245   9.868 -0.7465  0.5518  0.0088
   45TMC2    C8  708   2.505   0.952   9.627 -0.2820 -0.2512 -0.3897
   45TMC2    O1  709   2.274   1.274   9.951  0.2703 -0.0615  0.0832
   45TMC2    O2  710   2.525   0.836   9.593 -0.7451 -0.4241  0.4677
   45TMC2    O5  711   2.547   1.054   9.555  0.5116  0.5417 -0.2805
   45TMC2    H5  712   2.500   1.139   9.570  1.8701  1.2220  0.1120
   46MPD2     C  713   1.895   0.566   9.698  1.1957  0.6397 -0.4032
   46MPD2    C1  714   1.853   0.697   9.677 -0.0142 -0.1276  0.9637
   46MPD2    C2  715   1.726   0.719   9.635 -0.8040  0.8243  0.4235
   46MPD2    C3  716   1.635   0.618   9.622 -0.5585 -0.3935  0.5020
   46MPD2    C4  717   1.685   0.488   9.626 -0.7117  0.1204 -0.4499
   46MPD2    C5  718   1.814   0.460   9.665 -0.4308  0.1684 -0.0832
   46MPD2     H  719   1.692   0.821   9.618 -0.1245  1.3093  1.9420
   46MPD2    H1  720   1.628   0.402   9.593 -1.5457  1.2934 -2.0979
   46MPD2    H2  721   1.998   0.536   9.718  0.9552  0.9599  1.3662
   46MPD2    H3  722   1.845   0.356   9.663  0.9721  0.5846 -0.1876
   46MPD2     N  723   1.504   0.649   9.588 -0.2765  0.3330 -0.1370
   46MPD2    H5  724   1.483   0.748   9.584  1.4472  0.6203 -1.7078
   46MPD2    N1  725   1.933   0.811   9.706  0.4838 -0.0319 -0.5306
   46MPD2    H7  726   1.908   0.903   9.673  0.1721 -0.3398 -1.1513
   47TMC2    C1  727   4.244   1.340   9.589  0.0038  0.0814 -0.2132
   47TMC2    C2  728   4.267   1.247   9.487 -0.8639  0.3385 -0.1680
   47TMC2    C3  729   4.160   1.208   9.408 -0.3373  0.1370 -0.7954
   47TMC2    C4  730   4.120   1.372   9.633 -1.0777 -0.0524  0.1576
   47TMC2    C5  731   4.016   1.302   9.571 -0.4221 -0.1272  0.2961
   47TMC2    C6  732   4.028   1.234   9.447  0.3522  0.3945  0.4669
   47TMC2     C  733   4.351   1.381   9.680  0.1601  0.2453 -0.5876
   47TMC2     O  734   4.319   1.476   9.753 -0.1428 -0.1935 -0.2835
   47TMC2     H  735   4.367   1.219   9.455  0.1658  1.3107  2.2096
   47TMC2    H1  736   4.105   1.446   9.711  0.0603  0.3485 -0.0115
   47TMC2    H2  737   3.949   1.182   9.394  0.6696 -1.5154  1.8520
   47TMC2    C7  738   3.902   1.267   9.650  0.4943  0.6309  0.6776
   47TMC2    C8  739   4.185   1.112   9.306 -0.2730 -0.1797  0.4165
   47TMC2    O1  740   3.811   1.198   9.607  0.9103  0.1738 -0.2938
   47TMC2    O2  741   4.118   1.094   9.203 -0.3236  0.2595 -0.4106
   47TMC2    O5  742   4.300   1.052   9.334 -0.3417 -0.7724  0.0269
   47TMC2    H5  743   4.337   1.065   9.423  1.7355 -0.4497 -0.8897
   48MPD2     C  744   4.574   1.385   9.877  1.0442 -0.2635 -0.3748
   48MPD2    C1  745   4.547   1.279   9.793 -0.6810  0.8432  0.5234
   48MPD2    C2  746   4.620   1.165   9.817  0.2028  0.9818 -0.0084
   48MPD2    C3  747   4.714   1.159   9.917 -0.7619 -0.0055  0.6586
   48MPD2    C4  748   0.016   1.271   9.994  0.3037 -0.6029  0.3717
   48MPD2    C5  749   4.666   1.378   9.980  0.0707  0.2532 -0.3022
   48MPD2     H  750   4.589   1.073   9.768  0.6921  1.6395 -1.5822
   48MPD2    H1  751   0.084   1.264  10.078 -0.8425 -0.1644  1.3274
   48MPD2    H2  752   4.513   1.473   9.865  1.8322  0.2911 -0.2913
   48MPD2    H3  753   4.679   1.459  10.051  1.4400  0.6366 -0.9920
   48MPD2     N  754   0.044   1.034   9.938 -0.2767  0.1227  0.0785
   48MPD2    H5  755   0.008   0.957   9.882  2.1793  0.4264 -1.9001
   48MPD2    N1  756   4.450   1.284   9.692 -0.3241 -0.5722  0.3267
   48MPD2    H7  757   4.445   1.205   9.628 -1.7560  1.9514 -2.6948
   49TMC2    C1  758   1.962   2.442  10.196  0.4004  0.4548  0.9729
   49TMC2    C2  759   1.881   2.466  10.086  0.1659 -0.2787 -0.3783
   49TMC2    C3  760   1.764   2.388  10.073  0.0464  0.5366  0.5663
   49TMC2    C4  761   1.936   2.343  10.286 -0.0827  0.4027  0.3381
   49TMC2    C5  762   1.824   2.265  10.263  0.7539  0.5355 -0.8365
   49TMC2    C6  763   1.731   2.294  10.166  0.7407  0.3868 -0.6072
   49TMC2     C  764   2.033   2.560  10.239 -0.3581 -0.3094  0.2590
   49TMC2     O  765   2.055   2.642  10.150  1.0951  0.6257 -0.6833
   49TMC2     H  766   1.887   2.557  10.029  1.7379 -0.5947 -0.6989
   49TMC2    H1  767   2.011   2.310  10.358 -1.2154  1.2184  1.8835
   49TMC2    H2  768   1.641   2.236  10.148  1.6682 -0.7501 -1.6149
   49TMC2    C7  769   1.817   2.140  10.327  0.5633 -0.0521  0.3800
   49TMC2    C8  770   1.644   2.437  10.004 -0.6703  0.4840  1.1899
   49TMC2    O1  771   1.773   2.047  10.261  0.0497  0.5966  0.2276
   49TMC2    O2  772   1.540   2.441  10.068 -0.1653  0.1715 -0.3257
   49TMC2    O5  773   1.690   2.528   9.918  0.3895 -0.3513 -0.1899
   49TMC2    H5  774   1.780   2.517   9.883  0.6331 -1.3191  0.7502
   50MPD2     C  775   2.167   2.790  10.377 -0.4726  0.2317  0.1685
   50MPD2    C1  776   2.117   2.680  10.447  0.4133  0.1766 -0.2449
   50MPD2    C2  777   2.109   2.689  10.588 -0.2587 -0.0387  0.6319
   50MPD2    C3  778   2.162   2.798  10.659  0.8786  1.4139  0.1899
   50MPD2    C4  779   2.227   2.892  10.586 -0.3253 -0.6325 -0.8111
   50MPD2    C5  780   2.231   2.890  10.451  0.1087  0.3779 -0.5234
   50MPD2     H  781   2.067   2.606  10.644 -2.7767 -0.0533 -1.2969
   50MPD2    H1  782   2.287   2.965  10.640 -0.8321 -0.1878 -0.8446
   50MPD2    H2  783   2.163   2.794  10.269 -0.4266 -0.3613  0.1482
   50MPD2    H3  784   2.271   2.979  10.403  2.3151  0.4899  1.5916
   50MPD2     N  785   2.152   2.800  10.802  0.4076 -0.1793 -0.0883
   50MPD2    H5  786   2.189   2.886  10.841  0.9701 -0.2143 -0.5444
   50MPD2    N1  787   2.053   2.570  10.377 -0.0007  0.0534  0.2183
   50MPD2    H7  788   2.029   2.500  10.447  0.6485  0.9339  1.3102
   51TMC2    C1  789   2.758   1.851   1.523 -0.5076 -0.3639  0.9396
   51TMC2    C2  790   2.659   1.840   1.612  0.3945  0.1465 -0.1034
   51TMC2    C3  791   2.588   1.956   1.655  0.2142  0.4277 -0.1840
   51TMC2    C4  792   2.786   1.974   1.465 -0.0677  0.5252  0.5745
   51TMC2    C5  793   2.701   2.079   1.499 -0.3603  0.0242  0.1320
   51TMC2    C6  794   2.606   2.076   1.593 -0.0605 -0.3543  0.6744
   51TMC2     C  795   2.847   1.741   1.492 -0.6729  0.6281 -0.4739
   51TMC2     O  796   2.942   1.755   1.418  0.3816 -0.1055 -0.3992
   51TMC2     H  797   2.653   1.750   1.673 -1.8149  0.7107  0.5109
   51TMC2    H1  798   2.869   1.975   1.395  1.1622 -1.2365  2.0236
   51TMC2    H2  799   2.537   2.157   1.619  2.4921  1.8517  0.5560
   51TMC2    C7  800   2.709   2.203   1.422 -0.0679 -0.2512 -0.6722
   51TMC2    C8  801   2.458   1.940   1.720 -0.2818 -0.0213  0.1536
   51TMC2    O1  802   2.677   2.309   1.473  0.3164 -0.3354 -0.2549
   51TMC2    O2  803   2.394   2.034   1.756  1.0993  0.1216 -0.1565
   51TMC2    O5  804   2.412   1.820   1.687  0.6575 -0.4262 -0.0129
   51TMC2    H5  805   2.474   1.757   1.643  0.2381 -1.6212  1.1035
   52MPD2     C  806   2.923   1.220   1.467  0.1656  0.3558  0.6558
   52MPD2    C1  807   3.007   1.322   1.424 -0.0593 -0.9017  0.1395
   52MPD2    C2  808   2.965   1.452   1.434  0.1556 -0.4246  0.3105
   52MPD2    C3  809   2.843   1.490   1.495 -0.3466 -0.3496 -0.3346
   52MPD2    C4  810   2.762   1.384   1.524 -0.3025  0.0515 -0.0270
   52MPD2    C5  811   2.799   1.250   1.510 -1.2340 -0.0334 -0.3620
   52MPD2     H  812   3.045   1.524   1.420  0.5785 -0.6332  1.6134
   52MPD2    H1  813   2.660   1.404   1.556 -0.9715 -0.3239 -1.8933
   52MPD2    H2  814   2.930   1.115   1.440  0.3362  0.1937  1.3464
   52MPD2    H3  815   2.731   1.170   1.537 -0.5462 -0.3088  0.5605
   52MPD2     N  816   2.785   1.623   1.518  0.4586  0.1808 -0.1734
   52MPD2    H5  817   2.689   1.616   1.553  0.2921 -1.8333 -1.0182
   52MPD2    N1  818   3.137   1.298   1.372 -0.6328 -0.2069  0.3376
   52MPD2    H7  819   3.201   1.371   1.343 -0.1613 -0.0471  1.7937
   53TMC2    C1  820   3.135   0.774  11.692  0.4701  0.4937  1.1352
   53TMC2    C2  821   3.267   0.774  11.672 -0.3572  0.3823  0.0662
   53TMC2    C3  822   3.345   0.739  11.781 -0.1976  0.2281  0.2594
   53TMC2    C4  823   3.081   0.740  11.813  0.7355 -0.3899  0.0447
   53TMC2    C5  824   3.158   0.706  11.915  0.1564  0.0609 -0.0420
   53TMC2    C6  825   3.292   0.718  11.906  0.0132  0.0571 -0.1993
   53TMC2     C  826   3.046   0.807  11.583  0.1287 -0.3718  0.0524
   53TMC2     O  827   3.099   0.823  11.475  0.3546  0.2019  0.3570
   53TMC2     H  828   3.315   0.800  11.578  0.4915  0.8179  0.6168
   53TMC2    H1  829   2.975   0.725  11.830  0.7989 -0.2176  0.5915
   53TMC2    H2  830   3.363   0.716  11.988 -0.7402  0.9613  0.4707
   53TMC2    C7  831   3.098   0.685  12.055 -0.3322  0.2781 -0.3763
   53TMC2    C8  832   3.484   0.713  11.746 -0.2176  0.2231  0.6242
   53TMC2    O1  833   2.995   0.745  12.086  0.3573 -0.4823 -0.5293
   53TMC2    O2  834   3.533   0.760  11.645  0.1119  0.5371  0.1471
   53TMC2    O5  835   3.549   0.669  11.857  0.0167  0.2067 -0.1982
   53TMC2    H5  836   3.491   0.635  11.929  2.2720  0.7744  1.8845
   54MPD2     C  837   2.827   0.812  11.384 -0.8203 -0.0273  0.0850
   54MPD2    C1  838   2.804   0.836  11.513  0.2384  0.1169 -0.2899
   54MPD2    C2  839   2.673   0.844  11.572  0.1224 -0.3484 -0.1709
   54MPD2    C3  840   2.566   0.836  11.482  0.7640  1.1142  0.0496
   54MPD2    C4  841   2.597   0.799  11.350 -0.7231 -0.3301  0.4670
   54MPD2    C5  842   2.723   0.783  11.307 -0.0629 -0.3405 -0.0173
   54MPD2     H  843   2.667   0.864  11.678  1.0393  1.3228 -0.4342
   54MPD2    H1  844   2.520   0.800  11.274 -0.9020 -3.0279  0.6151
   54MPD2    H2  845   2.927   0.805  11.342 -1.4287 -0.5983 -1.2897
   54MPD2    H3  846   2.740   0.754  11.204 -1.6212  2.5755 -1.1080
   54MPD2     N  847   2.427   0.847  11.527  0.0662 -0.4777  0.1368
   54MPD2    H5  848   2.358   0.839  11.454  1.3956  0.0459 -1.1869
   54MPD2    N1  849   2.907   0.828  11.608  0.4361 -0.3988  0.3529
   54MPD2    H7  850   2.894   0.851  11.706  3.1632  2.8396 -0.0263
   55TMC2    C1  851   4.117   3.733   0.435 -0.2281 -0.0765 -0.6178
   55TMC2    C2  852   4.200   3.783   0.337  0.1816 -0.0997  0.5060
   55TMC2    C3  853   4.334   3.764   0.355 -0.3329  0.2122 -0.3973
   55TMC2    C4  854   4.162   3.661   0.536  0.9151 -0.5459  0.7514
   55TMC2    C5  855   4.293   3.644   0.552 -0.7259  0.5698  0.3031
   55TMC2    C6  856   4.384   3.706   0.467 -0.3859 -0.0723  0.4552
   55TMC2     C  857   3.990   3.793   0.462  0.2402  0.5886  0.7600
   55TMC2     O  858   3.907   3.731   0.531 -0.1295  0.5219 -0.3712
   55TMC2     H  859   4.162   3.834   0.249 -1.3210 -4.0111 -1.0924
   55TMC2    H1  860   4.085   3.612   0.593 -0.3458 -1.1963 -1.5261
   55TMC2    H2  861   4.491   3.706   0.485 -0.4625  0.6096  0.8943
   55TMC2    C7  862   4.338   3.542   0.649 -0.4530 -0.0277  0.6063
   55TMC2    C8  863   4.421   3.844   0.269  0.3468 -0.0792 -0.4278
   55TMC2    O1  864   4.454   3.507   0.631  0.3407  0.3876 -0.1835
   55TMC2    O2  865   4.512   3.916   0.310  0.0540 -0.4463  1.1575
   55TMC2    O5  866   4.365   3.843   0.147 -0.5648  0.6491  0.1222
   55TMC2    H5  867   4.301   3.771   0.130 -0.3185  0.0421  1.7975
   56MPD2     C  868   3.870   4.130   0.373  0.1005  0.6751  0.3188
   56MPD2    C1  869   3.858   4.001   0.423 -0.2663 -0.3737 -0.9130
   56MPD2    C2  870   3.737   3.956   0.467 -0.7058  0.3898 -0.1501
   56MPD2    C3  871   3.630   4.043   0.474  0.7534  0.0356  0.2882
   56MPD2    C4  872   3.640   4.172   0.423 -0.8336 -0.2608  0.2791
   56MPD2    C5  873   3.765   4.218   0.376 -0.2426  0.6348  0.4094
   56MPD2     H  874   3.726   3.858   0.512  1.7618  0.4378  0.5886
   56MPD2    H1  875   3.558   4.242   0.430  0.4838  1.1865  1.4760
   56MPD2    H2  876   3.960   4.172   0.330 -0.3794 -1.0508 -2.4105
   56MPD2    H3  877   3.768   4.318   0.335 -0.0223  0.8146  0.8648
   56MPD2     N  878   3.514   3.996   0.532  0.4122 -0.7289 -0.3211
   56MPD2    H5  879   3.515   3.901   0.566  0.5238 -0.0600  1.5112
   56MPD2    N1  880   3.977   3.927   0.423 -0.2802  0.0805  0.3362
   56MPD2    H7  881   4.064   3.971   0.395  0.2912 -0.4641  1.2541
   57TMC2    C1  882   2.867   3.414  13.509 -0.1921  0.4580  0.5703
   57TMC2    C2  883   2.809   3.288  13.500  0.5859 -0.1056  0.0466
   57TMC2    C3  884   2.883   3.180  13.532 -0.3535  0.0211  0.7328
   57TMC2    C4  885   2.990   3.430  13.561 -0.0959  0.6803 -0.9174
   57TMC2    C5  886   3.045   3.319  13.617 -0.3288  0.4702 -0.1410
   57TMC2    C6  887   2.999   3.192  13.604  0.1547 -0.1214  0.0460
   57TMC2     C  888   2.776   3.523  13.522 -1.0079 -0.1470  0.2723
   57TMC2     O  889   2.816   3.608  13.601  0.8992  0.2887 -0.5002
   57TMC2     H  890   2.704   3.272  13.480  0.9271  0.7505 -2.3981
   57TMC2    H1  891   3.040   3.524  13.579  0.0324  0.5960 -0.8387
   57TMC2    H2  892   3.041   3.098  13.638 -2.5144 -1.1682  0.4803
   57TMC2    C7  893   3.152   3.341  13.707  0.1379  0.5041 -0.2145
   57TMC2    C8  894   2.808   3.067  13.578  0.1095 -0.1446 -0.2530
   57TMC2    O1  895   3.180   3.453  13.739  0.4645  0.2950  0.1502
   57TMC2    O2  896   2.840   3.017  13.682  0.4070 -0.6670  0.2840
   57TMC2    O5  897   2.713   3.017  13.495  0.1932  0.0916 -0.0376
   57TMC2    H5  898   2.713   3.073  13.414  1.7762 -1.2404 -0.9661
   58MPD2     C  899   2.284   3.629  13.579  0.0571  0.1540  0.1617
   58MPD2    C1  900   2.389   3.659  13.652  0.1196 -0.4089 -0.0885
   58MPD2    C2  901   2.518   3.635  13.600  0.0732 -0.8825  1.2339
   58MPD2    C3  902   2.534   3.557  13.489  0.2456 -0.6576 -0.2014
   58MPD2    C4  903   2.419   3.523  13.416  0.1491 -0.3123  0.2531
   58MPD2    C5  904   2.299   3.564  13.465  0.2687  0.1690  0.0595
   58MPD2     H  905   2.602   3.662  13.663  1.0269 -0.0510 -0.3618
   58MPD2    H1  906   2.425   3.466  13.324 -1.2534 -0.2438  0.1084
   58MPD2    H2  907   2.180   3.649  13.601  0.3620  2.3731 -0.4184
   58MPD2    H3  908   2.209   3.527  13.417  0.6029 -0.3143 -0.2065
   58MPD2     N  909   2.657   3.505  13.455  0.8194 -0.2888 -0.4296
   58MPD2    H5  910   2.652   3.429  13.388 -1.9889 -0.2835 -0.2171
   58MPD2    N1  911   2.378   3.723  13.779  0.2455 -0.4365 -0.0921
   58MPD2    H7  912   2.460   3.737  13.836 -0.4943 -2.5303  1.4654
   59TMC2    C1  913   0.738   4.508  12.896  0.0043  0.0595  0.3046
   59TMC2    C2  914   0.632   4.435  12.941 -0.1367  0.3505  0.1708
   59TMC2    C3  915   0.572   4.341  12.859  0.5007 -0.0786 -0.0877
   59TMC2    C4  916   0.774   4.500  12.764  0.1261  0.1191  0.0137
   59TMC2    C5  917   0.714   4.407  12.687  0.1172 -0.5513 -0.6589
   59TMC2    C6  918   0.609   4.323  12.727  0.0050 -0.3408 -0.5471
   59TMC2     C  919   0.808   4.612  12.975 -0.1170  0.4958 -0.5538
   59TMC2     O  920   0.856   4.700  12.910 -0.2112 -1.0397 -0.4780
   59TMC2     H  921   0.583   4.456  13.036 -0.1429  1.4243 -0.0730
   59TMC2    H1  922   0.844   4.565  12.713 -1.0788  1.0496 -0.4532
   59TMC2    H2  923   0.560   4.252  12.662 -0.5740  0.6492 -1.1886
   59TMC2    C7  924   0.788   4.369  12.570 -0.6105  0.4861 -0.9148
   59TMC2    C8  925   0.468   4.253  12.909 -0.0112  0.5309  0.2619
   59TMC2    O1  926   0.805   4.250  12.548  0.3753 -0.4385  0.4291
   59TMC2    O2  927   0.406   4.173  12.840  0.0914  0.1767 -0.4328
   59TMC2    O5  928   0.486   4.243  13.041 -0.3390  0.9424  0.4555
   59TMC2    H5  929   0.562   4.298  13.071  0.6292  0.0342 -0.3194
   60MPD2     C  930   0.941   0.059  13.162 -0.9261  0.5085 -0.4108
   60MPD2    C1  931   0.919   4.656  13.187  0.3117 -0.6252 -0.3225
   60MPD2    C2  932   0.995   4.586  13.277  0.0926  1.4473 -0.4460
   60MPD2    C3  933   1.090   4.652  13.363  0.3085  0.6102  0.1715
   60MPD2    C4  934   1.109   0.057  13.344 -0.9120 -0.0974 -0.1863
   60MPD2    C5  935   1.040   0.117  13.241  0.0881 -0.1807  0.0221
   60MPD2     H  936   0.967   4.481  13.277  0.7396  1.2640 -2.9388
   60MPD2    H1  937   1.182   0.117  13.398  0.0743 -0.9323 -0.5765
   60MPD2    H2  938   0.910   0.114  13.075 -0.8547  0.1034 -0.6920
   60MPD2    H3  939   1.056   0.223  13.223 -1.8075  0.1538  0.3421
   60MPD2     N  940   1.153   4.588  13.467  0.2849 -0.5721 -0.6807
   60MPD2    H5  941   1.210   4.648  13.526  1.8236 -0.8005 -1.9374
   60MPD2    N1  942   0.840   4.577  13.106 -0.0588 -0.6471  0.2678
   60MPD2    H7  943   0.813   4.484  13.137  0.4472 -0.9522 -0.2100
   61TMC2    C1  944   0.560   0.496  15.457 -0.0918 -0.7273 -0.1999
   61TMC2    C2  945   0.578   0.454  15.591 -0.3199 -0.1386  0.2350
   61TMC2    C3  946   0.469   0.479  15.672 -0.0758 -0.4831  0.3344
   61TMC2    C4  947   0.442   0.529  15.400 -0.4352  0.4175 -0.0120
   61TMC2    C5  948   0.334   0.540  15.485  0.3229  0.3214  0.7239
   61TMC2    C6  949   0.352   0.525  15.620  0.1057 -0.1423 -0.2871
   61TMC2     C  950   0.677   0.530  15.389 -0.2280 -0.0434 -0.1580
   61TMC2     O  951   0.766   0.448  15.385  0.3237  0.0249  0.7890
   61TMC2     H  952   0.676   0.426  15.628 -0.2517 -1.4823 -0.9719
   61TMC2    H1  953   0.438   0.544  15.293 -1.2689 -0.5987 -0.1205
   61TMC2    H2  954   0.266   0.533  15.686 -0.4667  1.7731 -1.2487
   61TMC2    C7  955   0.216   0.614  15.450 -0.0049  0.2188  0.2536
   61TMC2    C8  956   0.489   0.454  15.808  0.1398 -0.5432  0.5927
   61TMC2    O1  957   0.169   0.682  15.541 -0.0374  0.0036 -0.1135
   61TMC2    O2  958   0.575   0.380  15.846  0.3345  0.2926  0.4997
   61TMC2    O5  959   0.468   0.577  15.870  0.2491 -0.0947 -0.5154
   61TMC2    H5  960   0.436   0.647  15.808 -0.0137 -0.6223 -0.9717
   62MPD2     C  961   0.819   0.601  15.141 -0.7132 -0.1075 -0.0141
   62MPD2    C1  962   0.711   0.674  15.189  0.0262 -0.0789 -0.1338
   62MPD2    C2  963   0.670   0.790  15.127 -0.1930 -0.5597 -0.3651
   62MPD2    C3  964   0.740   0.822  15.011  0.2226  0.7152  0.0618
   62MPD2    C4  965   0.850   0.751  14.964  0.2313 -0.8037  0.2673
   62MPD2    C5  966   0.893   0.641  15.032 -0.0315  0.5106 -0.9822
   62MPD2     H  967   0.589   0.841  15.177 -0.2757  0.5178 -1.5684
   62MPD2    H1  968   0.905   0.780  14.875  0.5877  0.2816  0.8447
   62MPD2    H2  969   0.850   0.509  15.189  2.5522  1.3518  0.6476
   62MPD2    H3  970   0.980   0.588  14.996 -1.4843 -1.9430 -0.8764
   62MPD2     N  971   0.686   0.922  14.923 -0.6318 -0.0037  0.1331
   62MPD2    H5  972   0.738   0.938  14.838  1.2867  1.8125  1.6573
   62MPD2    N1  973   0.643   0.635  15.311 -0.0666  0.4410 -0.1783
   62MPD2    H7  974   0.557   0.679  15.342 -0.4488 -0.2837 -0.2234
   63TMC2    C1  975   4.412   1.090  10.492 -0.5960  0.5219  0.3367
   63TMC2    C2  976   4.533   1.064  10.560  0.2732  0.0497 -0.6621
   63TMC2    C3  977   4.602   1.180  10.588 -0.0962  0.2443  0.0277
   63TMC2    C4  978   4.388   1.204  10.423 -0.5265 -0.3117  0.1706
   63TMC2    C5  979   4.483   1.306  10.421  1.0732  0.3603 -0.2984
   63TMC2    C6  980   4.585   1.297  10.513  0.5487  0.3942  0.3451
   63TMC2     C  981   4.317   0.985  10.454  0.1759 -0.2206 -0.1166
   63TMC2     O  982   4.227   1.006  10.373  0.2493  0.2049 -0.2228
   63TMC2     H  983   4.552   0.963  10.596  0.5124 -0.0648 -1.1186
   63TMC2    H1  984   4.295   1.218  10.369  0.6439  0.2496 -1.7087
   63TMC2    H2  985   4.639   1.387  10.540  2.6063 -0.6160 -0.3696
   63TMC2    C7  986   4.433   1.442  10.406  0.0993  0.2392 -0.1143
   63TMC2    C8  987   0.005   1.160  10.638 -0.6327  0.0789  1.1533
   63TMC2    O1  988   4.308   1.453  10.415 -0.0907  0.3431 -0.8808
   63TMC2    O2  989   0.103   1.228  10.603  0.1685 -0.0628 -0.1113
   63TMC2    O5  990   0.022   1.037  10.698  0.2754 -0.5676  0.2268
   63TMC2    H5  991   4.673   1.007  10.741 -0.2877 -1.2176 -1.3246
   64MPD2     C  992   4.159   0.492  10.466  0.5306  0.0873  0.0920
   64MPD2    C1  993   4.273   0.504  10.542  0.1103  0.7202 -0.0245
   64MPD2    C2  994   4.338   0.634  10.549  0.6214 -0.0770 -0.4487
   64MPD2    C3  995   4.278   0.743  10.492 -0.4630  0.0312  0.1857
   64MPD2    C4  996   4.159   0.726  10.425  0.0648  0.2518  0.3321
   64MPD2    C5  997   4.102   0.605  10.412 -0.1408 -0.0357 -0.5857
   64MPD2     H  998   4.443   0.633  10.574  0.3521 -1.4473  0.6485
   64MPD2    H1  999   4.108   0.810  10.378 -0.6172 -1.0427 -1.2284
   64MPD2    H2 1000   4.113   0.396  10.449  1.4770 -0.1070 -1.4329
   64MPD2    H3 1001   4.008   0.604  10.359  0.4967 -3.0212 -1.6381
   64MPD2     N 1002   4.347   0.862  10.512  0.2009 -0.4880  0.4512
   64MPD2    H5 1003   4.405   0.867  10.595  0.4791 -0.4073  0.2554
   64MPD2    N1 1004   4.338   0.392  10.619  0.3843  0.7336 -0.6315
   64MPD2    H7 1005   4.431   0.400  10.659  0.0925  0.4813  0.0987
   65TMC2    C1 1006   0.393   0.934  16.376  0.2502  0.6904 -0.1160
   65TMC2    C2 1007   0.324   0.963  16.489  0.5723 -0.4065 -0.5121
   65TMC2    C3 1008   0.314   1.097  16.521  0.2758 -0.7779  0.9092
   65TMC2    C4 1009   0.433   1.021  16.283  0.4772  0.4238  0.0196
   65TMC2    C5 1010   0.429   1.151  16.321 -0.4283 -0.2304 -0.1784
   65TMC2    C6 1011   0.375   1.189  16.440 -0.8515 -0.4314 -0.4083
   65TMC2     C 1012   0.422   0.794  16.348 -0.2432 -0.1315  0.0116
   65TMC2     O 1013   0.449   0.773  16.229 -0.3161 -0.3705  0.3319
   65TMC2     H 1014   0.280   0.887  16.553 -1.3157  0.4421 -0.7765
   65TMC2    H1 1015   0.463   0.994  16.183  1.5864 -1.4683  0.8580
   65TMC2    H2 1016   0.350   1.291  16.464 -1.3637 -0.1158 -2.2472
   65TMC2    C7 1017   0.488   1.251  16.239 -0.9726  0.2599  0.0499
   65TMC2    C8 1018   0.291   1.127  16.660  0.5508  0.2155  0.4127
   65TMC2    O1 1019   0.502   1.223  16.122 -0.0839 -0.2123  0.7548
   65TMC2    O2 1020   0.217   1.058  16.728  0.0506 -0.1944  0.1679
   65TMC2    O5 1021   0.334   1.248  16.694 -0.5472  0.1110 -0.3362
   65TMC2    H5 1022   0.419   1.266  16.648 -2.1686  2.9142 -2.2437
   66MPD2     C 1023   0.496   0.526  16.593 -0.2921 -0.1087  0.9134
   66MPD2    C1 1024   0.468   0.571  16.469 -0.3410 -0.1272  0.1737
   66MPD2    C2 1025   0.453   0.491  16.361  0.6522 -0.6003  0.5497
   66MPD2    C3 1026   0.468   0.355  16.385  0.3138 -0.3535  0.2669
   66MPD2    C4 1027   0.508   0.308  16.511 -0.5162  0.7827 -0.0603
   66MPD2    C5 1028   0.529   0.396  16.616  0.2757 -0.0515  0.2205
   66MPD2     H 1029   0.429   0.531  16.263  1.2360 -2.1131 -0.2157
   66MPD2    H1 1030   0.529   0.203  16.530 -2.0974  0.7249  1.4044
   66MPD2    H2 1031   0.499   0.589  16.681 -0.1624  0.7800  0.2776
   66MPD2    H3 1032   0.550   0.360  16.716  2.0585  0.3112 -0.0306
   66MPD2     N 1033   0.446   0.252  16.294  0.3543 -0.3781  0.3283
   66MPD2    H5 1034   0.473   0.157  16.315  0.6447 -0.3792 -0.0561
   66MPD2    N1 1035   0.433   0.713  16.461 -0.2382 -0.9654  0.4642
   66MPD2    H7 1036   0.440   0.762  16.549  1.8732  0.4824 -0.5082
   67TMC2    C1 1037   1.067   4.540  14.674 -0.6125  0.4670  0.6401
   67TMC2    C2 1038   1.058   4.650  14.595  0.2263  0.1311  0.0861
   67TMC2    C3 1039   1.065   0.041  14.658  0.3086  0.4805 -0.1614
   67TMC2    C4 1040   1.098   4.541  14.802  0.2442 -0.0620 -0.3597
   67TMC2    C5 1041   1.110   4.665  14.860 -0.1705 -0.5062 -0.0329
   67TMC2    C6 1042   1.090   0.045  14.791  0.2505 -0.3485  0.6070
   67TMC2     C 1043   1.012   4.419  14.617  0.5093 -0.8835  0.2952
   67TMC2     O 1044   0.959   4.428  14.505  0.0244  0.3875 -0.0625
   67TMC2     H 1045   1.017   4.647  14.494  0.5811  0.4991 -0.0654
   67TMC2    H1 1046   1.110   4.449  14.857  0.2608  0.1231 -0.0535
   67TMC2    H2 1047   1.108   0.142  14.838 -0.1587 -0.6330  1.3407
   67TMC2    C7 1048   1.221   4.672  14.948  0.1716 -0.3145  0.2707
   67TMC2    C8 1049   1.022   0.153  14.584  0.1402 -0.2151  0.2528
   67TMC2    O1 1050   1.293   4.573  14.937  0.4998 -0.0545 -0.2458
   67TMC2    O2 1051   0.943   0.147  14.488 -0.3551 -0.1364 -0.4415
   67TMC2    O5 1052   1.065   0.270  14.646  0.3929  0.1080 -0.3051
   67TMC2    H5 1053   1.141   0.255  14.706  0.8506  1.0535 -0.6569
   68MPD2     C 1054   0.953   4.087  14.758 -0.5569  0.2143  0.3174
   68MPD2    C1 1055   0.924   4.195  14.671  0.4587  0.0945 -0.4367
   68MPD2    C2 1056   0.821   4.189  14.579  0.2672  0.1421 -0.1253
   68MPD2    C3 1057   0.746   4.067  14.557 -0.1541 -0.4622 -0.4707
   68MPD2    C4 1058   0.788   3.961  14.634  0.3281  0.3076  0.8072
   68MPD2    C5 1059   0.877   3.972  14.735 -0.2484  0.9565 -0.6638
   68MPD2     H 1060   0.824   4.269  14.505  2.7273  2.6339  2.6341
   68MPD2    H1 1061   0.745   3.864  14.612 -0.4616  1.1903 -1.5081
   68MPD2    H2 1062   1.026   4.091  14.838 -0.6741  1.3014  0.3737
   68MPD2    H3 1063   0.902   3.890  14.802  0.2366  1.9156  0.3397
   68MPD2     N 1064   0.652   4.046  14.452  0.2020  0.0869 -0.3707
   68MPD2    H5 1065   0.612   3.953  14.452 -0.5511  0.4095  2.0299
   68MPD2    N1 1066   0.999   4.311  14.695 -0.0282 -0.1338  0.0154
   68MPD2    H7 1067   1.041   4.311  14.787  0.2761 -0.0823 -0.1229
   69TMC2    C1 1068   2.969   1.039  12.412  0.2860  0.7298  0.6017
   69TMC2    C2 1069   2.862   1.123  12.403 -0.2881 -0.5010  0.2786
   69TMC2    C3 1070   2.839   1.184  12.282 -0.1590 -0.4921  0.8676
   69TMC2    C4 1071   3.057   1.019  12.308 -0.4376 -0.3807  0.8751
   69TMC2    C5 1072   3.007   1.059  12.182 -0.0658  1.0604  0.4996
   69TMC2    C6 1073   2.904   1.149  12.168 -0.4462  0.3212  0.3313
   69TMC2     C 1074   2.987   0.957  12.530  0.4480 -0.0623 -0.0603
   69TMC2     O 1075   2.898   0.954  12.619 -0.7567 -0.0369 -0.3286
   69TMC2     H 1076   2.807   1.142  12.494  0.9900  0.7026  0.7964
   69TMC2    H1 1077   3.142   0.953  12.317  0.3425  0.5863  0.5985
   69TMC2    H2 1078   2.885   1.196  12.072  1.4754  0.4610  0.0181
   69TMC2    C7 1079   3.127   1.084  12.100 -0.7053 -0.3510  0.1094
   69TMC2    C8 1080   2.744   1.287  12.271  0.2017 -0.7541 -0.1784
   69TMC2    O1 1081   3.226   1.118  12.161  0.0051  0.0037  0.2199
   69TMC2    O2 1082   2.736   1.371  12.181  0.8121 -0.2575  0.2206
   69TMC2    O5 1083   2.653   1.267  12.371 -0.7285  0.1837 -0.1032
   69TMC2    H5 1084   2.574   1.323  12.360 -0.8546  0.2444  1.0830
   70MPD2     C 1085   3.288   0.741  12.584  0.6595  0.3547  0.3344
   70MPD2    C1 1086   3.166   0.793  12.619 -0.0798 -0.2465 -0.6388
   70MPD2    C2 1087   3.108   0.762  12.738  0.1537 -0.4457 -0.8365
   70MPD2    C3 1088   3.173   0.684  12.828 -0.2471  0.0484 -0.1242
   70MPD2    C4 1089   3.295   0.635  12.790  0.3020 -0.5239 -0.2003
   70MPD2    C5 1090   3.356   0.669  12.674 -0.2456 -0.0425  0.8368
   70MPD2     H 1091   3.010   0.799  12.769  0.5119 -0.4621  0.3311
   70MPD2    H1 1092   3.355   0.569  12.853 -1.0258 -1.0885  0.4796
   70MPD2    H2 1093   3.322   0.762  12.483 -1.5412 -0.0501 -0.4820
   70MPD2    H3 1094   3.429   0.603  12.630 -0.0310  1.6498 -1.3416
   70MPD2     N 1095   3.116   0.651  12.952  0.3943  0.8261  0.6453
   70MPD2    H5 1096   3.180   0.596  13.009  1.8372  1.5275 -0.2958
   70MPD2    N1 1097   3.112   0.885  12.529 -0.5178 -0.1407 -0.0701
   70MPD2    H7 1098   3.162   0.899  12.442 -1.1728  0.6900 -0.3217
   71TMC2    C1 1099   0.183   1.435   1.718 -0.0628  0.9120 -0.2093
   71TMC2    C2 1100   0.268   1.531   1.770  0.4267 -0.2152 -0.1481
   71TMC2    C3 1101   0.228   1.572   1.887 -0.4051  0.1219  0.9531
   71TMC2    C4 1102   0.077   1.383   1.792 -0.3316  0.2310 -0.6678
   71TMC2    C5 1103   0.033   1.439   1.910 -0.1700 -0.4659  0.9126
   71TMC2    C6 1104   0.119   1.531   1.964  0.2175  0.0169  0.2535
   71TMC2     C 1105   0.201   1.420   1.579  0.0008  0.3721 -0.6768
   71TMC2     O 1106   0.304   1.462   1.525 -0.7985 -0.1654  0.0197
   71TMC2     H 1107   0.361   1.567   1.730  0.8142  0.1015  1.0475
   71TMC2    H1 1108   0.018   1.303   1.750 -0.5037 -0.2042  0.4174
   71TMC2    H2 1109   0.109   1.577   2.062 -2.4395  2.7916 -1.3212
   71TMC2    C7 1110   4.652   1.399   1.985 -0.1680  0.6263  0.3620
   71TMC2    C8 1111   0.308   1.687   1.924 -0.4063 -0.4891  0.1503
   71TMC2    O1 1112   4.652   1.415   2.109 -0.2848  0.1917 -0.4051
   71TMC2    O2 1113   0.344   1.773   1.845  0.0683  0.0446 -0.0368
   71TMC2    O5 1114   0.318   1.696   2.055  0.3410 -0.0862  0.3682
   71TMC2    H5 1115   0.335   1.608   2.096  3.0159  0.6804  0.8551
   72MPD2     C 1116   4.722   1.274   1.123  0.2045  0.0659 -0.7231
   72MPD2    C1 1117   0.110   1.324   1.148 -0.0625  0.6217 -0.3509
   72MPD2    C2 1118   0.144   1.360   1.276  0.2582  0.2198 -0.5584
   72MPD2    C3 1119   0.061   1.332   1.385  0.0628  0.5020  0.0072
   72MPD2    C4 1120   4.675   1.275   1.355 -0.3666  0.0670 -0.8846
   72MPD2    C5 1121   4.637   1.257   1.227 -0.1346  0.0778 -0.3335
   72MPD2     H 1122   0.241   1.402   1.299  0.0377  0.1675  0.4487
   72MPD2    H1 1123   4.607   1.240   1.432  2.2242  1.4735  2.0587
   72MPD2    H2 1124   4.695   1.227   1.030  0.0411 -0.8951 -0.1889
   72MPD2    H3 1125   4.537   1.216   1.212  0.2272 -0.9864  0.1678
   72MPD2     N 1126   0.082   1.363   1.524 -0.4548 -0.4496  0.3497
   72MPD2    H5 1127   0.004   1.345   1.585 -1.6478  0.4444 -0.9059
   72MPD2    N1 1128   0.201   1.345   1.040  0.3449  0.1632 -0.0336
   72MPD2    H7 1129   0.291   1.383   1.066 -0.3505  1.0486  1.1276
   73TMC2    C1 1130   0.077   3.431  14.523  0.1622  0.3813  0.6879
   73TMC2    C2 1131   0.034   3.556  14.561 -0.3568  0.1935 -0.8598
   73TMC2    C3 1132   0.107   3.624  14.649 -0.5747 -0.2418 -0.7453
   73TMC2    C4 1133   0.203   3.388  14.563 -0.2144 -0.2747 -0.1473
   73TMC2    C5 1134   0.273   3.470  14.650 -0.1210 -0.5556 -0.4149
   73TMC2    C6 1135   0.220   3.580  14.712  0.0178  0.3283  0.5550
   73TMC2     C 1136   0.061   3.418  14.377 -0.0098 -0.4900  0.8157
   73TMC2     O 1137   0.170   3.392  14.325 -0.0126 -0.1432 -0.0499
   73TMC2     H 1138   4.668   3.588  14.536  0.1462  1.3465 -1.4048
   73TMC2    H1 1139   0.240   3.290  14.534 -1.2623 -0.8962  0.5852
   73TMC2    H2 1140   0.275   3.643  14.781 -0.4004  0.4402  0.7839
   73TMC2    C7 1141   0.414   3.481  14.601  0.3446  0.0047 -0.7126
   73TMC2    C8 1142   0.050   3.746  14.702  0.5507 -0.1168  0.5809
   73TMC2    O1 1143   0.499   3.536  14.672 -0.0267 -0.6097 -0.7582
   73TMC2    O2 1144   0.073   3.790  14.814 -0.4792 -0.0681  0.1986
   73TMC2    O5 1145   0.041   3.825  14.596 -0.1382  0.1053  0.2150
   73TMC2    H5 1146   0.038   3.775  14.512  1.0577  3.3774 -1.8147
   74MPD2     C 1147   4.658   3.581  13.917  0.5764 -0.2749 -0.2462
   74MPD2    C1 1148   0.034   3.521  13.965  0.2976 -0.0505 -0.2687
   74MPD2    C2 1149   0.044   3.474  14.092  0.3503  0.4437  0.2809
   74MPD2    C3 1150   4.681   3.509  14.185 -0.0767 -0.5812  0.7088
   74MPD2    C4 1151   4.564   3.572  14.139 -1.1313  0.3145 -0.2353
   74MPD2    C5 1152   4.561   3.608  14.010  0.1432  0.5031  0.6400
   74MPD2     H 1153   0.114   3.394  14.113 -0.5366 -0.0751  1.2821
   74MPD2    H1 1154   4.475   3.598  14.195 -0.9651 -0.0641  0.2062
   74MPD2    H2 1155   4.647   3.604  13.811 -1.5282  0.0454  0.0344
   74MPD2    H3 1156   4.477   3.665  13.972 -2.3531 -1.6469  2.9188
   74MPD2     N 1157   4.684   3.472  14.318  0.5351  0.2279 -0.3805
   74MPD2    H5 1158   4.608   3.493  14.382  0.4792 -0.9807 -0.0495
   74MPD2    N1 1159   0.152   3.503  13.884  0.2832  0.2724  0.2571
   74MPD2    H7 1160   0.228   3.454  13.930 -0.0080  0.0311  0.4810
   75TMC2    C1 1161   0.534   4.097  14.250  0.8462 -0.1692  0.1830
   75TMC2    C2 1162   0.458   3.982  14.249 -0.1146  0.6400  0.6760
   75TMC2    C3 1163   0.362   3.965  14.154 -0.2230  0.2833 -0.2108
   75TMC2    C4 1164   0.503   4.195  14.166  0.4827 -0.0909  0.2885
   75TMC2    C5 1165   0.405   4.177  14.070  0.6882  0.0085 -0.9558
   75TMC2    C6 1166   0.333   4.060  14.061  0.2187 -0.2293 -0.0741
   75TMC2     C 1167   0.624   4.136  14.357 -0.0471  0.8167 -0.6268
   75TMC2     O 1168   0.655   4.253  14.354  0.0622 -0.5669 -0.8926
   75TMC2     H 1169   0.476   3.905  14.324 -1.3627  0.6443  0.9829
   75TMC2    H1 1170   0.559   4.287  14.155 -0.1484  0.4903  1.9444
   75TMC2    H2 1171   0.250   4.050  13.992  0.5066  1.2740 -0.6228
   75TMC2    C7 1172   0.402   4.273  13.955 -0.3526  0.1779  0.4060
   75TMC2    C8 1173   0.307   3.838  14.128  0.0344 -0.2579  0.6523
   75TMC2    O1 1174   0.379   4.241  13.836  0.0232  0.2562 -0.1490
   75TMC2    O2 1175   0.189   3.816  14.104  0.2500 -0.3792  0.2541
   75TMC2    O5 1176   0.404   3.748  14.163  0.2816  0.1404 -0.2501
   75TMC2    H5 1177   0.496   3.781  14.178 -1.1733  3.7485  0.7047
   76TMC2    C1 1178   3.495   0.131  12.365 -0.1637  0.1121  0.2618
   76TMC2    C2 1179   3.362   0.108  12.341 -0.2876 -0.0562 -0.3000
   76TMC2    C3 1180   3.302   0.013  12.425 -0.2204  0.4425 -0.0497
   76TMC2    C4 1181   3.563   0.082  12.469 -0.0046  0.2321 -0.3438
   76TMC2    C5 1182   3.502   4.718  12.544  0.8501  0.2247  0.4656
   76TMC2    C6 1183   3.375   4.680  12.519 -0.2843  0.2789  0.1179
   76TMC2     C 1184   3.573   0.221  12.280 -0.5838  1.0984 -0.0700
   76TMC2     O 1185   3.502   0.299  12.217  0.6870  0.2418  0.3787
   76TMC2     H 1186   3.311   0.141  12.252 -2.7543 -1.4517  0.5723
   76TMC2    H1 1187   3.663   0.117  12.489 -0.0826  0.9768 -1.2279
   76TMC2    H2 1188   3.326   4.595  12.566  0.6646 -0.0766  0.4590
   76TMC2    C7 1189   3.569   4.649  12.655 -1.0000 -0.0776  0.8525
   76TMC2    C8 1190   3.182   4.680  12.379 -0.0401 -0.0704  0.2600
   76TMC2    O1 1191   3.495   4.581  12.726 -0.5801  0.4512  0.3862
   76TMC2    O2 1192   3.077   4.662  12.439 -0.1059  0.2109 -0.5800
   76TMC2    O5 1193   3.219   4.620  12.261  0.3141  0.4863  0.2776
   76TMC2    H5 1194   3.311   4.606  12.229  1.1479  0.9120  2.4631
   77MPD2     C 1195   4.003   0.384  12.047  0.6801  0.0162 -0.7087
   77MPD2    C1 1196   3.889   0.458  12.070  0.7448  0.0475 -1.0857
   77MPD2    C2 1197   3.784   0.397  12.142 -0.1048 -0.5653 -0.1687
   77MPD2    C3 1198   3.800   0.272  12.194 -0.0657  0.6107  0.2930
   77MPD2    C4 1199   3.922   0.211  12.184 -0.0209 -0.2576 -0.2385
   77MPD2    C5 1200   4.021   0.265  12.109  0.0381 -0.2229  0.2661
   77MPD2     H 1201   3.691   0.453  12.147  1.4700  1.7338  3.0045
   77MPD2    H1 1202   3.941   0.111  12.221  1.6195  0.8275  1.8327
   77MPD2    H2 1203   4.085   0.426  11.991  1.8946 -0.4016  0.7654
   77MPD2    H3 1204   4.119   0.218  12.109  0.8160  1.3911 -0.7902
   77MPD2     N 1205   3.703   0.197  12.272  0.1504  0.4523  0.1493
   77MPD2    H5 1206   3.725   0.110  12.319  0.6908  0.9471  0.8164
   77MPD2    N1 1207   3.876   0.590  12.024  1.3884  0.0588 -0.4229
   77MPD2    H7 1208   3.789   0.637  12.048  0.8238 -0.8988 -0.5997
   78TMC2    C1 1209   0.301   1.068   1.555  0.4530  0.0117 -0.3621
   78TMC2    C2 1210   0.234   0.974   1.480  0.4006 -0.1263  0.6744
   78TMC2    C3 1211   0.248   0.987   1.342  0.1093 -0.5255 -0.1737
   78TMC2    C4 1212   0.392   1.162   1.506  0.6726 -0.2847 -0.7283
   78TMC2    C5 1213   0.396   1.175   1.366  0.6639  0.6690  0.0054
   78TMC2    C6 1214   0.325   1.086   1.280  0.5479 -0.2452  0.1802
   78TMC2     C 1215   0.277   1.072   1.702 -0.6730 -0.0188 -0.2184
   78TMC2     O 1216   0.364   1.122   1.772  0.2631 -0.3910 -0.0370
   78TMC2     H 1217   0.183   0.888   1.521  2.0401 -1.0804  0.6996
   78TMC2    H1 1218   0.450   1.224   1.574 -1.0035  1.4248 -0.8571
   78TMC2    H2 1219   0.330   1.098   1.173 -0.1111  0.0329  0.1792
   78TMC2    C7 1220   0.482   1.273   1.304  0.5961  0.3867  0.7440
   78TMC2    C8 1221   0.154   0.905   1.263 -0.4497 -0.6300 -0.6803
   78TMC2    O1 1222   0.509   1.276   1.187  0.2723  0.2465  0.0913
   78TMC2    O2 1223   0.142   0.922   1.145  0.0505 -1.2373  0.1830
   78TMC2    O5 1224   0.060   0.843   1.337 -0.2687 -0.4284  0.0472
   78TMC2    H5 1225   0.041   0.872   1.428 -0.8797  1.7432 -0.7791
   79MPD1     C 1226   0.018   1.020   2.140  0.0387  0.1719 -0.5784
   79MPD1    C1 1227   0.114   1.114   2.105  0.2352  0.0034 -0.5236
   79MPD1    C2 1228   0.163   1.122   1.974 -0.4725  0.0317  0.1452
   79MPD1    C3 1229   0.107   1.040   1.873 -0.5822  0.4337 -0.6218
   79MPD1    C4 1230   0.006   0.957   1.905  0.1548 -0.5168  0.0090
   79MPD1    C5 1231   4.695   0.955   2.033  0.0699 -0.1759  0.4676
   79MPD1     H 1232   0.248   1.185   1.950  0.6252 -0.2581  3.1673
   79MPD1    H1 1233   4.688   0.904   1.827  0.7104 -0.8696 -0.1246
   79MPD1    H2 1234   4.709   0.993   2.235  2.5436  1.7422  0.9930
   79MPD1    H3 1235   4.614   0.886   2.054 -0.4445  0.5183  0.7677
   79MPD1     N 1236   0.153   1.038   1.737 -0.6763  0.2261 -0.1181
   79MPD1    H5 1237   0.096   0.984   1.672 -2.1325  1.7351 -0.0963
   79MPD1    N1 1238   0.179   1.170   2.217 -0.1167 -0.5095 -0.4801
   79MPD1    H6 1239   0.220   1.261   2.198 -3.2336  0.4184 -2.6262
   79MPD1    H7 1240   0.107   1.172   2.288  0.1359 -3.7197 -0.1166
   80TMC2    C1 1241   2.675   4.333  12.002  0.6394 -0.2545  0.3665
   80TMC2    C2 1242   2.584   4.325  11.896 -0.5643  0.4159  0.5084
   80TMC2    C3 1243   2.485   4.229  11.897 -0.4385 -0.3678 -0.4386
   80TMC2    C4 1244   2.656   4.268  12.115  0.1919  0.8523  0.3789
   80TMC2    C5 1245   2.554   4.169  12.114 -0.5921  0.0309  0.0775
   80TMC2    C6 1246   2.472   4.145  12.007  0.4938 -0.4346 -0.1916
   80TMC2     C 1247   2.746   4.455  11.992  0.1240 -0.0719  0.5859
   80TMC2     O 1248   2.783   4.488  11.883  0.0162  0.0518 -0.2181
   80TMC2     H 1249   2.601   4.388  11.809 -0.9175  0.6510  0.6095
   80TMC2    H1 1250   2.740   4.260  12.182 -1.1282  0.3623  1.9752
   80TMC2    H2 1251   2.385   4.080  12.015 -0.2247  0.6578  0.8517
   80TMC2    C7 1252   2.543   4.063  12.220  0.0685  0.1070 -0.2831
   80TMC2    C8 1253   2.368   4.242  11.817 -0.5125  0.8074 -1.1010
   80TMC2    O1 1254   2.491   3.959  12.180 -0.2348  0.3039 -0.0139
   80TMC2    O2 1255   2.291   4.149  11.818  0.3661 -0.4262  0.0578
   80TMC2    O5 1256   2.352   4.367  11.776 -0.3836 -0.1800  0.6039
   80TMC2    H5 1257   2.260   4.371  11.740 -0.8183  0.7555  1.7977
   81MPD2     C 1258   2.886   4.709  12.013 -0.0177 -0.3752 -0.0605
   81MPD2    C1 1259   2.826   4.648  12.121  0.9213  0.4497  0.1863
   81MPD2    C2 1260   2.800   4.718  12.235 -0.1083 -0.3821  0.3171
   81MPD2    C3 1261   2.810   0.120  12.234  0.4247 -0.7800  0.8104
   81MPD2    C4 1262   2.889   0.187  12.134  0.2461  0.0540  0.2498
   81MPD2    C5 1263   2.923   0.105  12.029  0.5820  0.2196  0.4325
   81MPD2     H 1264   2.746   4.667  12.314 -0.8748 -1.2881 -0.7898
   81MPD2    H1 1265   2.910   0.293  12.135  0.3671 -0.0339  3.9775
   81MPD2    H2 1266   2.906   4.660  11.918 -3.4439 -1.2027 -0.3617
   81MPD2    H3 1267   2.970   0.150  11.942  0.1188  0.5691  0.3643
   81MPD2     N 1268   2.756   0.191  12.342  0.6122  0.1038  0.2578
   81MPD2    H5 1269   2.712   0.135  12.415  2.2104 -0.4768  0.7729
   81MPD2    N1 1270   2.767   4.522  12.112  0.3610 -0.4314 -0.1336
   81MPD2    H7 1271   2.734   4.482  12.199  0.2632  0.5031  0.2642
   82TMC2    C1 1272   1.947   4.208  11.755  0.1330 -0.6716 -0.2434
   82TMC2    C2 1273   1.993   4.176  11.880  0.2688  0.1177  0.8225
   82TMC2    C3 1274   1.937   4.081  11.956  0.0397  0.6848 -0.5718
   82TMC2    C4 1275   1.835   4.140  11.717 -0.0905  0.2089 -0.1539
   82TMC2    C5 1276   1.775   4.044  11.795  0.0126 -0.0685  0.4556
   82TMC2    C6 1277   1.826   4.015  11.920 -0.0539 -0.4470  0.7176
   82TMC2     C 1278   1.971   4.339  11.702  0.3456  0.5246  1.0751
   82TMC2     O 1279   2.080   4.382  11.676  0.1869  0.5874 -0.0783
   82TMC2     H 1280   2.072   4.239  11.920  2.0150 -1.4954 -0.0623
   82TMC2    H1 1281   1.795   4.166  11.619  2.3078  1.4747 -0.7848
   82TMC2    H2 1282   1.777   3.945  11.986 -1.8922 -0.5268 -0.7404
   82TMC2    C7 1283   1.630   4.017  11.783 -0.2253 -0.2106 -0.2297
   82TMC2    C8 1284   1.989   4.055  12.083  1.1119  0.7167 -0.1302
   82TMC2    O1 1285   1.577   3.993  11.889  0.1699  0.6477  0.4829
   82TMC2    O2 1286   1.968   4.133  12.171  0.0715  0.3567 -0.3661
   82TMC2    O5 1287   2.112   4.013  12.053 -0.4700  0.1640  0.0851
   82TMC2    H5 1288   2.119   3.954  11.975  0.9769 -0.1369  0.4310
   83MPD2     C 1289   1.805   4.723  11.425 -0.0758 -0.2494 -0.8879
   83MPD2    C1 1290   1.692   4.655  11.459  0.5916 -0.3427 -0.3539
   83MPD2    C2 1291   1.711   4.547  11.540 -0.7664 -0.3963  0.4673
   83MPD2    C3 1292   1.835   4.511  11.577 -0.6759  0.5064  0.5959
   83MPD2    C4 1293   1.948   4.578  11.533  0.4270  0.5079 -0.2299
   83MPD2    C5 1294   1.932   4.682  11.457 -0.3691  0.1675  0.4161
   83MPD2     H 1295   1.626   4.503  11.592 -0.1141 -1.8933  0.2609
   83MPD2    H1 1296   2.053   4.551  11.544  0.2994 -0.2738 -0.8918
   83MPD2    H2 1297   1.802   0.068  11.352  1.2998  0.5409 -0.0864
   83MPD2    H3 1298   2.022   4.726  11.418  0.0475  0.6983  1.9488
   83MPD2     N 1299   1.851   4.401  11.667  0.0484  0.4325 -0.1225
   83MPD2    H5 1300   1.768   4.353  11.701  0.7255 -0.3987  0.3307
   83MPD2    N1 1301   1.566   4.695  11.400 -0.5849  0.0279 -0.1192
   83MPD2    H7 1302   1.560   0.049  11.350  1.1812 -1.7018 -3.3267
   84TMC2    C1 1303   1.998   3.014  11.104  0.5782 -0.3319 -0.3498
   84TMC2    C2 1304   1.887   2.975  11.164  0.3864  0.5607 -0.6932
   84TMC2    C3 1305   1.829   2.857  11.120  0.2025 -0.5295  0.1707
   84TMC2    C4 1306   2.066   2.927  11.027 -0.4478 -0.4927  0.3867
   84TMC2    C5 1307   2.012   2.807  10.996 -0.0652 -0.1648 -0.2763
   84TMC2    C6 1308   1.887   2.772  11.031  0.4614 -0.6931  0.5755
   84TMC2     C 1309   2.060   3.140  11.157  0.6206  0.6177  0.3585
   84TMC2     O 1310   2.003   3.205  11.243 -0.4106 -0.2064  0.0204
   84TMC2     H 1311   1.843   3.040  11.239 -0.4367  0.6745 -1.2745
   84TMC2    H1 1312   2.170   2.941  10.997 -1.1409  0.3946 -1.5916
   84TMC2    H2 1313   1.843   2.674  11.019 -0.6438 -0.1967  0.5720
   84TMC2    C7 1314   2.060   2.733  10.879 -0.1735 -0.0917 -0.1200
   84TMC2    C8 1315   1.690   2.837  11.137 -0.4953  0.5000  0.2048
   84TMC2    O1 1316   1.983   2.643  10.853 -0.2592 -0.4008 -0.5089
   84TMC2    O2 1317   1.645   2.726  11.146  0.0121 -0.1339  0.6432
   84TMC2    O5 1318   1.629   2.959  11.143  0.5675 -0.0944 -0.1157
   84TMC2    H5 1319   1.684   3.028  11.100 -0.1619  0.3702 -0.3058
   85TMC2    C1 1320   3.208   1.907  16.133 -0.1515 -0.1677  0.3559
   85TMC2    C2 1321   3.112   1.884  16.039 -0.3980 -0.0298 -0.5283
   85TMC2    C3 1322   3.098   1.965  15.933  0.3571 -0.5125 -0.1687
   85TMC2    C4 1323   3.272   2.031  16.142  0.4142 -0.5381 -0.3662
   85TMC2    C5 1324   3.249   2.114  16.036  0.2542 -0.4665  0.1148
   85TMC2    C6 1325   3.157   2.088  15.928  0.1765 -0.2006 -0.3255
   85TMC2     C 1326   3.201   1.825  16.250 -0.8876 -0.6457  0.6301
   85TMC2     O 1327   3.228   1.878  16.358  0.4962  0.0091  0.4091
   85TMC2     H 1328   3.060   1.791  16.021  0.4512 -0.7311  0.7052
   85TMC2    H1 1329   3.356   2.045  16.210 -1.5222 -0.9066  2.1079
   85TMC2    H2 1330   3.141   2.156  15.845 -1.5762 -2.0130 -1.4886
   85TMC2    C7 1331   3.302   2.247  16.060 -0.1772 -0.2011 -0.0381
   85TMC2    C8 1332   3.011   1.920  15.824 -0.5134 -0.3806  0.0515
   85TMC2    O1 1333   3.408   2.257  16.126 -0.1918  0.6770  0.0993
   85TMC2    O2 1334   2.984   1.800  15.798 -0.0411  0.4730 -0.1078
   85TMC2    O5 1335   2.945   2.031  15.785  0.4862 -0.3438 -0.2740
   85TMC2    H5 1336   2.966   2.114  15.831  0.3785 -0.2615 -0.3751
   86MPD2     C 1337   3.066   1.428  16.526  0.6433  0.4913  0.0484
   86MPD2    C1 1338   3.004   1.415  16.399  0.2951 -0.1755  0.4074
   86MPD2    C2 1339   3.038   1.506  16.300  0.3498  0.2059  0.0728
   86MPD2    C3 1340   3.120   1.612  16.329 -0.7685  0.1026 -0.1957
   86MPD2    C4 1341   3.171   1.619  16.460  0.6166 -0.0670  0.3993
   86MPD2    C5 1342   3.137   1.533  16.555 -0.3192 -0.0418  0.1119
   86MPD2     H 1343   2.999   1.480  16.202  0.7695  1.2264 -0.3700
   86MPD2    H1 1344   3.231   1.705  16.487  1.9801  0.3501 -3.9398
   86MPD2    H2 1345   3.057   1.351  16.602  0.9640 -0.9678 -1.3809
   86MPD2    H3 1346   3.173   1.541  16.657  3.1275  0.2668 -1.1363
   86MPD2     N 1347   3.150   1.705  16.229  0.0880  0.2882 -0.2109
   86MPD2    H5 1348   3.119   1.679  16.135  0.1653  0.4609 -0.2848
   86MPD2    N1 1349   2.927   1.304  16.366 -0.0774  0.1966  0.4536
   86MPD2    H7 1350   2.907   1.281  16.270 -2.5141  1.8525  0.5573
   87TMC2    C1 1351   1.192   4.506   0.827  0.3756 -0.4937 -0.4141
   87TMC2    C2 1352   1.275   4.589   0.903 -0.5122 -0.7663 -0.6411
   87TMC2    C3 1353   1.202   4.685   0.981  0.1650  0.5389  0.1483
   87TMC2    C4 1354   1.057   4.516   0.816 -0.5120  0.2298 -0.1454
   87TMC2    C5 1355   0.995   4.617   0.882  0.0420  0.4676 -0.5681
   87TMC2    C6 1356   1.068   4.700   0.965  0.7977 -0.1712 -0.7725
   87TMC2     C 1357   1.259   4.447   0.716  0.6153  0.3002 -0.5537
   87TMC2     O 1358   1.334   4.515   0.649 -0.2973  0.7145 -0.1405
   87TMC2     H 1359   1.381   4.568   0.914 -0.9123 -2.1713  0.5558
   87TMC2    H1 1360   1.006   4.473   0.730  0.8045 -0.3806 -0.6313
   87TMC2    H2 1361   1.016   0.049   1.013 -1.0072 -2.1540  0.6981
   87TMC2    C7 1362   0.852   4.645   0.869  0.0296  0.4302  0.1245
   87TMC2    C8 1363   1.288   0.034   1.068  0.1209 -0.7148  0.1343
   87TMC2    O1 1364   0.816   0.026   0.884  0.3726  0.1446 -0.2838
   87TMC2    O2 1365   1.404   0.057   1.032 -0.3950  0.2652 -0.2684
   87TMC2    O5 1366   1.205   0.123   1.122  0.2554  0.0750 -0.3928
   87TMC2    H5 1367   1.128   0.079   1.164 -0.4059 -1.0050 -2.7933
   88MPD2     C 1368   0.583   4.429   0.772 -0.5272  0.1815 -0.0210
   88MPD2    C1 1369   0.636   4.548   0.808  1.2002 -0.2738  0.6684
   88MPD2    C2 1370   0.551   4.655   0.825 -0.3492 -0.0867  0.0036
   88MPD2    C3 1371   0.416   4.649   0.811  0.4456 -0.7723  0.2925
   88MPD2    C4 1372   0.363   4.531   0.778 -0.1290 -0.4342  0.3741
   88MPD2    C5 1373   0.444   4.418   0.756  0.1420  0.2780 -0.2559
   88MPD2     H 1374   0.592   0.017   0.853  0.9552 -0.2470 -1.3469
   88MPD2    H1 1375   0.255   4.516   0.779 -0.2389  0.1112 -1.8598
   88MPD2    H2 1376   0.639   4.337   0.758 -0.5338  0.3715 -1.2377
   88MPD2    H3 1377   0.388   4.329   0.732 -0.0297 -0.1614  1.7540
   88MPD2     N 1378   0.325   0.022   0.841 -0.5230  0.5041 -0.2293
   88MPD2    H5 1379   0.226   0.017   0.817 -1.1161 -0.3387  2.4709
   88MPD2    N1 1380   0.779   4.545   0.824  0.0296 -0.1116 -0.3930
   88MPD2    H7 1381   0.825   4.462   0.790 -0.5391  0.2937 -2.1554
   89TMC2    C1 1382   1.010   3.780   1.486  0.4377  0.3862 -0.0715
   89TMC2    C2 1383   1.018   3.909   1.463  0.3590  0.2007 -0.1340
   89TMC2    C3 1384   1.118   3.959   1.381 -0.1710  0.5351  0.4007
   89TMC2    C4 1385   1.105   3.688   1.445  0.5136 -0.0493 -0.1429
   89TMC2    C5 1386   1.197   3.735   1.352  0.8829  0.2751  0.4224
   89TMC2    C6 1387   1.202   3.866   1.321  0.2358 -0.3581  0.6952
   89TMC2     C 1388   0.879   3.742   1.537 -0.3095  0.1113  0.8144
   89TMC2     O 1389   0.791   3.826   1.547 -0.5383 -0.1860 -0.1594
   89TMC2     H 1390   0.948   3.977   1.511  0.1469  0.4450 -0.7785
   89TMC2    H1 1391   1.094   3.580   1.444 -1.3157  0.1202  0.0156
   89TMC2    H2 1392   1.251   3.904   1.232 -1.4924 -0.6467 -0.3828
   89TMC2    C7 1393   1.280   3.642   1.294 -0.2168  0.4949 -0.4219
   89TMC2    C8 1394   1.094   4.077   1.305  0.3795 -0.6679 -0.1773
   89TMC2    O1 1395   1.258   3.525   1.309  0.1011  0.2583  0.2925
   89TMC2    O2 1396   1.102   4.088   1.184 -0.2689  0.7797  0.2523
   89TMC2    O5 1397   1.084   4.186   1.390 -0.4195  0.2603  0.3046
   89TMC2    H5 1398   1.081   4.160   1.485  1.0707  0.2547  0.3445
   90MPD2     C 1399   0.523   3.384   1.641 -1.0554  0.6453 -0.4358
   90MPD2    C1 1400   0.642   3.325   1.615  0.2179 -0.0638 -0.6822
   90MPD2    C2 1401   0.750   3.407   1.587  0.1192 -0.2116 -0.4894
   90MPD2    C3 1402   0.747   3.545   1.581 -0.0518 -0.1113 -0.1593
   90MPD2    C4 1403   0.621   3.604   1.594 -0.2479  0.1248  0.2516
   90MPD2    C5 1404   0.510   3.520   1.627  0.4957  0.7500 -0.4583
   90MPD2     H 1405   0.845   3.355   1.586  1.8615  2.9539  0.0869
   90MPD2    H1 1406   0.604   3.710   1.576 -1.5529  0.0626  1.0776
   90MPD2    H2 1407   0.428   3.336   1.664 -1.2048  1.3677  0.4466
   90MPD2    H3 1408   0.415   3.557   1.661  0.8347  0.4757  0.8079
   90MPD2     N 1409   0.869   3.605   1.555  0.0345 -0.6584  0.4000
   90MPD2    H5 1410   0.954   3.553   1.536  0.0263 -0.3165 -0.5771
   90MPD2    N1 1411   0.665   3.185   1.628  1.2684 -0.3003  0.3569
   90MPD2    H7 1412   0.757   3.152   1.600  0.0214 -1.5045 -2.3003
   91TMC2    C1 1413   3.006   2.588  16.388  0.1867 -0.1967 -0.0607
   91TMC2    C2 1414   3.047   2.615  16.518 -0.5329 -0.4183 -0.1875
   91TMC2    C3 1415   2.974   2.566  16.622  1.4038  1.0725  0.5394
   91TMC2    C4 1416   2.901   2.515  16.361  0.5500  0.4569 -0.4046
   91TMC2    C5 1417   2.831   2.464  16.468  0.7118 -0.2238 -0.0115
   91TMC2    C6 1418   2.862   2.489  16.599  1.0671  0.3238 -0.4701
   91TMC2     C 1419   3.064   2.648  16.278 -0.1980 -0.3341  0.4300
   91TMC2     O 1420   2.998   2.701  16.191  0.3246  0.0231 -0.0982
   91TMC2     H 1421   3.123   2.689  16.538 -1.4978  0.2999  0.8646
   91TMC2    H1 1422   2.896   2.483  16.258  0.9821  0.1590 -0.3328
   91TMC2    H2 1423   2.811   2.442  16.683  0.4547  3.0815  0.7080
   91TMC2    C7 1424   2.737   2.362  16.438 -0.2993 -0.5843 -0.0198
   91TMC2    C8 1425   3.000   2.614  16.748 -0.8541 -1.2975  0.3086
   91TMC2    O1 1426   2.714   2.285  16.525 -0.8640  0.2267 -0.2810
   91TMC2    O2 1427   2.917   2.602  16.835 -0.2483  0.4103  0.7407
   91TMC2    O5 1428   3.129   2.642  16.773  0.3887  0.4048 -0.2566
   91TMC2    H5 1429   3.196   2.628  16.703  0.0877 -2.0425 -0.0656
   92MPD2     C 1430   3.229   2.858  16.138  0.3759 -0.0061  0.2499
   92MPD2    C1 1431   3.274   2.770  16.237 -0.2943 -0.0209 -0.6026
   92MPD2    C2 1432   3.410   2.772  16.262 -0.3739  0.1661 -0.3932
   92MPD2    C3 1433   3.498   2.863  16.219  0.1558  0.1965 -0.1991
   92MPD2    C4 1434   3.449   2.958  16.139  0.2622  0.0933 -0.1113
   92MPD2    C5 1435   3.322   2.950  16.095 -0.2568 -0.4567  0.0927
   92MPD2     H 1436   3.457   2.706  16.333 -1.6253  0.2987  0.5481
   92MPD2    H1 1437   3.516   3.033  16.098 -2.1061  2.1405 -0.2649
   92MPD2    H2 1438   3.125   2.872  16.111  0.3295  1.1510  1.0299
   92MPD2    H3 1439   3.308   3.016  16.010 -1.6606  1.1811  1.6032
   92MPD2     N 1440   3.636   2.861  16.258  0.4158  0.0897  0.0858
   92MPD2    H5 1441   3.672   2.771  16.287  2.0828  0.1713 -1.7158
   92MPD2    N1 1442   3.197   2.671  16.303 -0.1010 -0.3820  0.4346
   92MPD2    H7 1443   3.236   2.611  16.376 -1.0212 -0.1895  1.0877
   93TMC2    C1 1444   0.236   2.775  14.260  0.0234 -0.0964 -0.2940
   93TMC2    C2 1445   0.215   2.748  14.391 -0.4193 -0.4123  0.4322
   93TMC2    C3 1446   0.317   2.710  14.467  0.2288 -0.1861  0.8082
   93TMC2    C4 1447   0.365   2.788  14.213 -0.4752 -0.4603  0.2006
   93TMC2    C5 1448   0.467   2.758  14.300 -0.3581 -0.7116  0.3009
   93TMC2    C6 1449   0.447   2.705  14.424 -0.4993  0.4712  0.3476
   93TMC2     C 1450   0.127   2.757  14.158  0.3175  0.8782 -0.2807
   93TMC2     O 1451   0.159   2.789  14.046  0.3728  0.1698 -0.6279
   93TMC2     H 1452   0.113   2.752  14.429 -0.1889 -0.3599  1.0513
   93TMC2    H1 1453   0.389   2.827  14.115  1.4729 -0.0835  0.8294
   93TMC2    H2 1454   0.529   2.686  14.493 -0.2973 -0.5040 -0.1500
   93TMC2    C7 1455   0.603   2.771  14.264 -0.0701  0.1304 -0.4547
   93TMC2    C8 1456   0.307   2.701  14.612  0.1244  0.4109  1.0104
   93TMC2    O1 1457   0.674   2.674  14.298  0.0615  0.3190 -0.0189
   93TMC2    O2 1458   0.411   2.682  14.675 -0.0128  0.0006  0.3362
   93TMC2    O5 1459   0.178   2.682  14.660 -0.0883  0.2969 -0.6497
   93TMC2    H5 1460   0.104   2.684  14.596  0.4379 -0.1445 -1.2795
   94MPD2     C 1461   4.646   2.620  13.996  0.3086  0.5083  0.2494
   94MPD2    C1 1462   4.631   2.648  14.131 -0.4886  0.3093 -0.3172
   94MPD2    C2 1463   4.516   2.622  14.200  0.0256 -0.3798 -0.0342
   94MPD2    C3 1464   4.412   2.557  14.129 -0.1663  0.4149  0.5695
   94MPD2    C4 1465   4.422   2.533  13.992 -0.0854 -0.3618 -0.0104
   94MPD2    C5 1466   4.538   2.565  13.927 -0.9253 -0.0580 -0.0795
   94MPD2     H 1467   4.505   2.646  14.305  0.5122 -0.0750 -0.0520
   94MPD2    H1 1468   4.339   2.483  13.944 -0.7858 -0.4931  1.3141
   94MPD2    H2 1469   0.005   2.636  13.944  1.1570  0.1923  1.6733
   94MPD2    H3 1470   4.547   2.548  13.820  0.0576 -0.9788  0.1366
   94MPD2     N 1471   4.285   2.537  14.185 -1.0668  0.5395 -0.3322
   94MPD2    H5 1472   4.215   2.500  14.121  0.1951 -4.0523  0.9308
   94MPD2    N1 1473   0.007   2.691  14.208 -0.0571  0.4570 -0.2928
   94MPD2    H7 1474   4.725   2.670  14.306  0.0261 -3.1204 -1.0359
   95TMC2    C1 1475   0.261   4.041  16.530  0.6712 -0.3525 -0.0440
   95TMC2    C2 1476   0.285   3.906  16.533 -0.0534  0.6765  0.0915
   95TMC2    C3 1477   0.258   3.837  16.645 -0.0356 -0.1916  0.2238
   95TMC2    C4 1478   0.205   4.104  16.636 -0.4049  0.6448 -0.5238
   95TMC2    C5 1479   0.189   4.034  16.753  0.2757  0.2854 -0.2601
   95TMC2    C6 1480   0.215   3.900  16.761 -0.2498  0.2778  0.1344
   95TMC2     C 1481   0.287   4.115  16.409 -0.0866 -0.0421 -0.4226
   95TMC2     O 1482   0.248   4.229  16.404  0.8009 -0.8020 -0.2343
   95TMC2     H 1483   0.320   3.844  16.451 -2.0418 -2.1678  1.3926
   95TMC2    H1 1484   0.203   4.212  16.626  0.3327  0.6264 -0.8691
   95TMC2    H2 1485   0.219   3.847  16.856  0.9775  2.4831  1.2978
   95TMC2    C7 1486   0.162   4.105  16.874 -0.6184 -0.7391  0.0309
   95TMC2    C8 1487   0.291   3.695  16.635 -0.7100 -0.7785 -0.2037
   95TMC2    O1 1488   0.171   4.037  16.978 -0.6306  0.3808 -0.2372
   95TMC2    O2 1489   0.342   3.636  16.541 -0.4368 -0.6529  0.3273
   95TMC2    O5 1490   0.238   3.639  16.745 -0.6455  0.5602  0.5924
   95TMC2    H5 1491   0.277   3.549  16.744 -1.9665  0.0229 -1.9728
   96MPD2     C 1492   0.526   4.218  15.968  1.3411  0.1186 -0.2105
   96MPD2    C1 1493   0.446   4.298  16.051  0.1241 -0.5712  0.2885
   96MPD2    C2 1494   0.401   4.242  16.168  0.1654  0.1875 -0.2165
   96MPD2    C3 1495   0.446   4.120  16.212  0.3997 -0.7695  0.3174
   96MPD2    C4 1496   0.545   4.056  16.140  0.1506  0.4566 -0.3455
   96MPD2    C5 1497   0.580   4.103  16.016 -0.2921  0.2917  0.6488
   96MPD2     H 1498   0.315   4.290  16.213  1.0284  1.9838 -0.4829
   96MPD2    H1 1499   0.594   3.969  16.184 -1.9665 -0.6459 -0.1985
   96MPD2    H2 1500   0.562   4.252  15.871  0.5808 -0.2519 -0.6255
   96MPD2    H3 1501   0.658   4.062  15.953 -0.5598  0.8858 -0.0648
   96MPD2     N 1502   0.392   4.057  16.331 -0.1312  0.0849 -0.1802
   96MPD2    H5 1503   0.424   3.965  16.360 -0.0332 -0.0158 -0.6107
   96MPD2    N1 1504   0.420   4.435  16.030  0.1358  0.6317  0.1110
   96MPD2    H7 1505   0.460   4.481  15.950 -0.6558  3.7811  1.5165
   97TMC2    C1 1506   3.126   1.725   0.267 -0.0332 -0.4640  0.2646
   97TMC2    C2 1507   3.195   1.686   0.161  0.7477  0.3458 -0.3350
   97TMC2    C3 1508   3.306   1.753   0.125 -0.0586 -0.6549 -0.6632
   97TMC2    C4 1509   3.165   1.839   0.341  0.4349 -0.8120  0.4534
   97TMC2    C5 1510   3.275   1.896   0.296  0.4085 -1.1744 -0.3890
   97TMC2    C6 1511   3.353   1.859   0.194 -0.4483  0.0435 -0.0251
   97TMC2     C 1512   3.014   1.659   0.327 -0.8676 -0.5730  0.2543
   97TMC2     O 1513   2.997   1.695   0.442  0.2841  0.4178  0.0563
   97TMC2     H 1514   3.159   1.605   0.100  1.6696  0.6041 -1.2193
   97TMC2    H1 1515   3.108   1.896   0.414  0.3282 -0.1725 -0.1348
   97TMC2    H2 1516   3.431   1.924   0.157 -0.1469 -0.5244 -0.3978
   97TMC2    C7 1517   3.338   2.002   0.372 -0.0900  0.3040 -0.0350
   97TMC2    C8 1518   3.377   1.683   0.019 -0.5120 -0.1712  0.4365
   97TMC2    O1 1519   3.396   2.094   0.316 -0.4673  0.1885  0.7059
   97TMC2    O2 1520   3.325   1.598  17.682  0.4717  0.2270 -0.0256
   97TMC2    O5 1521   3.510   1.733   0.001 -0.3293 -0.5890  0.2291
   97TMC2    H5 1522   3.538   1.806   0.060  0.4745 -0.0097 -0.8734
   98MPD2     C 1523   2.660   1.301   0.352 -0.1514  0.0640  0.2440
   98MPD2    C1 1524   2.683   1.404   0.437 -0.0801  0.4447  0.4040
   98MPD2    C2 1525   2.795   1.484   0.408  0.7476 -0.3032 -0.4776
   98MPD2    C3 1526   2.861   1.465   0.288 -0.4132  0.8872  0.1154
   98MPD2    C4 1527   2.828   1.365   0.208 -0.3510 -0.0827 -0.1804
   98MPD2    C5 1528   2.730   1.282   0.240  0.3748  0.3100  0.0731
   98MPD2     H 1529   2.825   1.558   0.481 -0.5350 -0.4654  0.2192
   98MPD2    H1 1530   2.867   1.345   0.108  0.4487 -2.7859  0.6703
   98MPD2    H2 1531   2.588   1.229   0.388 -0.8301  0.4283 -0.3764
   98MPD2    H3 1532   2.708   1.196   0.177 -0.6782  0.2638  0.4916
   98MPD2     N 1533   2.969   1.554   0.252 -0.5457  0.1582 -0.1793
   98MPD2    H5 1534   3.010   1.534   0.162 -1.2719 -1.2591 -0.1984
   98MPD2    N1 1535   2.611   1.411   0.559 -0.4462 -0.2455  0.4102
   98MPD2    H7 1536   2.531   1.349   0.570 -1.9251  1.3645 -1.2028
   99TMC2    C1 1537   1.436   4.589   1.370  0.0489 -0.6141 -0.6199
   99TMC2    C2 1538   1.513   4.694   1.414  0.2846  0.5272 -0.5551
   99TMC2    C3 1539   1.448   0.043   1.505 -0.0342 -0.3429  0.3908
   99TMC2    C4 1540   1.317   4.558   1.436 -0.0872 -0.0404 -0.2148
   99TMC2    C5 1541   1.265   4.643   1.534  1.0545 -0.3280 -0.2706
   99TMC2    C6 1542   1.330   0.020   1.570 -0.3590  0.4750 -0.1958
   99TMC2     C 1543   1.500   4.487   1.282 -0.5606 -0.2715  0.5932
   99TMC2     O 1544   1.619   4.513   1.261 -0.7498 -0.2019 -0.0484
   99TMC2     H 1545   1.605   4.722   1.364 -0.9045  1.7405 -2.0197
   99TMC2    H1 1546   1.272   4.459   1.427 -0.1518  0.0260 -0.6575
   99TMC2    H2 1547   1.288   0.081   1.650  1.0719  2.4038 -0.9020
   99TMC2    C7 1548   1.158   4.596   1.620  0.4328 -0.2954  0.2298
   99TMC2    C8 1549   1.523   0.164   1.541 -0.0160 -0.0959 -0.3358
   99TMC2    O1 1550   1.158   4.652   1.731  0.0383 -0.0995 -0.1016
   99TMC2    O2 1551   1.459   0.262   1.579 -0.4408  0.2579  0.3461
   99TMC2    O5 1552   1.634   0.116   1.594 -0.4418 -0.5991  0.1587
   99TMC2    H5 1553   1.660   0.024   1.573 -0.2508 -0.2614 -1.0778
  100MPD2     C 1554   1.587   4.304   1.062  0.3006 -0.2593 -0.0870
  100MPD2    C1 1555   1.452   4.324   1.096 -0.1187 -0.3252 -0.1975
  100MPD2    C2 1556   1.355   4.241   1.041  0.0049  0.1986  0.0136
  100MPD2    C3 1557   1.385   4.135   0.962  0.2362  0.1196  0.1418
  100MPD2    C4 1558   1.512   4.124   0.922  0.4514  0.1280  0.1552
  100MPD2    C5 1559   1.608   4.218   0.957 -0.2064 -0.1722 -0.5295
  100MPD2     H 1560   1.254   4.244   1.079  0.8031  2.7517  1.9292
  100MPD2    H1 1561   1.544   4.042   0.859  0.4886  0.9170 -0.8569
  100MPD2    H2 1562   1.676   4.355   1.096  0.3355  1.0238 -2.1535
  100MPD2    H3 1563   1.707   4.214   0.913  0.3175  2.3929  0.3812
  100MPD2     N 1564   1.283   4.040   0.935 -0.0508 -0.0764 -0.0615
  100MPD2    H5 1565   1.194   4.047   0.983 -1.1563 -0.0639 -2.1054
  100MPD2    N1 1566   1.414   4.409   1.205  0.2880 -0.2112 -0.1862
  100MPD2    H7 1567   1.316   4.414   1.231  0.7773  4.2974  0.8898
  101TMC2    C1 1568   2.162   0.096  13.594 -0.3249 -0.6853 -0.1853
  101TMC2    C2 1569   2.275   0.058  13.661  0.3647 -0.4057 -0.2442
  101TMC2    C3 1570   2.379   0.144  13.664 -0.0525 -0.0933  0.2243
  101TMC2    C4 1571   2.150   0.209  13.516  0.5995 -0.0888  0.3502
  101TMC2    C5 1572   2.268   0.286  13.505 -0.1266 -0.0069 -0.5456
  101TMC2    C6 1573   2.377   0.255  13.583 -0.1225 -0.3965 -0.0675
  101TMC2     C 1574   2.046   0.012  13.605 -0.1102 -0.1383 -0.5655
  101TMC2     O 1575   1.935   0.065  13.602 -0.3808  0.2729 -0.3149
  101TMC2     H 1576   2.277   4.704  13.723  0.3180  1.2436  2.0881
  101TMC2    H1 1577   2.067   0.210  13.447  1.5577  1.1521 -0.7786
  101TMC2    H2 1578   2.461   0.323  13.594  0.1242 -0.5796 -0.8414
  101TMC2    C7 1579   2.287   0.391  13.408 -1.1937  0.3526  0.4187
  101TMC2    C8 1580   2.492   0.124  13.757  0.3459  0.7156  0.0711
  101TMC2    O1 1581   2.390   0.453  13.414 -0.7750 -0.3326  0.3244
  101TMC2    O2 1582   2.599   0.119  13.703 -0.2640  0.0891  0.1921
  101TMC2    O5 1583   2.452   0.047  13.862 -0.1892  0.2622  0.2794
  101TMC2    H5 1584   2.369   0.073  13.906 -0.7483  0.2802 -0.7978
  102MPD2     C 1585   2.063   4.397  13.501  0.1468 -0.0098  0.2221
  102MPD2    C1 1586   2.005   4.510  13.560 -0.1186  0.1967 -0.3202
  102MPD2    C2 1587   1.871   4.508  13.595 -0.2415 -0.4399 -0.5603
  102MPD2    C3 1588   1.799   4.391  13.587  0.0715 -1.2747 -0.8058
  102MPD2    C4 1589   1.864   4.272  13.541 -0.3321 -0.4735 -0.5431
  102MPD2    C5 1590   1.994   4.283  13.502  0.5775  0.4130  0.0188
  102MPD2     H 1591   1.816   4.597  13.625 -1.7001 -1.2911 -0.7148
  102MPD2    H1 1592   1.817   4.175  13.530 -0.9606 -0.3201  0.8904
  102MPD2    H2 1593   2.156   4.410  13.447 -1.2473  0.8803 -1.9539
  102MPD2    H3 1594   2.044   4.194  13.466  0.8552  0.0622  1.2724
  102MPD2     N 1595   1.662   4.387  13.626 -0.5355  0.1445  0.2653
  102MPD2    H5 1596   1.630   4.466  13.681  0.7310 -0.2318  1.5516
  102MPD2    N1 1597   2.087   4.623  13.572  0.3981  0.7617 -0.5310
  102MPD2    H7 1598   2.182   4.611  13.538  0.3076  0.8475 -0.8196
  103TMC2    C1 1599   4.381   4.673  12.756  0.2440  0.0521 -0.3669
  103TMC2    C2 1600   4.468   4.652  12.652 -0.2146  0.0701 -0.2577
  103TMC2    C3 1601   4.601   4.679  12.672  0.3568 -0.6598 -0.2775
  103TMC2    C4 1602   4.423   4.715  12.881 -0.2925  0.6770 -0.8229
  103TMC2    C5 1603   4.558   0.005  12.899 -0.1801  0.0156 -0.0385
  103TMC2    C6 1604   4.643   4.720  12.794 -0.2102 -0.3051  0.2508
  103TMC2     C 1605   4.240   4.654  12.732  0.1397  0.1528  0.3695
  103TMC2     O 1606   4.205   4.674  12.620 -0.1441 -0.8165  0.2063
  103TMC2     H 1607   4.434   4.618  12.555 -1.0134 -0.9499  0.3791
  103TMC2    H1 1608   4.360   0.014  12.963  2.0844  2.4068  0.3014
  103TMC2    H2 1609   0.017   4.729  12.802 -0.3342  2.2659 -0.9720
  103TMC2    C7 1610   4.588   0.107  13.001 -0.3814 -0.4617  0.9107
  103TMC2    C8 1611   4.707   4.613  12.597  0.5621 -0.9975 -0.0524
  103TMC2    O1 1612   4.507   0.132  13.089  0.5457 -0.1981 -0.0986
  103TMC2    O2 1613   0.067   4.666  12.543 -0.0390 -0.7031 -0.3550
  103TMC2    O5 1614   4.649   4.496  12.558 -0.0666 -0.5963 -0.7768
  103TMC2    H5 1615   4.570   4.472  12.612  0.2721 -1.0898 -0.5056
  104MPD2     C 1616   3.972   4.538  12.957  1.4573  0.2431 -0.3335
  104MPD2    C1 1617   4.019   4.593  12.839  0.0135 -0.1230 -0.4280
  104MPD2    C2 1618   3.925   4.637  12.741  0.4608  0.5869  0.3934
  104MPD2    C3 1619   3.793   4.610  12.754 -0.1097 -0.1693  0.2602
  104MPD2    C4 1620   3.751   4.559  12.871  0.0035  0.8929  0.0685
  104MPD2    C5 1621   3.838   4.524  12.969 -0.2289  0.1582  0.1793
  104MPD2     H 1622   3.959   4.673  12.645  0.7823  0.5108  0.4784
  104MPD2    H1 1623   3.644   4.560  12.892  0.2605 -1.0944  1.4718
  104MPD2    H2 1624   4.035   4.515  13.042  1.1603 -0.0966 -0.2007
  104MPD2    H3 1625   3.791   4.483  13.058  0.0383 -1.7752 -0.5830
  104MPD2     N 1626   3.708   4.656  12.651 -0.3515 -0.0930 -0.0053
  104MPD2    H5 1627   3.756   4.688  12.567 -1.7546 -0.4470 -0.9330
  104MPD2    N1 1628   4.163   4.610  12.835 -0.2089 -0.2793  0.0222
  104MPD2    H7 1629   4.216   4.574  12.914  2.4781 -1.4338 -2.3163
  105TMC2    C1 1630   1.581   4.261  17.570  0.2673 -0.0297  0.2430
  105TMC2    C2 1631   1.537   4.393  17.567  0.4208 -0.2494  0.5153
  105TMC2    C3 1632   1.457   4.439  17.675  0.1446 -0.2569  0.1750
  105TMC2    C4 1633   1.540   4.182  17.672 -0.3119  0.4650 -0.0539
  105TMC2    C5 1634   1.472   4.236   0.047 -0.6714 -0.2478 -0.0111
  105TMC2    C6 1635   1.424   4.359   0.047  0.4618 -1.2331  0.5716
  105TMC2     C 1636   1.660   4.202  17.459 -0.2271  0.6581 -0.0557
  105TMC2     O 1637   1.704   4.088  17.470  0.0273 -0.3236  0.1229
  105TMC2     H 1638   1.575   4.476  17.508 -0.5712 -1.0994 -1.3318
  105TMC2    H1 1639   1.576   4.081  17.655 -1.0893  0.2097 -0.1574
  105TMC2    H2 1640   1.345   4.392   0.113  1.2581 -0.9546  1.3785
  105TMC2    C7 1641   1.427   4.151   0.149 -0.2049 -1.0891 -0.2875
  105TMC2    C8 1642   1.400   4.562  17.675 -0.8638  1.0557 -0.0779
  105TMC2    O1 1643   1.429   4.031   0.130 -0.9100  0.1029  0.0512
  105TMC2    O2 1644   1.362   4.617   0.043  0.8706  0.6550 -0.2976
  105TMC2    O5 1645   1.351   4.582  17.550 -0.3189 -0.3382  0.2040
  105TMC2    H5 1646   1.378   4.511  17.488  1.2421 -0.1971  0.7229
  106MPD2     C 1647   1.812   4.244  16.971 -0.7672 -0.6185 -0.3262
  106MPD2    C1 1648   1.715   4.336  16.998 -0.3501  0.5073 -0.2488
  106MPD2    C2 1649   1.662   4.350  17.125 -0.2492 -0.5273 -1.4630
  106MPD2    C3 1650   1.708   4.265  17.225 -0.1311  1.0926 -0.3986
  106MPD2    C4 1651   1.805   4.171  17.194  0.5632 -0.0692 -0.2011
  106MPD2    C5 1652   1.869   4.170  17.068  0.5984  0.2926  0.6465
  106MPD2     H 1653   1.590   4.430  17.138  0.4370 -0.1859  0.1790
  106MPD2    H1 1654   1.844   4.094  17.259  1.5032  1.8673  1.5190
  106MPD2    H2 1655   1.876   4.256  16.884 -2.6985  1.7735 -1.4128
  106MPD2    H3 1656   1.941   4.093  17.044  1.7287  0.8626  2.2000
  106MPD2     N 1657   1.650   4.286  17.350 -0.4223 -0.0327 -0.5284
  106MPD2    H5 1658   1.590   4.367  17.362 -1.0784 -0.4147 -1.2639
  106MPD2    N1 1659   1.677   4.427  16.905 -0.4846 -0.5054 -0.2124
  106MPD2    H7 1660   1.603   4.491  16.932 -0.8363 -1.3697  0.8995
  107TMC2    C1 1661   2.241   3.745  11.717  0.6057 -0.1108 -0.1549
  107TMC2    C2 1662   2.335   3.829  11.764  0.2261  0.2447 -0.1853
  107TMC2    C3 1663   2.426   3.883  11.678 -0.2267 -0.1186  0.2440
  107TMC2    C4 1664   2.245   3.686  11.595 -0.0151 -0.2774  0.0587
  107TMC2    C5 1665   2.340   3.743  11.514  0.3339 -0.0323 -0.4924
  107TMC2    C6 1666   2.438   3.830  11.558 -0.2004 -0.3717  0.5567
  107TMC2     C 1667   2.135   3.726  11.804  0.0224  0.2390 -0.6246
  107TMC2     O 1668   2.093   3.820  11.870  0.3385 -0.1576  0.4960
  107TMC2     H 1669   2.327   3.877  11.861  0.3658 -1.9655  0.9235
  107TMC2    H1 1670   2.160   3.629  11.559  0.0249  0.0561 -0.5650
  107TMC2    H2 1671   2.516   3.871  11.495  0.6141 -1.0715  1.1260
  107TMC2    C7 1672   2.372   3.689  11.385 -0.0301  0.0883  0.1721
  107TMC2    C8 1673   2.552   3.924  11.733 -0.6212  0.2510 -0.0510
  107TMC2    O1 1674   2.469   3.733  11.324 -0.3686  0.0118  0.3798
  107TMC2    O2 1675   2.607   3.886  11.838  0.9184 -0.1074  0.6161
  107TMC2    O5 1676   2.594   4.030  11.662  0.1707 -0.2631  0.5224
  107TMC2    H5 1677   2.534   4.062  11.591  0.3801  1.1205  0.9770
  108MPD2     C 1678   1.978   3.402  11.870  0.2398  0.5274 -0.2998
  108MPD2    C1 1679   1.999   3.539  11.882 -0.9359  0.0577 -0.0269
  108MPD2    C2 1680   1.949   3.603  11.999  0.9556 -0.1720  0.6549
  108MPD2    C3 1681   1.906   3.533  12.109 -0.0832  0.1425  0.0264
  108MPD2    C4 1682   1.909   3.396  12.096 -1.3287  0.2288  0.1439
  108MPD2    C5 1683   1.928   3.331  11.977  0.2912  0.0141  0.4378
  108MPD2     H 1684   1.973   3.706  12.023  0.9412  0.2863 -1.2995
  108MPD2    H1 1685   1.861   3.338  12.174 -1.7266  1.0130  0.4824
  108MPD2    H2 1686   2.023   3.344  11.790 -1.0045 -0.6798 -0.1265
  108MPD2    H3 1687   1.909   3.224  11.971  1.0549 -0.0175 -1.4484
  108MPD2     N 1688   1.862   3.589  12.233  0.2413 -0.5026  0.5247
  108MPD2    H5 1689   1.851   3.532  12.316 -0.1765  0.3593  1.0598
  108MPD2    N1 1690   2.089   3.601  11.793 -0.1532 -0.0322 -0.0426
  108MPD2    H7 1691   2.127   3.537  11.724  2.4822 -0.2097  1.5662
  109TMC2    C1 1692   1.636   0.944   0.266  0.6807 -0.3788 -0.1298
  109TMC2    C2 1693   1.696   0.946   0.143 -0.3839 -0.1787 -0.3561
  109TMC2    C3 1694   1.828   0.980   0.135 -0.4388 -0.2139  0.5459
  109TMC2    C4 1695   1.711   0.962   0.378 -0.1819  0.1429 -0.6690
  109TMC2    C5 1696   1.837   1.015   0.364 -0.1082  0.2272 -0.0924
  109TMC2    C6 1697   1.903   1.020   0.239  0.3248 -0.7723  1.0199
  109TMC2     C 1698   1.493   0.919   0.273  0.1029 -0.2869  0.2586
  109TMC2     O 1699   1.432   0.918   0.166  0.3307  0.1372  0.3250
  109TMC2     H 1700   1.639   0.942   0.051 -0.4377  1.2025 -0.3794
  109TMC2    H1 1701   1.669   0.955   0.478 -1.3016 -1.2209 -1.2344
  109TMC2    H2 1702   2.010   1.034   0.232  0.1308  0.3198  0.2862
  109TMC2    C7 1703   1.908   1.061   0.479 -0.3104  0.0037  0.7192
  109TMC2    C8 1704   1.893   0.971  17.736 -0.0417 -0.8493 -0.5363
  109TMC2    O1 1705   2.017   1.106   0.448  0.0614 -0.4972 -0.0923
  109TMC2    O2 1706   2.006   0.928  17.723 -0.3942 -0.4346  0.3528
  109TMC2    O5 1707   1.823   1.048  17.650 -0.1670  0.1044  0.1408
  109TMC2    H5 1708   1.743   1.086  17.692 -0.0366 -0.0217  0.5021
  110MPD2     C 1709   1.084   1.067   0.546  0.8473  0.5491  0.8895
  110MPD2    C1 1710   1.193   1.036   0.637 -0.6863  0.8955  0.3606
  110MPD2    C2 1711   1.306   0.974   0.584 -0.0395 -0.1938 -0.0524
  110MPD2    C3 1712   1.326   0.960   0.446 -0.1783  0.3759  0.0870
  110MPD2    C4 1713   1.218   0.992   0.363 -0.0331  0.3080 -0.2132
  110MPD2    C5 1714   1.100   1.039   0.413  0.4244  0.0029 -0.2161
  110MPD2     H 1715   1.389   0.952   0.650  0.5631  0.6247 -0.5306
  110MPD2    H1 1716   1.220   0.974   0.256  0.6057  3.4821 -0.7324
  110MPD2    H2 1717   0.997   1.115   0.589  1.3309  0.2942  2.1687
  110MPD2    H3 1718   1.011   1.056   0.353  0.6299 -1.1729 -0.8501
  110MPD2     N 1719   1.453   0.921   0.409  0.3049  0.0469 -0.3036
  110MPD2    H5 1720   1.519   0.913   0.486  0.7549 -0.2773 -0.7252
  110MPD2    N1 1721   1.188   1.074   0.776 -0.2383 -0.1903  0.7049
  110MPD2    H7 1722   1.097   1.105   0.810 -1.2698 -0.1984 -1.9780
  111TMC2    C1 1723   1.771   1.272  12.067 -0.0795  0.7148 -0.5143
  111TMC2    C2 1724   1.697   1.346  12.149 -0.4609 -0.1595 -0.0639
  111TMC2    C3 1725   1.741   1.375  12.272  0.4691 -0.0987 -0.0447
  111TMC2    C4 1726   1.886   1.213  12.108 -0.9857  0.2028 -0.0632
  111TMC2    C5 1727   1.926   1.242  12.241  0.8913  0.5588  0.5849
  111TMC2    C6 1728   1.859   1.326  12.319  0.5884  0.1949 -0.1665
  111TMC2     C 1729   1.725   1.230  11.932 -0.8820 -0.3814 -0.1898
  111TMC2     O 1730   1.809   1.178  11.867  0.5221 -0.2193 -0.1368
  111TMC2     H 1731   1.615   1.404  12.109  0.4307  1.2392  0.1482
  111TMC2    H1 1732   1.927   1.127  12.056 -1.5310  0.1600 -0.4165
  111TMC2    H2 1733   1.887   1.335  12.424  1.9815  0.2670 -0.5467
  111TMC2    C7 1734   2.046   1.182  12.285 -0.1269 -0.1758  0.4271
  111TMC2    C8 1735   1.673   1.485  12.335 -0.2125 -0.3050 -0.4492
  111TMC2    O1 1736   2.051   1.160  12.407 -0.4843  0.3594  0.3026
  111TMC2    O2 1737   1.649   1.583  12.268  0.4440 -0.4708  0.2335
  111TMC2    O5 1738   1.711   1.485  12.465  0.3911 -0.2075 -0.0372
  111TMC2    H5 1739   1.728   1.399  12.511  1.1173  0.5701  1.1577
  112MPD2     C 1740   1.390   1.188  11.554 -0.1327 -0.6050  0.5164
  112MPD2    C1 1741   1.522   1.150  11.559  0.3709 -0.2682 -0.2691
  112MPD2    C2 1742   1.593   1.165  11.684  0.0875  0.5776 -0.8962
  112MPD2    C3 1743   1.527   1.207  11.791  0.5292  0.5885  0.5507
  112MPD2    C4 1744   1.393   1.241  11.783  0.7792 -0.9574  0.2069
  112MPD2    C5 1745   1.327   1.241  11.664 -0.1725 -0.4910  0.2904
  112MPD2     H 1746   1.700   1.175  11.677  0.0842  0.2993 -1.3660
  112MPD2    H1 1747   1.334   1.279  11.866  1.4805  0.0480  0.2512
  112MPD2    H2 1748   1.339   1.188  11.458 -0.7562  0.1822  0.8477
  112MPD2    H3 1749   1.227   1.281  11.651 -0.1631 -0.1326  1.2502
  112MPD2     N 1750   1.588   1.244  11.907  0.0050  0.7816  0.3291
  112MPD2    H5 1751   1.529   1.297  11.971  1.6060  0.6376  1.9191
  112MPD2    N1 1752   1.594   1.125  11.438  0.3968  0.3271  0.7002
  112MPD2    H7 1753   1.695   1.117  11.448  0.4191  0.3424  0.5025
  113TMC2    C1 1754   4.676   3.945   1.056 -0.0524  0.3251  0.5037
  113TMC2    C2 1755   4.550   3.972   1.039  0.2371 -0.2839  0.1306
  113TMC2    C3 1756   4.460   3.880   1.072  0.1386  0.3866  0.3913
  113TMC2    C4 1757   4.711   3.823   1.121  0.2894  0.0609 -0.5425
  113TMC2    C5 1758   4.620   3.725   1.142  0.6030 -0.2520  0.0001
  113TMC2    C6 1759   4.487   3.760   1.129 -0.0655  0.2825 -0.2237
  113TMC2     C 1760   0.034   4.057   1.042 -0.2343  0.1277 -1.0234
  113TMC2     O 1761   4.717   4.165   1.029 -0.3115 -0.3635 -0.5474
  113TMC2     H 1762   4.519   4.068   0.998  2.9468 -0.3728 -2.1312
  113TMC2    H1 1763   0.081   3.809   1.148  0.0870 -2.0295 -0.8048
  113TMC2    H2 1764   4.408   3.685   1.127 -0.5813  0.8677 -1.7563
  113TMC2    C7 1765   4.657   3.593   1.173  0.0326  0.1128 -0.2362
  113TMC2    C8 1766   4.325   3.928   1.053 -0.4392 -0.5796  0.1926
  113TMC2    O1 1767   0.035   3.553   1.133 -0.1020 -0.6515  0.5374
  113TMC2    O2 1768   4.285   4.029   0.992  0.3212  0.5160 -0.4032
  113TMC2    O5 1769   4.244   3.837   1.106 -0.2957  0.4850  0.0989
  113TMC2    H5 1770   4.291   3.787   1.175 -1.2699 -1.3783 -0.5777
  114MPD2     C 1771   0.501   4.269   1.071 -0.4068 -0.1734  0.0169
  114MPD2    C1 1772   0.382   4.315   1.105  0.3338 -0.1152  0.1971
  114MPD2    C2 1773   0.267   4.238   1.072  0.0522 -0.3761 -0.9211
  114MPD2    C3 1774   0.283   4.108   1.029  0.1962 -0.0953 -0.2777
  114MPD2    C4 1775   0.408   4.063   0.995 -0.3102 -0.4412  0.4250
  114MPD2    C5 1776   0.513   4.143   1.008  0.4775  0.1773 -0.6542
  114MPD2     H 1777   0.170   4.264   1.114 -0.9326 -0.6652 -3.0176
  114MPD2    H1 1778   0.417   3.962   0.957  1.1436  0.2242 -0.9471
  114MPD2    H2 1779   0.589   4.331   1.083 -1.7859  1.6608  0.6940
  114MPD2    H3 1780   0.616   4.114   0.990  0.1911 -1.7376  0.8277
  114MPD2     N 1781   0.169   4.021   1.022 -0.6293 -0.4949  0.7194
  114MPD2    H5 1782   0.180   3.920   1.017  1.0492 -0.2045 -1.3258
  114MPD2    N1 1783   0.357   4.445   1.150  0.1621  0.0436  0.6984
  114MPD2    H7 1784   0.263   4.478   1.169  0.0450  0.2896 -0.3258
  115TMC2    C1 1785   1.080   1.522   0.211 -0.2331  0.2394  0.0082
  115TMC2    C2 1786   1.140   1.449   0.312 -0.0125  0.2248 -0.4913
  115TMC2    C3 1787   1.216   1.517   0.402  0.5232 -0.6308  0.5631
  115TMC2    C4 1788   1.080   1.663   0.207 -0.2826 -0.6731 -0.0824
  115TMC2    C5 1789   1.152   1.720   0.309  0.3398  0.0973  0.1580
  115TMC2    C6 1790   1.224   1.651   0.403  0.3404  0.3927  0.2887
  115TMC2     C 1791   1.010   1.452   0.103 -1.0837 -0.2277 -0.1265
  115TMC2     O 1792   1.028   1.333   0.099  0.1610  0.6879 -0.3928
  115TMC2     H 1793   1.145   1.341   0.304 -2.2930  0.2284 -1.7745
  115TMC2    H1 1794   1.013   1.721   0.144 -0.2061  0.9601  1.3601
  115TMC2    H2 1795   1.284   1.701   0.478  0.5597  0.3403  0.1495
  115TMC2    C7 1796   1.160   1.863   0.321 -0.8935 -0.0080 -0.6333
  115TMC2    C8 1797   1.320   1.448   0.467 -0.1449  0.4359 -0.9500
  115TMC2    O1 1798   1.184   1.903   0.433 -0.4992  0.6141  0.1762
  115TMC2    O2 1799   1.415   1.512   0.509  0.6155  0.3103 -0.4034
  115TMC2    O5 1800   1.247   1.359   0.536 -0.8140  0.2446  0.7059
  115TMC2    H5 1801   1.153   1.346   0.510 -0.2650 -0.1852 -1.0494
  116MPD2     C 1802   0.783   1.431  17.377  0.4385  0.7501  0.2681
  116MPD2    C1 1803   0.821   1.336  17.458 -0.6329 -0.1335 -0.4960
  116MPD2    C2 1804   0.876   1.364  17.586  0.0033  0.1399 -0.0273
  116MPD2    C3 1805   0.891   1.492  17.624  0.5025 -0.2233 -0.2089
  116MPD2    C4 1806   0.830   1.591  17.546 -0.6837  0.1583 -0.6683
  116MPD2    C5 1807   0.774   1.556  17.428 -0.3945 -0.2188  0.4538
  116MPD2     H 1808   0.903   1.286  17.655 -1.5233  0.4102  0.8666
  116MPD2    H1 1809   0.827   1.695  17.576 -0.0998  0.0447 -0.2157
  116MPD2    H2 1810   0.744   1.414  17.277 -0.2637 -0.9490  0.8282
  116MPD2    H3 1811   0.733   1.632  17.362  0.4521  1.7407  2.1719
  116MPD2     N 1812   0.953   1.534   0.007 -1.1855  0.3170  0.0965
  116MPD2    H5 1813   0.948   1.635   0.014 -0.9595  0.2724  0.9871
  116MPD2    N1 1814   0.778   1.205  17.428 -0.0860 -0.5668  0.1293
  116MPD2    H7 1815   0.701   1.205  17.361  0.6103 -0.5680 -0.6653
  117TMC2    C1 1816   4.336   3.006  14.679  0.4216  0.4737 -0.2070
  117TMC2    C2 1817   4.471   2.962  14.681  0.7644  0.2874 -0.2392
  117TMC2    C3 1818   4.565   3.038  14.628  0.9060 -0.2158  1.1076
  117TMC2    C4 1819   4.298   3.124  14.614  0.2316 -0.1339  0.0060
  117TMC2    C5 1820   4.404   3.200  14.578  0.3787 -0.3095 -0.1913
  117TMC2    C6 1821   4.535   3.160  14.575 -0.5150 -0.0847  0.8084
  117TMC2     C 1822   4.235   2.902  14.710  0.8811 -0.6825 -0.3135
  117TMC2     O 1823   4.261   2.828  14.810  0.0143  0.5193 -0.1469
  117TMC2     H 1824   4.496   2.866  14.726  0.4850 -0.1507 -1.0104
  117TMC2    H1 1825   4.199   3.168  14.616  1.1518  1.9565 -0.3867
  117TMC2    H2 1826   4.614   3.224  14.539 -0.4026 -2.1058 -2.5888
  117TMC2    C7 1827   4.377   3.335  14.526 -0.2655  0.2206  0.1244
  117TMC2    C8 1828   4.694   2.982  14.607 -0.1380  0.2072 -0.1773
  117TMC2    O1 1829   4.477   3.404  14.513  0.5636  0.0737  0.0664
  117TMC2    O2 1830   0.053   3.053  14.576  0.6219 -0.3743  0.0657
  117TMC2    O5 1831   4.671   2.869  14.544 -0.1219  0.1031  0.0950
  117TMC2    H5 1832   4.583   2.831  14.562  0.0804  0.0295  0.9140
  118MPD2     C 1833   4.068   3.489  14.389  0.1280 -0.2336  0.2298
  118MPD2    C1 1834   4.198   3.482  14.432  0.1799  0.0349 -0.2036
  118MPD2    C2 1835   4.286   3.586  14.409  0.9759  0.1308  0.4650
  118MPD2    C3 1836   4.227   3.704  14.358  0.0352 -0.2045 -0.1840
  118MPD2    C4 1837   4.092   3.712  14.331  0.8023 -0.2744 -1.0405
  118MPD2    C5 1838   4.016   3.605  14.335  0.2632 -0.3226  0.1263
  118MPD2     H 1839   4.388   3.593  14.444  1.2623 -0.3177 -0.2783
  118MPD2    H1 1840   4.048   3.802  14.289  1.4929  0.9172  0.8008
  118MPD2    H2 1841   4.004   3.402  14.399  1.2453 -0.7662  2.7865
  118MPD2    H3 1842   3.915   3.610  14.296  0.1256 -0.8706  0.4130
  118MPD2     N 1843   4.304   3.817  14.325  0.2526 -0.4007  0.2023
  118MPD2    H5 1844   4.253   3.890  14.277  0.7288 -1.5371 -2.0145
  118MPD2    N1 1845   4.248   3.361  14.495  0.1794  0.0509  0.2581
  118MPD2    H7 1846   4.189   3.280  14.511 -0.7085  0.4380 -1.1064
  119TMC2    C1 1847   2.241   3.987  13.474  0.2073  0.7482  0.1394
  119TMC2    C2 1848   2.259   3.916  13.362 -0.2158 -0.2034  0.0444
  119TMC2    C3 1849   2.155   3.848  13.306  0.0732  0.2898 -0.9159
  119TMC2    C4 1850   2.120   3.977  13.546 -0.3013 -0.1524 -0.2722
  119TMC2    C5 1851   2.026   3.886  13.504  0.1999  0.2986  0.4039
  119TMC2    C6 1852   2.039   3.836  13.378  0.7571 -0.1767  0.4915
  119TMC2     C 1853   2.346   4.044  13.552  0.3344  0.7078  0.4812
  119TMC2     O 1854   2.312   4.126  13.638  0.1303  0.1101  0.6850
  119TMC2     H 1855   2.349   3.932  13.304  1.9758 -3.3611  2.6027
  119TMC2    H1 1856   2.118   4.037  13.636 -1.2244  2.4811 -2.0548
  119TMC2    H2 1857   1.955   3.780  13.338  1.3214  0.3393 -1.3809
  119TMC2    C7 1858   1.893   3.912  13.565 -0.2172 -0.5181  0.2303
  119TMC2    C8 1859   2.183   3.761  13.190 -0.5522  0.2636  0.5796
  119TMC2    O1 1860   1.798   3.928  13.493  0.1365  0.5167 -0.5243
  119TMC2    O2 1861   2.155   3.643  13.196  0.7861 -0.9345  0.5615
  119TMC2    O5 1862   2.275   3.815  13.109  0.2547 -0.5233 -0.1046
  119TMC2    H5 1863   2.274   3.913  13.109  0.0884 -0.5372  2.8384
  120MPD2     C 1864   2.793   4.007  13.802  0.3794 -0.2434  0.0312
  120MPD2    C1 1865   2.666   4.042  13.840  0.5741 -0.5155  0.2343
  120MPD2    C2 1866   2.561   4.045  13.751 -0.5481 -0.6795  0.1901
  120MPD2    C3 1867   2.575   3.993  13.624  0.4988  0.1846 -0.4068
  120MPD2    C4 1868   2.699   3.937  13.596  0.4771 -0.5159 -0.2548
  120MPD2    C5 1869   2.807   3.943  13.680  0.6850 -0.2882 -0.2529
  120MPD2     H 1870   2.466   4.087  13.781  0.0332 -0.7495  2.1088
  120MPD2    H1 1871   2.725   3.895  13.500  1.7904  2.6345 -1.2514
  120MPD2    H2 1872   2.871   4.008  13.878  2.1678 -0.3159 -1.8045
  120MPD2    H3 1873   2.908   3.917  13.649  0.7676  0.9985 -1.0868
  120MPD2     N 1874   2.472   3.991  13.532  0.0997 -0.8531  0.7440
  120MPD2    H5 1875   2.477   3.926  13.454  0.8502 -0.3777  0.4077
  120MPD2    N1 1876   2.647   4.080  13.973 -0.4606  0.4939 -0.5585
  120MPD2    H7 1877   2.736   4.106  14.014 -1.1952  4.0193 -1.2266
  121TMC2    C1 1878   3.693   1.243  14.004  0.5598 -0.0436 -0.0033
  121TMC2    C2 1879   3.763   1.165  13.918 -0.3269  0.5257 -0.3095
  121TMC2    C3 1880   3.746   1.035  13.926 -0.2706 -0.1772 -0.2896
  121TMC2    C4 1881   3.605   1.187  14.101 -0.8523 -0.4639  0.2080
  121TMC2    C5 1882   3.582   1.054  14.099  0.1301  0.2625 -0.2029
  121TMC2    C6 1883   3.657   0.973  14.010 -0.7575  0.0676  0.1672
  121TMC2     C 1884   3.741   1.372  14.031  0.2373 -0.5371 -0.6830
  121TMC2     O 1885   3.726   1.418  14.142 -0.3794  0.1886  0.3151
  121TMC2     H 1886   3.818   1.211  13.837  1.0218 -0.9375 -0.2492
  121TMC2    H1 1887   3.562   1.257  14.172 -3.3276  0.6021 -2.3027
  121TMC2    H2 1888   3.643   0.867  13.998  0.4446  0.0484 -1.0924
  121TMC2    C7 1889   3.455   1.003  14.145  0.7018  0.1964  0.7996
  121TMC2    C8 1890   3.814   0.951  13.826 -0.4218  0.0445  0.3988
  121TMC2    O1 1891   3.449   0.880  14.137  0.1473  0.5661 -0.1126
  121TMC2    O2 1892   3.773   0.843  13.789  0.5595  0.6378 -0.5760
  121TMC2    O5 1893   3.920   1.009  13.768 -0.6195  0.0107  0.3441
  121TMC2    H5 1894   3.956   1.094  13.802  0.8996 -0.6394  0.3915
  122MPD2     C 1895   3.925   1.597  14.048  0.2294 -0.2654  0.0727
  122MPD2    C1 1896   3.881   1.543  13.927 -0.4087 -1.0814  0.2125
  122MPD2    C2 1897   3.909   1.608  13.808 -0.2379  0.0131 -0.0035
  122MPD2    C3 1898   3.982   1.725  13.806 -0.0454  0.5363 -0.0475
  122MPD2    C4 1899   4.037   1.770  13.925 -0.7295 -0.6089  0.0818
  122MPD2    C5 1900   4.006   1.709  14.042  0.8280 -0.2209  0.5661
  122MPD2     H 1901   3.859   1.572  13.719  1.6223  2.5372 -2.0541
  122MPD2    H1 1902   4.086   1.866  13.926 -0.1056 -0.9249 -0.4271
  122MPD2    H2 1903   3.908   1.548  14.143  2.5766 -0.2878  0.4763
  122MPD2    H3 1904   4.063   1.752  14.124  0.7962  1.3241 -0.2150
  122MPD2     N 1905   4.000   1.806  13.692 -0.0089 -0.1888 -0.9678
  122MPD2    H5 1906   4.044   1.896  13.710 -0.9009  0.1093 -0.2611
  122MPD2    N1 1907   3.804   1.430  13.922 -0.5468 -1.2224 -0.1952
  122MPD2    H7 1908   3.794   1.367  13.843  0.8393 -0.9082 -0.6345
  123TMC2    C1 1909   2.136   4.064  11.287 -0.5123  0.7187  0.7162
  123TMC2    C2 1910   2.213   4.138  11.374  0.4096 -0.8767 -0.5243
  123TMC2    C3 1911   2.305   4.228  11.325 -0.7301 -0.6190  0.5415
  123TMC2    C4 1912   2.134   4.102  11.156 -0.5933  0.4351 -0.0715
  123TMC2    C5 1913   2.223   4.197  11.109 -0.7388 -0.0320  0.0693
  123TMC2    C6 1914   2.316   4.255  11.190 -0.0394 -0.7354  0.6313
  123TMC2     C 1915   2.089   3.935  11.329  0.5997 -0.2074 -0.3577
  123TMC2     O 1916   2.077   3.909  11.450  0.0849 -0.4171  0.8877
  123TMC2     H 1917   2.222   4.103  11.476  2.3099  0.9947 -0.0406
  123TMC2    H1 1918   2.057   4.066  11.088  0.3169  1.2967 -1.5634
  123TMC2    H2 1919   2.386   4.326  11.149 -0.4759 -0.6299  0.0664
  123TMC2    C7 1920   2.240   4.183  10.963 -0.2230 -0.1612  0.0162
  123TMC2    C8 1921   2.423   4.237  11.402 -0.4988 -0.6378  0.4787
  123TMC2    O1 1922   2.194   4.078  10.925 -0.1908  0.2363 -0.4997
  123TMC2    O2 1923   2.465   4.146  11.467 -0.5725 -0.4009  0.1390
  123TMC2    O5 1924   2.483   4.353  11.376 -0.1137 -0.6213 -0.1591
  123TMC2    H5 1925   2.430   4.420  11.329 -0.7197 -1.0169 -0.0347
  124MPD2     C 1926   1.909   3.480  11.186  0.0006 -0.2032  0.3347
  124MPD2    C1 1927   1.947   3.549  11.073  0.5222  0.6096  0.0156
  124MPD2    C2 1928   2.003   3.672  11.093  0.5974 -0.4483 -0.2738
  124MPD2    C3 1929   2.022   3.723  11.218 -0.4787  0.8086 -0.2629
  124MPD2    C4 1930   1.974   3.658  11.328 -0.4141 -0.7453  0.0205
  124MPD2    C5 1931   1.924   3.535  11.315 -0.8540 -0.5316 -0.3470
  124MPD2     H 1932   2.036   3.734  11.010  1.3688 -0.4832  0.0061
  124MPD2    H1 1933   1.966   3.706  11.425  2.8337  0.1779 -0.1495
  124MPD2    H2 1934   1.864   3.382  11.177  0.0248 -0.5375  4.0297
  124MPD2    H3 1935   1.879   3.472  11.391 -0.6447 -0.2871 -0.0203
  124MPD2     N 1936   2.066   3.859  11.219 -0.1131  0.2366 -0.3020
  124MPD2    H5 1937   2.100   3.894  11.130 -1.4523  1.0434 -0.5060
  124MPD2    N1 1938   1.942   3.486  10.947 -0.1912  0.0209 -0.2218
  124MPD2    H7 1939   1.894   3.397  10.952 -0.7370  0.4001  1.2041
  125TMC2    C1 1940   3.003   1.333  10.022 -0.8811  0.3817 -0.0335
  125TMC2    C2 1941   2.979   1.390   9.903  0.1048  0.0857  0.6672
  125TMC2    C3 1942   3.081   1.381   9.811 -0.3339 -0.3626  0.3125
  125TMC2    C4 1943   3.117   1.272  10.061  0.1486 -0.0415 -0.9239
  125TMC2    C5 1944   3.214   1.269   9.967  0.0287  0.1761 -0.1086
  125TMC2    C6 1945   3.196   1.316   9.843  1.0410  0.4314  0.7729
  125TMC2     C 1946   2.895   1.340  10.127 -0.2341  0.3196 -0.0627
  125TMC2     O 1947   2.817   1.430  10.111 -0.5000 -0.0054  0.3307
  125TMC2     H 1948   2.876   1.412   9.879  0.1128  0.0102  0.5625
  125TMC2    H1 1949   3.137   1.247  10.164 -2.0131 -2.0583 -0.9834
  125TMC2    H2 1950   3.260   1.303   9.757 -1.7378  0.7966 -1.3208
  125TMC2    C7 1951   3.345   1.259  10.027 -0.7718 -0.3735  0.2324
  125TMC2    C8 1952   3.062   1.436   9.677 -0.3955  0.1973 -0.4638
  125TMC2    O1 1953   3.351   1.240  10.146 -0.4536  0.2552 -0.9092
  125TMC2    O2 1954   3.120   1.393   9.579 -0.1605  0.1838 -0.2375
  125TMC2    O5 1955   2.969   1.531   9.686  0.7024 -0.4277 -0.1252
  125TMC2    H5 1956   2.949   1.576   9.771 -0.2396 -0.5088 -0.3042
  126MPD1     C 1957   2.735   1.147  10.584 -0.4574 -0.0204 -0.4683
  126MPD1    C1 1958   2.833   1.064  10.527 -0.0084 -0.0137  0.0484
  126MPD1    C2 1959   2.883   1.092  10.402  0.0971 -1.0267  1.0019
  126MPD1    C3 1960   2.838   1.200  10.328  0.4155  0.7828 -0.8589
  126MPD1    C4 1961   2.751   1.283  10.386 -0.3945  0.0242  0.4087
  126MPD1    C5 1962   2.693   1.255  10.508  0.2614 -0.4643 -0.0299
  126MPD1     H 1963   2.965   1.031  10.365  1.1207  1.1390 -0.3023
  126MPD1    H1 1964   2.734   1.381  10.341 -0.6567 -0.8533 -1.3990
  126MPD1    H2 1965   2.674   1.121  10.670  1.9563 -2.2792  0.5859
  126MPD1    H3 1966   2.614   1.314  10.553 -0.7866 -1.5814 -0.3967
  126MPD1     N 1967   2.902   1.222  10.210  0.2199 -0.0951  0.4953
  126MPD1    H5 1968   2.972   1.155  10.179 -1.1716 -0.9710 -0.7550
  126MPD1    N1 1969   2.869   0.946  10.593 -0.2586 -0.6010  0.2134
  126MPD1    H6 1970   2.896   0.968  10.688  0.6297  2.5311 -0.7850
  126MPD1    H7 1971   2.937   0.883  10.550  1.2896  0.1272  1.5954
  127TMC2    C1 1972   4.605   4.535  10.156 -0.1221 -0.0585  0.4168
  127TMC2    C2 1973   4.616   4.503  10.283  0.1850 -0.1421 -0.4896
  127TMC2    C3 1974   4.596   4.377  10.323 -0.7567  0.1128 -0.1456
  127TMC2    C4 1975   4.546   4.457  10.060  0.4576 -0.5026 -0.6887
  127TMC2    C5 1976   4.500   4.336  10.107 -0.6434 -0.1308 -0.6559
  127TMC2    C6 1977   4.531   4.294  10.235  0.3315 -0.1903 -0.2315
  127TMC2     C 1978   4.622   4.671  10.121 -0.2926  0.1754 -0.4729
  127TMC2     O 1979   4.702   0.001  10.189 -0.0432 -0.3414 -0.5196
  127TMC2     H 1980   4.653   4.561  10.366  0.2624  3.2278 -2.8522
  127TMC2    H1 1981   4.560   4.469   9.953  0.5600 -0.7713 -0.7057
  127TMC2    H2 1982   4.506   4.191  10.255 -3.5540  0.6677 -0.6490
  127TMC2    C7 1983   4.450   4.241  10.001 -0.1008 -0.2240 -0.0084
  127TMC2    C8 1984   4.712   4.323  10.396  0.0694 -0.4368 -0.5473
  127TMC2    O1 1985   4.489   4.262   9.885  0.0500  0.9834 -0.0628
  127TMC2    O2 1986   0.092   4.367  10.378 -0.3131  0.0761  0.1831
  127TMC2    O5 1987   4.682   4.196  10.436  0.1076 -0.2797 -0.2191
  127TMC2    H5 1988   4.586   4.200  10.457 -0.4372 -1.0744 -2.5882
  128MPD2     C 1989   4.430   0.143   9.881  0.1089  0.3092 -0.4373
  128MPD2    C1 1990   4.533   0.112   9.965  0.5344 -0.5843  0.0187
  128MPD2    C2 1991   4.620   0.208   9.998  0.0427  0.7021  0.1245
  128MPD2    C3 1992   4.610   0.338   9.952 -0.3463 -0.7526  0.6632
  128MPD2    C4 1993   4.508   0.367   9.869  0.3772 -0.0454 -0.9804
  128MPD2    C5 1994   4.422   0.271   9.827 -0.6744 -0.0245  0.3532
  128MPD2     H 1995   4.699   0.193  10.072 -0.2633  1.0826  0.5301
  128MPD2    H1 1996   4.492   0.465   9.825 -1.0716 -0.0565 -0.4618
  128MPD2    H2 1997   4.369   0.062   9.842 -1.7153  1.9643 -1.0278
  128MPD2    H3 1998   4.346   0.298   9.756 -1.3780  0.1796  1.1860
  128MPD2     N 1999   4.709   0.428   9.981 -0.2115  0.3448  0.0317
  128MPD2    H5 2000   0.032   0.422  10.065 -0.8978 -0.4237  0.4398
  128MPD2    N1 2001   4.538   4.713  10.024 -0.2156 -0.1253 -0.6608
  128MPD2    H7 2002   4.471   4.645   9.988  0.5235 -1.3703  0.3150
  129TMC2    C1 2003   2.903   0.382   0.853  0.0259 -0.4400  0.3716
  129TMC2    C2 2004   2.849   0.264   0.818 -1.0582  0.0073  0.3895
  129TMC2    C3 2005   2.718   0.247   0.812  0.3307 -0.1564  0.3475
  129TMC2    C4 2006   2.822   0.487   0.891 -0.3061 -0.1921 -0.7273
  129TMC2    C5 2007   2.684   0.460   0.901 -0.2737  0.1884 -0.4708
  129TMC2    C6 2008   2.633   0.342   0.859 -0.4628  0.0100  0.0778
  129TMC2     C 2009   3.050   0.387   0.847 -0.3957 -0.0847 -0.2821
  129TMC2     O 2010   3.116   0.291   0.801 -0.3998  0.0927  0.1537
  129TMC2     H 2011   2.907   0.172   0.809 -0.4520  0.4291  0.0352
  129TMC2    H1 2012   2.858   0.589   0.902 -1.6495  0.2838 -0.8379
  129TMC2    H2 2013   2.532   0.314   0.885 -0.3444 -0.8703 -0.4056
  129TMC2    C7 2014   2.595   0.546   0.994  0.5593 -0.2035  0.4289
  129TMC2    C8 2015   2.670   0.109   0.802  0.5333  0.2413 -0.4159
  129TMC2    O1 2016   2.474   0.536   0.978 -0.3999  0.4476  0.2607
  129TMC2    O2 2017   2.743   0.014   0.833 -0.0563  0.2958 -0.1372
  129TMC2    O5 2018   2.549   0.110   0.748  0.0121  0.5200  0.1518
  129TMC2    H5 2019   2.532   0.190   0.694 -0.2849  0.6737  0.4708
  130MPD2     C 2020   3.336   0.464   0.882  0.2393 -0.0083 -0.0314
  130MPD2    C1 2021   3.233   0.544   0.927  0.3226  0.8001 -0.4908
  130MPD2    C2 2022   3.265   0.658   0.994 -0.0141  0.0402 -0.0864
  130MPD2    C3 2023   3.388   0.697   1.024 -0.3384  0.3939  0.1757
  130MPD2    C4 2024   3.489   0.615   0.984  0.0837 -0.2106 -0.4556
  130MPD2    C5 2025   3.467   0.509   0.907 -1.0087 -0.5607 -0.2509
  130MPD2     H 2026   3.184   0.716   1.037  0.8258  0.7419  0.5417
  130MPD2    H1 2027   3.592   0.647   0.991 -0.5248  2.0952 -2.0960
  130MPD2    H2 2028   3.321   0.369   0.833 -2.0326 -0.0982  0.8373
  130MPD2    H3 2029   3.555   0.452   0.880 -0.3060  0.8094 -0.8698
  130MPD2     N 2030   3.405   0.814   1.095  0.6258  0.0759 -0.9368
  130MPD2    H5 2031   3.320   0.855   1.135  1.3851  0.8220 -0.0827
  130MPD2    N1 2032   3.099   0.503   0.917 -0.0214  0.3341 -0.0899
  130MPD2    H7 2033   3.032   0.568   0.956 -1.1177 -1.5814  1.2544
  131TMC2    C1 2034   2.207   4.333  10.384  0.7910  0.0258 -0.0588
  131TMC2    C2 2035   2.278   4.334  10.270  0.2166  0.4421 -0.6110
  131TMC2    C3 2036   2.378   4.427  10.267 -0.1135  0.0535 -0.4300
  131TMC2    C4 2037   2.218   4.428  10.483  0.6839 -0.2185 -0.4257
  131TMC2    C5 2038   2.324   4.521  10.469 -0.0138 -0.6566  0.0209
  131TMC2    C6 2039   2.403   4.523  10.362 -0.8698 -0.0952 -0.4311
  131TMC2     C 2040   2.119   4.223  10.400  0.3109 -0.4923 -0.7790
  131TMC2     O 2041   2.110   4.175  10.514 -0.4084 -0.2051 -0.6334
  131TMC2     H 2042   2.278   4.257  10.194 -0.1377 -0.2239  0.0668
  131TMC2    H1 2043   2.164   4.427  10.577  2.0590  0.9246  0.3813
  131TMC2    H2 2044   2.501   4.568  10.380 -0.0461 -1.4243 -1.6385
  131TMC2    C7 2045   2.347   4.622  10.575 -0.2524  0.2357 -0.4261
  131TMC2    C8 2046   2.476   4.395  10.170  0.1439  0.3678  0.3373
  131TMC2    O1 2047   2.317   4.593  10.693  0.2693  0.1905 -0.4783
  131TMC2    O2 2048   2.498   4.286  10.128 -1.0413  0.2241  0.3128
  131TMC2    O5 2049   2.518   4.508  10.113  0.4791  0.1763 -0.3645
  131TMC2    H5 2050   2.475   4.583  10.160 -4.5724 -2.5648 -0.6260
  132MPD2     C 2051   1.942   4.052  10.117 -0.6543  0.4881  0.3446
  132MPD2    C1 2052   1.987   4.073  10.246 -0.5333 -0.6333 -0.0507
  132MPD2    C2 2053   1.963   3.969  10.339 -0.6464 -0.5958  0.3698
  132MPD2    C3 2054   1.902   3.843  10.302 -0.7645 -0.2262  0.2573
  132MPD2    C4 2055   1.870   3.831  10.167 -0.2345 -0.5460 -0.0204
  132MPD2    C5 2056   1.887   3.930  10.078  0.7661  0.1301  0.6923
  132MPD2     H 2057   1.978   3.984  10.446  1.2463  1.4430 -0.1919
  132MPD2    H1 2058   1.851   3.732  10.126 -2.8194  0.2298 -0.6466
  132MPD2    H2 2059   1.965   4.122  10.037  0.3318 -1.8747 -1.4312
  132MPD2    H3 2060   1.876   3.920   9.971  2.5227  0.6424  0.4662
  132MPD2     N 2061   1.894   3.739  10.397 -0.0940  0.1860 -0.5466
  132MPD2    H5 2062   1.924   3.755  10.492  2.2552 -3.0187 -0.7509
  132MPD2    N1 2063   2.063   4.187  10.277  0.6239 -0.3486  0.0766
  132MPD2    H7 2064   2.074   4.252  10.200 -1.7905 -1.0250 -0.8381
  133TMC2    C1 2065   1.213   1.629   9.701  0.3103 -0.0334 -0.2358
  133TMC2    C2 2066   1.345   1.646   9.675 -1.2098 -0.4498  0.3960
  133TMC2    C3 2067   1.402   1.771   9.707 -0.3862 -0.2855  0.0324
  133TMC2    C4 2068   1.133   1.737   9.741 -0.2042 -0.6095 -0.0857
  133TMC2    C5 2069   1.193   1.863   9.754 -0.2757  0.1180  0.9463
  133TMC2    C6 2070   1.330   1.884   9.737 -0.2608 -0.0523 -0.1320
  133TMC2     C 2071   1.172   1.491   9.692 -0.0130 -0.5336 -0.1487
  133TMC2     O 2072   1.253   1.413   9.643 -0.7507  0.4814  0.1217
  133TMC2     H 2073   1.413   1.567   9.647  2.1206  2.2299  0.9254
  133TMC2    H1 2074   1.027   1.723   9.757 -0.3091 -2.2354 -2.0782
  133TMC2    H2 2075   1.379   1.980   9.738  1.2128 -0.8040 -1.0958
  133TMC2    C7 2076   1.108   1.975   9.800 -0.4861 -0.3190 -0.6502
  133TMC2    C8 2077   1.544   1.781   9.670 -0.2810  0.3239 -0.1862
  133TMC2    O1 2078   0.989   1.958   9.809  0.6055  0.3933  0.1515
  133TMC2    O2 2079   1.627   1.699   9.699  0.1514  0.0434  0.9470
  133TMC2    O5 2080   1.556   1.895   9.594  0.3705  0.0898 -0.5152
  133TMC2    H5 2081   1.477   1.918   9.540  0.0732 -1.2594 -0.6738
  134MPD2     C 2082   0.838   1.366   9.762  0.2362 -0.2125 -0.2621
  134MPD2    C1 2083   0.966   1.352   9.722 -0.7273  0.5944 -0.0574
  134MPD2    C2 2084   1.014   1.230   9.687  0.7478  0.6300 -0.5362
  134MPD2    C3 2085   0.930   1.115   9.684 -0.8681  0.6250 -0.3127
  134MPD2    C4 2086   0.798   1.131   9.708  0.0180 -0.1746 -0.1212
  134MPD2    C5 2087   0.755   1.255   9.750 -0.8735 -1.1230 -0.3797
  134MPD2     H 2088   1.120   1.216   9.672  0.7276  0.1973 -0.2749
  134MPD2    H1 2089   0.725   1.051   9.708  1.3138 -1.3558  1.0028
  134MPD2    H2 2090   0.802   1.457   9.808  0.7383  0.3938 -1.0660
  134MPD2    H3 2091   0.654   1.256   9.789 -0.5832  0.4591  0.3617
  134MPD2     N 2092   0.983   0.991   9.658  0.6007 -0.0030  0.0251
  134MPD2    H5 2093   0.921   0.912   9.643  0.5156 -0.1995  1.3834
  134MPD2    N1 2094   1.041   1.471   9.734 -0.2809  0.8249 -0.3414
  134MPD2    H7 2095   0.990   1.553   9.766  0.7077  1.8368 -1.3441
  135TMC2    C1 2096   3.440   1.581  10.163 -0.4590 -0.3668 -0.3641
  135TMC2    C2 2097   3.493   1.514  10.270  0.4578  0.0586 -0.2120
  135TMC2    C3 2098   3.402   1.461  10.356 -0.2837  0.3227  0.1852
  135TMC2    C4 2099   3.311   1.609  10.155  0.8770  0.2248 -0.8626
  135TMC2    C5 2100   3.219   1.559  10.248  0.0900 -0.1937 -0.2218
  135TMC2    C6 2101   3.263   1.475  10.347 -0.0680 -0.1203 -0.1275
  135TMC2     C 2102   3.520   1.624  10.061  0.3880  0.4054 -0.2935
  135TMC2     O 2103   3.468   1.648   9.951  0.4621 -0.1650  0.2025
  135TMC2     H 2104   3.600   1.502  10.285  0.1480 -1.3248  0.8809
  135TMC2    H1 2105   3.283   1.679  10.078 -1.9073  2.2878  2.0509
  135TMC2    H2 2106   3.206   1.422  10.422 -0.0746 -0.2523 -0.2256
  135TMC2    C7 2107   3.091   1.622  10.264  0.0178  0.4707  0.0068
  135TMC2    C8 2108   3.464   1.382  10.453 -0.0798  0.3488  0.0570
  135TMC2    O1 2109   3.056   1.688  10.165 -0.2486 -0.3940  0.1622
  135TMC2    O2 2110   3.565   1.312  10.434  0.2811  0.3376  0.0180
  135TMC2    O5 2111   3.435   1.443  10.572  0.2722  0.2096  0.1487
  135TMC2    H5 2112   3.358   1.503  10.564  0.5897  0.7335  1.0526
  136MPD2     C 2113   3.875   1.733  10.055 -0.0517 -0.1797  0.1177
  136MPD2    C1 2114   3.759   1.680  10.002  0.1485 -1.0082 -0.1427
  136MPD2    C2 2115   3.745   1.653   9.867  0.0730  0.2632  0.0526
  136MPD2    C3 2116   3.854   1.672   9.780 -0.5656  0.2810  0.3735
  136MPD2    C4 2117   3.967   1.737   9.830  0.3315 -0.1206 -0.5690
  136MPD2    C5 2118   3.977   1.759   9.966  0.3765 -0.3864  0.6712
  136MPD2     H 2119   3.657   1.608   9.822  0.8829 -0.0911 -1.1780
  136MPD2    H1 2120   4.054   1.746   9.766 -0.4126  1.1446 -1.3925
  136MPD2    H2 2121   3.878   1.757  10.161 -4.8265 -1.3379  0.5151
  136MPD2    H3 2122   4.069   1.804  10.002  0.9534  0.1836 -1.5151
  136MPD2     N 2123   3.849   1.648   9.642 -0.3259 -0.5825  0.0064
  136MPD2    H5 2124   3.918   1.692   9.581 -1.9010  2.0771  0.1542
  136MPD2    N1 2125   3.649   1.643  10.092  0.5290  0.8384  0.0387
  136MPD2    H7 2126   3.675   1.631  10.190  3.0078 -0.1469 -0.7392
  137TMC2    C1 2127   3.411   0.881   9.782 -0.0874  0.5463 -0.6957
  137TMC2    C2 2128   3.478   0.851   9.670  1.1193  0.5849  0.0552
  137TMC2    C3 2129   3.408   0.851   9.550  0.0557  0.0349 -0.1599
  137TMC2    C4 2130   3.278   0.916   9.777  0.0952  0.4982 -0.0221
  137TMC2    C5 2131   3.214   0.917   9.652 -0.1359 -0.2075 -0.4462
  137TMC2    C6 2132   3.280   0.883   9.541 -0.6980 -0.1254 -0.3425
  137TMC2     C 2133   3.472   0.909   9.911 -0.4103  1.3063  0.1263
  137TMC2     O 2134   3.400   0.913  10.012  0.0738 -0.0045  0.6741
  137TMC2     H 2135   3.580   0.813   9.666  0.8976 -0.1578  1.6277
  137TMC2    H1 2136   3.218   0.925   9.867  2.8308 -0.1244  1.8377
  137TMC2    H2 2137   3.233   0.883   9.443 -2.4202  1.9162  0.4798
  137TMC2    C7 2138   3.090   0.990   9.638  0.2134 -0.3716  0.3176
  137TMC2    C8 2139   3.470   0.792   9.434 -0.0287  0.0860 -0.5582
  137TMC2    O1 2140   3.076   1.068   9.542 -0.1174  0.2420 -0.0755
  137TMC2    O2 2141   3.589   0.798   9.405  0.4758 -0.1530 -0.7178
  137TMC2    O5 2142   3.382   0.702   9.384  0.3899  0.3243  0.1793
  137TMC2    H5 2143   3.295   0.694   9.428  1.2728 -0.9272  1.7048
  138MPD2     C 2144   3.835   0.902   9.988 -0.1752  0.0870 -0.7251
  138MPD2    C1 2145   3.701   0.904  10.013 -0.6084 -0.1797  0.1383
  138MPD2    C2 2146   3.657   0.908  10.149  0.3486  0.0612 -0.2720
  138MPD2    C3 2147   3.744   0.931  10.252  0.4301 -0.5741  0.3752
  138MPD2    C4 2148   3.878   0.935  10.220 -0.2594  0.3898 -0.1344
  138MPD2    C5 2149   3.920   0.915  10.088 -0.2854 -0.3940 -0.9488
  138MPD2     H 2150   3.550   0.899  10.163  0.2861  1.8226  0.3806
  138MPD2    H1 2151   3.960   0.954  10.289  0.9221  0.5170 -1.5858
  138MPD2    H2 2152   3.882   0.882   9.893  1.0891 -1.0819  0.1381
  138MPD2    H3 2153   4.027   0.918  10.069 -0.4028 -0.6386 -1.6515
  138MPD2     N 2154   3.697   0.950  10.384  0.3917  0.0615 -0.1379
  138MPD2    H5 2155   3.597   0.945  10.403  0.4612  0.6009  0.3718
  138MPD2    N1 2156   3.611   0.900   9.903 -0.0526 -0.3071  0.0123
  138MPD2    H7 2157   3.654   0.903   9.811 -0.7890  0.2838 -0.3099
  139TMC2    C1 2158   4.165   3.874  13.778 -0.3130 -0.7777 -0.2644
  139TMC2    C2 2159   4.235   3.972  13.712 -0.1550 -0.2305 -0.9951
  139TMC2    C3 2160   4.178   4.098  13.689  0.6598  0.3203  0.1601
  139TMC2    C4 2161   4.032   3.888  13.777 -0.7495  0.3428 -0.8053
  139TMC2    C5 2162   3.967   4.010  13.750 -0.4312 -0.0380 -0.2525
  139TMC2    C6 2163   4.044   4.116  13.709  0.6042  0.2268  0.0300
  139TMC2     C 2164   4.227   3.751  13.808 -0.5130  0.3357  0.2541
  139TMC2     O 2165   4.338   3.723  13.766  0.2293 -0.6361  0.1015
  139TMC2     H 2166   4.342   3.959  13.720 -0.2696 -1.5440 -1.6536
  139TMC2    H1 2167   3.978   3.799  13.805 -2.2133  1.3512 -0.4167
  139TMC2    H2 2168   3.994   4.212  13.706 -0.6491 -0.4901 -2.2502
  139TMC2    C7 2169   3.826   4.038  13.790  0.2285 -0.2067  0.6358
  139TMC2    C8 2170   4.249   4.192  13.616 -0.3175 -0.2985  0.1853
  139TMC2    O1 2171   3.807   4.155  13.797  0.1404  0.2722 -0.1347
  139TMC2    O2 2172   4.195   4.276  13.550 -0.5091  0.1526 -0.1606
  139TMC2    O5 2173   4.372   4.208  13.670 -0.6705 -0.0056 -0.5364
  139TMC2    H5 2174   4.393   4.150  13.746 -1.2700  1.3022  0.6184
  140MPD2     C 2175   4.066   3.505  14.034  0.0939  0.1272 -0.8940
  140MPD2    C1 2176   4.168   3.551  13.949  0.0755 -0.7142 -0.2221
  140MPD2    C2 2177   4.280   3.475  13.921 -0.0527 -0.6634 -0.3813
  140MPD2    C3 2178   4.287   3.352  13.970 -1.2268 -0.2920  0.0563
  140MPD2    C4 2179   4.187   3.310  14.056 -0.1055  0.1867 -0.1438
  140MPD2    C5 2180   4.082   3.381  14.078 -0.1951  0.3438 -0.2666
  140MPD2     H 2181   4.357   3.515  13.856  0.3929  0.0625  0.6010
  140MPD2    H1 2182   4.195   3.211  14.098 -1.0354 -0.5343 -1.6945
  140MPD2    H2 2183   3.981   3.557  14.076 -0.5808 -2.8608  1.4480
  140MPD2    H3 2184   4.005   3.341  14.142  0.5381 -0.4369  0.1292
  140MPD2     N 2185   4.393   3.270  13.921  0.6990 -0.2808 -0.0102
  140MPD2    H5 2186   4.457   3.318  13.857 -1.6497  0.8642 -1.4915
  140MPD2    N1 2187   4.153   3.679  13.901  0.3593  0.0576 -0.6395
  140MPD2    H7 2188   4.076   3.727  13.948 -2.2815 -2.1649 -2.7197
  141TMC2    C1 2189   4.225   0.878  14.463 -0.0568  0.2928 -0.4081
  141TMC2    C2 2190   4.108   0.857  14.520 -0.7417 -0.5931 -0.5417
  141TMC2    C3 2191   4.065   0.950  14.611 -0.1538  0.1483 -0.2314
  141TMC2    C4 2192   4.310   0.972  14.510  0.6484 -0.1001  0.2194
  141TMC2    C5 2193   4.264   1.064  14.600  0.4806 -0.3940 -0.6330
  141TMC2    C6 2194   4.140   1.053  14.648  0.1715 -0.0436 -0.4171
  141TMC2     C 2195   4.268   0.817  14.335  0.1427  0.0852 -0.1050
  141TMC2     O 2196   4.386   0.820  14.300  0.0995 -0.3796 -0.0570
  141TMC2     H 2197   4.052   0.767  14.500 -2.1100  0.1128  0.1408
  141TMC2    H1 2198   4.394   1.007  14.450  0.0220 -0.0176 -0.6063
  141TMC2    H2 2199   4.102   1.125  14.720  0.3189 -0.0309 -0.3513
  141TMC2    C7 2200   4.337   1.186  14.628  0.3916 -0.0909 -0.0970
  141TMC2    C8 2201   3.952   0.914  14.693  0.4033  0.4037 -0.1377
  141TMC2    O1 2202   4.277   1.289  14.663 -0.2071  0.6816 -0.1275
  141TMC2    O2 2203   3.932   0.966  14.802  0.0065 -1.3685  0.3036
  141TMC2    O5 2204   3.849   0.884  14.602 -0.3920 -0.1455 -0.6195
  141TMC2    H5 2205   3.872   0.886  14.507 -3.7066 -3.5009 -1.4910
  142TMC2    C1 2206   2.265   3.627  10.303 -0.3571 -0.1685  0.2568
  142TMC2    C2 2207   2.245   3.685  10.177 -0.1209  0.4757 -0.5207
  142TMC2    C3 2208   2.263   3.823  10.164 -0.2391  0.3861 -0.2330
  142TMC2    C4 2209   2.294   3.708  10.416 -0.3816 -0.8610  0.1151
  142TMC2    C5 2210   2.308   3.845  10.392  0.0761  0.1361  0.1296
  142TMC2    C6 2211   2.301   3.900  10.270  0.5903  0.1408 -0.0941
  142TMC2     C 2212   2.207   3.496  10.316 -0.6216 -0.0076 -0.0403
  142TMC2     O 2213   2.135   3.453  10.223 -0.3363 -0.0774  0.4620
  142TMC2     H 2214   2.236   3.623  10.088 -0.5980 -1.9741  1.2417
  142TMC2    H1 2215   2.309   3.669  10.516 -0.5071 -0.8408  0.1415
  142TMC2    H2 2216   2.337   4.001  10.252  3.9380 -1.2632 -1.2881
  142TMC2    C7 2217   2.331   3.928  10.512 -0.2189 -0.2598 -0.1297
  142TMC2    C8 2218   2.295   3.871  10.029  0.2999  0.5540 -0.1915
  142TMC2    O1 2219   2.270   3.885  10.611 -0.7585 -0.4447 -0.3288
  142TMC2    O2 2220   2.340   3.985  10.006  0.5976 -0.0840 -0.1130
  142TMC2    O5 2221   2.204   3.819   9.943 -0.1542 -0.2147  0.1617
  142TMC2    H5 2222   2.147   3.747   9.978 -1.4413  1.1825  0.8928
  143MPD2     C 2223   2.036   3.143  10.655 -0.1645  0.3850 -0.7006
  143MPD2    C1 2224   2.009   3.160  10.520  0.1254  1.2106 -0.2643
  143MPD2    C2 2225   2.062   3.263  10.452  0.0318 -0.1146  0.0748
  143MPD2    C3 2226   2.160   3.337  10.512 -0.8277 -0.6270 -0.1878
  143MPD2    C4 2227   2.201   3.316  10.637 -0.1341 -0.3309 -0.1642
  143MPD2    C5 2228   2.132   3.220  10.713  0.2832  0.4375  0.4286
  143MPD2     H 2229   2.033   3.279  10.349 -2.9156 -2.3439  0.5751
  143MPD2    H1 2230   2.266   3.378  10.699 -2.7211 -0.4045  2.6209
  143MPD2    H2 2231   1.987   3.062  10.709 -1.5336  0.1884 -2.2246
  143MPD2    H3 2232   2.153   3.227  10.819  0.8199  2.0056  0.2193
  143MPD2     N 2233   2.220   3.451  10.446  0.3895 -0.5115 -0.1312
  143MPD2    H5 2234   2.290   3.496  10.503 -0.1876 -0.2455  0.3693
  143MPD2    N1 2235   1.918   3.066  10.467 -0.1741 -0.2587 -0.0781
  143MPD2    H7 2236   1.891   2.988  10.526 -0.9579 -0.6485 -0.9453
  144TMC2    C1 2237   0.500   2.955   1.178 -0.1133 -0.1634  0.5159
  144TMC2    C2 2238   0.527   2.845   1.260  0.7168 -0.2140  0.2741
  144TMC2    C3 2239   0.654   2.840   1.308 -0.7309 -0.7563  0.5711
  144TMC2    C4 2240   0.590   3.059   1.161  0.3641 -0.3396 -1.1395
  144TMC2    C5 2241   0.710   3.049   1.224  0.2632  0.2304  0.1066
  144TMC2    C6 2242   0.744   2.939   1.296  0.3694  0.6208  0.3886
  144TMC2     C 2243   0.386   2.944   1.095 -0.2190  0.0631  0.5051
  144TMC2     O 2244   0.345   2.830   1.063 -0.1615  0.0014  0.1572
  144TMC2     H 2245   0.448   2.773   1.281 -0.4841  0.9522 -0.2189
  144TMC2    H1 2246   0.562   3.133   1.086 -4.0541 -1.4287 -0.5671
  144TMC2    H2 2247   0.843   2.927   1.340  1.4731 -2.5144 -2.9155
  144TMC2    C7 2248   0.800   3.162   1.230 -0.2401 -0.0774  0.1447
  144TMC2    C8 2249   0.704   2.718   1.376  0.2990 -0.7402 -0.2671
  144TMC2    O1 2250   0.916   3.136   1.253  0.4907 -0.0381  0.3264
  144TMC2    O2 2251   0.779   2.711   1.474  0.4881 -0.3150  0.4627
  144TMC2    O5 2252   0.626   2.623   1.332 -0.4072 -0.2346  0.9105
  144TMC2    H5 2253   0.579   2.635   1.247 -1.3271  0.9483  1.5983
  145MPD2     C 2254   0.035   3.187   0.819  0.0150 -0.6453 -0.4568
  145MPD2    C1 2255   0.055   3.054   0.834 -0.7276  0.0995  0.2314
  145MPD2    C2 2256   0.153   3.003   0.920 -0.0025  0.0772  0.0250
  145MPD2    C3 2257   0.228   3.097   0.996 -0.3522 -0.1223  0.1976
  145MPD2    C4 2258   0.196   3.225   0.992 -0.4850 -0.2580 -0.5010
  145MPD2    C5 2259   0.093   3.270   0.914  0.7210  0.7468  0.7816
  145MPD2     H 2260   0.170   2.897   0.929  0.9163  0.2641  0.4182
  145MPD2    H1 2261   0.242   3.295   1.061 -0.8393 -1.3653  0.8717
  145MPD2    H2 2262   4.690   3.240   0.768  1.8172  0.4777 -2.1013
  145MPD2    H3 2263   0.058   3.372   0.910  0.2902  0.6652  2.2345
  145MPD2     N 2264   0.342   3.069   1.075  0.1234 -0.1552 -0.5258
  145MPD2    H5 2265   0.396   3.145   1.115 -1.1142 -0.0517  0.9586
  145MPD2    N1 2266   4.723   2.954   0.771 -0.5266 -0.0843 -0.4431
  145MPD2    H7 2267   0.028   2.861   0.776 -1.5338 -0.4633  0.4835
  146TMC2    C1 2268   1.204   1.695  13.018  0.7226  0.4833  0.2114
  146TMC2    C2 2269   1.139   1.773  12.935  0.2361 -0.3464  1.1498
  146TMC2    C3 2270   1.065   1.711  12.837  0.5784 -0.0989 -0.2097
  146TMC2    C4 2271   1.211   1.562  13.009 -0.1141 -0.2744  0.5415
  146TMC2    C5 2272   1.140   1.505  12.903 -0.2343 -0.5415  0.3022
  146TMC2    C6 2273   1.076   1.577  12.808  0.1260  0.0108 -0.6078
  146TMC2     C 2274   1.278   1.774  13.116  0.2816 -0.1875  0.2550
  146TMC2     O 2275   1.243   1.893  13.133  0.4294  0.1014  0.0090
  146TMC2     H 2276   1.125   1.880  12.943  0.7788 -0.3172  1.6784
  146TMC2    H1 2277   1.264   1.505  13.085  2.8045  0.7996 -0.6961
  146TMC2    H2 2278   1.050   1.533  12.712  0.2059 -0.1906 -0.5378
  146TMC2    C7 2279   1.133   1.358  12.883  0.5329 -0.4946  0.0810
  146TMC2    C8 2280   1.016   1.799  12.735  0.3904 -0.3645  0.3328
  146TMC2    O1 2281   1.066   1.317  12.788 -0.9358 -0.0045  0.0758
  146TMC2    O2 2282   1.053   1.913  12.724  0.3550 -0.6006 -1.2250
  146TMC2    O5 2283   0.916   1.739  12.669  0.3244  0.6682 -0.0363
  146TMC2    H5 2284   0.894   1.649  12.702  0.4652  0.5884 -0.1601
  147MPD2     C 2285   1.270   0.882  13.008  0.0543 -0.0430  0.0097
  147MPD2    C1 2286   1.337   0.971  13.090 -0.8236 -0.0539 -1.0656
  147MPD2    C2 2287   1.315   1.105  13.075 -0.0323  0.0366 -0.0896
  147MPD2    C3 2288   1.237   1.155  12.976  0.1113  0.6766  0.1097
  147MPD2    C4 2289   1.175   1.062  12.889  0.0620 -0.6350 -0.2597
  147MPD2    C5 2290   1.192   0.928  12.908  0.1216  0.0823  0.1947
  147MPD2     H 2291   1.361   1.176  13.143  0.7236 -1.0596  0.5365
  147MPD2    H1 2292   1.116   1.098  12.805  0.5791 -1.2595 -0.8957
  147MPD2    H2 2293   1.285   0.775  13.003  2.2041  0.2427  0.1670
  147MPD2    H3 2294   1.140   0.867  12.835  0.7134  0.9595 -0.9462
  147MPD2     N 2295   1.214   1.292  12.971  0.3946 -0.1389 -0.1515
  147MPD2    H5 2296   1.274   1.347  13.033  0.4615 -1.7532  1.2004
  147MPD2    N1 2297   1.419   0.912  13.182  0.2046 -0.3679  0.5275
  147MPD2    H7 2298   1.424   0.811  13.189 -0.3426 -0.4546 -0.4072
  148TMC2    C1 2299   1.898   1.011  10.440 -0.2440 -0.8459 -0.5023
  148TMC2    C2 2300   1.916   1.124  10.515  0.1562  0.7307 -0.4858
  148TMC2    C3 2301   2.018   1.134  10.614  0.6257  0.3010 -0.4943
  148TMC2    C4 2302   1.988   0.908  10.447 -0.1932 -0.0380  0.6145
  148TMC2    C5 2303   2.092   0.920  10.536 -0.4721  0.4659 -0.5958
  148TMC2    C6 2304   2.106   1.026  10.624 -0.1023 -0.5000  0.0397
  148TMC2     C 2305   1.761   0.982  10.409  0.1269 -0.0827  0.5809
  148TMC2     O 2306   1.701   1.077  10.364  0.4386  0.6868 -0.4749
  148TMC2     H 2307   1.849   1.209  10.502 -1.7164 -0.6006  0.4043
  148TMC2    H1 2308   1.971   0.823  10.382 -1.1047 -0.1526  1.0040
  148TMC2    H2 2309   2.188   1.037  10.694 -1.2159 -1.2193  1.4383
  148TMC2    C7 2310   2.143   0.791  10.572 -0.5681  0.2228  0.0376
  148TMC2    C8 2311   2.008   1.202  10.735  0.6461 -0.6295 -0.4359
  148TMC2    O1 2312   2.134   0.696  10.496 -0.2148 -0.2891 -0.1700
  148TMC2    O2 2313   2.057   1.161  10.837 -0.0537 -0.5954  0.8564
  148TMC2    O5 2314   1.909   1.294  10.729  0.1839  0.2794 -0.0276
  148TMC2    H5 2315   1.887   1.323  10.638 -0.8215 -1.4841 -0.3414
  149MPD2     C 2316   1.514   0.859  10.319 -0.4605 -0.0667  0.2756
  149MPD2    C1 2317   1.614   0.794  10.387  0.5410 -0.3036 -0.0713
  149MPD2    C2 2318   1.610   0.659  10.407 -0.0292  0.1448 -0.2414
  149MPD2    C3 2319   1.514   0.589  10.352 -0.8641 -0.4940  0.0050
  149MPD2    C4 2320   1.400   0.650  10.295 -0.2693  0.0168  0.4922
  149MPD2    C5 2321   1.407   0.783  10.284  0.8223  0.2829 -0.6581
  149MPD2     H 2322   1.690   0.603  10.454  2.6679  0.3018 -4.6467
  149MPD2    H1 2323   1.306   0.607  10.262 -0.1774  0.5261 -0.4395
  149MPD2    H2 2324   1.501   0.966  10.313  0.2453  0.0218  0.3170
  149MPD2    H3 2325   1.326   0.838  10.237 -0.0823  0.1582  0.7526
  149MPD2     N 2326   1.493   0.451  10.377 -0.2362 -0.5736  0.0911
  149MPD2    H5 2327   1.404   0.413  10.346  0.7080 -2.9733  0.2888
  149MPD2    N1 2328   1.727   0.855  10.437 -0.3109 -0.1967  0.0494
  149MPD2    H7 2329   1.790   0.803  10.497  0.7593  0.3376 -0.6015
  150TMC2    C1 2330   4.022   4.169  12.653  0.1371  0.3374  0.5759
  150TMC2    C2 2331   3.986   4.248  12.547 -1.0269 -0.1330  0.2143
  150TMC2    C3 2332   4.082   4.336  12.503 -0.0560 -0.6531 -0.3453
  150TMC2    C4 2333   4.139   4.184  12.722 -0.7553  0.6410  0.5314
  150TMC2    C5 2334   4.237   4.277  12.670  0.0270 -0.4564  0.3217
  150TMC2    C6 2335   4.207   4.353  12.556 -0.4684  0.4709  0.0213
  150TMC2     C 2336   3.933   4.063  12.700  0.7859 -0.1776 -0.0767
  150TMC2     O 2337   3.949   4.008  12.809  0.0820  0.0124 -0.0858
  150TMC2     H 2338   3.884   4.249  12.510 -0.5187  0.8981 -1.1784
  150TMC2    H1 2339   4.148   4.128  12.814 -0.7921 -0.7580 -0.3225
  150TMC2    H2 2340   4.270   4.433  12.521  0.1490 -0.3473 -0.7444
  150TMC2    C7 2341   4.376   4.279  12.706 -0.5301 -0.1930 -0.2750
  150TMC2    C8 2342   4.043   4.420  12.390  0.5993 -0.0919 -1.2279
  150TMC2    O1 2343   4.450   4.358  12.651  0.1554 -0.0681 -0.0346
  150TMC2    O2 2344   4.091   4.528  12.364 -0.7548 -0.2505  0.0679
  150TMC2    O5 2345   3.995   4.338  12.289 -0.3652 -0.2573  0.0860
  150TMC2    H5 2346   3.957   4.254  12.322 -1.5821  1.1080  2.2232
  151MPD2     C 2347   3.544   3.746  12.587 -0.6363  0.5178 -0.8598
  151MPD2    C1 2348   3.585   3.810  12.476 -0.1701  0.3077  1.1086
  151MPD2    C2 2349   3.690   3.893  12.484 -0.8405  0.5150  0.4106
  151MPD2    C3 2350   3.753   3.927  12.603 -0.2161 -0.2664  0.2733
  151MPD2    C4 2351   3.705   3.866  12.715  0.5568  0.3501 -0.6676
  151MPD2    C5 2352   3.602   3.779  12.703 -0.0851  0.1839  0.1512
  151MPD2     H 2353   3.735   3.937  12.396 -0.0865  2.4260  1.7315
  151MPD2    H1 2354   3.738   3.899  12.813 -0.5708  0.7056 -0.4122
  151MPD2    H2 2355   3.454   3.685  12.582 -0.5203  0.5464 -3.4473
  151MPD2    H3 2356   3.556   3.754  12.798 -1.3981  1.7244 -0.0782
  151MPD2     N 2357   3.844   4.031  12.602  0.1756  0.1859  0.6065
  151MPD2    H5 2358   3.867   4.075  12.513 -0.3606  1.2500  0.9898
  151MPD2    N1 2359   3.527   3.776  12.352 -0.1130  0.3653 -0.0232
  151MPD2    H7 2360   3.474   3.690  12.360  0.0952  0.0764 -1.8208
  152TMC2    C1 2361   3.658   4.129  13.423  0.8797 -0.1999 -0.5322
  152TMC2    C2 2362   3.746   4.026  13.403 -0.3548 -0.0631  0.3956
  152TMC2    C3 2363   3.877   4.051  13.395 -0.1688  0.5372 -0.1354
  152TMC2    C4 2364   3.709   4.259  13.426 -0.4485  0.0547  0.4009
  152TMC2    C5 2365   3.842   4.282  13.403 -0.1690 -0.0428 -0.2907
  152TMC2    C6 2366   3.933   4.181  13.394 -0.1253  0.2329  0.6097
  152TMC2     C 2367   3.520   4.116  13.393 -0.4231 -0.0434 -0.8538
  152TMC2     O 2368   3.459   4.212  13.346 -0.2044  0.5362  0.2807
  152TMC2     H 2369   3.702   3.935  13.363  1.9348 -1.8012  1.8755
  152TMC2    H1 2370   3.649   4.348  13.444 -0.6883  0.3940 -2.0909
  152TMC2    H2 2371   4.040   4.193  13.382 -0.0939 -0.8498 -0.2786
  152TMC2    C7 2372   3.887   4.413  13.350  0.2621  0.3632 -0.2227
  152TMC2    C8 2373   3.970   3.938  13.400 -0.5625 -0.2823 -0.2286
  152TMC2    O1 2374   3.802   4.486  13.297 -0.7541 -0.0736 -0.1105
  152TMC2    O2 2375   4.090   3.927  13.364  0.2925 -0.2550 -0.1105
  152TMC2    O5 2376   3.889   3.840  13.442  0.1197 -0.0053 -0.4294
  152TMC2    H5 2377   3.794   3.859  13.452 -0.0428  0.2291 -2.4683
  153MPD2     C 2378   3.314   3.802  13.448  0.3103  0.6865 -0.3049
  153MPD2    C1 2379   3.343   3.932  13.394  0.0496 -0.0764 -0.5513
  153MPD2    C2 2380   3.242   4.008  13.334 -0.5821 -0.0718  0.5199
  153MPD2    C3 2381   3.113   3.958  13.331 -0.4117 -0.1253  0.1188
  153MPD2    C4 2382   3.080   3.843  13.402  0.0699 -0.4111 -0.8705
  153MPD2    C5 2383   3.183   3.772  13.465  0.2175  0.4573  0.4023
  153MPD2     H 2384   3.259   4.109  13.298  1.8092 -0.5694  0.2583
  153MPD2    H1 2385   2.978   3.805  13.408  0.1344 -0.6604 -1.3403
  153MPD2    H2 2386   3.381   3.733  13.497 -0.4363 -1.2261 -2.0201
  153MPD2    H3 2387   3.162   3.683  13.522  0.7603  0.7564  1.0652
  153MPD2     N 2388   3.022   4.039  13.255 -0.2576 -0.1102 -1.0814
  153MPD2    H5 2389   3.064   4.115  13.202  0.6200 -0.8584 -1.4411
  153MPD2    N1 2390   3.476   3.985  13.419  0.0365 -0.4004  0.1195
  153MPD2    H7 2391   3.530   3.928  13.482 -0.6978 -1.9839 -0.6887
  154TMC2    C1 2392   0.342   4.058   0.596  1.0543  0.2391  0.3324
  154TMC2    C2 2393   0.369   4.164   0.510 -0.1604 -0.5996 -0.9014
  154TMC2    C3 2394   0.473   4.146   0.421 -0.4613 -0.2505  0.5885
  154TMC2    C4 2395   0.411   3.937   0.604 -0.4541 -0.3697 -0.0349
  154TMC2    C5 2396   0.517   3.927   0.515  0.2482 -0.1631 -0.0782
  154TMC2    C6 2397   0.551   4.034   0.427 -0.4165 -0.8951 -0.3172
  154TMC2     C 2398   0.214   4.063   0.658  0.7052 -0.1500  0.3982
  154TMC2     O 2399   0.158   4.171   0.678 -0.0114 -0.4127 -0.0228
  154TMC2     H 2400   0.301   4.249   0.515 -1.9772 -1.9870 -2.1435
  154TMC2    H1 2401   0.387   3.850   0.664  1.7209 -1.4319 -0.7138
  154TMC2    H2 2402   0.642   4.022   0.370 -0.8049 -2.4385 -0.6300
  154TMC2    C7 2403   0.567   3.792   0.491 -0.0331  0.2139  0.3785
  154TMC2    C8 2404   0.519   4.257   0.336  0.2893  0.7816 -0.6671
  154TMC2    O1 2405   0.619   3.740   0.591 -0.5732 -0.9889  0.4774
  154TMC2    O2 2406   0.632   4.299   0.343  0.3215 -0.1040 -0.7847
  154TMC2    O5 2407   0.412   4.326   0.312  0.3505  0.4675 -0.0107
  154TMC2    H5 2408   0.335   4.266   0.308  1.2835 -0.7544  0.4195
  155MPD2     C 2409   4.728   3.793   0.743 -0.0753  0.2514 -0.0835
  155MPD2    C1 2410   0.022   3.922   0.694 -0.0346  0.4600 -0.2050
  155MPD2    C2 2411   4.652   4.017   0.687  0.1478 -0.2625 -0.0965
  155MPD2    C3 2412   4.518   3.977   0.716  0.3352 -0.2912  0.4669
  155MPD2    C4 2413   4.494   3.849   0.747 -0.1368 -0.5646  0.1080
  155MPD2    C5 2414   4.598   3.756   0.767  0.3537 -0.6885  0.2503
  155MPD2     H 2415   4.678   4.117   0.657  0.4815  0.1050  1.4436
  155MPD2    H1 2416   4.392   3.818   0.765 -0.7079  0.2602 -1.7436
  155MPD2    H2 2417   0.078   3.726   0.753  0.4727  0.6732 -1.7733
  155MPD2    H3 2418   4.564   3.658   0.798 -1.8753  0.5508  1.7605
  155MPD2     N 2419   4.401   4.064   0.712 -0.0925 -0.2463 -0.1181
  155MPD2    H5 2420   4.313   4.036   0.754 -1.2205  0.3768 -2.0497
  155MPD2    N1 2421   0.152   3.940   0.658 -0.2018  0.6096 -0.0919
  155MPD2    H7 2422   0.216   3.861   0.651 -0.0505  0.6378  1.0368
  156TMC2    C1 2423   4.083   1.738  11.670 -0.0212 -0.4744 -0.5637
  156TMC2    C2 2424   4.003   1.747  11.562 -0.3083 -0.5347 -0.1402
  156TMC2    C3 2425   3.991   1.869  11.501 -0.1003  0.6254  0.2172
  156TMC2    C4 2426   4.152   1.847  11.718 -0.0514 -0.1901 -0.7705
  156TMC2    C5 2427   4.134   1.963  11.645  0.0318  0.9381  0.6629
  156TMC2    C6 2428   4.058   1.982  11.536  0.0977 -0.7716 -0.0550
  156TMC2     C 2429   4.085   1.614  11.742  0.4413  0.4765 -0.0761
  156TMC2     O 2430   4.183   1.596  11.810  0.1465 -0.0597 -0.1071
  156TMC2     H 2431   3.942   1.666  11.522 -1.8061  0.0163  1.0250
  156TMC2    H1 2432   4.224   1.830  11.797 -1.8193  1.1457  1.1391
  156TMC2    H2 2433   4.039   2.077  11.488  3.4907 -0.0356  0.0524
  156TMC2    C7 2434   4.190   2.091  11.691 -0.1549  0.0753 -0.2391
  156TMC2    C8 2435   3.918   1.863  11.378 -0.3312  0.4205 -0.3292
  156TMC2    O1 2436   4.127   2.193  11.662  0.2117 -0.2453  0.1587
  156TMC2    O2 2437   3.865   1.761  11.332  0.2059  0.4714  0.3235
  156TMC2    O5 2438   3.903   1.985  11.336 -0.1491 -0.0052  0.0998
  156TMC2    H5 2439   3.826   1.995  11.276 -1.1538  0.7936  1.5033
  157MPD2     C 2440   4.035   1.347  11.857  0.6484 -0.0843 -0.0756
  157MPD2    C1 2441   3.935   1.438  11.822 -0.8694  1.2008  0.5978
  157MPD2    C2 2442   3.806   1.433  11.879  0.3626  0.2760 -0.0193
  157MPD2    C3 2443   3.784   1.331  11.970  0.6325  0.6330  0.4041
  157MPD2    C4 2444   3.888   1.249  12.008 -0.4310 -0.4288  0.1700
  157MPD2    C5 2445   4.010   1.252  11.946  0.4749  0.4382  0.4594
  157MPD2     H 2446   3.732   1.503  11.843  1.4156  1.7383  0.6491
  157MPD2    H1 2447   3.878   1.173  12.085  3.1560 -0.4439  0.6405
  157MPD2    H2 2448   4.135   1.353  11.815 -0.3579 -1.2711 -2.6298
  157MPD2    H3 2449   4.090   1.185  11.974 -0.2319 -0.7043 -0.2556
  157MPD2     N 2450   3.661   1.334  12.037  0.3477  0.1437 -0.1229
  157MPD2    H5 2451   3.588   1.397  12.006  0.0465  0.0254  0.3441
  157MPD2    N1 2452   3.966   1.550  11.741 -0.0373 -0.0427 -0.0594
  157MPD2    H7 2453   3.887   1.607  11.711  1.7536  2.3874 -0.1248
  158TMC2    C1 2454   4.406   0.139  13.811  0.0044 -0.3253 -0.2611
  158TMC2    C2 2455   4.485   0.151  13.697 -0.1741 -0.5372  0.8257
  158TMC2    C3 2456   4.415   0.159  13.581 -0.4420 -0.0272  0.4660
  158TMC2    C4 2457   4.274   0.127  13.809  0.3620 -0.5353  0.5481
  158TMC2    C5 2458   4.208   0.134  13.685 -0.6053  0.3323  0.9657
  158TMC2    C6 2459   4.277   0.164  13.574 -0.1416 -0.3765  0.1436
  158TMC2     C 2460   4.480   0.166  13.934 -0.4658 -0.6983  0.5285
  158TMC2     O 2461   4.580   0.237  13.923  0.0477  0.2472  0.0421
  158TMC2     H 2462   4.593   0.148  13.699 -0.0574  1.1982 -2.2431
  158TMC2    H1 2463   4.210   0.147  13.894  0.6640 -1.6963  1.0457
  158TMC2    H2 2464   4.230   0.170  13.476 -0.2815  0.3502  0.2538
  158TMC2    C7 2465   4.066   0.164  13.675  0.1038  0.1398  0.1091
  158TMC2    C8 2466   4.483   0.224  13.468 -0.4123  0.0338 -0.0591
  158TMC2    O1 2467   4.026   0.228  13.582 -0.4655 -0.0664 -0.5891
  158TMC2    O2 2468   4.605   0.234  13.470  0.1612  0.3641  0.2142
  158TMC2    O5 2469   4.402   0.317  13.406 -0.1343  0.6929 -0.2384
  158TMC2    H5 2470   4.311   0.319  13.443  0.0466  0.7027  0.2007
  159MPD2     C 2471   4.587   0.160  14.439  0.7540  1.3782 -0.4930
  159MPD2    C1 2472   4.510   0.050  14.404  0.1298 -0.9916 -0.2489
  159MPD2    C2 2473   4.458   0.029  14.269  0.0443  0.9443  0.0089
  159MPD2    C3 2474   4.484   0.120  14.169  0.6790  0.1773  0.3510
  159MPD2    C4 2475   4.565   0.223  14.207  0.3112 -0.3416  0.8779
  159MPD2    C5 2476   4.619   0.240  14.334  0.0529  0.2288 -0.1202
  159MPD2     H 2477   4.387   4.683  14.252  1.5199 -0.3600 -0.0120
  159MPD2    H1 2478   4.603   0.297  14.137 -0.1498  1.7789  2.9037
  159MPD2    H2 2479   4.625   0.173  14.540  1.2158 -0.6758 -0.4024
  159MPD2    H3 2480   4.672   0.332  14.355 -0.1107  0.3724 -0.3245
  159MPD2     N 2481   4.427   0.107  14.042  0.0570  0.3724 -0.3147
  159MPD2    H5 2482   4.343   0.051  14.031 -0.0633  0.7072 -1.0946
  159MPD2    N1 2483   4.453   4.712  14.508 -0.0243 -0.1526  0.3147
  159MPD2    H7 2484   4.487   4.724  14.603  0.1668 -0.0217  0.2270
  160TMC2    C1 2485   3.559   0.407   1.696  0.6191  0.6783  0.3428
  160TMC2    C2 2486   3.529   0.515   1.773  0.1707  0.1576  0.2255
  160TMC2    C3 2487   3.625   0.606   1.797 -0.1732 -0.0024  0.2902
  160TMC2    C4 2488   3.688   0.384   1.654 -0.0458  0.2381  0.1224
  160TMC2    C5 2489   3.783   0.480   1.681  0.2266  0.3412 -1.1447
  160TMC2    C6 2490   3.755   0.589   1.755  0.7205 -0.1362 -0.4368
  160TMC2     C 2491   3.469   0.292   1.693  0.6700 -0.7256  0.1839
  160TMC2     O 2492   3.357   0.307   1.738  0.5163  0.3410 -0.2925
  160TMC2     H 2493   3.433   0.538   1.818 -0.4012 -1.2831 -0.2497
  160TMC2    H1 2494   3.714   0.298   1.593 -2.5981 -0.7650  0.4805
  160TMC2    H2 2495   3.841   0.640   1.797 -0.3861  0.1619  1.4868
  160TMC2    C7 2496   3.929   0.465   1.646  0.1276 -0.1848 -0.5175
  160TMC2    C8 2497   3.596   0.721   1.875  0.0722  0.8207  0.0051
  160TMC2    O1 2498   3.995   0.569   1.660 -0.1657  0.6089 -0.3056
  160TMC2    O2 2499   3.491   0.726   1.939 -0.3359 -1.2826  0.2851
  160TMC2    O5 2500   3.667   0.825   1.817  0.1274 -0.4696 -0.1518
  160TMC2    H5 2501   3.735   0.805   1.749  0.3942  1.7401 -0.5325
  161MPD2     C 2502   3.324   0.023   1.660 -0.1112 -0.8010 -0.2795
  161MPD2    C1 2503   3.434   0.063   1.586  0.4832  0.6704 -0.4721
  161MPD2    C2 2504   3.464   4.716   1.475  0.3230 -0.1482 -0.5742
  161MPD2    C3 2505   3.385   4.613   1.431  0.4968 -0.5507  0.5014
  161MPD2    C4 2506   3.269   4.591   1.503 -0.2406 -0.1886  0.7136
  161MPD2    C5 2507   3.250   4.648   1.624 -0.5068 -0.3762 -0.3148
  161MPD2     H 2508   3.551   0.018   1.420  1.4993  0.6879  1.8392
  161MPD2    H1 2509   3.199   4.515   1.471  0.0077 -0.3849  0.6457
  161MPD2    H2 2510   3.295   0.082   1.746 -0.2447  0.7453 -1.3798
  161MPD2    H3 2511   3.162   4.621   1.680 -1.5855  0.2468 -1.6867
  161MPD2     N 2512   3.405   4.548   1.306  0.0352  0.4757 -0.2325
  161MPD2    H5 2513   3.319   4.521   1.260 -0.2769 -0.3169  0.8165
  161MPD2    N1 2514   3.510   0.180   1.615  0.5224 -0.1103 -0.3672
  161MPD2    H7 2515   3.595   0.186   1.560  0.9564 -1.2282  0.1856
  162TMC2    C1 2516   1.002   0.878   1.121  0.7638  0.3167  0.6121
  162TMC2    C2 2517   0.866   0.891   1.143 -0.4749  0.6814  0.1160
  162TMC2    C3 2518   0.825   0.919   1.268  0.7460 -0.2561 -0.1133
  162TMC2    C4 2519   1.097   0.898   1.219  0.4781  0.2627 -0.4883
  162TMC2    C5 2520   1.055   0.931   1.346 -0.0373  0.4572 -0.1396
  162TMC2    C6 2521   0.917   0.948   1.363 -0.2026  0.0354  0.2302
  162TMC2     C 2522   1.056   0.820   0.994 -0.1199 -0.2032  0.6066
  162TMC2     O 2523   1.171   0.779   0.995 -0.2277  0.0522  0.2508
  162TMC2     H 2524   0.799   0.884   1.058 -0.5399  0.7643  0.1603
  162TMC2    H1 2525   1.201   0.877   1.197  0.6992  0.5250  0.2871
  162TMC2    H2 2526   0.882   0.975   1.462 -0.2163  0.6211  0.0687
  162TMC2    C7 2527   1.142   0.996   1.446  0.6730 -0.7313 -0.6897
  162TMC2    C8 2528   0.684   0.924   1.309 -0.1976  0.0276 -0.1970
  162TMC2    O1 2529   1.084   1.077   1.521 -0.2577  0.2486 -0.1182
  162TMC2    O2 2530   0.641   0.974   1.410  0.3174 -0.2615 -0.2724
  162TMC2    O5 2531   0.614   0.883   1.205 -0.5378 -0.1508 -0.4315
  162TMC2    H5 2532   0.659   0.818   1.147 -0.4031  0.9355 -1.5762
  163MPD2     C 2533   0.980   0.643   0.502 -0.2959  0.2641 -0.0973
  163MPD2    C1 2534   1.093   0.649   0.584 -0.8760  0.0984 -0.5133
  163MPD2    C2 2535   1.088   0.696   0.717  0.0297 -0.2280 -0.6067
  163MPD2    C3 2536   0.977   0.751   0.764 -0.3461  0.1415 -1.0445
  163MPD2    C4 2537   0.864   0.756   0.686  0.6307 -0.2908  0.3041
  163MPD2    C5 2538   0.865   0.703   0.558  0.4482 -0.2008 -0.6139
  163MPD2     H 2539   1.176   0.701   0.781 -1.1498  2.4792  0.7868
  163MPD2    H1 2540   0.767   0.794   0.713  1.3842  1.5909  0.3471
  163MPD2    H2 2541   0.982   0.596   0.404  1.3264  0.0525  0.0444
  163MPD2    H3 2542   0.766   0.687   0.518 -0.5664  1.8578  1.1264
  163MPD2     N 2543   0.966   0.804   0.891  0.0063  0.0036 -0.1316
  163MPD2    H5 2544   0.877   0.846   0.916 -0.0579  0.8608 -1.7941
  163MPD2    N1 2545   1.212   0.593   0.538 -0.0168  0.2983  0.0084
  163MPD2    H7 2546   1.214   0.557   0.443 -1.6806 -0.9655  0.4506
  164TMC2    C1 2547   2.792   0.477  11.532  0.1919 -0.8592 -0.2445
  164TMC2    C2 2548   2.818   0.414  11.413  0.1001 -0.1291 -0.5444
  164TMC2    C3 2549   2.712   0.408  11.323 -0.0343 -0.9018  0.2531
  164TMC2    C4 2550   2.669   0.516  11.562  0.0756  0.3149  0.0485
  164TMC2    C5 2551   2.565   0.486  11.479  0.5214 -0.1930 -0.1185
  164TMC2    C6 2552   2.583   0.439  11.353  0.3370  0.2850  0.1486
  164TMC2     C 2553   2.883   0.471  11.650 -0.5207 -0.5762 -0.4332
  164TMC2     O 2554   2.834   0.482  11.760  0.1589 -0.1117 -0.0448
  164TMC2     H 2555   2.905   0.351  11.395 -1.2575 -1.7990 -1.2255
  164TMC2    H1 2556   2.642   0.560  11.658 -1.9729 -0.0924 -0.3434
  164TMC2    H2 2557   2.497   0.425  11.288  1.6103  0.4675 -1.5615
  164TMC2    C7 2558   2.432   0.512  11.530  0.3991  0.0785 -0.7261
  164TMC2    C8 2559   2.723   0.287  11.234  0.8908  0.1361  0.1764
  164TMC2    O1 2560   2.346   0.534  11.447 -0.5812  0.4570 -0.0685
  164TMC2    O2 2561   2.748   0.179  11.291 -0.0610 -0.3743 -0.1588
  164TMC2    O5 2562   2.634   0.316  11.139  0.0916  0.3851  0.1642
  164TMC2    H5 2563   2.626   0.404  11.097 -1.5011  0.4418  0.5741
  165TMC2    C1 2564   2.995   2.807   1.225  0.2675 -0.6285 -0.4824
  165TMC2    C2 2565   2.921   2.897   1.151 -0.7889 -0.8718 -0.1858
  165TMC2    C3 2566   2.942   3.024   1.172  0.5504 -0.0329  0.0514
  165TMC2    C4 2567   3.094   2.836   1.314  0.0750  0.4776 -0.3594
  165TMC2    C5 2568   3.116   2.969   1.323 -1.5442  0.0790 -0.1984
  165TMC2    C6 2569   3.049   3.065   1.252  0.3574 -0.8986 -0.0449
  165TMC2     C 2570   2.949   2.670   1.247  0.0133  0.3810 -0.8158
  165TMC2     O 2571   2.960   2.625   1.361  0.3849  0.3633  1.1481
  165TMC2     H 2572   2.837   2.865   1.092 -1.1537 -0.7314  0.2616
  165TMC2    H1 2573   3.138   2.761   1.378  1.1649 -0.2300 -1.9514
  165TMC2    H2 2574   3.089   3.166   1.256 -2.4334  0.1811  0.3857
  165TMC2    C7 2575   3.231   3.007   1.404  1.0879  0.3238 -0.2739
  165TMC2    C8 2576   2.849   3.115   1.113 -0.4933  0.4428  0.7360
  165TMC2    O1 2577   3.324   2.928   1.429  0.6928  0.2598 -0.2724
  165TMC2    O2 2578   2.760   3.084   1.034 -0.2017 -0.2265 -0.2830
  165TMC2    O5 2579   2.851   3.228   1.185 -0.4364 -0.0984 -0.0374
  165TMC2    H5 2580   2.918   3.216   1.256 -0.2283 -2.5280 -0.6517
  166MPD2     C 2581   2.742   2.241   1.051 -0.1763 -0.0296 -0.1105
  166MPD2    C1 2582   2.755   2.276   1.188 -0.5937 -0.5656  0.0577
  166MPD2    C2 2583   2.806   2.397   1.219  0.3141 -0.5110  0.1741
  166MPD2    C3 2584   2.843   2.487   1.115  1.0007 -0.5434 -0.2239
  166MPD2    C4 2585   2.819   2.455   0.987  0.5917  0.2594  0.3191
  166MPD2    C5 2586   2.769   2.333   0.954 -0.0224 -0.4951  0.0548
  166MPD2     H 2587   2.836   2.426   1.319 -0.1637  1.8157 -0.3526
  166MPD2    H1 2588   2.831   2.514   0.898 -1.1282 -1.8646 -1.3160
  166MPD2    H2 2589   2.704   2.145   1.019 -0.5738  0.2006 -0.3256
  166MPD2    H3 2590   2.745   2.307   0.851 -0.7990 -1.1356  0.4004
  166MPD2     N 2591   2.900   2.614   1.133  0.2260 -0.7522  0.2936
  166MPD2    H5 2592   2.913   2.671   1.050 -1.5084 -1.3556 -0.3863
  166MPD2    N1 2593   2.736   2.180   1.290  0.6592  0.3233 -0.5972
  166MPD2    H7 2594   2.721   2.086   1.254  1.5549 -0.1486  0.2733
  167TMC2    C1 2595   1.860   4.699  13.240 -0.3483 -0.6476  0.2758
  167TMC2    C2 2596   1.755   0.029  13.306  0.6551 -0.5130  0.4422
  167TMC2    C3 2597   1.652   4.683  13.343  0.3527  0.3309  0.0559
  167TMC2    C4 2598   1.861   4.564  13.213 -0.2002 -0.3918 -0.4213
  167TMC2    C5 2599   1.750   4.489  13.250 -0.5947  1.0349 -0.3444
  167TMC2    C6 2600   1.647   4.549  13.314  0.2330 -0.1436 -0.4404
  167TMC2     C 2601   1.957   0.053  13.178  0.9378  0.3528 -0.0468
  167TMC2     O 2602   1.963   0.168  13.227 -0.3023 -0.0477  0.4772
  167TMC2     H 2603   1.751   0.136  13.323  2.1281 -0.7587  2.2783
  167TMC2    H1 2604   1.942   4.511  13.165  0.7241  0.4199  0.2485
  167TMC2    H2 2605   1.569   4.487  13.356  0.0044  1.2465  1.1862
  167TMC2    C7 2606   1.737   4.350  13.208  0.4710 -0.8532  1.0150
  167TMC2    C8 2607   1.548   0.007  13.416 -0.1806 -0.4624 -0.7728
  167TMC2    O1 2608   1.628   4.297  13.218 -0.6436 -0.0551 -0.3258
  167TMC2    O2 2609   1.562   0.098  13.495 -0.5580  0.0380 -0.0929
  167TMC2    O5 2610   1.431   4.699  13.372 -0.3526  0.0931 -0.4453
  167TMC2    H5 2611   1.441   4.665  13.281  2.8789  1.6749 -0.6578
  168MPD2     C 2612   2.101   0.207  12.990 -0.3807  0.3942  0.0404
  168MPD2    C1 2613   2.058   0.077  12.962 -0.2709  0.3277  0.4754
  168MPD2    C2 2614   2.071   0.020  12.837  0.1708  0.0934  0.0305
  168MPD2    C3 2615   2.126   0.103  12.734  0.0094  0.3222  0.2466
  168MPD2    C4 2616   2.174   0.228  12.762  1.1427  0.2295  0.1934
  168MPD2    C5 2617   2.161   0.282  12.891 -0.0714 -0.1174 -0.4518
  168MPD2     H 2618   2.024   4.659  12.815  2.1109 -1.1911  1.3756
  168MPD2    H1 2619   2.207   0.292  12.680  0.7501  3.3793  2.4971
  168MPD2    H2 2620   2.106   0.256  13.087  1.3849 -0.1893  0.2369
  168MPD2    H3 2621   2.197   0.382  12.916  1.5201 -0.5465 -1.0212
  168MPD2     N 2622   2.123   0.063  12.603 -0.2542  0.3571  0.3371
  168MPD2    H5 2623   2.148   0.126  12.527  0.7310  1.7000  1.8032
  168MPD2    N1 2624   1.997   0.001  13.064  0.8663  0.6261  0.0840
  168MPD2    H7 2625   1.972   4.638  13.050  1.3811  0.2873  1.5615
  169MPD1     C 2626   4.126   3.699  10.325 -0.4459  0.2044  0.1609
  169MPD1    C1 2627   4.117   3.666  10.186  0.1548  0.2292  0.7771
  169MPD1    C2 2628   4.220   3.701  10.095 -0.4585 -0.1172  0.4007
  169MPD1    C3 2629   4.326   3.776  10.147 -0.6838 -0.6817  0.0220
  169MPD1    C4 2630   4.328   3.807  10.279  0.3469 -0.1723  0.3717
  169MPD1    C5 2631   4.238   3.761  10.374 -0.1730 -0.1560  0.0930
  169MPD1     H 2632   4.223   3.674   9.991  2.6721 -1.3584  0.8390
  169MPD1    H1 2633   4.406   3.861  10.333  0.8217  0.0335 -0.5135
  169MPD1    H2 2634   4.051   3.658  10.392  0.5851 -2.8405 -0.5585
  169MPD1    H3 2635   4.261   3.795  10.474  4.6111 -1.7614 -0.4099
  169MPD1     N 2636   4.437   3.788  10.063  0.0939  0.4371  0.4845
  169MPD1    H5 2637   4.434   3.762   9.965 -2.3807  0.1000  0.6610
  169MPD1    N1 2638   4.016   3.583  10.141  0.9808  0.5165  0.0659
  169MPD1    H6 2639   3.927   3.580  10.191  0.2116  0.1462 -1.3255
  169MPD1    H7 2640   3.995   3.587  10.042 -0.4500  1.0159  0.3842
  170MPD1     C 2641   2.055   1.644  13.117 -0.0405  0.2405  0.7457
  170MPD1    C1 2642   2.112   1.580  13.223 -0.1028  0.7718  0.0804
  170MPD1    C2 2643   2.156   1.662  13.327  0.4517 -0.5189  0.3515
  170MPD1    C3 2644   2.168   1.799  13.314  0.9627  0.5988  0.3594
  170MPD1    C4 2645   2.122   1.856  13.196 -0.2883 -0.4287  1.0928
  170MPD1    C5 2646   2.071   1.774  13.101  0.2175 -0.2350  0.2273
  170MPD1     H 2647   2.189   1.618  13.420 -0.1310 -0.2617  0.6769
  170MPD1    H1 2648   2.127   1.961  13.168 -0.4178 -0.5120  0.7553
  170MPD1    H2 2649   2.002   1.592  13.038  0.8785 -0.2419  0.4526
  170MPD1    H3 2650   2.040   1.826  13.011 -1.4091  1.1052  1.5515
  170MPD1     N 2651   2.202   1.873  13.426  0.1846 -0.3668 -0.3220
  170MPD1    H5 2652   2.224   1.817  13.508 -1.5308  0.6092  0.7933
  170MPD1    N1 2653   2.097   1.442  13.251  0.8856  0.0146 -0.0782
  170MPD1    H6 2654   2.168   1.404  13.313  0.9950 -0.0193 -0.2236
  170MPD1    H7 2655   2.089   1.397  13.160 -0.8607 -2.1972  1.1805
  171MPD1     C 2656   1.377   3.849  15.651 -0.3000  0.5315  0.2768
  171MPD1    C1 2657   1.301   3.733  15.657  0.5014  0.1595 -0.1160
  171MPD1    C2 2658   1.361   3.622  15.710  0.0970  0.5808 -0.6205
  171MPD1    C3 2659   1.486   3.624  15.766  0.4236 -0.7898  0.4091
  171MPD1    C4 2660   1.545   3.746  15.774  0.6272  0.3349  0.4700
  171MPD1    C5 2661   1.488   3.856  15.725 -0.7872  0.0085 -0.1002
  171MPD1     H 2662   1.311   3.526  15.702  2.0382 -0.5154  0.3149
  171MPD1    H1 2663   1.639   3.748  15.826  0.6594 -1.1822  0.4684
  171MPD1    H2 2664   1.334   3.931  15.595 -0.6483 -0.3706 -0.7750
  171MPD1    H3 2665   1.542   3.949  15.739 -1.1373  0.3305 -0.9174
  171MPD1     N 2666   1.564   3.507  15.811  0.5006  1.1344  0.1824
  171MPD1    H5 2667   1.657   3.523  15.849  1.2152  0.4606 -1.2718
  171MPD1    N1 2668   1.189   3.726  15.573 -0.1839  0.2542 -0.2820
  171MPD1    H6 2669   1.144   3.814  15.551 -1.1153  0.0790  0.9536
  171MPD1    H7 2670   1.119   3.664  15.614 -1.0997  1.4111 -0.1148
  172MPD1     C 2671   4.538   2.307   1.010 -0.3027  0.5212  0.8799
  172MPD1    C1 2672   4.557   2.441   1.022 -0.0288 -0.0752 -0.1335
  172MPD1    C2 2673   4.681   2.496   0.977  0.4354 -0.8017  0.0568
  172MPD1    C3 2674   0.033   2.416   0.904 -0.0584  0.0870 -0.3210
  172MPD1    C4 2675   0.021   2.281   0.908  0.5047  0.2999  0.2323
  172MPD1    C5 2676   4.640   2.232   0.959 -0.3604 -0.9222  0.2612
  172MPD1     H 2677   4.708   2.600   0.994 -2.3105 -0.6917  3.5931
  172MPD1    H1 2678   0.101   2.221   0.868 -0.5596 -1.3060  0.4985
  172MPD1    H2 2679   4.458   2.255   1.062  1.2041 -1.7915  0.9159
  172MPD1    H3 2680   4.638   2.124   0.961  1.6008 -0.9576  0.2543
  172MPD1     N 2681   0.147   2.473   0.838  0.0664  0.4104  0.6953
  172MPD1    H5 2682   0.226   2.411   0.820  1.5772  2.7334 -0.6687
  172MPD1    N1 2683   4.472   2.511   1.105 -0.5453 -0.0163 -0.5074
  172MPD1    H6 2684   4.497   2.609   1.100 -1.5539  0.3643  1.7827
  172MPD1    H7 2685   4.376   2.498   1.074 -0.5650  0.9050 -0.8193
  173MPD1     C 2686   2.133   3.189  13.988 -0.1526  0.5147  0.2092
  173MPD1    C1 2687   2.001   3.156  14.009 -0.0701 -0.0208 -0.0332
  173MPD1    C2 2688   1.973   3.025  14.050 -0.2503 -0.1578  0.1918
  173MPD1    C3 2689   2.077   2.949  14.090  0.8836 -0.0578 -0.4709
  173MPD1    C4 2690   2.206   2.988  14.075 -0.1505 -0.6627 -0.3123
  173MPD1    C5 2691   2.234   3.114  14.020 -0.3825 -0.0798 -0.4257
  173MPD1     H 2692   1.869   2.996  14.061 -1.1731  2.9678 -0.2815
  173MPD1    H1 2693   2.287   2.930  14.117 -0.8728 -0.4748  1.3293
  173MPD1    H2 2694   2.162   3.291  13.963 -0.5517  0.6808  0.4265
  173MPD1    H3 2695   2.335   3.150  14.031 -0.5177 -0.1364  0.8957
  173MPD1     N 2696   2.045   2.827  14.154 -0.4909 -0.4321 -0.2015
  173MPD1    H5 2697   1.944   2.819  14.164 -0.6978  0.5863 -1.4925
  173MPD1    N1 2698   1.905   3.253  13.963 -0.4677 -0.1013  0.1110
  173MPD1    H6 2699   1.932   3.349  13.987 -0.0146 -0.4159  0.8500
  173MPD1    H7 2700   1.816   3.244  14.012  0.1057 -0.8424  1.0062
  174MPD1     C 2701   2.636   2.160  14.641 -0.4859 -0.4033  0.3072
  174MPD1    C1 2702   2.532   2.182  14.730  0.6556  0.0393  0.0724
  174MPD1    C2 2703   2.420   2.243  14.679  0.0004 -0.2579  0.4988
  174MPD1    C3 2704   2.417   2.301  14.556  0.3166 -0.0080 -0.7479
  174MPD1    C4 2705   2.529   2.288  14.475 -0.0370 -0.4356  0.7537
  174MPD1    C5 2706   2.637   2.213  14.517  0.1974 -0.2074 -0.3351
  174MPD1     H 2707   2.329   2.245  14.738 -0.0609  4.3008  0.2743
  174MPD1    H1 2708   2.521   2.323  14.373 -0.6471 -1.2802  0.5160
  174MPD1    H2 2709   2.722   2.097  14.662 -1.7380 -1.5980  1.7833
  174MPD1    H3 2710   2.722   2.199  14.451 -0.7298  2.0784 -2.0195
  174MPD1     N 2711   2.302   2.374  14.508 -0.0680  0.5936 -0.1041
  174MPD1    H5 2712   2.311   2.410  14.413 -2.0229 -1.8882 -1.2259
  174MPD1    N1 2713   2.538   2.129  14.859 -0.1149  0.1125  0.6890
  174MPD1    H6 2714   2.636   2.119  14.885  0.4911  5.0894  0.2466
  174MPD1    H7 2715   2.492   2.195  14.920 -1.2522  1.3405 -1.4983
  175MPD1     C 2716   0.197   3.506  15.512  0.3840  0.6090 -0.2818
  175MPD1    C1 2717   0.267   3.407  15.564 -0.3759 -0.5080  0.5993
  175MPD1    C2 2718   0.274   3.405  15.703  0.6178  0.3060 -0.0072
  175MPD1    C3 2719   0.193   3.480  15.780  0.3322 -0.5029 -0.1573
  175MPD1    C4 2720   0.113   3.579  15.724  0.0156 -0.9067 -0.1821
  175MPD1    C5 2721   0.113   3.587  15.585  0.1185 -0.8050  0.2531
  175MPD1     H 2722   0.346   3.335  15.743  1.2365  0.6341 -0.5372
  175MPD1    H1 2723   0.047   3.643  15.782 -0.1914 -1.6806  0.4420
  175MPD1    H2 2724   0.191   3.514  15.404  2.7318  0.7920 -0.4116
  175MPD1    H3 2725   0.048   3.661  15.541 -0.4986 -0.5538  1.6147
  175MPD1     N 2726   0.190   3.464  15.927  0.0549  0.0581 -0.0284
  175MPD1    H5 2727   0.138   3.536  15.976 -0.2277  0.9259 -1.5810
  175MPD1    N1 2728   0.349   3.322  15.489  0.3828 -0.2937 -0.1525
  175MPD1    H6 2729   0.305   3.308  15.398  1.4129  0.7986 -0.8070
  175MPD1    H7 2730   0.371   3.232  15.533 -0.7105 -0.4292  0.1193
  176MPD1     C 2731   1.290   1.598  17.624  0.3354  0.2734 -0.2485
  176MPD1    C1 2732   1.372   1.691  17.681 -0.3693  0.4961 -0.6452
  176MPD1    C2 2733   1.443   1.655   0.057 -0.2072 -0.0405 -0.9851
  176MPD1    C3 2734   1.446   1.530   0.111  0.0374  0.2512 -0.1121
  176MPD1    C4 2735   1.369   1.435   0.045  0.6583  0.5405  0.2980
  176MPD1    C5 2736   1.294   1.473  17.671  0.1506 -0.8684  0.1966
  176MPD1     H 2737   1.505   1.729   0.106 -1.7172  0.7618 -0.2835
  176MPD1    H1 2738   1.359   1.330   0.072  1.6541  0.1953 -0.7125
  176MPD1    H2 2739   1.241   1.603  17.527  3.0121  0.4768 -1.5930
  176MPD1    H3 2740   1.250   1.393  17.612  4.1020 -2.8250 -0.1210
  176MPD1     N 2741   1.537   1.494   0.217 -0.5617  0.4974 -0.4612
  176MPD1    H5 2742   1.599   1.566   0.254 -1.1488  0.2501  0.9936
  176MPD1    N1 2743   1.361   1.824  17.640  0.0389 -0.2801 -0.6497
  176MPD1    H6 2744   1.325   1.833  17.545  1.2945 -1.9463 -1.2741
  176MPD1    H7 2745   1.448   1.875  17.627 -0.0752 -0.1617 -0.9476
  177MPD1     C 2746   0.704   0.340  10.448  0.2197 -0.0690  0.2057
  177MPD1    C1 2747   0.642   0.269  10.350  0.2049 -0.6147  0.0041
  177MPD1    C2 2748   0.558   0.339  10.261  0.2922  0.0974 -0.4034
  177MPD1    C3 2749   0.513   0.462  10.295  0.3013 -0.3907  0.3113
  177MPD1    C4 2750   0.566   0.524  10.398  0.7682  0.6512  1.0278
  177MPD1    C5 2751   0.664   0.465  10.477 -0.1645 -0.3767 -0.3895
  177MPD1     H 2752   0.524   0.285  10.174 -1.0571  1.2484 -0.5849
  177MPD1    H1 2753   0.541   0.622  10.436  1.2558  1.5059 -0.8435
  177MPD1    H2 2754   0.763   0.284  10.520  1.8110  0.3920 -0.7495
  177MPD1    H3 2755   0.717   0.517  10.557 -0.6743  0.6814 -0.7353
  177MPD1     N 2756   0.411   0.521  10.207  0.3577 -0.4054  0.1859
  177MPD1    H5 2757   0.378   0.470  10.126  1.0781  0.0962 -0.4226
  177MPD1    N1 2758   0.681   0.140  10.317 -0.8113 -0.1339  0.4415
  177MPD1    H6 2759   0.605   0.091  10.271 -0.2993 -1.5648  1.1288
  177MPD1    H7 2760   0.729   0.092  10.393  0.7669 -1.3832 -1.3260
  178MPD1     C 2761   2.229   1.384   0.466 -0.3554  0.6794 -0.4504
  178MPD1    C1 2762   2.298   1.503   0.475  0.2218  0.1261  0.1331
  178MPD1    C2 2763   2.379   1.545   0.372 -0.8597 -0.0077  0.3811
  178MPD1    C3 2764   2.394   1.471   0.255  0.1708  0.4360  0.4932
  178MPD1    C4 2765   2.332   1.353   0.256  0.2836 -0.0164  0.1938
  178MPD1    C5 2766   2.253   1.305   0.358  0.0323 -0.3939  0.1203
  178MPD1     H 2767   2.439   1.634   0.386 -1.4172  0.4619 -0.2229
  178MPD1    H1 2768   2.338   1.288   0.169  1.0104  1.0478 -0.5646
  178MPD1    H2 2769   2.163   1.356   0.548  1.7405  2.3506  1.7934
  178MPD1    H3 2770   2.204   1.209   0.358 -2.2301  0.7565  1.1353
  178MPD1     N 2771   2.463   1.512   0.142 -0.2394 -0.2361 -0.0345
  178MPD1    H5 2772   2.464   1.439   0.071 -1.9102  1.6845 -2.0333
  178MPD1    N1 2773   2.295   1.571   0.596 -0.3554  0.5196  0.2708
  178MPD1    H6 2774   2.209   1.566   0.650 -0.7391  0.2046 -0.3604
  178MPD1    H7 2775   2.317   1.668   0.573 -1.0294 -0.2221 -3.6084
  179MPD1     C 2776   2.297   0.275  16.355  1.0835  0.5966 -0.1386
  179MPD1    C1 2777   2.175   0.213  16.337  0.8069 -0.2901  0.1569
  179MPD1    C2 2778   2.171   0.112  16.243  0.1771  0.1137  0.3187
  179MPD1    C3 2779   2.285   0.059  16.188  0.1591  0.1476  0.1062
  179MPD1    C4 2780   2.401   0.133  16.198  0.2316 -0.3003 -0.2909
  179MPD1    C5 2781   2.401   0.243  16.281  0.0953 -1.0305  0.5771
  179MPD1     H 2782   2.072   0.073  16.219 -0.0787  0.5184  0.7231
  179MPD1    H1 2783   2.496   0.111  16.152 -0.1595 -1.1489 -0.6811
  179MPD1    H2 2784   2.309   0.350  16.432  1.5403  1.3154 -0.8969
  179MPD1    H3 2785   2.497   0.293  16.291 -0.3629  0.1227 -0.7363
  179MPD1     N 2786   2.307   4.674  16.109  0.7806 -0.3608  0.4793
  179MPD1    H5 2787   2.396   4.647  16.070  0.5175  0.7901 -0.9279
  179MPD1    N1 2788   2.054   0.272  16.376 -0.1937 -0.8074 -0.6029
  179MPD1    H6 2789   1.986   0.201  16.403 -0.5412 -0.7176 -1.2538
  179MPD1    H7 2790   2.075   0.330  16.457 -0.1220  0.1941 -1.3352
  180MPD1     C 2791   2.653   1.338  15.520  0.2692 -0.1260 -0.2760
  180MPD1    C1 2792   2.685   1.332  15.386 -0.0145  0.3741 -0.7186
  180MPD1    C2 2793   2.592   1.274  15.297 -0.7850  0.4109 -0.1668
  180MPD1    C3 2794   2.467   1.231  15.338  0.5980  0.5830 -0.0179
  180MPD1    C4 2795   2.430   1.248  15.470  0.3418  0.4655  0.2834
  180MPD1    C5 2796   2.522   1.299  15.556 -0.2795 -0.0895  0.1248
  180MPD1     H 2797   2.624   1.266  15.194  2.8457  3.1286  0.7439
  180MPD1    H1 2798   2.337   1.221  15.518 -0.2631  1.4732 -0.3353
  180MPD1    H2 2799   2.728   1.368  15.592 -0.4857  2.5263 -0.6010
  180MPD1    H3 2800   2.493   1.314  15.659 -0.1802 -0.9130  0.2774
  180MPD1     N 2801   2.387   1.168  15.242 -0.1592  0.3021 -0.8081
  180MPD1    H5 2802   2.425   1.162  15.148 -0.6506  0.3941 -1.0160
  180MPD1    N1 2803   2.815   1.354  15.350  0.8318  0.1714 -0.1501
  180MPD1    H6 2804   2.819   1.399  15.259  1.5828 -0.4248 -0.4149
  180MPD1    H7 2805   2.860   1.421  15.411 -0.3276  1.3236 -0.5644
  181MPD1     C 2806   3.485   2.609  10.723  0.7817  0.4042  0.0604
  181MPD1    C1 2807   3.480   2.730  10.784  0.8446 -0.0097  0.0804
  181MPD1    C2 2808   3.524   2.834  10.712 -0.0027 -0.0109  0.1566
  181MPD1    C3 2809   3.588   2.827  10.596 -0.2165 -0.6941  0.2337
  181MPD1    C4 2810   3.607   2.703  10.539  0.4526  0.4511  0.3708
  181MPD1    C5 2811   3.542   2.594  10.597 -0.3348  0.0753  0.3516
  181MPD1     H 2812   3.529   2.931  10.760 -2.0862  0.3232 -0.2933
  181MPD1    H1 2813   3.662   2.682  10.448  1.1591  0.1289  0.8707
  181MPD1    H2 2814   3.436   2.522  10.766 -0.1288 -0.1278 -2.0496
  181MPD1    H3 2815   3.546   2.497  10.548  1.4358 -0.3074  1.2713
  181MPD1     N 2816   3.641   2.934  10.524  0.6471  0.3980 -0.2615
  181MPD1    H5 2817   3.688   2.897  10.442  1.8565 -0.4036  0.8009
  181MPD1    N1 2818   3.428   2.747  10.916 -0.6984  0.5935  0.2843
  181MPD1    H6 2819   3.335   2.707  10.923 -0.5582 -0.2362 -2.7078
  181MPD1    H7 2820   3.405   2.845  10.930 -0.1848  0.8276 -0.4982
  182MPD1     C 2821   0.198   1.771   1.551 -0.1154  0.4178 -0.1607
  182MPD1    C1 2822   0.094   1.806   1.638 -1.3622 -0.7925  0.2535
  182MPD1    C2 2823   4.695   1.782   1.600 -1.1699 -0.1800  0.1537
  182MPD1    C3 2824   4.664   1.736   1.478  0.0713  0.4627 -0.1928
  182MPD1    C4 2825   0.036   1.706   1.394 -0.4715  0.0311  0.7914
  182MPD1    C5 2826   0.164   1.711   1.439  0.6356  0.3308  0.6792
  182MPD1     H 2827   4.622   1.811   1.674 -0.8864 -2.3038  1.2746
  182MPD1    H1 2828   0.020   1.656   1.300 -1.2481 -0.6280  1.2731
  182MPD1    H2 2829   0.299   1.786   1.589  0.1201  2.7862 -1.8006
  182MPD1    H3 2830   0.244   1.668   1.380 -0.0556 -0.0553  0.0221
  182MPD1     N 2831   4.528   1.716   1.430  0.2171 -0.1973 -0.2156
  182MPD1    H5 2832   4.520   1.673   1.338  2.6397  0.1117 -0.5683
  182MPD1    N1 2833   0.118   1.888   1.749 -0.6098  0.0138 -0.2311
  182MPD1    H6 2834   0.211   1.877   1.790 -0.3804 -1.4271 -1.1445
  182MPD1    H7 2835   0.046   1.885   1.821 -0.6570 -0.8636 -0.3201
  183MPD1     C 2836   0.431   1.370   9.327 -0.0140 -0.0427  1.0016
  183MPD1    C1 2837   0.341   1.419   9.235  0.0363 -0.5009 -0.0023
  183MPD1    C2 2838   0.273   1.534   9.268 -0.0196  0.1109  0.4273
  183MPD1    C3 2839   0.313   1.616   9.375  0.1235 -0.2741 -0.0080
  183MPD1    C4 2840   0.420   1.576   9.452 -0.0345  0.5866 -0.4334
  183MPD1    C5 2841   0.475   1.454   9.432  0.1339  0.5306 -0.1275
  183MPD1     H 2842   0.193   1.579   9.211  0.9921 -0.7300 -1.6470
  183MPD1    H1 2843   0.450   1.643   9.531  0.6900 -3.7132  2.9100
  183MPD1    H2 2844   0.480   1.274   9.314 -0.0644 -0.1763  1.7866
  183MPD1    H3 2845   0.553   1.411   9.493 -1.4231 -0.8804  0.8443
  183MPD1     N 2846   0.249   1.744   9.394  0.3731 -0.3683  0.1149
  183MPD1    H5 2847   0.293   1.813   9.454  0.7453 -0.9038  0.4582
  183MPD1    N1 2848   0.294   1.340   9.127 -0.0238 -0.0216  0.3953
  183MPD1    H6 2849   0.291   1.398   9.043 -1.8561  0.0768  0.5288
  183MPD1    H7 2850   0.359   1.264   9.111  2.3102  2.3718 -1.4251
  184MPD1     C 2851   4.275   4.490  10.394  0.0809 -0.8356  0.2348
  184MPD1    C1 2852   4.337   4.590  10.461 -0.0637  0.3781  0.8724
  184MPD1    C2 2853   4.343   4.717  10.399  0.0656  0.1188 -0.1352
  184MPD1    C3 2854   4.285   4.730  10.270  0.0733 -0.5181 -0.2508
  184MPD1    C4 2855   4.220   4.629  10.210  0.0406  0.1432 -0.3166
  184MPD1    C5 2856   4.226   4.509  10.269  0.3946  0.0705 -0.8279
  184MPD1     H 2857   4.378   0.071  10.452  0.2563 -1.7025  2.8035
  184MPD1    H1 2858   4.176   4.628  10.111 -0.7441  2.4626 -0.0064
  184MPD1    H2 2859   4.266   4.390  10.435  0.2115 -0.8263  0.2876
  184MPD1    H3 2860   4.193   4.423  10.213  1.8084 -0.8877 -0.2085
  184MPD1     N 2861   4.284   0.119  10.210 -0.1864 -0.4268 -0.4455
  184MPD1    H5 2862   4.234   0.119  10.122 -0.4328  1.9057 -0.3006
  184MPD1    N1 2863   4.382   4.568  10.592 -0.2369  0.0646 -0.0327
  184MPD1    H6 2864   4.459   4.634  10.602 -0.9620  1.0764 -1.0667
  184MPD1    H7 2865   4.420   4.475  10.607  0.7873  0.3834 -0.6828
  185MPD1     C 2866   3.630   0.565   9.670  0.4682  0.2768 -0.4029
  185MPD1    C1 2867   3.623   0.505   9.795  0.6143 -0.7332 -0.9038
  185MPD1    C2 2868   3.743   0.498   9.865  0.3479 -0.5754 -0.1874
  185MPD1    C3 2869   3.864   0.546   9.823 -0.0187 -0.2016  0.6846
  185MPD1    C4 2870   3.865   0.611   9.703 -0.2636  0.6704  0.2995
  185MPD1    C5 2871   3.753   0.615   9.630  0.2423 -0.3176  0.3408
  185MPD1     H 2872   3.744   0.435   9.953  1.1238 -0.9262 -0.4567
  185MPD1    H1 2873   3.950   0.653   9.650 -0.5156  0.0048 -0.6411
  185MPD1    H2 2874   3.545   0.552   9.604 -0.0722 -2.0662  0.7518
  185MPD1    H3 2875   3.760   0.656   9.530  1.8235 -1.6573 -0.0809
  185MPD1     N 2876   3.989   0.526   9.891 -0.4046  0.0782 -0.0476
  185MPD1    H5 2877   4.062   0.577   9.843  1.0464  0.0890  2.1879
  185MPD1    N1 2878   3.507   0.429   9.832 -0.6837 -0.0508 -0.2041
  185MPD1    H6 2879   3.424   0.479   9.800  0.1393  1.4855  0.0747
  185MPD1    H7 2880   3.497   0.408   9.932  0.1613  0.1359 -0.0795
  186MPD1     C 2881   3.138   4.530  16.080  0.2309  0.3115 -1.1550
  186MPD1    C1 2882   3.109   4.640  16.007  0.3033 -0.1915  0.2137
  186MPD1    C2 2883   3.020   4.732  16.055  0.3620  0.1060 -0.5643
  186MPD1    C3 2884   2.982   4.723  16.189  0.5708  0.4945 -0.1656
  186MPD1    C4 2885   3.012   4.611  16.263 -0.5761  0.2331  0.3933
  186MPD1    C5 2886   3.087   4.512  16.206  0.3422  0.1966  0.5742
  186MPD1     H 2887   2.996   0.087  15.998  0.5670  0.3208 -0.3142
  186MPD1    H1 2888   2.969   4.600  16.362 -1.3485 -1.6793 -0.1552
  186MPD1    H2 2889   3.199   4.447  16.047  0.1380  0.9620 -2.9592
  186MPD1    H3 2890   3.112   4.422  16.262  0.0380  0.1822  0.6834
  186MPD1     N 2891   2.911   0.088  16.262 -0.3952  0.2792 -0.9859
  186MPD1    H5 2892   2.881   0.069  16.358  1.7660  3.4417  0.3069
  186MPD1    N1 2893   3.158   4.653  15.877 -0.0431 -0.5206 -0.5678
  186MPD1    H6 2894   3.240   4.595  15.863  0.7803  0.4226  0.4294
  186MPD1    H7 2895   3.186   0.015  15.859  0.1983 -0.2032  1.5397
  187MPD1     C 2896   2.301   1.899   0.605 -0.7252 -0.8724  1.3503
  187MPD1    C1 2897   2.167   1.878   0.599 -0.4057  0.2718  0.9356
  187MPD1    C2 2898   2.108   1.920   0.479  0.2847 -0.1375  0.1400
  187MPD1    C3 2899   2.181   1.953   0.371  0.2252  0.1934 -0.2063
  187MPD1    C4 2900   2.313   1.970   0.381 -0.4876  0.4313 -0.7325
  187MPD1    C5 2901   2.370   1.944   0.501  0.1777  0.0976  0.4559
  187MPD1     H 2902   2.001   1.904   0.476 -0.2035  3.4508 -2.4622
  187MPD1    H1 2903   2.372   1.978   0.290 -1.9238 -1.2620 -1.8094
  187MPD1    H2 2904   2.358   1.869   0.693  0.0403 -0.2889  1.0564
  187MPD1    H3 2905   2.477   1.951   0.515  0.2009 -0.2558  0.4756
  187MPD1     N 2906   2.125   1.982   0.244  0.3342 -0.1225  0.4426
  187MPD1    H5 2907   2.188   2.033   0.182 -1.3187  0.6031 -0.6277
  187MPD1    N1 2908   2.086   1.844   0.714 -0.1609 -0.2085 -0.1430
  187MPD1    H6 2909   2.018   1.770   0.697 -1.4159  0.6379  1.1704
  187MPD1    H7 2910   2.150   1.816   0.788  2.5583  0.1922 -2.3755
  188MPD1     C 2911   1.861   2.248   9.695  1.1309 -0.1186 -0.1624
  188MPD1    C1 2912   1.724   2.237   9.697  0.1699  0.3680 -0.3297
  188MPD1    C2 2913   1.673   2.141   9.786 -1.0647 -0.4404 -0.3102
  188MPD1    C3 2914   1.757   2.076   9.876  0.5326  0.2787  0.1086
  188MPD1    C4 2915   1.891   2.102   9.880 -0.1043 -0.1092  0.5495
  188MPD1    C5 2916   1.937   2.195   9.802  0.1605 -0.1738 -0.1334
  188MPD1     H 2917   1.569   2.110   9.776 -0.9171 -1.2948  0.7807
  188MPD1    H1 2918   1.942   2.082   9.973  1.4820 -1.1903 -0.5598
  188MPD1    H2 2919   1.908   2.336   9.654 -0.1642  1.8308  2.5118
  188MPD1    H3 2920   2.028   2.246   9.834  0.8909 -1.2228 -0.5652
  188MPD1     N 2921   1.713   1.995   9.986  0.5301 -0.5073  0.5036
  188MPD1    H5 2922   1.779   1.953  10.050 -0.0702 -1.6640  0.3766
  188MPD1    N1 2923   1.646   2.294   9.594 -0.2923  0.2054  0.2256
  188MPD1    H6 2924   1.674   2.386   9.562  2.9002 -0.6075  0.6976
  188MPD1    H7 2925   1.551   2.311   9.626 -0.2095 -0.8210  1.0287
  189MPD1     C 2926   4.053   3.185   0.717 -0.0953 -0.6227 -1.0666
  189MPD1    C1 2927   3.963   3.206   0.610  0.0532 -0.2358  0.2803
  189MPD1    C2 2928   3.852   3.117   0.612 -0.0904 -0.3830  0.2241
  189MPD1    C3 2929   3.836   3.019   0.711 -0.1344  0.3770  0.2761
  189MPD1    C4 2930   3.927   3.011   0.812  0.3204  0.4128 -0.1570
  189MPD1    C5 2931   4.031   3.095   0.819  0.5952  0.1889 -0.2952
  189MPD1     H 2932   3.777   3.125   0.534  0.4591 -1.5812 -0.4324
  189MPD1    H1 2933   3.918   2.947   0.899 -0.1205  0.0055 -0.5087
  189MPD1    H2 2934   4.130   3.261   0.729 -0.6377  0.0053 -1.5283
  189MPD1    H3 2935   4.104   3.090   0.899  0.0268 -1.6103  0.1166
  189MPD1     N 2936   3.715   2.937   0.691  0.4393  0.9637  0.2004
  189MPD1    H5 2937   3.644   2.979   0.633 -1.1970 -3.1802 -0.7905
  189MPD1    N1 2938   3.971   3.323   0.536 -0.2518  0.4281  0.4911
  189MPD1    H6 2939   3.936   3.298   0.444 -0.9291 -2.3441  1.4927
  189MPD1    H7 2940   4.069   3.347   0.533  0.1589 -1.5481 -1.7558
  190MPD1     C 2941   1.856   0.701  15.219 -0.0465  0.1358 -0.2513
  190MPD1    C1 2942   1.994   0.694  15.201  0.2613  0.6239  0.4089
  190MPD1    C2 2943   2.073   0.736  15.309 -0.5783 -0.4749 -0.3570
  190MPD1    C3 2944   2.022   0.799  15.420 -0.1292 -0.3749  0.4219
  190MPD1    C4 2945   1.887   0.817  15.424 -1.1324  0.0377  0.2945
  190MPD1    C5 2946   1.802   0.767  15.328  0.1363  0.2657  0.5526
  190MPD1     H 2947   2.181   0.728  15.311 -0.4918 -0.0379 -3.1282
  190MPD1    H1 2948   1.846   0.872  15.509 -0.2178  0.6408  0.3468
  190MPD1    H2 2949   1.791   0.654  15.147  3.6605 -0.9783 -2.8719
  190MPD1    H3 2950   1.694   0.772  15.336 -0.1356 -0.1185 -2.8385
  190MPD1     N 2951   2.114   0.839  15.520 -0.0109  0.7882 -0.5642
  190MPD1    H5 2952   2.211   0.837  15.490  0.0425  0.3707 -0.3661
  190MPD1    N1 2953   2.044   0.630  15.089  0.0779 -0.5161  0.0975
  190MPD1    H6 2954   2.144   0.630  15.073 -0.1404 -2.2218 -1.4093
  190MPD1    H7 2955   2.000   0.668  15.005  1.0071  2.9703  1.2089
  191MPD1     C 2956   1.295   2.723  13.181  0.0052  0.7399 -0.3341
  191MPD1    C1 2957   1.188   2.807  13.148  0.1398 -0.2316 -0.2074
  191MPD1    C2 2958   1.213   2.910  13.050 -0.0185  0.0853  0.2233
  191MPD1    C3 2959   1.338   2.925  12.992  0.9390 -0.1256 -0.4658
  191MPD1    C4 2960   1.443   2.835  13.028  0.2383 -0.2176 -0.5318
  191MPD1    C5 2961   1.417   2.739  13.121 -0.1977  0.4382  0.0512
  191MPD1     H 2962   1.123   2.966  13.025 -1.9354 -2.2104  1.9485
  191MPD1    H1 2963   1.541   2.838  12.982  0.9328  0.1129  1.0074
  191MPD1    H2 2964   1.290   2.647  13.258  1.0554  1.0522  0.0371
  191MPD1    H3 2965   1.485   2.657  13.142 -0.7480  0.1687  0.7855
  191MPD1     N 2966   1.354   3.023  12.892  0.4484  0.4725 -0.3032
  191MPD1    H5 2967   1.271   3.077  12.872  0.9020  1.4310  0.4004
  191MPD1    N1 2968   1.068   2.792  13.218  0.4198 -0.3550 -0.7525
  191MPD1    H6 2969   1.064   2.705  13.269  1.1910  1.0492  1.6754
  191MPD1    H7 2970   0.988   2.792  13.155  0.0792  0.4169 -0.3187
  192MPD1     C 2971   1.341   3.896  12.999  0.8085  0.4520  0.5912
  192MPD1    C1 2972   1.234   3.836  12.933  0.7264 -0.1005 -1.3732
  192MPD1    C2 2973   1.251   3.729  12.855  0.3373 -0.4715 -0.3331
  192MPD1    C3 2974   1.378   3.693  12.817 -0.5102 -0.6224 -0.5548
  192MPD1    C4 2975   1.481   3.752  12.884  0.1850  0.0810 -0.1094
  192MPD1    C5 2976   1.463   3.844  12.984  0.4301 -0.0169  0.4722
  192MPD1     H 2977   1.163   3.673  12.824 -1.0420  1.6601 -0.2387
  192MPD1    H1 2978   1.584   3.721  12.869  1.2929  4.3096 -1.2386
  192MPD1    H2 2979   1.327   3.986  13.057  0.9409  0.4132  0.6827
  192MPD1    H3 2980   1.552   3.886  13.030  0.1212 -0.9437  1.9185
  192MPD1     N 2981   1.409   3.578  12.740  0.8298 -0.2448  0.0196
  192MPD1    H5 2982   1.507   3.550  12.743  0.6750 -0.8177 -0.3980
  192MPD1    N1 2983   1.106   3.890  12.966  0.0121 -0.4086 -0.0948
  192MPD1    H6 2984   1.035   3.873  12.896  0.3265 -0.3813 -0.4200
  192MPD1    H7 2985   1.105   3.991  12.984  0.1346 -0.4519  0.1525
  193MPD1     C 2986   1.320   3.337  16.068  0.2314 -0.0174  0.5264
  193MPD1    C1 2987   1.337   3.210  16.114  0.4037  0.4830 -0.2903
  193MPD1    C2 2988   1.404   3.198  16.231 -0.1190  0.5320  0.6748
  193MPD1    C3 2989   1.458   3.303  16.302 -0.3372  0.7156  0.3702
  193MPD1    C4 2990   1.438   3.432  16.251  0.5615 -0.7858 -0.3268
  193MPD1    C5 2991   1.371   3.443  16.133  0.4104  0.5510  0.0103
  193MPD1     H 2992   1.403   3.096  16.268 -1.9313 -0.3254 -1.7374
  193MPD1    H1 2993   1.482   3.522  16.293 -0.9953 -0.0537 -0.2713
  193MPD1    H2 2994   1.262   3.364  15.981 -0.8850 -0.5502  1.1080
  193MPD1    H3 2995   1.355   3.540  16.087  0.0910 -1.0907 -3.3485
  193MPD1     N 2996   1.524   3.284  16.423 -0.5642  0.2305  0.3804
  193MPD1    H5 2997   1.549   3.369  16.472  1.6383  1.4817 -2.8425
  193MPD1    N1 2998   1.268   3.108  16.055  0.3444 -0.0680  0.2034
  193MPD1    H6 2999   1.272   3.122  15.954 -1.5668  0.7761  0.2424
  193MPD1    H7 3000   1.304   3.016  16.078  0.3826 -0.2266 -0.4834
  194MPD1     C 3001   0.548   0.517  16.983 -0.1181 -0.4391  0.4478
  194MPD1    C1 3002   0.449   0.605  17.007 -0.4101  0.2042  0.2159
  194MPD1    C2 3003   0.341   0.558  17.080 -0.2507  0.6094 -0.0535
  194MPD1    C3 3004   0.339   0.435  17.142  0.3484  0.0522  0.1968
  194MPD1    C4 3005   0.433   0.344  17.110  0.0847 -1.2165  0.4628
  194MPD1    C5 3006   0.546   0.387  17.039  0.2624  0.2165  0.9183
  194MPD1     H 3007   0.262   0.627  17.107 -0.4549  0.3906 -0.0867
  194MPD1    H1 3008   0.427   0.243  17.149 -2.5420 -2.3224 -2.8124
  194MPD1    H2 3009   0.645   0.536  16.940 -0.1094  1.5357  1.3461
  194MPD1    H3 3010   0.631   0.321  17.027 -0.7125 -0.4608 -2.2169
  194MPD1     N 3011   0.228   0.381  17.210  1.3284  0.2897 -0.1144
  194MPD1    H5 3012   0.227   0.281  17.228  2.2505 -0.2373 -2.9192
  194MPD1    N1 3013   0.468   0.739  16.975  0.6321  0.4196  0.6963
  194MPD1    H6 3014   0.378   0.787  16.980  0.2525 -0.4685  2.3018
  194MPD1    H7 3015   0.503   0.751  16.880 -0.5981 -0.2315  0.1499
  195MPD1     C 3016   0.398   2.395   1.035  0.4762 -0.4109 -0.3232
  195MPD1    C1 3017   0.519   2.454   1.013  0.4905 -0.3211 -0.3709
  195MPD1    C2 3018   0.637   2.380   0.986 -0.8908  0.7377  0.0847
  195MPD1    C3 3019   0.611   2.253   0.934  0.0622  0.2891 -0.0858
  195MPD1    C4 3020   0.490   2.195   0.937 -0.4009  0.3812 -0.5019
  195MPD1    C5 3021   0.388   2.264   0.995 -0.2204 -0.0829  0.2778
  195MPD1     H 3022   0.736   2.424   0.995  0.4057 -2.1720 -0.1355
  195MPD1    H1 3023   0.470   2.098   0.894  1.7333 -0.2230 -0.1445
  195MPD1    H2 3024   0.314   2.452   1.072  0.2894  1.5091 -3.7341
  195MPD1    H3 3025   0.292   2.215   0.988 -0.1529 -0.5175  2.3589
  195MPD1     N 3026   0.714   2.166   0.885  0.1129  0.7350 -0.0221
  195MPD1    H5 3027   0.684   2.084   0.833  1.0685  1.1479 -1.2211
  195MPD1    N1 3028   0.526   2.581   1.074 -0.5169 -0.2097  0.3802
  195MPD1    H6 3029   0.607   2.634   1.040 -0.4638 -0.0329  0.7751
  195MPD1    H7 3030   0.441   2.634   1.060 -0.9024 -0.1434  2.9807
  196MPD1     C 3031   0.221   0.988   0.072  0.7599  0.0072 -0.1248
  196MPD1    C1 3032   0.308   1.102   0.069 -0.0747  0.5994 -0.3769
  196MPD1    C2 3033   0.332   1.160   0.192 -0.6878  0.6964 -0.0221
  196MPD1    C3 3034   0.261   1.120   0.310  0.4459 -0.1014  0.5782
  196MPD1    C4 3035   0.177   1.012   0.305 -0.4810 -0.6400  0.4605
  196MPD1    C5 3036   0.149   0.954   0.185  0.1317  0.2717  0.1801
  196MPD1     H 3037   0.406   1.239   0.200 -1.5138  1.3296  1.4481
  196MPD1    H1 3038   0.130   0.971   0.394  0.0493 -2.6730 -0.1765
  196MPD1    H2 3039   0.201   0.930  17.719 -1.9546 -2.5075  2.0931
  196MPD1    H3 3040   0.074   0.876   0.193 -0.6699  1.0836  0.4705
  196MPD1     N 3041   0.290   1.175   0.437  0.3030  0.1070  0.0312
  196MPD1    H5 3042   0.246   1.130   0.516  1.3715  1.1998  1.2404
  196MPD1    N1 3043   0.392   1.126  17.694 -0.2499 -0.0609  0.7687
  196MPD1    H6 3044   0.433   1.217  17.679 -1.0045  0.4922  2.0146
  196MPD1    H7 3045   0.359   1.104  17.600  0.4404  0.3626  0.4308
  197MPD1     C 3046   0.290   3.254   0.201  0.2278  0.3713  0.5945
  197MPD1    C1 3047   0.379   3.361   0.220  0.0923  0.1803 -0.5819
  197MPD1    C2 3048   0.393   3.462   0.125 -0.4386  0.5175  0.8769
  197MPD1    C3 3049   0.296   3.455   0.021  0.0977 -0.1776 -0.2074
  197MPD1    C4 3050   0.209   3.351   0.009 -0.3403  0.1126  0.7779
  197MPD1    C5 3051   0.202   3.256   0.101 -0.1343 -0.2689 -0.3279
  197MPD1     H 3052   0.473   3.535   0.121  1.6284 -1.6565  2.5610
  197MPD1    H1 3053   0.137   3.333  17.666 -2.2994 -0.8694  2.7948
  197MPD1    H2 3054   0.282   3.174   0.273  1.2886 -0.8760 -0.6733
  197MPD1    H3 3055   0.123   3.181   0.103 -1.4106  1.0466 -1.0214
  197MPD1     N 3056   0.303   3.536  17.639 -0.3162  0.0678  0.4878
  197MPD1    H5 3057   0.254   3.504  17.556  0.6366 -2.6704  1.0065
  197MPD1    N1 3058   0.467   3.351   0.331  0.0536 -0.4355 -0.2832
  197MPD1    H6 3059   0.513   3.439   0.351 -0.0431 -0.1023 -1.4899
  197MPD1    H7 3060   0.424   3.322   0.419 -1.8036 -0.1809 -1.0883
  198MPD1     C 3061   1.678   1.927  15.183  0.4301 -0.0965  0.4517
  198MPD1    C1 3062   1.772   1.998  15.111  0.7292  0.2752 -0.2566
  198MPD1    C2 3063   1.873   2.067  15.166  0.5250  0.0807 -0.1435
  198MPD1    C3 3064   1.875   2.082  15.302  0.4065  0.0120 -0.5129
  198MPD1    C4 3065   1.777   2.020  15.379 -0.4874  1.1246 -0.9430
  198MPD1    C5 3066   1.685   1.947  15.319  0.1302 -0.1843 -0.5434
  198MPD1     H 3067   1.949   2.097  15.094 -0.1081  0.9864 -0.4253
  198MPD1    H1 3068   1.763   2.037  15.485 -2.2089 -0.6954 -0.8882
  198MPD1    H2 3069   1.602   1.868  15.134  1.9270  0.2008 -2.2452
  198MPD1    H3 3070   1.612   1.903  15.385 -1.3494 -0.5061 -2.3709
  198MPD1     N 3071   1.989   2.145  15.363 -0.1959  0.0412 -0.4389
  198MPD1    H5 3072   2.058   2.196  15.309  1.7361 -2.6883 -0.5876
  198MPD1    N1 3073   1.791   1.978  14.972 -1.1223 -0.0722  0.4108
  198MPD1    H6 3074   1.841   2.059  14.936 -0.0243 -0.9706 -0.0888
  198MPD1    H7 3075   1.697   1.986  14.934 -1.1981 -0.5119  0.5084
  199MPD1     C 3076   4.008   2.259   9.769  0.3259  0.7240  0.4324
  199MPD1    C1 3077   4.115   2.321   9.710  0.4296 -0.1527  0.5730
  199MPD1    C2 3078   4.113   2.461   9.725  0.2263 -1.3039  0.6756
  199MPD1    C3 3079   4.024   2.526   9.813 -0.5598 -1.1144  0.3826
  199MPD1    C4 3080   3.933   2.457   9.880  0.8904 -0.4572 -0.0292
  199MPD1    C5 3081   3.924   2.320   9.853 -0.3158 -0.8271 -0.5162
  199MPD1     H 3082   4.190   2.516   9.671 -1.5803  1.2007  0.6665
  199MPD1    H1 3083   3.865   2.500   9.953  2.9775 -0.1619  1.7392
  199MPD1    H2 3084   3.989   2.155   9.744  1.0706  0.4442  1.0065
  199MPD1    H3 3085   3.840   2.272   9.901  1.1841 -2.1438  0.7913
  199MPD1     N 3086   4.026   2.664   9.827 -0.0534 -0.1664  0.1971
  199MPD1    H5 3087   3.953   2.705   9.885 -0.1623  1.7897 -1.3319
  199MPD1    N1 3088   4.192   2.262   9.613 -0.0594 -0.1425  0.0791
  199MPD1    H6 3089   4.204   2.163   9.634 -1.9824 -0.3382  0.2778
  199MPD1    H7 3090   4.277   2.319   9.610  0.1422 -0.3477  1.7176
  200MPD1     C 3091   3.539   3.940  15.990 -0.5242  0.0187  0.1919
  200MPD1    C1 3092   3.452   3.849  15.940 -0.3882 -0.7414 -0.7649
  200MPD1    C2 3093   3.427   3.864  15.803  0.3679 -0.2587 -0.4543
  200MPD1    C3 3094   3.499   3.956  15.725 -0.0248  0.0885  0.5651
  200MPD1    C4 3095   3.588   4.038  15.787  0.2335 -0.8431  0.1838
  200MPD1    C5 3096   3.611   4.021  15.917  0.9640 -0.0671  0.0024
  200MPD1     H 3097   3.344   3.802  15.770 -1.0960  0.3845  1.9433
  200MPD1    H1 3098   3.643   4.115  15.734 -0.1961  0.5410  1.7416
  200MPD1    H2 3099   3.545   3.944  16.098 -0.7778  1.6229  0.1392
  200MPD1    H3 3100   3.692   4.078  15.963  1.9517  0.7440 -2.7364
  200MPD1     N 3101   3.475   3.954  15.586  0.5395 -0.2786  0.3028
  200MPD1    H5 3102   3.404   3.895  15.544  0.9237 -1.1737  0.9211
  200MPD1    N1 3103   3.370   3.776  16.025 -0.7452  0.1441  0.1393
  200MPD1    H6 3104   3.346   3.688  15.980  2.8314 -0.9745  0.3754
  200MPD1    H7 3105   3.419   3.758  16.112 -0.7198  0.7000  0.2393
  201MPD1     C 3106   0.101   2.673  13.667  0.0229  0.4480 -0.1582
  201MPD1    C1 3107   0.075   2.551  13.601 -0.1288 -0.5031 -0.2502
  201MPD1    C2 3108   0.177   2.457  13.592 -0.6083  0.2419 -0.7662
  201MPD1    C3 3109   0.305   2.479  13.645  0.5292  0.1386  0.0498
  201MPD1    C4 3110   0.322   2.592  13.719  0.2426  0.1006 -0.0444
  201MPD1    C5 3111   0.224   2.690  13.725 -0.5100  0.9525 -0.0808
  201MPD1     H 3112   0.161   2.375  13.523  1.2282  0.2808 -1.2597
  201MPD1    H1 3113   0.417   2.616  13.765 -0.6531  2.9685  0.3268
  201MPD1    H2 3114   0.024   2.747  13.684 -0.2679  0.3623 -1.1005
  201MPD1    H3 3115   0.236   2.774  13.792 -0.7992  0.3287  0.7450
  201MPD1     N 3116   0.407   2.384  13.622 -0.3300 -0.1873  0.0541
  201MPD1    H5 3117   0.391   2.306  13.559 -3.0155  1.4929 -1.3527
  201MPD1    N1 3118   4.692   2.530  13.522  0.2324 -0.1905 -0.2444
  201MPD1    H6 3119   4.651   2.437  13.526  0.8061 -0.4840 -1.1628
  201MPD1    H7 3120   4.619   2.600  13.536 -0.0151 -0.5220  0.1195
  202MPD1     C 3121   0.152   1.616  10.541 -0.0925 -0.7387 -0.6167
  202MPD1    C1 3122   0.271   1.543  10.523  0.2299  0.5242  0.7087
  202MPD1    C2 3123   0.383   1.622  10.489  0.1070 -0.2244  0.3885
  202MPD1    C3 3124   0.365   1.756  10.456  0.0204  0.6898 -0.2050
  202MPD1    C4 3125   0.247   1.822  10.474  0.4408  0.1352 -0.1116
  202MPD1    C5 3126   0.138   1.749  10.507  0.1086  0.1865 -0.2081
  202MPD1     H 3127   0.484   1.584  10.491  0.6175  1.1307  0.3304
  202MPD1    H1 3128   0.242   1.930  10.478 -0.6760  0.1726 -2.4550
  202MPD1    H2 3129   0.073   1.572  10.601 -0.5615  2.9533  1.4948
  202MPD1    H3 3130   0.054   1.814  10.528 -0.1371 -0.1663 -0.1024
  202MPD1     N 3131   0.476   1.833  10.407  0.0012  0.0678 -0.2319
  202MPD1    H5 3132   0.452   1.925  10.374  1.3231  1.2047  1.9950
  202MPD1    N1 3133   0.300   1.420  10.592 -0.2121 -0.3324  0.5774
  202MPD1    H6 3134   0.382   1.366  10.567 -0.4702 -1.0135  1.2175
  202MPD1    H7 3135   0.221   1.356  10.590 -1.2906  0.9954  0.6711
  203MPD1     C 3136   3.936   2.646  12.173 -0.3585 -0.5755  0.1541
  203MPD1    C1 3137   4.000   2.526  12.152  0.1117  0.3214 -0.2540
  203MPD1    C2 3138   4.104   2.503  12.241  0.5035 -0.3720 -0.1682
  203MPD1    C3 3139   4.142   2.583  12.343  1.2584  0.1848 -0.2640
  203MPD1    C4 3140   4.074   2.702  12.362 -0.2873  0.1048 -0.3070
  203MPD1    C5 3141   3.967   2.730  12.281 -0.4417  0.5447 -0.1647
  203MPD1     H 3142   4.167   2.416  12.227 -2.6232 -2.5662 -0.6327
  203MPD1    H1 3143   4.089   2.773  12.443 -2.1722 -0.8773  0.9291
  203MPD1    H2 3144   3.850   2.676  12.114 -0.3065 -0.8260 -0.0456
  203MPD1    H3 3145   3.919   2.827  12.288  0.8634  1.1718 -0.0433
  203MPD1     N 3146   4.262   2.546  12.408 -0.2048  0.2030  1.0141
  203MPD1    H5 3147   4.320   2.472  12.370  0.7115  0.1947  2.4254
  203MPD1    N1 3148   3.956   2.439  12.051  0.1392  0.2120 -0.4163
  203MPD1    H6 3149   4.008   2.351  12.046  1.2911  0.7813  1.3698
  203MPD1    H7 3150   3.860   2.409  12.068  0.5983 -1.3560 -0.5861
  204MPD1     C 3151   4.508   4.526   0.090 -0.2180  0.3276  0.3858
  204MPD1    C1 3152   4.481   4.537  17.694 -0.2461 -0.0044  0.2861
  204MPD1    C2 3153   4.376   4.468  17.642 -0.2528  0.2011  0.5218
  204MPD1    C3 3154   4.312   4.369  17.722  0.0959  0.2280  0.2073
  204MPD1    C4 3155   4.334   4.364   0.121 -1.0288  0.3389  0.1330
  204MPD1    C5 3156   4.427   4.451   0.169  0.2584  0.4485  0.7468
  204MPD1     H 3157   4.350   4.477  17.537 -1.9991  1.5732  1.0757
  204MPD1    H1 3158   4.268   4.301   0.181 -0.7683 -0.3455 -0.2929
  204MPD1    H2 3159   4.576   4.592   0.141 -1.2367 -0.2207  2.4515
  204MPD1    H3 3160   4.449   4.460   0.275  0.4967 -0.8683  0.8075
  204MPD1     N 3161   4.231   4.279  17.644 -0.4462 -0.2811 -0.5674
  204MPD1    H5 3162   4.217   4.303  17.546 -0.3237 -0.7334 -0.6990
  204MPD1    N1 3163   4.544   4.634  17.610  0.3252  0.0508 -0.7596
  204MPD1    H6 3164   4.644   4.636  17.629  0.4086  1.5419 -1.3579
  204MPD1    H7 3165   4.514   4.625  17.513 -1.1324 -2.2025 -0.1078
  205MPD1     C 3166   3.237   3.325  17.182  0.0726 -0.3562 -0.1333
  205MPD1    C1 3167   3.238   3.188  17.201  0.4259 -0.4081 -0.0175
  205MPD1    C2 3168   3.325   3.129  17.298  0.2367  0.5041  0.1003
  205MPD1    C3 3169   3.407   3.207  17.383 -0.6026  0.8293  0.3712
  205MPD1    C4 3170   3.399   3.344  17.359  0.5504 -0.2754  1.1450
  205MPD1    C5 3171   3.316   3.397  17.264  0.3417 -0.8589 -0.5436
  205MPD1     H 3172   3.317   3.021  17.306 -0.8452  0.6993  1.5645
  205MPD1    H1 3173   3.441   3.414  17.431  1.7094  0.6719 -0.4375
  205MPD1    H2 3174   3.169   3.378  17.116 -0.0548  1.1992  1.2432
  205MPD1    H3 3175   3.309   3.505  17.253 -0.1171 -1.0341 -2.0439
  205MPD1     N 3176   3.478   3.161  17.493 -0.1558  0.0337  0.4182
  205MPD1    H5 3177   3.532   3.228  17.546  2.1244  0.4895 -2.5096
  205MPD1    N1 3178   3.172   3.108  17.104  0.1733  0.5128  0.1839
  205MPD1    H6 3179   3.098   3.161  17.058 -0.3098  0.0792  0.4710
  205MPD1    H7 3180   3.127   3.029  17.150  1.6920 -0.5595 -0.1640
  206MPD1     C 3181   3.917   0.353  16.868 -0.2707 -0.7263 -0.8363
  206MPD1    C1 3182   3.980   0.471  16.892  0.4305 -0.4329 -1.0381
  206MPD1    C2 3183   3.982   0.566  16.797  0.0837  0.1559  0.4604
  206MPD1    C3 3184   3.906   0.550  16.678 -0.0283 -0.1291 -0.0800
  206MPD1    C4 3185   3.840   0.430  16.660  0.4273  0.0598 -0.2360
  206MPD1    C5 3186   3.851   0.327  16.746  0.2635 -0.2011 -0.0280
  206MPD1     H 3187   4.045   0.653  16.808 -0.6238  0.5999  0.9657
  206MPD1    H1 3188   3.775   0.414  16.575  1.4902 -3.9700 -0.2558
  206MPD1    H2 3189   3.925   0.278  16.945 -1.4526  0.0855  0.0828
  206MPD1    H3 3190   3.810   0.227  16.735  1.0482 -0.5327  0.0865
  206MPD1     N 3191   3.897   0.651  16.577 -0.1501 -0.7054  0.4824
  206MPD1    H5 3192   3.831   0.626  16.504  1.8321 -2.0359 -0.8528
  206MPD1    N1 3193   4.072   0.482  17.003  0.0594 -0.0757  0.8092
  206MPD1    H6 3194   4.033   0.435  17.084 -0.4655  0.2481  0.7434
  206MPD1    H7 3195   4.093   0.580  17.021 -1.9904  1.0150 -2.6543
  207MPD1     C 3196   1.029   2.865   9.854  0.7933 -0.4142  0.3122
  207MPD1    C1 3197   1.152   2.904   9.806 -0.3442 -0.0324  0.2495
  207MPD1    C2 3198   1.254   2.900   9.893  0.2127  0.2360  0.1904
  207MPD1    C3 3199   1.252   2.860  10.026  0.2558 -0.1273 -0.0900
  207MPD1    C4 3200   1.126   2.817  10.069  0.1698 -0.3705  0.1138
  207MPD1    C5 3201   1.014   2.827   9.984  0.1915  0.0415  0.3765
  207MPD1     H 3202   1.341   2.942   9.844  1.1695  0.5688  2.1967
  207MPD1    H1 3203   1.110   2.777  10.169 -2.1460  1.4220  0.4678
  207MPD1    H2 3204   0.945   2.873   9.787 -0.3899  0.2482  1.8976
  207MPD1    H3 3205   0.918   2.784  10.006  0.2752 -0.5225 -0.3514
  207MPD1     N 3206   1.362   2.873  10.109 -0.0696 -0.0096 -0.6740
  207MPD1    H5 3207   1.353   2.827  10.199  1.4185 -0.2455 -0.6533
  207MPD1    N1 3208   1.162   2.967   9.686  0.3744 -0.1840 -0.5273
  207MPD1    H6 3209   1.252   2.967   9.639  0.0613 -0.3642 -1.1180
  207MPD1    H7 3210   1.092   2.931   9.622  1.1222 -1.7681 -0.4511
  208MPD1     C 3211   0.201   2.370   0.485  0.4596 -0.4634  0.2837
  208MPD1    C1 3212   0.162   2.266   0.562  0.6460 -0.2977 -0.0976
  208MPD1    C2 3213   0.032   2.220   0.549 -0.1474  0.4923 -0.0790
  208MPD1    C3 3214   4.671   2.276   0.468  0.5886 -0.8747 -0.7492
  208MPD1    C4 3215   4.706   2.390   0.396 -0.0596  0.9752  0.5465
  208MPD1    C5 3216   0.105   2.423   0.405  0.1053  0.4504  0.2149
  208MPD1     H 3217   0.002   2.140   0.616  1.2819  0.8551  0.9950
  208MPD1    H1 3218   4.637   2.443   0.331  0.4706 -1.5278 -2.0303
  208MPD1    H2 3219   0.304   2.402   0.473  0.0610  0.1201 -1.5835
  208MPD1    H3 3220   0.131   2.507   0.340 -0.1601 -0.4587 -1.0742
  208MPD1     N 3221   4.547   2.217   0.454 -0.3810  0.4472 -0.0171
  208MPD1    H5 3222   4.534   2.133   0.509  1.7326  1.1624  1.5711
  208MPD1    N1 3223   0.249   2.204   0.646  0.1425  0.2669 -0.0091
  208MPD1    H6 3224   0.220   2.116   0.689  0.0891  1.4893  2.4468
  208MPD1    H7 3225   0.332   2.180   0.592 -0.2602 -2.8408  0.7475
  209MPD1     C 3226   1.067   2.227  11.476  0.0441 -0.2422 -0.4397
  209MPD1    C1 3227   1.144   2.343  11.478  0.1462 -0.7316  0.5336
  209MPD1    C2 3228   1.270   2.336  11.425 -0.1047 -0.6444 -0.1509
  209MPD1    C3 3229   1.319   2.225  11.370  0.6335  0.0589  0.4089
  209MPD1    C4 3230   1.253   2.108  11.381 -0.4967 -0.4004 -0.0148
  209MPD1    C5 3231   1.130   2.108  11.439 -0.2497 -0.0044  0.4330
  209MPD1     H 3232   1.325   2.430  11.420  0.9165 -1.3425 -1.9147
  209MPD1    H1 3233   1.293   2.015  11.342 -1.3690  0.1449 -2.2275
  209MPD1    H2 3234   0.965   2.225  11.513 -0.9956 -0.7126 -3.3326
  209MPD1    H3 3235   1.075   2.015  11.443 -0.3468 -0.0605 -2.3405
  209MPD1     N 3236   1.442   2.230  11.299 -0.0523  0.0604  0.4111
  209MPD1    H5 3237   1.477   2.323  11.277  1.4139 -1.1439 -2.4205
  209MPD1    N1 3238   1.089   2.471  11.509 -0.1026  0.2517  0.2203
  209MPD1    H6 3239   1.005   2.462  11.565 -0.5466 -0.9970 -0.6327
  209MPD1    H7 3240   1.158   2.526  11.560 -1.7791  1.6034  0.9959
  210MPD1     C 3241   1.952   2.862  11.516  0.1510 -0.8406 -0.7131
  210MPD1    C1 3242   2.039   2.788  11.432 -0.1192 -0.0044  0.2661
  210MPD1    C2 3243   1.991   2.674  11.375  0.7205 -0.5230 -0.1532
  210MPD1    C3 3244   1.859   2.626  11.387  0.7173  0.3330  0.2920
  210MPD1    C4 3245   1.783   2.688  11.479 -0.0558  0.3236 -0.8611
  210MPD1    C5 3246   1.831   2.803  11.543 -0.4936  0.5771 -0.2862
  210MPD1     H 3247   2.047   2.618  11.302 -2.3500  0.7320 -3.4466
  210MPD1    H1 3248   1.681   2.652  11.484 -0.6301  2.2091  1.2105
  210MPD1    H2 3249   1.980   2.956  11.563  0.5894 -0.5663 -1.5266
  210MPD1    H3 3250   1.763   2.857  11.609 -0.1687 -1.2751  1.5292
  210MPD1     N 3251   1.805   2.515  11.315  0.2899 -0.1695  0.2753
  210MPD1    H5 3252   1.705   2.497  11.320  0.1703  0.2234 -0.6242
  210MPD1    N1 3253   2.176   2.816  11.413  0.3631 -0.8446  0.7567
  210MPD1    H6 3254   2.210   2.770  11.329 -0.1804 -1.4937  0.8928
  210MPD1    H7 3255   2.197   2.916  11.408  0.0282 -0.9605 -3.0744
  211MPD1     C 3256   4.582   2.570  15.975 -0.7309  0.0255  0.6985
  211MPD1    C1 3257   4.602   2.699  16.019 -0.2275 -0.2308 -0.1320
  211MPD1    C2 3258   4.497   2.773  16.068  0.8572  0.1772  0.1496
  211MPD1    C3 3259   4.377   2.716  16.088  0.7032  0.4007  0.2413
  211MPD1    C4 3260   4.356   2.589  16.051 -0.9705  0.2538  0.7338
  211MPD1    C5 3261   4.460   2.519  15.997 -0.1341  0.4223 -0.6350
  211MPD1     H 3262   4.513   2.875  16.100  0.9803  0.5785 -1.1765
  211MPD1    H1 3263   4.262   2.537  16.061 -1.1406  0.2829 -0.7256
  211MPD1    H2 3264   4.660   2.511  15.930 -1.4562 -0.9716  0.7472
  211MPD1    H3 3265   4.446   2.412  15.989 -0.0691  0.4672 -1.3998
  211MPD1     N 3266   4.275   2.796  16.155  0.1955 -1.1449  0.8702
  211MPD1    H5 3267   4.296   2.892  16.183  0.1609 -0.8497 -0.1426
  211MPD1    N1 3268   4.726   2.765  15.987  0.5938  0.2859 -0.4600
  211MPD1    H6 3269   0.059   2.695  15.957  3.1848  2.6496 -0.2269
  211MPD1    H7 3270   0.027   2.825  16.061 -0.8368  2.8637 -1.8772
  212MPD1     C 3271   3.352   1.549  16.924  0.1225 -1.1159 -0.8016
  212MPD1    C1 3272   3.454   1.458  16.936  0.5230 -0.0348 -0.8045
  212MPD1    C2 3273   3.424   1.327  16.974  0.4516 -0.3635 -0.3970
  212MPD1    C3 3274   3.294   1.287  16.994  0.4454  0.3784  0.1540
  212MPD1    C4 3275   3.192   1.381  16.983  0.4588 -0.0775  0.1740
  212MPD1    C5 3276   3.224   1.506  16.955 -0.3753 -0.7836 -0.5767
  212MPD1     H 3277   3.501   1.251  16.984  0.2114 -0.6819 -0.9603
  212MPD1    H1 3278   3.090   1.350  16.997  0.3418  0.0691 -0.3341
  212MPD1    H2 3279   3.353   1.651  16.889 -1.9810  0.6543  4.3586
  212MPD1    H3 3280   3.146   1.581  16.946 -1.4410 -1.5218  2.7075
  212MPD1     N 3281   3.254   1.156  17.021 -0.0229 -0.8324 -0.1820
  212MPD1    H5 3282   3.153   1.146  17.021  0.0007 -1.1005  0.1748
  212MPD1    N1 3283   3.589   1.505  16.928 -0.3983 -0.4525 -0.1773
  212MPD1    H6 3284   3.592   1.587  16.866  0.8919 -0.4723 -0.1402
  212MPD1    H7 3285   3.653   1.435  16.889 -0.7270 -0.1918 -1.1821
  213MPD1     C 3286   1.564   1.272  15.859  0.1571  0.0070  0.5827
  213MPD1    C1 3287   1.455   1.223  15.792  0.6160  0.0464 -0.7372
  213MPD1    C2 3288   1.398   1.308  15.696 -0.1184  0.6042 -0.0941
  213MPD1    C3 3289   1.428   1.447  15.688 -0.2048 -0.7232 -0.3502
  213MPD1    C4 3290   1.516   1.502  15.779  0.2323  0.3291 -0.1274
  213MPD1    C5 3291   1.580   1.405  15.855 -0.4986  0.2790  0.3169
  213MPD1     H 3292   1.324   1.264  15.630  0.3379  0.8687 -0.7765
  213MPD1    H1 3293   1.542   1.606  15.794  1.1311  0.0760  0.0583
  213MPD1    H2 3294   1.629   1.221  15.929 -0.4106  1.6584  2.3238
  213MPD1    H3 3295   1.659   1.454  15.911  0.2635 -0.7842  0.1731
  213MPD1     N 3296   1.363   1.529  15.591 -0.0087  0.1908 -0.6266
  213MPD1    H5 3297   1.298   1.476  15.534  0.2193  1.3051 -1.9015
  213MPD1    N1 3298   1.446   1.084  15.785 -0.4131 -0.4585 -1.0605
  213MPD1    H6 3299   1.347   1.063  15.777 -0.3662 -1.1166  0.1835
  213MPD1    H7 3300   1.485   1.054  15.874  0.8535 -1.6519 -2.0083
  214MPD1     C 3301   0.626   1.227  15.209  0.1968 -0.6867  0.4858
  214MPD1    C1 3302   0.598   1.327  15.303 -0.3568 -0.1685 -0.2806
  214MPD1    C2 3303   0.702   1.416  15.324  0.1117  0.1260 -0.2638
  214MPD1    C3 3304   0.817   1.416  15.240  0.1391  0.6749 -0.0151
  214MPD1    C4 3305   0.827   1.332  15.130  0.5151  0.0720  0.0814
  214MPD1    C5 3306   0.730   1.231  15.121  0.1698 -0.3888  0.3946
  214MPD1     H 3307   0.677   1.491  15.398 -0.1477  0.2053 -0.4301
  214MPD1    H1 3308   0.916   1.326  15.068  2.3039  0.0604  2.6254
  214MPD1    H2 3309   0.548   1.153  15.194  1.4492 -1.4220 -2.4519
  214MPD1    H3 3310   0.740   1.146  15.054  1.2586  0.3505 -0.3776
  214MPD1     N 3311   0.930   1.500  15.268 -0.3455  0.0044 -0.2400
  214MPD1    H5 3312   1.004   1.504  15.199 -0.0850  0.3740  0.0614
  214MPD1    N1 3313   0.489   1.319  15.386  0.5156 -0.0509 -0.2725
  214MPD1    H6 3314   0.464   1.400  15.441 -0.1937 -0.5334  0.1178
  214MPD1    H7 3315   0.407   1.281  15.339  0.2152 -0.3549  0.4977
  215MPD1     C 3316   0.869   2.927  10.475 -0.5530  0.4797 -0.1013
  215MPD1    C1 3317   0.838   3.054  10.507 -0.3304  0.1380 -0.1442
  215MPD1    C2 3318   0.897   3.098  10.630  0.5858 -0.5736  0.7522
  215MPD1    C3 3319   0.965   3.017  10.717 -0.3460  0.3955 -0.0542
  215MPD1    C4 3320   0.976   2.882  10.683 -0.3146  0.6841  0.3740
  215MPD1    C5 3321   0.936   2.845  10.564  0.1617 -0.4386 -0.0163
  215MPD1     H 3322   0.895   3.202  10.657  0.8425  0.0673 -1.6764
  215MPD1    H1 3323   1.027   2.809  10.744  0.6241  0.4447 -0.7113
  215MPD1    H2 3324   0.834   2.862  10.395 -0.6171 -0.2969  0.5497
  215MPD1    H3 3325   0.952   2.741  10.538  3.3092  0.3793 -1.3697
  215MPD1     N 3326   1.035   3.072  10.828 -0.0436 -0.2022 -0.1461
  215MPD1    H5 3327   1.049   3.172  10.819  4.3010 -0.9017 -0.9313
  215MPD1    N1 3328   0.796   3.145  10.411  0.8435  0.1091 -1.1564
  215MPD1    H6 3329   0.752   3.104  10.329 -2.4463  0.5621  0.4007
  215MPD1    H7 3330   0.732   3.212  10.453  0.1211 -0.6572 -1.0357
  216MPD1     C 3331   3.805   1.276  17.219  0.5444 -0.1873  0.2360
  216MPD1    C1 3332   3.871   1.157  17.244  0.5741 -0.8496  0.4932
  216MPD1    C2 3333   3.801   1.042  17.278  0.1483 -0.2734 -0.3202
  216MPD1    C3 3334   3.664   1.039  17.289 -0.2270  0.4137 -0.3474
  216MPD1    C4 3335   3.597   1.158  17.256  0.4681  0.3291 -0.2769
  216MPD1    C5 3336   3.666   1.270  17.217 -0.0930  0.0899 -0.4382
  216MPD1     H 3337   3.854   0.951  17.305 -0.9607 -1.1943 -1.2467
  216MPD1    H1 3338   3.489   1.163  17.248  0.6326  2.9817 -0.6616
  216MPD1    H2 3339   3.859   1.367  17.198 -0.9392  1.3257  2.8947
  216MPD1    H3 3340   3.607   1.355  17.185  1.2750  1.0442 -0.4477
  216MPD1     N 3341   3.607   0.925  17.330  0.3100 -0.2589  0.3021
  216MPD1    H5 3342   3.662   0.841  17.314  0.8050 -0.1767  1.5184
  216MPD1    N1 3343   4.012   1.157  17.264  0.0710  1.1011  0.2649
  216MPD1    H6 3344   4.059   1.224  17.203 -1.1226  1.0950 -0.6460
  216MPD1    H7 3345   4.058   1.069  17.242  1.3583  1.5640  1.0575
  217MPD1     C 3346   3.559   1.249   8.675  0.1764 -0.3282  0.3429
  217MPD1    C1 3347   3.520   1.185   8.791  0.3232 -0.4258 -0.0346
  217MPD1    C2 3348   3.576   1.238   8.905 -0.3332  0.0055  0.7848
  217MPD1    C3 3349   3.653   1.353   8.913 -0.0964  0.8435 -0.1904
  217MPD1    C4 3350   3.684   1.414   8.793 -0.8337 -0.8431  0.3953
  217MPD1    C5 3351   3.639   1.360   8.675 -0.4399 -0.5988 -0.0897
  217MPD1     H 3352   3.568   1.179   8.996 -1.7926 -4.2322 -2.1082
  217MPD1    H1 3353   3.735   1.510   8.788  0.1273 -1.2596  2.2367
  217MPD1    H2 3354   3.540   1.206   8.577 -1.5100  1.1304  0.0255
  217MPD1    H3 3355   3.668   1.405   8.581  2.8157  0.9302  1.6593
  217MPD1     N 3356   3.720   1.402   9.024 -0.4211  0.3409 -0.5986
  217MPD1    H5 3357   3.784   1.480   9.011 -0.2074  0.3580  0.5458
  217MPD1    N1 3358   3.457   1.059   8.789 -0.4493  0.2971 -0.0877
  217MPD1    H6 3359   3.394   1.053   8.868  1.4668  1.1149  1.4856
  217MPD1    H7 3360   3.404   1.059   8.702  1.7882 -1.2710 -1.4744
  218MPD1     C 3361   0.652   2.754  13.138  0.4985 -0.0955  0.2848
  218MPD1    C1 3362   0.725   2.637  13.117  1.0275  0.3929  0.6444
  218MPD1    C2 3363   0.830   2.637  13.023  0.4195  0.0670  0.2445
  218MPD1    C3 3364   0.865   2.749  12.951  0.1702 -0.0202 -0.0297
  218MPD1    C4 3365   0.793   2.862  12.972 -0.2636  0.1087  0.4936
  218MPD1    C5 3366   0.692   2.858  13.064  0.0921  0.8703  0.0513
  218MPD1     H 3367   0.900   2.555  13.017 -0.8943 -0.9358 -1.6985
  218MPD1    H1 3368   0.817   2.953  12.919 -0.7932 -0.6556 -1.0718
  218MPD1    H2 3369   0.569   2.759  13.208 -0.5018 -0.5109 -0.8880
  218MPD1    H3 3370   0.629   2.946  13.071 -0.7257  0.4715 -2.5111
  218MPD1     N 3371   0.981   2.740  12.863 -0.1294  0.1199  0.6403
  218MPD1    H5 3372   1.037   2.657  12.879  0.9503  0.7555  0.1233
  218MPD1    N1 3373   0.703   2.516  13.186  0.2253 -0.0740 -0.4812
  218MPD1    H6 3374   0.791   2.466  13.198 -0.3743 -0.3486  2.5842
  218MPD1    H7 3375   0.667   2.529  13.280  1.1403  0.9896 -0.2734
  219MPD1     C 3376   1.606   3.202  12.108 -0.0362 -0.3123  0.1398
  219MPD1    C1 3377   1.473   3.215  12.137 -0.0616 -0.1629  0.8040
  219MPD1    C2 3378   1.419   3.127  12.230 -0.2899 -0.0677  0.7959
  219MPD1    C3 3379   1.503   3.038  12.297  0.2464  0.2372 -0.1595
  219MPD1    C4 3380   1.638   3.036  12.271  0.0949 -0.1320  0.1672
  219MPD1    C5 3381   1.691   3.123  12.178  0.2683  0.3758 -0.0480
  219MPD1     H 3382   1.311   3.122  12.239 -0.3400  1.1481  0.8364
  219MPD1    H1 3383   1.700   2.959  12.316 -2.1318 -2.4581 -0.7707
  219MPD1    H2 3384   1.656   3.260  12.031 -2.0393  0.5218 -0.5422
  219MPD1    H3 3385   1.796   3.116  12.150  0.2959 -1.8653  0.5834
  219MPD1     N 3386   1.450   2.939  12.389  0.0869 -1.1296 -0.2221
  219MPD1    H5 3387   1.513   2.869  12.427 -0.0884  0.1803  2.4776
  219MPD1    N1 3388   1.399   3.294  12.053  0.4016 -0.1627  0.3275
  219MPD1    H6 3389   1.463   3.371  12.035 -0.6890  0.6090 -0.3147
  219MPD1    H7 3390   1.304   3.327  12.073  0.3120 -0.4328  0.3418
  220MPD1     C 3391   0.748   4.445   9.759  0.4457 -0.2397 -0.5658
  220MPD1    C1 3392   0.696   4.311   9.741 -0.0646 -0.6829  0.4720
  220MPD1    C2 3393   0.758   4.207   9.814  0.6854 -0.3990 -0.2556
  220MPD1    C3 3394   0.863   4.234   9.903 -0.8600  0.2410  0.1265
  220MPD1    C4 3395   0.893   4.367   9.923 -0.2301 -0.2189  0.7719
  220MPD1    C5 3396   0.845   4.468   9.847  0.5832 -0.8765 -0.2058
  220MPD1     H 3397   0.738   4.103   9.792 -1.0568 -0.1377  0.0503
  220MPD1    H1 3398   0.969   4.398   9.993  1.2761 -0.6797 -0.6693
  220MPD1    H2 3399   0.694   4.528   9.716 -1.2540 -0.1920  1.6492
  220MPD1    H3 3400   0.891   4.565   9.862 -2.9467  0.6889  0.4586
  220MPD1     N 3401   0.912   4.128   9.981 -0.3903 -0.1033 -0.1549
  220MPD1    H5 3402   0.874   4.040   9.949  0.4485 -0.0480 -1.3054
  220MPD1    N1 3403   0.613   4.287   9.632  0.1000 -0.1880 -0.3383
  220MPD1    H6 3404   0.551   4.209   9.652 -1.4614  0.7027 -1.7252
  220MPD1    H7 3405   0.560   4.367   9.599 -1.5779 -1.2274 -0.1330
  221MPD1     C 3406   3.590   1.715  16.453  0.9428 -0.1152 -0.2268
  221MPD1    C1 3407   3.665   1.620  16.521 -0.0733  0.2490 -0.2519
  221MPD1    C2 3408   3.803   1.629  16.509  0.8737 -0.3472  0.1766
  221MPD1    C3 3409   3.869   1.721  16.429  0.5849  0.2659 -0.4756
  221MPD1    C4 3410   3.792   1.800  16.354  0.3999 -0.2270 -0.1508
  221MPD1    C5 3411   3.656   1.803  16.371 -0.6267  0.6246 -0.0504
  221MPD1     H 3412   3.862   1.559  16.566  0.1773  0.2456  1.6210
  221MPD1    H1 3413   3.843   1.875  16.294  0.1766  0.9610  1.1446
  221MPD1    H2 3414   3.482   1.726  16.459  0.7866 -0.8174 -1.5752
  221MPD1    H3 3415   3.602   1.888  16.330 -0.6176  1.3410  1.4364
  221MPD1     N 3416   4.013   1.730  16.411  0.2941 -0.0655 -0.1939
  221MPD1    H5 3417   4.050   1.802  16.350 -0.6768 -1.1350 -2.0814
  221MPD1    N1 3418   3.599   1.533  16.605 -0.2197  0.1033  0.3387
  221MPD1    H6 3419   3.509   1.499  16.571  0.9915 -1.3152 -1.3733
  221MPD1    H7 3420   3.653   1.450  16.626 -1.2218 -1.1050 -1.9057
  222MPD1     C 3421   2.664   0.614   0.143  0.2921  0.2288  0.1993
  222MPD1    C1 3422   2.793   0.640   0.122 -0.2792  0.0206 -0.3046
  222MPD1    C2 3423   2.853   0.741   0.195 -0.0157 -0.3218  0.0605
  222MPD1    C3 3424   2.776   0.825   0.275 -0.0490 -0.0537  0.0927
  222MPD1    C4 3425   2.642   0.796   0.292  0.4712  0.0190  0.5857
  222MPD1    C5 3426   2.592   0.683   0.233  0.9108 -0.6498  0.7890
  222MPD1     H 3427   2.956   0.769   0.179  0.8134 -2.0437  2.4562
  222MPD1    H1 3428   2.572   0.856   0.350  1.0855  1.2621  0.0438
  222MPD1    H2 3429   2.614   0.532   0.091  0.3654  1.1655 -1.3603
  222MPD1    H3 3430   2.489   0.657   0.251  1.5360 -3.1157  0.8460
  222MPD1     N 3431   2.831   0.938   0.344  0.0959 -1.0462  1.0556
  222MPD1    H5 3432   2.777   0.976   0.421 -1.2187 -0.6151 -0.0812
  222MPD1    N1 3433   2.873   0.555   0.049 -0.5312 -0.1582  0.4715
  222MPD1    H6 3434   2.812   0.517  17.713 -0.4191 -0.9116  0.7773
  222MPD1    H7 3435   2.948   0.609   0.007 -1.1713  0.2088 -0.2112
  223MPD1     C 3436   2.750   1.527   1.153  0.0406 -0.6659 -0.2785
  223MPD1    C1 3437   2.859   1.570   1.084  0.0342 -0.2054 -0.1501
  223MPD1    C2 3438   2.904   1.505   0.976  0.1599 -0.1583 -0.1423
  223MPD1    C3 3439   2.855   1.387   0.934  0.2148  0.1885 -0.0882
  223MPD1    C4 3440   2.732   1.348   0.986  0.1494 -0.1526 -0.1455
  223MPD1    C5 3441   2.688   1.419   1.099  0.8222  0.1939 -0.2016
  223MPD1     H 3442   2.989   1.539   0.919  1.7584  0.0147  2.3422
  223MPD1    H1 3443   2.678   1.261   0.950 -1.1569  0.6372 -0.0750
  223MPD1    H2 3444   2.692   1.577   1.229 -1.4528  1.9359 -3.1253
  223MPD1    H3 3445   2.594   1.392   1.147  1.4813  1.0850  1.6072
  223MPD1     N 3446   2.920   1.320   0.829 -0.1687  0.5059  0.3479
  223MPD1    H5 3447   3.012   1.356   0.802  0.6903 -1.7426  0.2165
  223MPD1    N1 3448   2.913   1.696   1.118 -0.7246  0.0161 -0.5390
  223MPD1    H6 3449   3.008   1.718   1.091  0.0090 -1.1064  1.1256
  223MPD1    H7 3450   2.902   1.717   1.216 -0.6128 -2.4964  0.0277
  224MPD1     C 3451   3.550   2.022  10.612  0.0256  0.6684  0.1036
  224MPD1    C1 3452   3.603   1.930  10.520 -0.5276 -0.6327 -0.2688
  224MPD1    C2 3453   3.687   1.976  10.423 -0.1562  0.2919  0.5436
  224MPD1    C3 3454   3.721   2.113  10.420  0.5423  0.4877 -0.2466
  224MPD1    C4 3455   3.670   2.207  10.512  0.9823 -0.4244 -0.4748
  224MPD1    C5 3456   3.588   2.158  10.609  0.3824 -0.0327 -0.3926
  224MPD1     H 3457   3.717   1.909  10.343 -1.5708  0.1736  0.1021
  224MPD1    H1 3458   3.678   2.314  10.502 -3.1713 -0.3061 -2.3572
  224MPD1    H2 3459   3.468   1.991  10.676 -1.0740  1.4768 -0.9312
  224MPD1    H3 3460   3.544   2.230  10.676 -1.2284 -1.5474  0.1524
  224MPD1     N 3461   3.821   2.167  10.332 -0.1012  0.4434  0.2960
  224MPD1    H5 3462   3.826   2.268  10.328  0.6958  0.3412 -1.6385
  224MPD1    N1 3463   3.546   1.800  10.519 -0.1466 -0.6740 -0.2459
  224MPD1    H6 3464   3.611   1.730  10.482  1.2581 -0.7242  2.2954
  224MPD1    H7 3465   3.526   1.777  10.617  1.8768  1.9207  0.7837
  225MPD1     C 3466   1.503   3.686  12.162 -0.4252 -0.2771  1.0088
  225MPD1    C1 3467   1.394   3.735  12.099  0.2145  0.9233  0.1471
  225MPD1    C2 3468   1.271   3.730  12.161  0.2185 -0.7280 -0.3543
  225MPD1    C3 3469   1.264   3.675  12.289  0.0249  0.3849  0.0667
  225MPD1    C4 3470   1.376   3.640  12.357  0.3196 -0.3159  0.1744
  225MPD1    C5 3471   1.492   3.636  12.291 -0.9829 -0.1401 -0.0789
  225MPD1     H 3472   1.183   3.763  12.106  0.5909 -1.7882 -1.5719
  225MPD1    H1 3473   1.368   3.597  12.456  1.8093 -2.7783 -0.7743
  225MPD1    H2 3474   1.599   3.680  12.113 -0.0380 -2.0380  1.9771
  225MPD1    H3 3475   1.582   3.594  12.334 -2.2776 -1.3369  1.4779
  225MPD1     N 3476   1.143   3.672  12.368 -0.0453 -0.6755  0.4301
  225MPD1    H5 3477   1.152   3.662  12.469  1.8913  1.5197  0.4895
  225MPD1    N1 3478   1.404   3.762  11.964 -0.3426 -0.4286 -0.1424
  225MPD1    H6 3479   1.490   3.802  11.929 -1.1669 -0.2703 -1.9831
  225MPD1    H7 3480   1.327   3.818  11.927  0.3234  0.3078 -0.3969
  226MPD1     C 3481   3.387   2.148  10.116 -0.0844 -0.3898 -0.1556
  226MPD1    C1 3482   3.491   2.078  10.064 -0.3088 -0.3164  0.1800
  226MPD1    C2 3483   3.563   2.126   9.960 -0.1974 -0.5402  0.1249
  226MPD1    C3 3484   3.522   2.246   9.900 -0.0945  0.8811 -0.3031
  226MPD1    C4 3485   3.430   2.323   9.967 -0.5147  0.3718 -0.1257
  226MPD1    C5 3486   3.361   2.269  10.068 -0.4063  0.4039  0.2717
  226MPD1     H 3487   3.643   2.073   9.911 -1.0948 -2.2558  0.5181
  226MPD1    H1 3488   3.405   2.425   9.941  1.3260  0.9618  0.4265
  226MPD1    H2 3489   3.329   2.109  10.199  0.4269 -2.6799 -0.8915
  226MPD1    H3 3490   3.279   2.327  10.108 -0.6191 -0.3572  0.9209
  226MPD1     N 3491   3.589   2.288   9.785 -1.1558 -0.2258 -0.0499
  226MPD1    H5 3492   3.654   2.222   9.742 -2.2773 -0.4113 -1.4765
  226MPD1    N1 3493   3.513   1.946  10.100 -0.0234  0.3155  0.4322
  226MPD1    H6 3494   3.516   1.947  10.202  2.7654  0.6634  0.3527
  226MPD1    H7 3495   3.605   1.914  10.069 -0.7948  1.4323 -3.0039
  227MPD1     C 3496   4.277   3.005   9.424  0.4665 -0.1203 -0.3011
  227MPD1    C1 3497   4.325   2.875   9.430  0.4398 -0.1315  0.2570
  227MPD1    C2 3498   4.240   2.770   9.456  0.2609  0.0104 -0.5158
  227MPD1    C3 3499   4.104   2.799   9.455  0.1739  0.3744 -0.3302
  227MPD1    C4 3500   4.054   2.922   9.426 -0.4838 -0.3510 -0.0466
  227MPD1    C5 3501   4.144   3.026   9.420  0.0954  0.1418 -0.2204
  227MPD1     H 3502   4.276   2.674   9.492 -3.5127 -0.8976  0.8522
  227MPD1    H1 3503   3.949   2.948   9.426  0.0495  1.7418  2.9261
  227MPD1    H2 3504   4.345   3.089   9.421 -1.4065  1.3976 -0.1421
  227MPD1    H3 3505   4.104   3.126   9.416  0.0803  0.2165  1.6981
  227MPD1     N 3506   4.019   2.688   9.480  0.4785  0.0366 -0.2822
  227MPD1    H5 3507   4.068   2.600   9.462 -1.6790 -1.1052 -0.5427
  227MPD1    N1 3508   4.461   2.856   9.456 -0.2022 -0.3006 -0.0866
  227MPD1    H6 3509   4.525   2.925   9.417  2.2356 -0.9057  2.8090
  227MPD1    H7 3510   4.498   2.762   9.441 -2.7508 -1.3820  0.4658
  228MPD1     C 3511   2.419   0.921  13.095 -0.0046  0.5237  0.1149
  228MPD1    C1 3512   2.317   0.964  13.010  0.3740 -0.7992 -0.1076
  228MPD1    C2 3513   2.186   0.960  13.059  0.0346 -0.0753 -0.3152
  228MPD1    C3 3514   2.158   0.922  13.188 -0.3530  0.2076 -1.0308
  228MPD1    C4 3515   2.255   0.878  13.277 -0.3145  0.1166 -0.0975
  228MPD1    C5 3516   2.383   0.873  13.228  0.4581  0.4376  0.1599
  228MPD1     H 3517   2.100   0.994  13.003  0.4424  1.9622  0.3184
  228MPD1    H1 3518   2.227   0.836  13.373  0.8933  2.8919  1.4553
  228MPD1    H2 3519   2.521   0.915  13.060  0.2161  1.7638  0.5390
  228MPD1    H3 3520   2.455   0.829  13.296 -0.8751 -1.7938  0.1156
  228MPD1     N 3521   2.021   0.904  13.223  0.2022  0.1906 -0.8214
  228MPD1    H5 3522   1.968   0.918  13.138 -2.8362  0.8229  1.1980
  228MPD1    N1 3523   2.351   1.040  12.897 -0.4270  0.0199  0.2493
  228MPD1    H6 3524   2.293   1.025  12.815 -0.2184 -1.2827  0.3431
  228MPD1    H7 3525   2.448   1.040  12.867 -0.7149  0.3861 -0.6784
  229MPD1     C 3526   1.832   0.085  14.459 -0.5156 -0.1591  0.4570
  229MPD1    C1 3527   1.849   0.151  14.578 -0.1425  0.2954  0.5238
  229MPD1    C2 3528   1.921   0.078  14.672  0.5305 -0.0921  0.1535
  229MPD1    C3 3529   1.981   4.692  14.647 -0.5439 -0.4148  0.5040
  229MPD1    C4 3530   1.963   4.637  14.525  0.1856 -0.0224  0.0774
  229MPD1    C5 3531   1.890   4.701  14.433 -0.1282  0.1677  0.2630
  229MPD1     H 3532   1.920   0.120  14.772 -1.1283 -0.9154  0.4783
  229MPD1    H1 3533   2.004   4.541  14.494 -1.0940 -0.5090 -0.0972
  229MPD1    H2 3534   1.763   0.127  14.386 -1.5732 -1.5971  0.6224
  229MPD1    H3 3535   1.857   4.652  14.342 -0.8744 -1.5590  1.4752
  229MPD1     N 3536   2.062   4.628  14.746  0.0516  0.4055 -0.5300
  229MPD1    H5 3537   2.119   4.550  14.715  0.0919  0.5914 -0.9352
  229MPD1    N1 3538   1.777   0.264  14.605  0.5691  0.5380 -0.1456
  229MPD1    H6 3539   1.827   0.324  14.670 -0.6373 -0.8881  2.1199
  229MPD1    H7 3540   1.746   0.317  14.524 -0.6077  0.5915  0.3313
  230MPD1     C 3541   2.196   0.012  15.753 -0.0670  0.1571  0.6680
  230MPD1    C1 3542   2.105   0.061  15.668 -0.3011  0.8416  0.2523
  230MPD1    C2 3543   2.115   0.026  15.536  0.5134  0.6591 -0.1079
  230MPD1    C3 3544   2.203   4.666  15.497 -0.5205 -0.7795 -0.2960
  230MPD1    C4 3545   2.290   4.606  15.585  0.4007 -0.2441 -0.6500
  230MPD1    C5 3546   2.293   4.658  15.709 -0.2702  0.2441  0.5160
  230MPD1     H 3547   2.041   0.061  15.465 -0.2949 -0.0345  0.3954
  230MPD1    H1 3548   2.368   4.536  15.561 -0.6760 -1.4284 -0.7050
  230MPD1    H2 3549   2.211   0.051  15.853 -0.9061  0.3772  0.7066
  230MPD1    H3 3550   2.372   4.625  15.776 -0.4095 -0.1722  0.4737
  230MPD1     N 3551   2.203   4.623  15.358  0.5589 -0.0811 -0.0031
  230MPD1    H5 3552   2.148   4.684  15.298  0.3877  0.0278  0.2654
  230MPD1    N1 3553   2.004   0.144  15.720 -0.2264 -0.8018 -0.5714
  230MPD1    H6 3554   2.035   0.185  15.808  1.3265  0.4907 -1.7006
  230MPD1    H7 3555   1.968   0.217  15.658  2.0582  0.5182 -0.3879
  231MPD1     C 3556   0.919   1.997  15.632 -0.0075  0.1473 -0.1444
  231MPD1    C1 3557   0.885   1.890  15.557 -0.2194  0.3086 -0.4805
  231MPD1    C2 3558   0.881   1.911  15.418  0.0420  0.2900  0.8308
  231MPD1    C3 3559   0.939   2.018  15.360  0.2313 -0.6273  0.6818
  231MPD1    C4 3560   0.983   2.117  15.438  0.1967 -0.1793  0.2880
  231MPD1    C5 3561   0.976   2.102  15.573  1.0474  0.5652  0.1137
  231MPD1     H 3562   0.839   1.833  15.355  0.8344 -0.7669  1.6120
  231MPD1    H1 3563   1.018   2.213  15.402  0.7392 -0.8108 -0.8598
  231MPD1    H2 3564   0.906   1.988  15.739  1.1735 -1.2536 -0.1104
  231MPD1    H3 3565   1.009   2.181  15.640 -1.1013  0.8500  0.8190
  231MPD1     N 3566   0.942   2.039  15.217  1.0644  0.3681  0.1277
  231MPD1    H5 3567   0.881   1.970  15.174 -0.3626  1.6367  0.1089
  231MPD1    N1 3568   0.822   1.783  15.619  0.3488 -0.0554 -0.6091
  231MPD1    H6 3569   0.833   1.694  15.570 -0.9979 -0.1848 -0.6683
  231MPD1    H7 3570   0.854   1.757  15.712 -2.2791 -0.6262  0.1238
  232MPD1     C 3571   2.900   4.559  17.147 -0.0813  0.6223 -0.1626
  232MPD1    C1 3572   2.785   4.573  17.077  0.5636  0.4319  0.6984
  232MPD1    C2 3573   2.681   4.505  17.117  0.4468 -0.4068  0.2931
  232MPD1    C3 3574   2.690   4.396  17.202 -0.0236  0.2259 -0.1579
  232MPD1    C4 3575   2.815   4.365  17.250 -0.2752 -0.3080  0.6029
  232MPD1    C5 3576   2.916   4.453  17.233  0.1130  0.8022  0.2435
  232MPD1     H 3577   2.585   4.522  17.069  1.5311 -0.8463 -1.9862
  232MPD1    H1 3578   2.834   4.282  17.317  3.5711  0.8070  0.8744
  232MPD1    H2 3579   2.989   4.614  17.118  0.5141  0.3308  1.0996
  232MPD1    H3 3580   3.006   4.438  17.291  0.0658  1.5164  0.5073
  232MPD1     N 3581   2.575   4.322  17.234  0.7367 -0.0427 -0.1113
  232MPD1    H5 3582   2.490   4.372  17.209  1.6082  0.8751 -1.2408
  232MPD1    N1 3583   2.775   4.683  16.989 -0.7787  0.2393  0.5935
  232MPD1    H6 3584   2.712   4.668  16.911 -0.9281 -2.0782  1.1909
  232MPD1    H7 3585   2.865   4.721  16.960 -1.0012  0.8310  0.6762
  233MPD1     C 3586   2.633   1.661   1.964  0.2879  0.1628  0.3806
  233MPD1    C1 3587   2.618   1.537   1.908 -0.1573  0.2395 -0.4710
  233MPD1    C2 3588   2.741   1.484   1.857 -0.1181 -0.6037 -0.3574
  233MPD1    C3 3589   2.862   1.551   1.857  0.2520 -0.4074  0.5677
  233MPD1    C4 3590   2.862   1.681   1.900 -0.0581  0.5113  0.6078
  233MPD1    C5 3591   2.750   1.734   1.955  0.8803  0.1674  0.1992
  233MPD1     H 3592   2.737   1.382   1.822 -0.1458 -1.4160  2.0084
  233MPD1    H1 3593   2.953   1.739   1.898  0.9629 -1.1223 -0.6864
  233MPD1    H2 3594   2.559   1.705   2.029 -0.6985 -0.3432 -0.4010
  233MPD1    H3 3595   2.759   1.828   2.007  4.0345 -0.8099  1.4139
  233MPD1     N 3596   2.982   1.490   1.818  0.8669 -0.5581 -0.4172
  233MPD1    H5 3597   3.065   1.548   1.821 -0.4233  1.1305  3.0397
  233MPD1    N1 3598   2.507   1.457   1.938  0.1249 -0.4938 -0.1614
  233MPD1    H6 3599   2.429   1.521   1.928  0.3049 -0.1818  0.4262
  233MPD1    H7 3600   2.492   1.378   1.876 -0.2833 -1.6810  1.4690
  234MPD1     C 3601   0.470   0.888   9.562 -0.1710  0.6397 -0.7975
  234MPD1    C1 3602   0.393   0.920   9.450  0.8097  0.6939  0.0847
  234MPD1    C2 3603   0.307   1.030   9.463  0.4275 -0.0108 -0.4722
  234MPD1    C3 3604   0.313   1.106   9.584 -0.3089 -0.2631  1.0269
  234MPD1    C4 3605   0.390   1.067   9.690  0.4324 -0.7800 -0.1964
  234MPD1    C5 3606   0.473   0.961   9.677 -0.2814 -0.2267  0.1344
  234MPD1     H 3607   0.247   1.075   9.385  1.3119  1.3718 -0.3577
  234MPD1    H1 3608   0.381   1.109   9.789 -0.1779 -1.2949 -0.0361
  234MPD1    H2 3609   0.517   0.790   9.570 -0.2535  0.6000 -0.8083
  234MPD1    H3 3610   0.538   0.941   9.762  0.6797 -0.9996 -0.7787
  234MPD1     N 3611   0.228   1.215   9.585 -0.5663  0.2938  0.0039
  234MPD1    H5 3612   0.175   1.240   9.502  0.2189  1.1339 -0.2460
  234MPD1    N1 3613   0.406   0.856   9.322 -0.3247 -0.2086 -0.3830
  234MPD1    H6 3614   0.438   0.760   9.332  0.3302  0.2798  2.2257
  234MPD1    H7 3615   0.320   0.864   9.269 -1.3188 -1.6682  0.9951
  235MPD1     C 3616   1.222   3.026  10.466  0.4044  0.6928 -0.0443
  235MPD1    C1 3617   1.247   3.141  10.382  0.1719  0.6256 -0.0391
  235MPD1    C2 3618   1.346   3.223  10.427  0.1115 -0.0730 -0.2376
  235MPD1    C3 3619   1.422   3.197  10.540  0.6173 -0.5942 -0.0506
  235MPD1    C4 3620   1.414   3.075  10.606  0.4483 -0.1177  0.6293
  235MPD1    C5 3621   1.319   2.987  10.560  0.2232 -0.2138  0.3257
  235MPD1     H 3622   1.366   3.318  10.377  1.8773  0.6059  1.7399
  235MPD1    H1 3623   1.483   3.043  10.683 -0.4540  0.4840  1.6939
  235MPD1    H2 3624   1.136   2.962  10.452 -0.2397  1.5995 -0.2330
  235MPD1    H3 3625   1.298   2.894  10.611  1.1056 -1.0827 -0.8868
  235MPD1     N 3626   1.527   3.289  10.559  0.0806 -0.3776 -0.2234
  235MPD1    H5 3627   1.536   3.372  10.501 -2.9547 -1.3502 -2.0974
  235MPD1    N1 3628   1.155   3.190  10.284 -0.3541 -0.2955  0.1104
  235MPD1    H6 3629   1.200   3.225  10.200  0.7370  1.9832  1.6648
  235MPD1    H7 3630   1.087   3.121  10.253 -0.5085 -0.3052  0.4655
  236MPD1     C 3631   1.127   4.688   9.774 -0.5645  0.8913 -0.6409
  236MPD1    C1 3632   1.205   4.603   9.842  0.0256  0.9371  0.1299
  236MPD1    C2 3633   1.279   4.640   9.952 -0.1632 -0.2519  0.1501
  236MPD1    C3 3634   1.252   0.028  10.011 -0.0364  0.7741  0.4256
  236MPD1    C4 3635   1.178   0.117   9.940  0.1302 -0.4302  0.0439
  236MPD1    C5 3636   1.122   0.077   9.825 -0.5225 -0.0595 -0.3145
  236MPD1     H 3637   1.343   4.565   9.997  1.0001  1.9455  2.1703
  236MPD1    H1 3638   1.163   0.220   9.974 -0.9929 -0.6827  0.3275
  236MPD1    H2 3639   1.080   4.661   9.680 -0.9237  2.0333 -0.7863
  236MPD1    H3 3640   1.066   0.155   9.773 -1.0805 -0.7252 -0.7211
  236MPD1     N 3641   1.292   0.066  10.138  0.1191  0.1592 -0.1682
  236MPD1    H5 3642   1.267   0.159  10.170 -2.9650 -1.0842  1.0329
  236MPD1    N1 3643   1.234   4.479   9.782 -0.6576  0.0830 -1.0032
  236MPD1    H6 3644   1.263   4.415   9.856  0.0450  0.2325 -1.1471
  236MPD1    H7 3645   1.150   4.445   9.738 -0.3974 -1.9983  0.1058
  237MPD1     C 3646   1.700   3.250  15.289  0.3401  0.1131 -0.9690
  237MPD1    C1 3647   1.604   3.308  15.368  0.1532  0.1259  0.4525
  237MPD1    C2 3648   1.490   3.234  15.380 -0.9855  0.4712 -0.0704
  237MPD1    C3 3649   1.455   3.130  15.288 -0.6943  0.4581  0.5697
  237MPD1    C4 3650   1.544   3.083  15.195  0.0491  0.2589  0.2785
  237MPD1    C5 3651   1.668   3.141  15.207 -0.0980  0.4280  0.6070
  237MPD1     H 3652   1.421   3.272  15.454 -1.7475 -0.4054 -0.3242
  237MPD1    H1 3653   1.526   2.993  15.138  0.1029  1.7376 -2.0920
  237MPD1    H2 3654   1.801   3.289  15.292  1.1876 -2.2344  0.4716
  237MPD1    H3 3655   1.744   3.105  15.139  0.6991  0.2902  1.5686
  237MPD1     N 3656   1.329   3.068  15.294  0.1609  0.4715  0.3976
  237MPD1    H5 3657   1.298   3.012  15.215 -0.1682 -0.0447  0.8918
  237MPD1    N1 3658   1.647   3.401  15.467 -0.0016  0.4047  0.2455
  237MPD1    H6 3659   1.565   3.455  15.493 -1.2324 -0.1750 -2.4199
  237MPD1    H7 3660   1.727   3.458  15.442 -0.5043  0.5799 -0.9838
  238MPD1     C 3661   2.849   1.764  15.417  0.6154 -0.9563  0.4803
  238MPD1    C1 3662   2.745   1.724  15.496 -0.0966 -0.1022  0.7795
  238MPD1    C2 3663   2.630   1.689  15.439 -0.2494  0.3344  0.6574
  238MPD1    C3 3664   2.618   1.669  15.307 -0.3741 -0.0969 -0.5528
  238MPD1    C4 3665   2.725   1.707  15.225  0.2452 -0.1034  0.8742
  238MPD1    C5 3666   2.842   1.747  15.282 -0.2359 -0.7194  0.2804
  238MPD1     H 3667   2.562   1.643  15.510 -0.1532  0.2839  0.7184
  238MPD1    H1 3668   2.731   1.701  15.117  1.7315 -2.1117  1.0781
  238MPD1    H2 3669   2.944   1.783  15.466  1.0755  0.6345 -1.0312
  238MPD1    H3 3670   2.936   1.761  15.229 -0.3223  0.6361  0.4828
  238MPD1     N 3671   2.507   1.614  15.244 -0.0933  0.5032  0.0683
  238MPD1    H5 3672   2.513   1.603  15.143  0.8785 -1.1272  0.3109
  238MPD1    N1 3673   2.747   1.743  15.634 -0.4933 -0.2482 -0.1662
  238MPD1    H6 3674   2.693   1.674  15.687  1.4542  0.5285  2.8264
  238MPD1    H7 3675   2.843   1.758  15.664 -0.6655  0.8043 -0.1451
  239MPD1     C 3676   2.702   2.360  15.194 -0.1594 -0.0160 -0.2681
  239MPD1    C1 3677   2.808   2.335  15.110 -0.1785  0.1546 -0.3215
  239MPD1    C2 3678   2.812   2.392  14.983 -0.1339 -0.4608 -0.2301
  239MPD1    C3 3679   2.696   2.449  14.923  0.1638  0.1214 -0.0502
  239MPD1    C4 3680   2.581   2.459  15.000  0.3054  0.1664 -0.0887
  239MPD1    C5 3681   2.592   2.416  15.134  0.3804  0.6581 -0.2218
  239MPD1     H 3682   2.903   2.396  14.925  0.1517 -0.4858  0.2098
  239MPD1    H1 3683   2.493   2.509  14.962  0.0515 -0.8237 -0.8090
  239MPD1    H2 3684   2.701   2.323  15.295 -2.9123  1.7370  0.3354
  239MPD1    H3 3685   2.506   2.417  15.200  0.1428  0.8362 -0.5380
  239MPD1     N 3686   2.684   2.515  14.798 -0.3047 -0.3119 -0.5165
  239MPD1    H5 3687   2.590   2.535  14.765 -0.4543 -0.0262  0.0886
  239MPD1    N1 3688   2.929   2.290  15.168 -0.4365 -0.4769 -0.7087
  239MPD1    H6 3689   2.993   2.250  15.099  2.3987  1.0839  0.9851
  239MPD1    H7 3690   2.916   2.216  15.238  0.8105  0.2893  0.3446
  240MPD1     C 3691   1.830   2.475  13.945  0.3839  0.4961  0.3709
  240MPD1    C1 3692   1.714   2.419  14.000  0.5687 -0.5618  1.0153
  240MPD1    C2 3693   1.733   2.340  14.108  0.2064 -0.4532  0.1368
  240MPD1    C3 3694   1.846   2.327  14.174 -0.2287  0.0069  0.0525
  240MPD1    C4 3695   1.964   2.384  14.121 -0.5602 -0.7156  0.1185
  240MPD1    C5 3696   1.952   2.459  14.009  0.0155 -0.0174  0.0925
  240MPD1     H 3697   1.640   2.292  14.138  0.7308 -0.7609  1.2557
  240MPD1    H1 3698   2.064   2.377  14.162  0.7284 -1.0604 -3.1042
  240MPD1    H2 3699   1.838   2.520  13.846  0.3290 -0.9094 -0.2749
  240MPD1    H3 3700   2.037   2.488  13.950  0.0651 -1.4821 -0.5414
  240MPD1     N 3701   1.837   2.243  14.288 -0.6168 -0.5404 -0.0198
  240MPD1    H5 3702   1.744   2.216  14.318 -1.9925  3.0054 -1.0313
  240MPD1    N1 3703   1.594   2.420  13.931 -0.0402 -0.1984 -0.4643
  240MPD1    H6 3704   1.599   2.484  13.852 -0.4510 -0.5525 -0.7764
  240MPD1    H7 3705   1.514   2.412  13.995  0.3796  0.9249  0.2021
  241MPD1     C 3706   2.339   2.196  15.134  0.6558  0.2910  0.0286
  241MPD1    C1 3707   2.298   2.066  15.120  0.7939 -0.7644 -0.7190
  241MPD1    C2 3708   2.212   2.034  15.019 -0.9757 -0.5887  0.2633
  241MPD1    C3 3709   2.161   2.140  14.935  0.2370  0.1083  0.0218
  241MPD1    C4 3710   2.185   2.272  14.974 -0.0078  0.5412  0.1607
  241MPD1    C5 3711   2.266   2.297  15.078  0.9998 -0.4130  0.0332
  241MPD1     H 3712   2.181   1.932  15.001  0.7285 -1.0519  0.0517
  241MPD1    H1 3713   2.142   2.349  14.911 -0.7251  0.1408  0.1724
  241MPD1    H2 3714   2.413   2.231  15.205  1.8538 -0.4425 -0.8629
  241MPD1    H3 3715   2.277   2.405  15.089  1.1898 -0.4393  0.1035
  241MPD1     N 3716   2.095   2.115  14.812  0.0658 -0.0456 -0.2660
  241MPD1    H5 3717   2.063   2.194  14.756  0.9250  0.3947 -0.1304
  241MPD1    N1 3718   2.352   1.965  15.206 -0.2893 -0.3681  0.2903
  241MPD1    H6 3719   2.380   1.994  15.299  0.5997  0.0446 -0.1103
  241MPD1    H7 3720   2.286   1.888  15.220 -0.9167  0.1497  0.1474
  242MPD1     C 3721   1.677   1.010  16.176  0.1069 -0.5337  0.3783
  242MPD1    C1 3722   1.560   0.960  16.119 -0.4902  0.3015  0.7195
  242MPD1    C2 3723   1.578   0.889  16.004 -0.2699 -0.0046 -0.1930
  242MPD1    C3 3724   1.698   0.888  15.931 -0.2264  0.0386  0.4639
  242MPD1    C4 3725   1.807   0.951  15.987 -0.7879  0.3147  0.5414
  242MPD1    C5 3726   1.796   1.009  16.110 -1.1308  0.2699 -0.2475
  242MPD1     H 3727   1.493   0.834  15.964 -1.5607  0.1470  2.3643
  242MPD1    H1 3728   1.906   0.950  15.943 -1.2139  2.6108 -0.4595
  242MPD1    H2 3729   1.670   1.035  16.281 -0.5957  2.9290 -0.4709
  242MPD1    H3 3730   1.883   1.047  16.162 -2.5468  2.1292  0.7696
  242MPD1     N 3731   1.730   0.805  15.820 -0.0741  0.1505  0.2328
  242MPD1    H5 3732   1.827   0.802  15.790  0.2834  1.1396  1.2812
  242MPD1    N1 3733   1.438   0.950  16.188  0.5655  0.1837 -0.0645
  242MPD1    H6 3734   1.427   1.038  16.239  1.2060  2.0029 -3.0764
  242MPD1    H7 3735   1.352   0.917  16.146  0.4842 -1.6271  1.5391
  243MPD1     C 3736   3.724   0.458  17.568  0.0945 -0.3884 -0.4262
  243MPD1    C1 3737   3.854   0.417  17.573 -0.1305 -0.3257  0.5623
  243MPD1    C2 3738   3.886   0.288  17.593 -0.2355  0.3322 -0.3749
  243MPD1    C3 3739   3.791   0.201  17.635 -0.1672 -0.1212  0.2961
  243MPD1    C4 3740   3.657   0.246  17.638  0.4537 -0.2353 -0.0851
  243MPD1    C5 3741   3.630   0.370  17.588 -0.6020  0.2608 -0.1588
  243MPD1     H 3742   3.990   0.260  17.591  0.3227  2.3887  0.6225
  243MPD1    H1 3743   3.573   0.188  17.672 -2.5929  3.2183 -1.7500
  243MPD1    H2 3744   3.698   0.559  17.538  0.6353  0.3208  1.5237
  243MPD1    H3 3745   3.527   0.404  17.595 -0.8483 -0.9605  1.9375
  243MPD1     N 3746   3.826   0.068  17.651 -0.4403  0.0845  0.0935
  243MPD1    H5 3747   3.923   0.054  17.626 -0.5096 -2.0239  1.0577
  243MPD1    N1 3748   3.953   0.507  17.544 -0.0229 -0.3570 -0.2807
  243MPD1    H6 3749   3.928   0.601  17.573  0.2682 -0.2877 -0.2541
  243MPD1    H7 3750   4.036   0.490  17.601 -0.2434  0.0942  0.1728
  244MPD1     C 3751   3.275   4.011   0.187 -0.1689 -0.1070  0.0532
  244MPD1    C1 3752   3.262   4.149   0.191  0.0994  0.0559 -0.2666
  244MPD1    C2 3753   3.364   4.224   0.141 -0.3519 -0.1729  0.5067
  244MPD1    C3 3754   3.484   4.172   0.104  0.7851  0.1392  0.6498
  244MPD1    C4 3755   3.492   4.035   0.099  0.0682  0.1179  0.9047
  244MPD1    C5 3756   3.392   3.956   0.142 -0.4473 -0.3418  1.0324
  244MPD1     H 3757   3.359   4.332   0.149 -0.1874  0.0821 -2.6002
  244MPD1    H1 3758   3.584   3.985   0.072  0.3334  0.5823  0.9358
  244MPD1    H2 3759   3.196   3.944   0.220 -1.6548  2.0753  0.9150
  244MPD1    H3 3760   3.399   3.848   0.152  3.3802  0.1086  3.4939
  244MPD1     N 3761   3.586   4.258   0.063 -0.3727  0.5903  0.7298
  244MPD1    H5 3762   3.565   4.356   0.078 -1.5009  0.6387 -1.2490
  244MPD1    N1 3763   3.145   4.215   0.225  0.3251  0.2180 -0.1879
  244MPD1    H6 3764   3.176   4.297   0.277  1.3736 -0.4472  0.2293
  244MPD1    H7 3765   3.085   4.168   0.292  0.4500 -1.0166 -0.9472
  245MPD1     C 3766   0.150   4.233  13.425 -0.5763  0.1286  0.3365
  245MPD1    C1 3767   0.223   4.245  13.539  0.2615  0.7877 -1.0071
  245MPD1    C2 3768   0.325   4.343  13.537  0.3778 -0.2381 -0.5032
  245MPD1    C3 3769   0.368   4.396  13.416  0.3883 -0.0363  0.5063
  245MPD1    C4 3770   0.300   4.366  13.300 -0.7261  0.8984 -0.1857
  245MPD1    C5 3771   0.192   4.283  13.309  0.6746 -0.2472 -0.6718
  245MPD1     H 3772   0.383   4.366  13.625 -0.2524  1.0236 -0.4198
  245MPD1    H1 3773   0.328   4.415  13.208 -0.0743 -0.0015 -0.4663
  245MPD1    H2 3774   0.052   4.185  13.428 -0.9248  0.7794 -0.5752
  245MPD1    H3 3775   0.132   4.248  13.226 -0.1620 -2.1238  0.7234
  245MPD1     N 3776   0.479   4.491  13.426 -0.0823  0.4975 -0.3888
  245MPD1    H5 3777   0.525   4.512  13.514 -0.4289 -0.8039  0.1099
  245MPD1    N1 3778   0.166   4.207  13.661  0.2525 -0.3921 -0.1289
  245MPD1    H6 3779   0.223   4.216  13.745 -0.6739 -0.5419  0.5164
  245MPD1    H7 3780   0.123   4.115  13.656 -1.2926  0.3260 -0.0934
  246MPD1     C 3781   1.055   2.456   9.991  0.1192 -0.0564 -0.1281
  246MPD1    C1 3782   1.191   2.426  10.004 -0.9240 -0.5641 -0.0002
  246MPD1    C2 3783   1.219   2.296   9.970 -0.0555  0.3916  0.1209
  246MPD1    C3 3784   1.135   2.212   9.897 -0.0352 -0.3255  0.5980
  246MPD1    C4 3785   1.010   2.256   9.862 -0.0733 -0.7201 -0.4509
  246MPD1    C5 3786   0.976   2.378   9.918 -0.4186  0.5244 -0.2070
  246MPD1     H 3787   1.317   2.252   9.982  1.2773  3.9163  1.8569
  246MPD1    H1 3788   0.933   2.195   9.817  0.0332 -0.3440 -1.1379
  246MPD1    H2 3789   1.012   2.547  10.029  0.7308 -0.2294  0.9959
  246MPD1    H3 3790   0.872   2.411   9.915 -0.3254  1.0347  2.7205
  246MPD1     N 3791   1.185   2.081   9.850 -0.3878 -0.0666 -0.1867
  246MPD1    H5 3792   1.280   2.048   9.861  0.0829  1.8478  1.4606
  246MPD1    N1 3793   1.274   2.502  10.084  0.6301 -0.0724 -0.7050
  246MPD1    H6 3794   1.369   2.469  10.064  0.8413  0.2060 -0.1500
  246MPD1    H7 3795   1.263   2.601  10.062  0.0915 -0.2166 -1.0761
  247MPD1     C 3796   0.048   4.536  17.125 -0.2196  0.1512  0.1539
  247MPD1    C1 3797   0.086   4.414  17.178  0.5954  0.4761 -0.6900
  247MPD1    C2 3798   0.108   4.307  17.088 -0.2174  0.0900  0.2152
  247MPD1    C3 3799   0.097   4.330  16.952  0.5177 -0.1880 -0.0271
  247MPD1    C4 3800   0.048   4.452  16.907  0.0370  0.3837  0.8814
  247MPD1    C5 3801   0.027   4.556  16.992  0.4054 -0.0330 -0.3223
  247MPD1     H 3802   0.115   4.205  17.124 -1.2189 -0.2441 -0.5119
  247MPD1    H1 3803   0.031   4.477  16.803  1.0274 -2.7912 -0.0580
  247MPD1    H2 3804   0.039   4.624  17.189 -0.6013 -0.9975  1.6731
  247MPD1    H3 3805   4.730   4.655  16.959  1.0458  1.0575  2.2984
  247MPD1     N 3806   0.123   4.235  16.856  0.1652  0.1082 -0.5217
  247MPD1    H5 3807   0.094   4.263  16.762  1.2040 -0.5542 -1.0469
  247MPD1    N1 3808   0.081   4.394  17.317  0.6143 -0.0953 -0.1535
  247MPD1    H6 3809   0.116   4.477  17.366  2.0717  0.7279 -2.5765
  247MPD1    H7 3810   0.127   4.309  17.350  1.5791  0.7384  0.6340
  248MPD1     C 3811   0.827   3.524   0.157 -0.2317  0.2499  0.6051
  248MPD1    C1 3812   0.790   3.637   0.092 -0.1976  0.4787 -0.1489
  248MPD1    C2 3813   0.710   3.714   0.158 -0.6045 -0.1877  0.1959
  248MPD1    C3 3814   0.681   3.693   0.292  0.2306  0.1633  0.5441
  248MPD1    C4 3815   0.718   3.579   0.355 -0.1859  0.3994 -0.0014
  248MPD1    C5 3816   0.793   3.488   0.284 -0.2280 -0.3658 -0.4227
  248MPD1     H 3817   0.685   3.810   0.114 -1.0995 -0.6953 -0.6172
  248MPD1    H1 3818   0.686   3.550   0.454 -1.2552 -0.2041 -0.5212
  248MPD1    H2 3819   0.891   3.453   0.107 -0.1906  1.5359 -1.1463
  248MPD1    H3 3820   0.827   3.397   0.332 -1.5670 -1.6148 -1.7949
  248MPD1     N 3821   0.608   3.791   0.358  0.4415  0.0389  0.3246
  248MPD1    H5 3822   0.551   3.852   0.298  0.1358  0.1535  0.7338
  248MPD1    N1 3823   0.841   3.675  17.702  0.1546 -0.3233  0.5218
  248MPD1    H6 3824   0.841   3.599  17.634 -0.6717  1.7786 -1.8419
  248MPD1    H7 3825   0.794   3.758  17.667 -1.1781 -1.4192 -0.2721
  249MPD1     C 3826   1.847   1.873  10.774  1.0314  0.0075 -0.7462
  249MPD1    C1 3827   1.910   1.990  10.795  1.0683  0.7666  0.6087
  249MPD1    C2 3828   1.914   2.083  10.688  0.8135 -1.1071 -0.6158
  249MPD1    C3 3829   1.865   2.049  10.559  0.4957 -1.1636  0.1040
  249MPD1    C4 3830   1.810   1.920  10.540  0.3011  0.6237  0.4985
  249MPD1    C5 3831   1.798   1.841  10.650  0.0514  0.0933 -0.7005
  249MPD1     H 3832   1.953   2.183  10.704 -0.2032 -0.8437  0.1882
  249MPD1    H1 3833   1.787   1.893  10.437 -0.4025 -0.5572  0.9718
  249MPD1    H2 3834   1.841   1.802  10.855 -0.3135  1.1699  0.1821
  249MPD1    H3 3835   1.750   1.744  10.639  0.7909 -0.1677 -1.6012
  249MPD1     N 3836   1.856   2.148  10.458 -0.5539 -0.1142 -0.1356
  249MPD1    H5 3837   1.884   2.240  10.493  0.0410 -0.7025  0.9303
  249MPD1    N1 3838   1.989   2.012  10.907 -0.0302 -0.4566  0.5768
  249MPD1    H6 3839   1.953   1.974  10.995 -0.1188 -0.2409  0.6342
  249MPD1    H7 3840   1.994   2.110  10.934  2.5963 -0.5365  0.3850
  250MPD2     C 3841   4.025   2.447  13.201  0.3471 -0.4800 -0.4724
  250MPD2    C1 3842   3.926   2.472  13.286 -0.0270 -0.5563 -1.0096
  250MPD2    C2 3843   3.803   2.412  13.253 -0.2308 -0.2980  0.3288
  250MPD2    C3 3844   3.793   2.320  13.145 -0.0208 -0.2767  0.3793
  250MPD2    C4 3845   3.899   2.306  13.062  0.4420  0.0408  0.3858
  250MPD2    C5 3846   4.012   2.374  13.084 -0.5735  0.1347  0.4953
  250MPD2     H 3847   3.723   2.417  13.325  1.7633  0.6542  2.4795
  250MPD2    H1 3848   3.911   2.237  12.979 -0.1225 -0.6437  0.8732
  250MPD2    H2 3849   4.120   2.500  13.210  0.6188 -0.7167 -1.8566
  250MPD2    H3 3850   4.095   2.365  13.015 -1.7407  0.3450 -0.9343
  250MPD2     N 3851   3.675   2.245  13.118  0.6230 -0.9008  0.1654
  250MPD2    H5 3852   3.681   2.194  13.031  0.6743 -1.0068  0.2306
  250MPD2    N1 3853   3.952   2.561  13.394  0.3627 -0.3546 -0.1819
  250MPD2    H7 3854   4.042   2.607  13.383  0.6383 -1.1335 -1.1701
  251TMC3    C1 3855   3.898   2.694  13.571  0.6783  0.1215  0.6458
  251TMC3    C2 3856   3.796   2.756  13.638  0.5078  0.1135  0.0430
  251TMC3    C3 3857   3.801   2.886  13.668 -0.6808 -0.8542  0.0872
  251TMC3    C4 3858   4.011   2.770  13.548  0.3203 -0.6882  0.2703
  251TMC3    C5 3859   4.000   2.908  13.561 -0.4885  0.0402  0.8219
  251TMC3    C6 3860   3.894   2.967  13.622 -0.0404  0.1415 -0.4496
  251TMC3     C 3861   3.855   2.593  13.479  1.1293  0.9772 -0.3959
  251TMC3     O 3862   3.739   2.549  13.492  0.7485 -0.2441 -0.5722
  251TMC3     H 3863   3.704   2.704  13.663 -0.4410  1.9602  0.4182
  251TMC3    H1 3864   4.102   2.723  13.514  0.9530 -1.0978  2.5466
  251TMC3    H2 3865   3.876   3.074  13.628 -0.5677  0.1645 -2.4421
  251TMC3    C7 3866   4.118   2.983  13.525 -0.8074  0.3113 -0.0148
  251TMC3    C8 3867   3.678   2.945  13.709 -0.3017 -0.6336  0.5365
  251TMC3    O1 3868   4.214   2.922  13.485  0.4600  1.1890 -0.7684
  251TMC3    O2 3869   3.574   2.910  13.654  0.0428 -0.0888  0.0821
  252TMC3    C1 3870   4.645   3.868   9.997 -0.6061  0.6362 -0.5774
  252TMC3    C2 3871   4.717   3.982   9.981  0.3632 -0.0468 -0.9167
  252TMC3    C3 3872   0.089   3.972   9.889  0.0303 -0.2186 -0.1469
  252TMC3    C4 3873   4.664   3.748   9.938 -0.5135 -0.3320  0.3347
  252TMC3    C5 3874   0.022   3.753   9.840 -0.4709  0.1280  0.6060
  252TMC3    C6 3875   0.101   3.859   9.809  0.3852  0.6652 -0.2400
  252TMC3     C 3876   4.535   3.885  10.087 -0.1561  0.3146  0.0199
  252TMC3     O 3877   4.534   3.974  10.175  0.7390  0.2654  0.5285
  252TMC3     H 3878   4.684   4.073  10.031  2.4483 -1.0157  2.2401
  252TMC3    H1 3879   4.620   3.655   9.972  0.4932 -1.4783 -1.4838
  252TMC3    H2 3880   0.174   3.851   9.728 -0.7607 -0.5680 -1.1618
  252TMC3    C7 3881   0.055   3.625   9.771 -0.0550 -0.2648 -0.2258
  252TMC3    C8 3882   0.158   4.093   9.864 -0.4706  0.1456  0.3508
  252TMC3    O1 3883   0.151   3.613   9.691  0.5886 -0.2474 -0.1798
  252TMC3    O2 3884   0.225   4.100   9.761 -0.0860  0.0113 -0.2073
  253MPD2     C 3885   0.451   3.009  15.184 -0.3407  0.4077 -0.2347
  253MPD2    C1 3886   0.312   2.992  15.200 -0.2687  0.5523  0.2912
  253MPD2    C2 3887   0.266   2.972  15.326  0.3283  0.2284  0.0856
  253MPD2    C3 3888   0.342   2.977  15.440 -0.3828  0.2510 -0.2445
  253MPD2    C4 3889   0.478   2.981  15.427 -0.7823  0.7007  0.2531
  253MPD2    C5 3890   0.528   3.001  15.297 -0.1345  0.2023 -0.8407
  253MPD2     H 3891   0.159   2.952  15.332  0.1807 -0.4293 -5.1615
  253MPD2    H1 3892   0.555   2.980  15.504  0.5187  1.0776 -1.0512
  253MPD2    H2 3893   0.508   3.027  15.094  1.7247  0.7882  1.1540
  253MPD2    H3 3894   0.635   2.995  15.283  0.1499 -1.9197  2.2740
  253MPD2     N 3895   0.286   2.997  15.569 -0.0679 -0.2271  0.1566
  253MPD2    H5 3896   0.341   2.974  15.652 -0.5571 -3.8650 -0.5298
  253MPD2    N1 3897   0.217   2.992  15.098  0.2213  0.6360  0.2788
  253MPD2    H7 3898   0.121   2.984  15.130  0.3186  2.5555  1.0702
  254TMC3    C1 3899   0.123   3.064  15.731  0.1622 -0.4598 -0.5081
  254TMC3    C2 3900   0.012   3.140  15.748 -0.4066  1.1040  0.0421
  254TMC3    C3 3901   4.706   3.159  15.873  0.5614 -0.0525 -0.1073
  254TMC3    C4 3902   0.201   3.014  15.831 -0.3578 -0.7383 -0.8055
  254TMC3    C5 3903   0.154   3.044  15.957  0.0943  0.9344 -0.0281
  254TMC3    C6 3904   0.049   3.122  15.980 -0.2964  0.0351 -0.3892
  254TMC3     C 3905   0.159   3.034  15.592  0.2463 -0.1406 -0.2601
  254TMC3     O 3906   0.069   3.048  15.512  0.1295 -0.3408  0.3229
  254TMC3     H 3907   4.687   3.165  15.660 -2.7525  0.4199  1.4494
  254TMC3    H1 3908   0.281   2.942  15.811 -1.4877 -1.6624 -2.0138
  254TMC3    H2 3909   0.019   3.146  16.082  0.5195 -2.2252  0.3910
  254TMC3    C7 3910   0.212   2.994  16.071  0.2357  0.4114  0.2911
  254TMC3    C8 3911   4.598   3.252  15.912 -0.2402 -0.3158 -0.1482
  254TMC3    O1 3912   0.133   2.970  16.162  0.0898  0.0590  0.4013
  254TMC3    O2 3913   4.539   3.222  16.013  0.8945 -0.0158 -0.0513
  255MPD2     C 3914   2.880   0.928  10.929 -0.0720 -0.2414  1.0142
  255MPD2    C1 3915   2.916   1.061  10.925 -0.0044  0.2019 -0.0584
  255MPD2    C2 3916   3.040   1.087  10.870 -1.0103 -0.1859  0.4616
  255MPD2    C3 3917   3.125   0.985  10.825  0.2842 -0.0429 -0.9362
  255MPD2    C4 3918   3.085   0.853  10.836  0.2071 -0.4284 -0.3565
  255MPD2    C5 3919   2.959   0.821  10.887 -0.4693  0.2076 -0.2853
  255MPD2     H 3920   3.082   1.185  10.889  1.4604 -0.9046 -1.2483
  255MPD2    H1 3921   3.143   0.771  10.795 -0.9525 -2.1370  1.3882
  255MPD2    H2 3922   2.782   0.908  10.970  0.1242  3.0931  3.0772
  255MPD2    H3 3923   2.915   0.722  10.889 -1.3915  0.6099 -0.4675
  255MPD2     N 3924   3.260   1.021  10.794  0.8269 -0.3602 -0.2440
  255MPD2    H5 3925   3.293   1.115  10.810 -0.3565 -0.4278  2.5377
  255MPD2    N1 3926   2.829   1.164  10.971 -0.1079 -0.0562 -0.2712
  255MPD2    H7 3927   2.739   1.135  11.008 -0.1222  1.1051  0.6027
  256TMC3    C1 3928   2.729   1.368  11.000 -0.3162  1.0848  0.5987
  256TMC3    C2 3929   2.734   1.498  10.959 -0.4325  0.1987 -0.6383
  256TMC3    C3 3930   2.623   1.571  10.951 -0.1160  0.9435  0.0103
  256TMC3    C4 3931   2.609   1.305  11.034  0.2077  0.6767  0.3023
  256TMC3    C5 3932   2.495   1.376  11.011 -0.1040  0.3721 -0.3967
  256TMC3    C6 3933   2.504   1.508  10.982 -0.0730 -0.1379  0.7106
  256TMC3     C 3934   2.845   1.296  10.939 -0.3770  0.3633 -0.6380
  256TMC3     O 3935   2.925   1.358  10.869 -0.1255 -0.2342 -0.2177
  256TMC3     H 3936   2.828   1.552  10.948  1.2005 -2.0532  2.0675
  256TMC3    H1 3937   2.609   1.209  11.084  0.9681 -0.1502 -1.2783
  256TMC3    H2 3938   2.408   1.558  10.990  0.7295  1.2965  1.2831
  256TMC3    C7 3939   2.426   1.312  10.897  0.1740 -0.3609 -1.1037
  256TMC3    C8 3940   2.603   1.638  10.815  0.3626 -0.4291  0.8896
  256TMC3    O1 3941   2.444   1.193  10.901  0.8765  0.0306  0.3855
  256TMC3    O2 3942   2.496   1.683  10.784 -0.1868 -0.7370  0.0614
  257MPD2     C 3943   2.232   2.849  13.663  1.1930  0.4397 -0.0708
  257MPD2    C1 3944   2.272   2.785  13.545 -0.3404 -0.9164  0.7295
  257MPD2    C2 3945   2.284   2.647  13.550  1.0544 -0.3685 -0.0345
  257MPD2    C3 3946   2.266   2.574  13.663  0.4490  0.1804 -0.0470
  257MPD2    C4 3947   2.216   2.638  13.777 -0.5268 -0.1060  0.1723
  257MPD2    C5 3948   2.205   2.777  13.779 -0.4128  0.4700  0.7291
  257MPD2     H 3949   2.314   2.600  13.457 -0.5553 -2.9902  0.7804
  257MPD2    H1 3950   2.180   2.592  13.869  0.3115 -0.1801  0.4620
  257MPD2    H2 3951   2.216   2.956  13.662 -0.0696  0.2511  0.3120
  257MPD2    H3 3952   2.169   2.835  13.863 -1.1128  1.2097 -0.0864
  257MPD2     N 3953   2.264   2.438  13.652  0.2236 -0.9035 -0.2712
  257MPD2    H5 3954   2.264   2.403  13.557  0.9648  0.2234 -0.6836
  257MPD2    N1 3955   2.301   2.870  13.437  0.0574  0.6622 -0.0667
  257MPD2    H7 3956   2.280   2.966  13.460 -0.2783  0.3807  0.7794
  258TMC3    C1 3957   2.281   2.213  13.736 -0.0378 -0.3147  0.1907
  258TMC3    C2 3958   2.259   2.172  13.607 -0.3959 -0.5898  0.0660
  258TMC3    C3 3959   2.240   2.046  13.577 -0.1733  0.0458  0.7036
  258TMC3    C4 3960   2.315   2.121  13.828  0.1657 -0.2470  0.2399
  258TMC3    C5 3961   2.291   1.984  13.798 -0.9968  0.2345  0.0395
  258TMC3    C6 3962   2.253   1.949  13.673  0.3236  0.5884 -0.5076
  258TMC3     C 3963   2.281   2.353  13.762  0.0747 -0.5658 -1.0569
  258TMC3     O 3964   2.291   2.392  13.879  0.6277  0.4026 -0.0920
  258TMC3     H 3965   2.215   2.244  13.538  0.5336 -0.8729 -0.8247
  258TMC3    H1 3966   2.326   2.145  13.933  0.1834  1.2341 -0.0991
  258TMC3    H2 3967   2.252   1.842  13.657 -0.3311  0.2513  1.7917
  258TMC3    C7 3968   2.321   1.883  13.901  0.2472 -0.6426 -0.2162
  258TMC3    C8 3969   2.211   2.007  13.436 -0.2249 -0.2368 -0.3495
  258TMC3    O1 3970   2.247   1.785  13.896  0.5540  0.0298 -0.0464
  258TMC3    O2 3971   2.210   2.090  13.349 -0.2663 -0.4161 -0.3236
  259MPD2     C 3972   1.038   0.314   0.408  0.0580  0.1566  0.1582
  259MPD2    C1 3973   1.139   0.261   0.490  0.4301 -0.7519  0.3643
  259MPD2    C2 3974   1.252   0.209   0.427  0.4054  0.1928  0.1252
  259MPD2    C3 3975   1.254   0.208   0.292  0.1178 -0.0783  0.4758
  259MPD2    C4 3976   1.151   0.246   0.207 -0.2057 -0.0508  0.8423
  259MPD2    C5 3977   1.037   0.308   0.267 -0.2359 -0.0124 -0.1682
  259MPD2     H 3978   1.342   0.176   0.478  0.1372  3.2712  2.5804
  259MPD2    H1 3979   1.158   0.254   0.099 -2.4544 -0.2289  0.6804
  259MPD2    H2 3980   0.947   0.355   0.450 -0.0293 -0.2183  0.3342
  259MPD2    H3 3981   0.949   0.340   0.212 -0.6993 -0.7764  0.1315
  259MPD2     N 3982   1.377   0.151   0.244 -0.2076 -0.1907  0.0927
  259MPD2    H5 3983   1.441   0.110   0.311 -0.7620 -0.7472  0.2791
  259MPD2    N1 3984   1.134   0.271   0.632  0.3073  0.1022  0.3256
  259MPD2    H7 3985   1.044   0.299   0.671  1.0908  0.5788  1.8225
  260TMC3    C1 3986   1.557   0.110   0.100  0.0457  0.8616 -0.7006
  260TMC3    C2 3987   1.609   0.136  17.707 -0.1809 -0.4973 -0.2589
  260TMC3    C3 3988   1.716   0.063  17.676  0.6331  0.3331  0.0366
  260TMC3    C4 3989   1.618   0.033   0.198 -0.7125  0.2747  0.4657
  260TMC3    C5 3990   1.732   4.707   0.155  0.2221 -0.1998  0.0392
  260TMC3    C6 3991   1.785   4.724   0.030  0.6411 -0.1640  0.2091
  260TMC3     C 3992   1.420   0.147   0.111  0.1319  0.2108  0.2167
  260TMC3     O 3993   1.361   0.194   0.017  0.1374  0.4453 -0.0009
  260TMC3     H 3994   1.554   0.183  17.626 -0.3338  1.4760  0.9872
  260TMC3    H1 3995   1.570   0.022   0.295 -0.8983 -0.8099  0.2542
  260TMC3    H2 3996   1.877   4.670   0.009 -0.2151 -0.1433 -3.4799
  260TMC3    C7 3997   1.757   4.570   0.206  0.7366 -0.0783  0.0425
  260TMC3    C8 3998   1.748   0.050  17.529 -0.9544  0.4167  0.0161
  260TMC3    O1 3999   1.784   4.488   0.120  0.2723  0.3666  0.0713
  260TMC3    O2 4000   1.706   0.129  17.444  0.4781  0.0658  0.1135
  261MPD2     C 4001   2.911   2.426  12.892 -0.4188 -0.2412 -0.3400
  261MPD2    C1 4002   3.014   2.471  12.968  0.4112  0.2926  0.0368
  261MPD2    C2 4003   3.034   2.609  12.968 -0.0450  0.1214  0.4431
  261MPD2    C3 4004   2.962   2.701  12.894 -0.7807  0.3233  0.7682
  261MPD2    C4 4005   2.863   2.651  12.816 -0.0988  0.5098 -0.2181
  261MPD2    C5 4006   2.839   2.516  12.821  0.7108 -0.1274 -1.0247
  261MPD2     H 4007   3.112   2.656  13.027 -0.1984 -0.4409  1.0940
  261MPD2    H1 4008   2.786   2.705  12.761 -0.6327 -1.8213 -1.7663
  261MPD2    H2 4009   2.886   2.321  12.889 -0.0263 -0.3404 -0.1781
  261MPD2    H3 4010   2.767   2.469  12.755  0.0164 -0.8954  0.2874
  261MPD2     N 4011   3.002   2.839  12.902  0.0725  0.0204  0.1507
  261MPD2    H5 4012   3.074   2.856  12.971 -1.7930 -1.7824  2.5587
  261MPD2    N1 4013   3.106   2.395  13.039 -0.5623 -0.4042 -0.0217
  261MPD2    H7 4014   3.182   2.442  13.087  1.4523 -2.9745 -0.6272
  262TMC3    C1 4015   3.029   3.064  12.827  0.5682 -1.1291  0.7668
  262TMC3    C2 4016   2.958   3.166  12.763  0.4410  0.4741 -0.4529
  262TMC3    C3 4017   3.010   3.295  12.771 -0.9317  0.2142  0.9489
  262TMC3    C4 4018   3.139   3.087  12.898 -0.1563 -0.6191  0.1532
  262TMC3    C5 4019   3.184   3.217  12.906 -0.6277 -0.5801 -0.2619
  262TMC3    C6 4020   3.128   3.318  12.834  0.0881  0.1234 -0.1730
  262TMC3     C 4021   2.960   2.935  12.809  0.9332 -0.1169  0.6477
  262TMC3     O 4022   2.886   2.928  12.713  0.3598 -0.7548 -0.4246
  262TMC3     H 4023   2.855   3.149  12.733  1.0746 -0.2611 -2.2243
  262TMC3    H1 4024   3.196   3.014  12.954  0.6528  3.0483  4.1017
  262TMC3    H2 4025   3.161   3.420  12.849  1.6556 -0.4301  0.1398
  262TMC3    C7 4026   3.322   3.242  12.952 -0.0569  0.2882 -0.1137
  262TMC3    C8 4027   2.999   3.371  12.644  0.0652  1.0352 -0.8375
  262TMC3    O1 4028   3.355   3.185  13.056  0.0887 -0.0298 -0.5206
  262TMC3    O2 4029   3.038   3.488  12.638 -0.0129 -0.7736  0.5392
  263MPD2     C 4030   4.583   2.523  11.249  0.4975 -0.1445  0.5094
  263MPD2    C1 4031   4.629   2.648  11.268 -0.2271  0.1508 -0.2005
  263MPD2    C2 4032   4.588   2.756  11.184 -0.5839 -0.0077  0.1217
  263MPD2    C3 4033   4.497   2.737  11.084 -0.4479 -0.2536  0.0476
  263MPD2    C4 4034   4.441   2.609  11.076  0.2832  0.4579  0.2795
  263MPD2    C5 4035   4.492   2.506  11.148 -0.5771 -0.5811 -0.3687
  263MPD2     H 4036   4.633   2.854  11.195 -0.9257  0.0533  1.0006
  263MPD2    H1 4037   4.359   2.586  11.009 -0.2931 -0.2879  1.2513
  263MPD2    H2 4038   4.627   2.440  11.303 -0.0684  0.4372  1.8513
  263MPD2    H3 4039   4.456   2.408  11.120  0.6715 -1.1116 -0.1050
  263MPD2     N 4040   4.475   2.841  10.993 -0.1709 -0.4347 -0.0065
  263MPD2    H5 4041   4.524   2.928  11.006 -1.3340  0.4147 -1.2610
  263MPD2    N1 4042   0.006   2.659  11.359  0.3196 -0.1536  0.2608
  263MPD2    H7 4043   0.047   2.572  11.392 -0.7747 -0.4120  0.9628
  264TMC3    C1 4044   4.383   2.965  10.819  0.0245 -0.3479 -0.8432
  264TMC3    C2 4045   4.393   3.076  10.895  0.2971 -0.8901 -0.2376
  264TMC3    C3 4046   4.358   3.195  10.824 -1.0460  0.4322  0.7738
  264TMC3    C4 4047   4.361   2.969  10.686 -0.1158  0.6988 -0.2344
  264TMC3    C5 4048   4.331   3.090  10.625  0.8035  0.9456  0.5535
  264TMC3    C6 4049   4.331   3.208  10.692 -0.1641 -0.5003 -0.5731
  264TMC3     C 4050   4.389   2.837  10.879 -0.5367  0.6723 -0.0251
  264TMC3     O 4051   4.348   2.741  10.819 -0.1300 -0.0467 -0.0536
  264TMC3     H 4052   4.436   3.084  10.994  1.1880  0.5272 -0.7416
  264TMC3    H1 4053   4.361   2.878  10.627  0.2109  0.1723  0.5745
  264TMC3    H2 4054   4.306   3.303  10.647 -0.2435 -0.7565 -1.0645
  264TMC3    C7 4055   4.386   3.098  10.492  0.2091 -0.2872 -0.4785
  264TMC3    C8 4056   4.375   3.311  10.905  0.0755 -0.2136  0.8241
  264TMC3    O1 4057   4.471   3.020  10.469  0.4622  0.2903 -0.2862
  264TMC3    O2 4058   4.420   3.414  10.845  0.4641  0.1246 -1.1863
  265MPD2     C 4059   1.445   2.728  15.568 -0.1075 -0.6949 -0.0183
  265MPD2    C1 4060   1.531   2.827  15.522  0.0216  0.2533 -0.8822
  265MPD2    C2 4061   1.564   2.815  15.392  0.2018  0.1403  0.4884
  265MPD2    C3 4062   1.502   2.729  15.303  0.7586  0.3317  0.1804
  265MPD2    C4 4063   1.399   2.652  15.347  0.1442  0.4051  0.2432
  265MPD2    C5 4064   1.374   2.650  15.476  0.3516 -0.4994  0.2029
  265MPD2     H 4065   1.655   2.870  15.368  0.3018 -0.9552 -1.6532
  265MPD2    H1 4066   1.340   2.582  15.288  0.8508 -0.8463  1.0386
  265MPD2    H2 4067   1.415   2.711  15.671 -0.9294  1.7173  0.1353
  265MPD2    H3 4068   1.299   2.582  15.515  0.6955 -1.4508 -0.8041
  265MPD2     N 4069   1.540   2.708  15.166 -0.1112  0.3351 -0.1503
  265MPD2    H5 4070   1.474   2.653  15.113 -0.0251 -0.1845  0.2805
  265MPD2    N1 4071   1.591   2.928  15.613  0.1054  0.3004  0.8992
  265MPD2    H7 4072   1.664   2.983  15.571 -0.3124 -0.0262 -0.2561
  266TMC3    C1 4073   1.640   3.047  15.799  0.4017  0.3243  0.8794
  266TMC3    C2 4074   1.662   3.032  15.935 -0.4384 -0.0379  0.0357
  266TMC3    C3 4075   1.672   3.142  16.009 -0.6716 -0.2512  0.1867
  266TMC3    C4 4076   1.623   3.170  15.736  0.2348 -0.0094 -0.7314
  266TMC3    C5 4077   1.622   3.277  15.825  0.5369 -0.2759  0.0318
  266TMC3    C6 4078   1.632   3.260  15.959  0.6064  0.0927  0.4667
  266TMC3     C 4079   1.563   2.936  15.746 -0.2930  0.5610 -0.6292
  266TMC3     O 4080   1.500   2.860  15.815  0.2694  0.6151  0.4411
  266TMC3     H 4081   1.684   2.937  15.982  0.8425  1.3134  2.1843
  266TMC3    H1 4082   1.601   3.177  15.630 -0.4590 -1.7654 -0.6978
  266TMC3    H2 4083   1.625   3.352  16.015  2.9245  1.9220 -2.2631
  266TMC3    C7 4084   1.530   3.378  15.784 -0.8569  0.2747  0.0271
  266TMC3    C8 4085   1.776   3.147  16.111  0.0604 -0.4889  0.2169
  266TMC3    O1 4086   1.428   3.340  15.736  0.2083 -0.2808 -0.1005
  266TMC3    O2 4087   1.847   3.048  16.125 -0.2470 -0.1585  0.2053
  267MPD2     C 4088   3.183   0.165   0.134 -0.1768  0.2904 -0.6216
  267MPD2    C1 4089   3.288   0.251   0.133 -0.5772 -0.1099  0.0373
  267MPD2    C2 4090   3.278   0.354   0.049  0.0923 -1.0020  0.1878
  267MPD2    C3 4091   3.167   0.371  17.703 -0.6101  0.6814  0.3732
  267MPD2    C4 4092   3.063   0.284  17.705 -0.3685  0.0090  0.1731
  267MPD2    C5 4093   3.064   0.178   0.056  0.3660  0.7337  0.1530
  267MPD2     H 4094   3.352   0.433   0.052  0.2565 -1.2489  2.5926
  267MPD2    H1 4095   2.979   0.302  17.640 -1.2499 -0.5535  1.1678
  267MPD2    H2 4096   3.174   0.071   0.188 -0.4885  0.1640 -0.8966
  267MPD2    H3 4097   2.980   0.111   0.071  1.4835 -0.7552 -0.1839
  267MPD2     N 4098   3.159   0.474  17.606 -0.2428  0.6053 -0.8622
  267MPD2    H5 4099   3.086   0.465  17.536  0.1366  0.4813 -1.2456
  267MPD2    N1 4100   3.407   0.228   0.214 -0.0086  0.2860 -0.0521
  267MPD2    H7 4101   3.403   0.141   0.266  0.3673  0.7577  0.7618
  268TMC3    C1 4102   3.639   0.243   0.270 -0.2640  0.1793 -0.4341
  268TMC3    C2 4103   3.757   0.278   0.215 -0.4405  0.0134 -0.3442
  268TMC3    C3 4104   3.869   0.204   0.255 -0.0520  0.0562  0.5327
  268TMC3    C4 4105   3.624   0.125   0.341 -0.2608 -0.0398 -0.1740
  268TMC3    C5 4106   3.734   0.048   0.359  0.7907  0.9358 -0.2859
  268TMC3    C6 4107   3.863   0.091   0.328 -0.4784  0.7565 -0.7765
  268TMC3     C 4108   3.522   0.308   0.206 -0.1405  0.7089 -0.3586
  268TMC3     O 4109   3.543   0.416   0.150  0.0623  0.2380 -0.1693
  268TMC3     H 4110   3.764   0.374   0.164 -0.6301 -0.1261 -0.6314
  268TMC3    H1 4111   3.526   0.090   0.370 -0.0198 -1.9189 -1.6165
  268TMC3    H2 4112   3.946   0.024   0.346 -0.7126  0.2015 -1.8483
  268TMC3    C7 4113   3.704   4.662   0.438  0.3915 -0.2620 -0.7116
  268TMC3    C8 4114   3.997   0.216   0.192 -0.5829  0.1181  0.3968
  268TMC3    O1 4115   3.597   4.608   0.419  0.4549 -0.3222  0.4923
  268TMC3    O2 4116   4.053   0.122   0.139 -0.4438 -0.0282 -0.6678
  269MPD2     C 4117   4.181   3.494  15.556  0.0865  0.0691 -0.1981
  269MPD2    C1 4118   4.155   3.518  15.689 -0.1933 -0.6079  0.1844
  269MPD2    C2 4119   4.130   3.647  15.727 -0.0906 -0.1071 -0.2447
  269MPD2    C3 4120   4.145   3.752  15.630  0.0874  0.2310  0.6482
  269MPD2    C4 4121   4.170   3.716  15.503  0.1034  0.5532 -0.5630
  269MPD2    C5 4122   4.175   3.588  15.465 -0.5717  0.2020 -0.1402
  269MPD2     H 4123   4.115   3.670  15.832 -1.9534 -1.3412 -0.2529
  269MPD2    H1 4124   4.188   3.791  15.427 -1.9271  2.2369  0.6268
  269MPD2    H2 4125   4.207   3.395  15.520 -0.5710  0.8644 -2.8673
  269MPD2    H3 4126   4.186   3.564  15.360 -2.7963 -1.8655  0.1070
  269MPD2     N 4127   4.128   3.887  15.674  0.1088 -0.4612 -0.3107
  269MPD2    H5 4128   4.089   3.898  15.767  0.9377 -3.1173  0.3564
  269MPD2    N1 4129   4.126   3.407  15.777 -0.4734  0.2356 -0.3717
  269MPD2    H7 4130   4.138   3.310  15.752 -1.1428 -0.1293  0.7056
  270TMC3    C1 4131   4.073   3.278  15.949  0.1987 -0.0466  0.4723
  270TMC3    C2 4132   3.948   3.231  15.983  0.0884 -0.0546 -0.5333
  270TMC3    C3 4133   3.930   3.095  15.986  0.5177  0.1956  0.3918
  270TMC3    C4 4134   4.174   3.198  15.926 -0.3234 -0.0696  0.2272
  270TMC3    C5 4135   4.163   3.063  15.937  0.2965 -0.0351  0.9617
  270TMC3    C6 4136   4.043   3.014  15.978  0.0459  0.5014  0.2457
  270TMC3     C 4137   4.074   3.417  15.898 -0.7518 -0.2651 -0.3467
  270TMC3     O 4138   4.003   3.506  15.942 -0.0720 -0.0549 -0.3390
  270TMC3     H 4139   3.871   3.307  15.990  0.5695  0.4115 -0.2937
  270TMC3    H1 4140   4.274   3.230  15.900 -0.7865 -0.1949 -1.7307
  270TMC3    H2 4141   4.042   2.912  16.014 -3.2565  0.5837  0.3998
  270TMC3    C7 4142   4.244   2.966  15.865  0.2023  0.9025  0.0536
  270TMC3    C8 4143   3.838   3.038  15.889  0.3339 -0.3918 -0.3798
  270TMC3    O1 4144   4.367   2.988  15.855 -0.0553  0.4254  0.4145
  270TMC3    O2 4145   3.875   2.931  15.844 -0.3666 -0.1321  0.6656
  271MPD2     C 4146   3.019   2.730  14.076  0.1748  0.0457 -0.1624
  271MPD2    C1 4147   2.999   2.830  14.175  0.0979  0.7182 -0.8764
  271MPD2    C2 4148   2.897   2.920  14.152  0.6837 -0.8058 -0.8392
  271MPD2    C3 4149   2.828   2.915  14.031 -0.1964 -0.0302 -0.9208
  271MPD2    C4 4150   2.864   2.820  13.936  0.2759 -0.4051 -0.6360
  271MPD2    C5 4151   2.956   2.728  13.960  0.1499 -0.3256 -0.4799
  271MPD2     H 4152   2.877   2.995  14.228 -0.6314 -0.9076 -1.0823
  271MPD2    H1 4153   2.806   2.807  13.845  0.1698  0.9640 -0.7734
  271MPD2    H2 4154   3.093   2.651  14.083  2.8210  2.2401 -3.1596
  271MPD2    H3 4155   2.971   2.647  13.889  1.0764  0.0378 -0.6833
  271MPD2     N 4156   2.716   2.998  13.997  0.1387 -0.5475  0.9584
  271MPD2    H5 4157   2.674   2.976  13.908  1.7761  0.2901 -0.0244
  271MPD2    N1 4158   3.063   2.831  14.305 -0.0004  0.3950 -0.2911
  271MPD2    H7 4159   3.022   2.887  14.379  0.9562 -2.8505  2.6652
  272TMC3    C1 4160   3.209   2.735  14.474 -0.6900  0.1206  0.3651
  272TMC3    C2 4161   3.271   2.623  14.517 -0.2668  0.1794 -0.5064
  272TMC3    C3 4162   3.327   2.630  14.641 -0.0855 -0.5256  0.3059
  272TMC3    C4 4163   3.213   2.858  14.533 -0.5012  0.4908 -0.0599
  272TMC3    C5 4164   3.277   2.859  14.648 -0.1769  0.0875 -0.6657
  272TMC3    C6 4165   3.336   2.748  14.703  0.1666 -0.3224  0.8213
  272TMC3     C 4166   3.169   2.743  14.334 -0.1907  0.4175  0.3892
  272TMC3     O 4167   3.232   2.669  14.259  1.0138 -0.4484  0.1305
  272TMC3     H 4168   3.286   2.540  14.449 -0.0669 -1.4628  1.5328
  272TMC3    H1 4169   3.187   2.950  14.482 -0.4149 -0.3265 -1.5717
  272TMC3    H2 4170   3.387   2.745  14.798  0.0074  2.8429  1.0102
  272TMC3    C7 4171   3.247   2.974  14.729  0.2989  0.0847 -0.7679
  272TMC3    C8 4172   3.461   2.566  14.625 -0.6473 -0.5914  0.6136
  272TMC3    O1 4173   3.144   3.030  14.697 -0.2629 -0.3527 -0.0201
  272TMC3    O2 4174   3.496   2.561  14.508 -0.3401  0.0364  0.0954
  273MPD2     C 4175   0.286   1.272  11.786  0.7259 -0.0581  0.4508
  273MPD2    C1 4176   0.355   1.388  11.807  0.4477  0.1673  0.1272
  273MPD2    C2 4177   0.364   1.477  11.705  0.4142 -0.2741 -0.0822
  273MPD2    C3 4178   0.331   1.441  11.576  0.1966  0.4127 -0.4690
  273MPD2    C4 4179   0.270   1.318  11.557  0.1556  0.0614  0.6032
  273MPD2    C5 4180   0.247   1.236  11.665  0.4403  0.2103 -0.3725
  273MPD2     H 4181   0.424   1.567  11.718 -1.4656  0.6191  2.4141
  273MPD2    H1 4182   0.246   1.276  11.460  0.2744  1.1787  0.0892
  273MPD2    H2 4183   0.257   1.200  11.861  1.0597  1.3732  1.9468
  273MPD2    H3 4184   0.197   1.143  11.642 -0.1359  0.1685  1.0679
  273MPD2     N 4185   0.356   1.525  11.468  0.5686  0.3918 -0.0874
  273MPD2    H5 4186   0.351   1.484  11.375 -4.9733  1.2166 -0.1538
  273MPD2    N1 4187   0.395   1.415  11.937  0.3585 -0.1775 -0.2485
  273MPD2    H7 4188   0.353   1.360  12.011  0.9409  0.3959  0.4998
  274TMC3    C1 4189   0.408   1.700  11.328 -0.4456 -0.1687  0.0198
  274TMC3    C2 4190   0.298   1.678  11.249  0.3533 -0.6647  0.1154
  274TMC3    C3 4191   0.282   1.765  11.144 -0.1031 -0.6716  0.0859
  274TMC3    C4 4192   0.487   1.809  11.314  0.4485  0.0984  0.2220
  274TMC3    C5 4193   0.468   1.890  11.209  0.2178  0.4231  0.1085
  274TMC3    C6 4194   0.371   1.867  11.119  0.1902 -0.4230 -0.1456
  274TMC3     C 4195   0.396   1.653  11.470  0.0085  0.8518  0.0272
  274TMC3     O 4196   0.443   1.724  11.555  0.4618  0.2303  0.0966
  274TMC3     H 4197   0.218   1.618  11.289 -0.5779 -0.2869 -1.1948
  274TMC3    H1 4198   0.561   1.832  11.391  1.6080 -2.4881 -0.1296
  274TMC3    H2 4199   0.342   1.947  11.052  2.6616  1.5449  1.1470
  274TMC3    C7 4200   0.525   2.022  11.221 -0.4024 -0.3231 -0.2514
  274TMC3    C8 4201   0.153   1.767  11.086 -0.5179 -0.0888 -0.2113
  274TMC3    O1 4202   0.540   2.060  11.334 -0.5713 -0.1284  0.1221
  274TMC3    O2 4203   0.064   1.704  11.141 -0.3578 -0.0895 -0.1671
  275MPD2     C 4204   4.603   4.184  14.664 -0.5154 -0.0639  0.1322
  275MPD2    C1 4205   4.612   4.087  14.755 -0.2508  0.1117  0.1102
  275MPD2    C2 4206   4.520   3.981  14.758 -0.0856 -0.4046 -0.5003
  275MPD2    C3 4207   4.402   3.990  14.681  0.4910 -0.0741 -0.1931
  275MPD2    C4 4208   4.397   4.093  14.586 -0.2608  0.0881  0.1461
  275MPD2    C5 4209   4.495   4.188  14.578  0.1192  0.2054 -0.6617
  275MPD2     H 4210   4.548   3.903  14.828 -1.5271  0.2979  0.8459
  275MPD2    H1 4211   4.312   4.104  14.519  2.3268  0.6216 -3.0870
  275MPD2    H2 4212   4.674   4.266  14.662  0.6284 -1.0768 -0.9365
  275MPD2    H3 4213   4.468   4.267  14.510 -1.9744 -0.3933 -0.5269
  275MPD2     N 4214   4.294   3.895  14.689  0.3108  0.0468  0.2564
  275MPD2    H5 4215   4.217   3.907  14.625 -0.3488 -2.4917  0.5971
  275MPD2    N1 4216   4.718   4.083  14.851  0.4754  0.3440  0.3551
  275MPD2    H7 4217   4.730   4.003  14.912  1.2802  0.0698 -0.1661
  276TMC3    C1 4218   0.148   4.157  15.004 -0.1094 -0.5003 -0.1804
  276TMC3    C2 4219   0.188   4.025  15.032 -0.3117 -0.7877  0.2586
  276TMC3    C3 4220   0.288   4.022  15.127  0.1901 -0.2615 -0.1208
  276TMC3    C4 4221   0.185   4.266  15.077 -0.0673  0.5067 -0.1501
  276TMC3    C5 4222   0.270   4.247  15.181 -0.1874  0.3081  0.2809
  276TMC3    C6 4223   0.316   4.121  15.209 -0.0919 -0.4084  0.3942
  276TMC3     C 4224   0.064   4.191  14.891  0.4363 -0.5190 -0.4561
  276TMC3     O 4225   0.059   4.310  14.861 -0.3127  0.3712  0.2601
  276TMC3     H 4226   0.184   3.952  14.952  1.8322  1.2069 -1.6767
  276TMC3    H1 4227   0.142   4.363  15.052 -0.3977  0.6279  0.8923
  276TMC3    H2 4228   0.381   4.092  15.292 -0.6423 -0.7311  0.7146
  276TMC3    C7 4229   0.298   4.351  15.285 -0.1771  0.6538  0.9240
  276TMC3    C8 4230   0.343   3.891  15.153 -0.2891 -0.7921 -1.1128
  276TMC3    O1 4231   0.325   4.312  15.397  0.3998  0.4838 -0.0893
  276TMC3    O2 4232   0.458   3.894  15.206  0.5533  0.2639 -0.1433
  277MPD2     C 4233   1.794   2.873  13.568 -0.0876 -0.2675 -0.3906
  277MPD2    C1 4234   1.662   2.907  13.585 -0.2381 -0.3671 -0.6722
  277MPD2    C2 4235   1.608   2.884  13.706 -0.5224 -0.5124 -0.5513
  277MPD2    C3 4236   1.685   2.845  13.819  0.2497  0.4792  0.0278
  277MPD2    C4 4237   1.818   2.829  13.801 -0.0991 -1.1809  0.4470
  277MPD2    C5 4238   1.872   2.834  13.676 -0.2559 -0.4728 -0.1959
  277MPD2     H 4239   1.504   2.908  13.722 -0.5040 -2.1316  1.9775
  277MPD2    H1 4240   1.882   2.798  13.882  1.0373  1.1270  0.4356
  277MPD2    H2 4241   1.844   2.881  13.473  0.8837  2.7433  0.3886
  277MPD2    H3 4242   1.977   2.810  13.661 -0.2492 -0.6131  0.0762
  277MPD2     N 4243   1.614   2.837  13.939 -0.5418 -0.6772  0.1182
  277MPD2    H5 4244   1.517   2.866  13.932  0.3267  2.0768 -0.3219
  277MPD2    N1 4245   1.588   2.957  13.473  0.0399 -0.2032 -0.0625
  277MPD2    H7 4246   1.644   2.953  13.388  0.5836 -0.3907  0.3069
  278TMC3    C1 4247   1.557   2.797  14.152  0.5568 -0.1365 -0.1759
  278TMC3    C2 4248   1.538   2.679  14.207 -0.4300 -0.1975 -0.5179
  278TMC3    C3 4249   1.412   2.637  14.245  0.0293  0.5877  0.0626
  278TMC3    C4 4250   1.456   2.884  14.131  0.1389  0.2802 -0.1358
  278TMC3    C5 4251   1.327   2.843  14.156  0.1310  0.3807 -1.1911
  278TMC3    C6 4252   1.307   2.717  14.212  0.5438  0.3581 -0.2782
  278TMC3     C 4253   1.667   2.811  14.062 -0.6721  1.3732 -0.3251
  278TMC3     O 4254   1.782   2.787  14.098 -0.0944  0.4008  0.0787
  278TMC3     H 4255   1.623   2.612  14.219 -0.7227 -0.4757  0.0194
  278TMC3    H1 4256   1.469   2.978  14.078  0.0379 -0.6663 -1.8626
  278TMC3    H2 4257   1.208   2.695  14.251  0.5228  1.6622  0.4322
  278TMC3    C7 4258   1.223   2.911  14.081 -0.3354  0.0599 -0.6197
  278TMC3    C8 4259   1.390   2.505  14.215 -0.0693 -0.6337 -0.2227
  278TMC3    O1 4260   1.255   2.983  13.986  0.4202  0.3405  1.1150
  278TMC3    O2 4261   1.468   2.426  14.262  0.6258 -0.0417 -0.1232
  279MPD2     C 4262   0.782   2.461   0.331 -0.1148  0.4389  0.4806
  279MPD2    C1 4263   0.724   2.586   0.361 -0.0467 -0.0157  0.0888
  279MPD2    C2 4264   0.759   2.694   0.287  0.1717 -1.2360  0.6162
  279MPD2    C3 4265   0.852   2.694   0.189  0.0298  0.7628  0.0264
  279MPD2    C4 4266   0.918   2.573   0.167 -0.9658  0.4453 -0.1442
  279MPD2    C5 4267   0.882   2.456   0.236 -0.3323  0.3771  0.4951
  279MPD2     H 4268   0.701   2.782   0.310  1.6133 -0.5153  1.4855
  279MPD2    H1 4269   1.003   2.568   0.100 -0.3549 -0.8001  0.7421
  279MPD2    H2 4270   0.741   2.370   0.372 -0.2413  0.0388 -0.5254
  279MPD2    H3 4271   0.946   2.369   0.224  0.0110  0.5717  0.8954
  279MPD2     N 4272   0.892   2.809   0.114 -0.1290 -0.0896  1.0388
  279MPD2    H5 4273   0.954   2.787   0.037 -0.0626  0.0915  1.0412
  279MPD2    N1 4274   0.626   2.607   0.460  0.2581  0.4965 -0.4074
  279MPD2    H7 4275   0.595   2.703   0.466 -2.9953 -0.6840  1.8377
  280TMC3    C1 4276   0.507   2.591   0.673 -0.5804 -0.8009  0.2349
  280TMC3    C2 4277   0.380   2.542   0.708 -0.0677 -0.7356  0.0630
  280TMC3    C3 4278   0.277   2.626   0.723 -0.7744  0.0068  0.5055
  280TMC3    C4 4279   0.538   2.723   0.682  0.2158 -0.1168  0.2837
  280TMC3    C5 4280   0.437   2.805   0.711 -0.4023 -0.9281  0.3405
  280TMC3    C6 4281   0.306   2.764   0.715  0.0529  0.5280 -0.3492
  280TMC3     C 4282   0.586   2.526   0.566 -0.0265 -0.1882 -0.0742
  280TMC3     O 4283   0.617   2.411   0.584  0.1442  1.0185 -0.1275
  280TMC3     H 4284   0.371   2.434   0.714 -1.6241 -0.4782  2.1406
  280TMC3    H1 4285   0.628   2.770   0.643 -0.9345  0.8473 -1.2139
  280TMC3    H2 4286   0.231   2.840   0.728  0.1169  1.0926 -3.2289
  280TMC3    C7 4287   0.471   2.942   0.736  0.1106  0.2335 -0.7650
  280TMC3    C8 4288   0.155   2.603   0.803  0.4258 -0.7153  0.8052
  280TMC3    O1 4289   0.559   2.970   0.814  0.3631  0.4718 -0.2448
  280TMC3    O2 4290   0.066   2.682   0.786  0.0613 -0.6679 -0.3018
  281TMC3    C1 4291   4.510   3.083  13.869  0.1235 -0.0384 -0.0728
  281TMC3    C2 4292   4.562   3.163  13.768 -0.7708 -0.2025 -0.0480
  281TMC3    C3 4293   4.592   3.101  13.648  0.4196 -0.7030 -0.4568
  281TMC3    C4 4294   4.502   2.951  13.853 -0.4708 -0.0881  0.4483
  281TMC3    C5 4295   4.548   2.894  13.733 -0.2557  0.3008 -0.0043
  281TMC3    C6 4296   4.597   2.970  13.631 -0.4261  0.2851  0.1651
  281TMC3     C 4297   4.395   3.130  13.931  0.2644  0.2730 -0.9765
  281TMC3     O 4298   4.304   3.051  13.950 -0.0257  0.3271 -0.3674
  281TMC3     H 4299   4.585   3.268  13.772  1.9462 -0.7494 -1.0870
  281TMC3    H1 4300   4.471   2.894  13.940 -1.4231 -1.0626 -0.5314
  281TMC3    H2 4301   4.634   2.928  13.538 -1.9461  0.1575 -0.3765
  281TMC3    C7 4302   4.464   2.784  13.680 -0.0806 -0.3814 -0.6145
  281TMC3    C8 4303   4.647   3.177  13.548 -0.3774 -0.4277  0.2888
  281TMC3    O1 4304   4.499   2.740  13.570  0.2906  0.3749  0.2991
  281TMC3    O2 4305   0.034   3.161  13.534  0.2022 -0.5094 -0.2321
  282MPD2     C 4306   1.451   0.056  15.389 -0.1648 -0.2160  1.1388
  282MPD2    C1 4307   1.324   0.110  15.395 -1.6285  0.1527  0.1907
  282MPD2    C2 4308   1.238   0.101  15.285 -0.2426  0.1723  0.0021
  282MPD2    C3 4309   1.284   0.033  15.168 -0.1760 -0.2021 -0.0548
  282MPD2    C4 4310   1.410   4.711  15.167  0.1196  0.2275 -0.2880
  282MPD2    C5 4311   1.491   4.713  15.280  0.3274 -0.2393  0.5037
  282MPD2     H 4312   1.145   0.157  15.282 -0.3890 -0.0609  0.1399
  282MPD2    H1 4313   1.443   4.646  15.086 -1.7248 -1.3270  0.2382
  282MPD2    H2 4314   1.524   0.076  15.467 -1.8905  4.3730  1.6335
  282MPD2    H3 4315   1.592   4.675  15.268 -0.1427 -1.7742  1.3758
  282MPD2     N 4316   1.212   0.033  15.043  0.0924  0.1912 -0.3260
  282MPD2    H5 4317   1.133   0.095  15.028  3.0032  4.2647  1.0654
  282MPD2    N1 4318   1.270   0.172  15.508  0.3836  0.0042 -0.7157
  282MPD2    H7 4319   1.177   0.210  15.495  0.8071  1.6358  1.0388
  283TMC3    C1 4320   1.226   0.181  15.748 -0.4782 -0.3115  0.5352
  283TMC3    C2 4321   1.135   0.284  15.724 -0.5209  0.2168 -0.0377
  283TMC3    C3 4322   1.051   0.314  15.825  0.9867  0.0353 -0.9976
  283TMC3    C4 4323   1.234   0.120  15.873 -0.1794  0.3537 -0.1924
  283TMC3    C5 4324   1.142   0.152  15.962  0.0717 -0.0367  0.4005
  283TMC3    C6 4325   1.052   0.253  15.947  0.3567  0.4500 -1.3293
  283TMC3     C 4326   1.320   0.147  15.638 -0.5897  0.2270  0.2578
  283TMC3     O 4327   1.418   0.080  15.673  0.2999 -0.0166 -0.1689
  283TMC3     H 4328   1.146   0.345  15.635  0.1147 -0.8500 -0.6866
  283TMC3    H1 4329   1.298   0.033  15.885 -0.5740  0.0725 -0.1204
  283TMC3    H2 4330   1.002   0.293  16.034  1.6050  2.0808 -1.3682
  283TMC3    C7 4331   1.083   0.047  16.041  1.0411  0.5454 -0.5697
  283TMC3    C8 4332   0.972   0.432  15.820 -0.9064  0.4917 -0.7161
  283TMC3    O1 4333   0.960   0.051  16.060  0.3050  0.6524  0.1813
  283TMC3    O2 4334   0.917   0.469  15.919 -0.5111 -0.6159 -0.2755
  284MPD2     C 4335   4.306   4.041  12.408 -0.2124  0.6034  0.3462
  284MPD2    C1 4336   4.444   4.025  12.397 -0.0968  0.0071 -0.3152
  284MPD2    C2 4337   4.514   3.944  12.491  0.5691  0.1167  0.1456
  284MPD2    C3 4338   4.447   3.856  12.577  0.0790  0.4729  0.6159
  284MPD2    C4 4339   4.312   3.860  12.572  0.1358 -0.3972 -0.1394
  284MPD2    C5 4340   4.243   3.944  12.488  0.2669 -1.1225  0.0227
  284MPD2     H 4341   4.622   3.949  12.484  0.6561 -1.2086  0.4495
  284MPD2    H1 4342   4.251   3.780  12.613 -1.1960  0.1475 -1.0332
  284MPD2    H2 4343   4.241   4.099  12.344 -0.1340 -0.6138 -0.8532
  284MPD2    H3 4344   4.135   3.948  12.488  0.2510 -1.2382  2.3270
  284MPD2     N 4345   4.510   3.757  12.659 -0.5017 -0.0941 -0.0894
  284MPD2    H5 4346   4.445   3.697  12.710 -1.5184  2.9463  2.1777
  284MPD2    N1 4347   4.520   4.106  12.304  0.2173 -0.0832  0.2977
  284MPD2    H7 4348   4.622   4.106  12.301  0.1363  0.7120 -2.5873
  285TMC3    C1 4349   4.568   4.276  12.148  0.1816 -0.7556 -0.1348
  285TMC3    C2 4350   4.674   4.197  12.095 -0.2092  0.3890 -0.1347
  285TMC3    C3 4351   0.039   4.264  12.033 -0.6565  0.3785 -1.2514
  285TMC3    C4 4352   4.566   4.413  12.149  0.0485  0.2444 -0.5859
  285TMC3    C5 4353   4.664   4.476  12.088 -0.2454  0.0196  0.2630
  285TMC3    C6 4354   0.032   4.401  12.039  0.9521  1.1959 -0.5183
  285TMC3     C 4355   4.466   4.201  12.221 -0.3010  0.4785 -0.1548
  285TMC3     O 4356   4.354   4.252  12.227  0.2622  0.0800 -0.1441
  285TMC3     H 4357   4.673   4.089  12.090 -1.6676  0.4056 -0.4607
  285TMC3    H1 4358   4.494   4.471  12.205 -0.6125 -1.4060  0.2968
  285TMC3    H2 4359   0.114   4.448  11.985  2.7255 -1.5481 -0.2325
  285TMC3    C7 4360   4.629   4.581  11.992  0.4710 -0.8263  0.5336
  285TMC3    C8 4361   0.085   4.200  11.909  0.3057  0.0897 -0.1704
  285TMC3    O1 4362   4.722   4.635  11.932 -0.0982 -0.0958  0.0328
  285TMC3    O2 4363   0.022   4.104  11.866  0.1829 -0.2409  0.0568
  286MPD2     C 4364   3.969   2.558   1.368  0.4197  1.1632  0.4208
  286MPD2    C1 4365   4.057   2.602   1.462 -0.4394 -0.1020 -0.4524
  286MPD2    C2 4366   4.162   2.523   1.507 -0.5258  0.4282  0.6570
  286MPD2    C3 4367   4.171   2.395   1.473  1.0430 -0.1660  0.3931
  286MPD2    C4 4368   4.080   2.339   1.386  0.0254 -1.1103  0.4017
  286MPD2    C5 4369   3.983   2.430   1.337 -0.3923 -0.2024 -0.1639
  286MPD2     H 4370   4.237   2.570   1.569  1.3683 -1.6268 -0.0611
  286MPD2    H1 4371   4.084   2.235   1.357  2.8849 -0.2267 -2.4142
  286MPD2    H2 4372   3.895   2.630   1.335  1.6297  1.5596 -1.3978
  286MPD2    H3 4373   3.907   2.392   1.269 -1.0044 -0.6654  0.7778
  286MPD2     N 4374   4.281   2.312   1.509 -0.1111  0.0187 -0.5238
  286MPD2    H5 4375   4.285   2.218   1.471 -0.7299 -1.1850  2.4354
  286MPD2    N1 4376   4.053   2.730   1.520  0.9928  0.0358  0.0182
  286MPD2    H7 4377   4.123   2.761   1.587  2.2842 -0.4712 -1.1049
  287TMC3    C1 4378   4.494   2.243   1.595  0.0093  0.7094  0.1737
  287TMC3    C2 4379   4.518   2.169   1.484 -0.4074  0.4170 -0.0250
  287TMC3    C3 4380   4.639   2.102   1.468 -0.7118  0.5612 -0.1977
  287TMC3    C4 4381   4.602   2.267   1.677  0.1631 -0.3175 -0.3122
  287TMC3    C5 4382   4.729   2.217   1.644  0.4913  0.2720  0.3339
  287TMC3    C6 4383   0.024   2.133   1.539  0.3131  0.1852  0.3799
  287TMC3     C 4384   4.387   2.345   1.590  0.2291  0.0410  0.7360
  287TMC3     O 4385   4.409   2.447   1.653 -0.2808  0.8688 -0.3553
  287TMC3     H 4386   4.438   2.148   1.415 -1.5838  2.1771  0.8030
  287TMC3    H1 4387   4.592   2.333   1.762 -1.9217  0.9712 -1.5558
  287TMC3    H2 4388   0.121   2.091   1.514 -0.4965 -1.3752 -0.1389
  287TMC3    C7 4389   0.111   2.276   1.717  0.2377 -0.0137  0.1310
  287TMC3    C8 4390   4.642   2.027   1.344  0.2637  0.5563  0.1298
  287TMC3    O1 4391   0.094   2.377   1.784  0.0024 -0.4060  0.1522
  287TMC3    O2 4392   4.532   1.996   1.293 -0.4758 -0.7930  0.8960
  288TMC3    C1 4393   2.094   2.492  14.485  0.7280 -0.1222 -0.1070
  288TMC3    C2 4394   1.956   2.482  14.504 -0.6173  0.0500  0.1935
  288TMC3    C3 4395   1.877   2.566  14.431 -0.6290 -0.1319  0.2687
  288TMC3    C4 4396   2.153   2.556  14.380  0.1402 -0.1232  0.0672
  288TMC3    C5 4397   2.067   2.638  14.302 -0.5235  1.2306  0.0659
  288TMC3    C6 4398   1.938   2.643  14.339  0.3245  0.0243  0.5272
  288TMC3     C 4399   2.181   2.406  14.567 -0.3584  0.1367 -0.0110
  288TMC3     O 4400   2.129   2.368  14.670  0.6243 -0.1202  0.6502
  288TMC3     H 4401   1.910   2.430  14.587 -0.5063  0.0664  0.2647
  288TMC3    H1 4402   2.260   2.573  14.370 -0.0433  1.5159  0.8777
  288TMC3    H2 4403   1.873   2.718  14.294 -0.6538 -0.1938  1.5897
  288TMC3    C7 4404   2.128   2.732  14.214  0.2295  0.7369  0.0134
  288TMC3    C8 4405   1.760   2.622  14.486 -0.1472  0.1067 -0.4078
  288TMC3    O1 4406   2.251   2.721  14.204  0.7166 -0.1862 -0.3821
  288TMC3    O2 4407   1.729   2.737  14.453 -0.1800  0.1637 -0.7115
  289MPD2     C 4408   1.614   1.457  14.553  0.4542 -0.2712 -0.2301
  289MPD2    C1 4409   1.576   1.594  14.536 -0.5584  0.5859  0.0422
  289MPD2    C2 4410   1.462   1.620  14.461  0.0811  0.4188 -0.1960
  289MPD2    C3 4411   1.377   1.522  14.418 -0.4666  0.0103 -0.3416
  289MPD2    C4 4412   1.406   1.392  14.455 -0.0118  0.0432 -0.8005
  289MPD2    C5 4413   1.531   1.359  14.513  0.3278 -0.2757 -0.2115
  289MPD2     H 4414   1.432   1.724  14.450  0.5969  0.4383 -1.4661
  289MPD2    H1 4415   1.336   1.312  14.432 -1.1791  0.6415  0.6460
  289MPD2    H2 4416   1.710   1.429  14.596  1.4037  2.7602 -0.3344
  289MPD2    H3 4417   1.550   1.253  14.528  1.2799 -0.0354  0.2366
  289MPD2     N 4418   1.257   1.547  14.338 -0.6386 -0.5190  0.0220
  289MPD2    H5 4419   1.203   1.467  14.307 -1.3915  0.2585 -0.6694
  289MPD2    N1 4420   1.673   1.691  14.576  0.5948  0.1983 -0.0911
  289MPD2    H7 4421   1.751   1.656  14.631  1.1623  0.7420 -0.5468
  290TMC3    C1 4422   1.085   1.671  14.219 -0.5997 -0.3442  0.2689
  290TMC3    C2 4423   1.025   1.791  14.195 -0.3181 -0.1084  0.1530
  290TMC3    C3 4424   0.906   1.786  14.120 -0.5292  0.3815 -0.0900
  290TMC3    C4 4425   1.039   1.553  14.165 -0.6264 -0.4315 -0.2629
  290TMC3    C5 4426   0.920   1.554  14.094 -0.2726  0.6064 -1.6178
  290TMC3    C6 4427   0.853   1.676  14.071 -0.4290  0.3091  0.4402
  290TMC3     C 4428   1.214   1.673  14.298 -0.9037  0.1540 -0.2519
  290TMC3     O 4429   1.265   1.785  14.296  0.1008  0.3263 -0.3507
  290TMC3     H 4430   1.089   1.877  14.205 -0.5993  0.0648  0.4972
  290TMC3    H1 4431   1.097   1.461  14.170 -0.0789 -0.1571 -1.5284
  290TMC3    H2 4432   0.760   1.679  14.015 -0.0008  0.4176 -0.2694
  290TMC3    C7 4433   0.873   1.444  14.012 -0.8635 -0.4983 -0.2246
  290TMC3    C8 4434   0.844   1.905  14.078  0.4571  0.2079 -0.3241
  290TMC3    O1 4435   0.795   1.471  13.925  0.3047  0.4893 -0.3209
  290TMC3    O2 4436   0.772   1.905  13.982 -0.1289 -0.1039 -0.0585
  291MPD2     C 4437   0.691   1.647   0.186  0.1295  0.9937 -0.2812
  291MPD2    C1 4438   0.732   1.570   0.295  0.5675 -0.5096 -0.2198
  291MPD2    C2 4439   0.768   1.639   0.414  0.0359 -0.2993  0.0030
  291MPD2    C3 4440   0.768   1.776   0.422  0.6013  0.1353 -0.1449
  291MPD2    C4 4441   0.721   1.847   0.315  0.8198  0.4294 -0.2539
  291MPD2    C5 4442   0.686   1.782   0.192  0.2627 -0.0683  0.0804
  291MPD2     H 4443   0.796   1.579   0.500 -1.6367  0.1544  0.8730
  291MPD2    H1 4444   0.722   1.955   0.321 -0.7224  0.4833 -0.8960
  291MPD2    H2 4445   0.670   1.604   0.089  0.2204  1.0732 -0.3364
  291MPD2    H3 4446   0.639   1.829   0.107  1.8730  0.0834 -0.7151
  291MPD2     N 4447   0.830   1.846   0.526 -0.4181 -0.1573  0.3010
  291MPD2    H5 4448   0.809   1.945   0.517 -0.7734 -0.2533  0.0514
  291MPD2    N1 4449   0.736   1.427   0.296 -0.0844  0.0985  0.2241
  291MPD2    H7 4450   0.785   1.400   0.380 -0.4772  1.4511  0.8818
  292TMC3    C1 4451   0.733   1.203   0.224 -0.5324 -0.3965 -0.1814
  292TMC3    C2 4452   0.762   1.170   0.355 -0.5325 -0.2956 -0.1323
  292TMC3    C3 4453   0.715   1.050   0.398  0.5957  0.6097 -0.5727
  292TMC3    C4 4454   0.674   1.116   0.136  0.1145  0.3352 -0.4356
  292TMC3    C5 4455   0.641   0.993   0.183  0.3372  0.6529 -0.0238
  292TMC3    C6 4456   0.670   0.958   0.311 -0.6723 -0.0244 -0.6109
  292TMC3     C 4457   0.694   1.342   0.199 -0.0706 -0.0691  0.1998
  292TMC3     O 4458   0.633   1.366   0.095 -0.0693 -0.1366  1.0104
  292TMC3     H 4459   0.797   1.241   0.430 -2.0824  0.8659 -0.5194
  292TMC3    H1 4460   0.633   1.149   0.041 -1.2353 -1.9852 -0.6498
  292TMC3    H2 4461   0.661   0.854   0.339 -0.5997  0.3707  0.8550
  292TMC3    C7 4462   0.665   0.877   0.090  0.5304 -0.3952 -0.1711
  292TMC3    C8 4463   0.688   1.025   0.537  0.0605  0.1000 -0.6912
  292TMC3    O1 4464   0.740   0.791   0.136 -0.0522  0.5093 -0.1832
  292TMC3    O2 4465   0.766   1.074   0.617 -0.3643  0.0584 -0.2713
  293MPD2     C 4466   2.483   2.852  12.751 -0.4263 -0.1200 -0.0247
  293MPD2    C1 4467   2.426   2.746  12.833 -0.0218 -0.0162  0.3487
  293MPD2    C2 4468   2.471   2.726  12.963  0.0093  0.6105 -0.4573
  293MPD2    C3 4469   2.577   2.795  13.016  0.6711  0.0831  0.3004
  293MPD2    C4 4470   2.626   2.902  12.947 -0.1009  0.4709  0.0139
  293MPD2    C5 4471   2.582   2.922  12.815  0.4881  0.4548 -0.9217
  293MPD2     H 4472   2.434   2.642  13.020  1.6272 -0.0508 -0.3775
  293MPD2    H1 4473   2.708   2.965  12.980  1.8902 -2.3007  0.3342
  293MPD2    H2 4474   2.460   2.883  12.650 -2.0042  0.6128  0.5682
  293MPD2    H3 4475   2.619   3.005  12.756 -2.2196  1.9474 -0.5010
  293MPD2     N 4476   2.620   2.745  13.140 -0.5165  0.0068 -0.0413
  293MPD2    H5 4477   2.572   2.659  13.161  1.7340 -1.5217 -1.0457
  293MPD2    N1 4478   2.333   2.669  12.773  0.4177 -0.7500 -0.0709
  293MPD2    H7 4479   2.309   2.684  12.676  1.3515 -2.0334 -0.4991
  294TMC3    C1 4480   2.165   2.516  12.724  0.5952  0.6154  0.4162
  294TMC3    C2 4481   2.128   2.385  12.724  0.1494 -0.2670  0.7111
  294TMC3    C3 4482   2.043   2.335  12.619  0.4920 -0.6764 -0.0088
  294TMC3    C4 4483   2.117   2.610  12.639 -0.0242 -0.4633  0.3623
  294TMC3    C5 4484   2.016   2.559  12.553  0.1630 -0.6274 -0.3173
  294TMC3    C6 4485   1.976   2.428  12.540 -0.1298 -0.3968 -0.1643
  294TMC3     C 4486   2.263   2.560  12.819  0.2913  0.1109 -0.0044
  294TMC3     O 4487   2.269   2.495  12.923  0.2376 -0.0085 -0.6386
  294TMC3     H 4488   2.180   2.319  12.794 -1.3977 -1.5542  0.6426
  294TMC3    H1 4489   2.114   2.716  12.664 -0.0412 -0.1895 -0.7859
  294TMC3    H2 4490   1.889   2.413  12.477  0.7169 -0.0075 -1.4262
  294TMC3    C7 4491   1.979   2.646  12.442  0.3018 -0.2654 -0.0684
  294TMC3    C8 4492   2.004   2.194  12.641 -0.9797  0.2089 -0.1299
  294TMC3    O1 4493   1.868   2.628  12.402  0.3883  0.1141 -0.1905
  294TMC3    O2 4494   2.054   2.132  12.732 -0.2085 -0.1826  0.0945
  295MPD2     C 4495   3.726   1.859   1.209 -0.4791  0.1580  0.7128
  295MPD2    C1 4496   3.737   1.769   1.103 -0.5416 -0.0004  0.2890
  295MPD2    C2 4497   3.702   1.634   1.131 -0.5305 -0.6338  0.0579
  295MPD2    C3 4498   3.637   1.597   1.241  0.0686 -0.4769  0.4826
  295MPD2    C4 4499   3.615   1.699   1.336  0.6769  0.2815 -0.6932
  295MPD2    C5 4500   3.663   1.830   1.324 -0.3665  0.1349 -0.5408
  295MPD2     H 4501   3.721   1.569   1.046 -1.6754 -2.0765  0.9076
  295MPD2    H1 4502   3.569   1.668   1.429 -3.2984  1.4391 -2.2471
  295MPD2    H2 4503   3.769   1.958   1.197 -1.7883  0.4131 -1.8085
  295MPD2    H3 4504   3.642   1.907   1.398 -1.2590 -0.0333 -0.6172
  295MPD2     N 4505   3.591   1.469   1.268  0.2864 -0.4340 -0.1962
  295MPD2    H5 4506   3.522   1.461   1.343 -0.5973 -1.6656 -1.1405
  295MPD2    N1 4507   3.773   1.803   0.973 -0.3927 -0.6625  0.3089
  295MPD2    H7 4508   3.766   1.726   0.908 -0.4576 -0.7664  0.4404
  296TMC3    C1 4509   3.542   1.246   1.236 -0.2599  1.1368 -0.6762
  296TMC3    C2 4510   3.414   1.271   1.290 -0.3111  0.1888  0.5295
  296TMC3    C3 4511   3.332   1.162   1.311 -1.1330 -0.2343 -0.7411
  296TMC3    C4 4512   3.580   1.124   1.194  0.2138 -0.2220 -0.3731
  296TMC3    C5 4513   3.489   1.017   1.209  0.1741 -0.2089  0.5775
  296TMC3    C6 4514   3.369   1.034   1.270 -0.4538  0.1321  0.3784
  296TMC3     C 4515   3.632   1.351   1.208 -0.2373  0.6376  0.3025
  296TMC3     O 4516   3.725   1.326   1.131  0.4323 -0.1926  0.1166
  296TMC3     H 4517   3.380   1.370   1.316  1.1269  1.0166 -0.7590
  296TMC3    H1 4518   3.666   1.112   1.130 -0.0602 -1.5940 -0.4692
  296TMC3    H2 4519   3.300   0.951   1.269 -1.3046  0.8608 -0.8747
  296TMC3    C7 4520   3.518   0.881   1.146 -0.6675  0.3742  0.2808
  296TMC3    C8 4521   3.195   1.171   1.355  0.1130 -0.0055 -0.3260
  296TMC3    O1 4522   3.633   0.855   1.125  0.2713  0.1345  0.4159
  296TMC3    O2 4523   3.131   1.066   1.355 -0.8654 -0.5410  0.3552
  297MPD2     C 4524   0.678   3.290  16.609  0.2179  0.5265 -0.2615
  297MPD2    C1 4525   0.644   3.384  16.514  0.2000  0.4457  0.1721
  297MPD2    C2 4526   0.722   3.494  16.488  0.4994  0.2011 -0.2962
  297MPD2    C3 4527   0.834   3.514  16.567  0.0054 -0.5839  0.7034
  297MPD2    C4 4528   0.866   3.417  16.660  0.4130  0.1684 -0.0485
  297MPD2    C5 4529   0.791   3.309  16.683  0.7975  0.3332 -0.4036
  297MPD2     H 4530   0.692   3.567  16.414 -1.1968 -1.7603 -1.5316
  297MPD2    H1 4531   0.943   3.429  16.735 -1.1328 -0.2616  1.5989
  297MPD2    H2 4532   0.619   3.200  16.619  1.5323 -0.2516  0.4675
  297MPD2    H3 4533   0.807   3.248  16.771 -0.2176 -0.9761 -1.1182
  297MPD2     N 4534   0.905   3.634  16.551  0.0640  0.2661  0.3607
  297MPD2    H5 4535   0.870   3.710  16.493 -1.4203  0.0235  0.9208
  297MPD2    N1 4536   0.525   3.367  16.432 -0.2915 -0.5792 -0.0127
  297MPD2    H7 4537   0.501   3.438  16.363 -1.1403 -0.7416  0.1131
  298TMC3    C1 4538   0.317   3.305  16.352  0.1127  0.1448 -0.4885
  298TMC3    C2 4539   0.354   3.321  16.218 -0.6650 -0.0990 -0.1302
  298TMC3    C3 4540   0.261   3.388  16.145  0.7221 -0.4406  0.9076
  298TMC3    C4 4541   0.204   3.353  16.412  0.4976 -0.6018  0.0316
  298TMC3    C5 4542   0.123   3.424  16.334  0.0872  0.0561  0.1175
  298TMC3    C6 4543   0.147   3.443  16.197 -0.1942 -0.2061 -0.3879
  298TMC3     C 4544   0.423   3.281  16.453  1.0073 -0.2455  0.3792
  298TMC3     O 4545   0.392   3.216  16.552 -0.8613  0.3959 -0.4982
  298TMC3     H 4546   0.440   3.277  16.170 -1.5934 -2.1231  0.0537
  298TMC3    H1 4547   0.179   3.344  16.517  1.5549 -0.7937  0.2622
  298TMC3    H2 4548   0.061   3.480  16.142  1.0985 -0.1933 -2.3641
  298TMC3    C7 4549   0.044   3.524  16.393  0.7639 -0.5712  0.5627
  298TMC3    C8 4550   0.268   3.383  16.004 -0.3802  0.3384  0.3834
  298TMC3    O1 4551   0.007   3.503  16.508  0.1106 -0.3264  0.0485
  298TMC3    O2 4552   0.353   3.301  15.968 -0.4900  0.1872 -0.3656
  299MPD2     C 4553   0.948   3.766  11.033  0.5324 -0.0708 -0.0983
  299MPD2    C1 4554   1.044   3.797  10.930  0.0374 -0.2514  0.2259
  299MPD2    C2 4555   0.986   3.852  10.815 -0.1367 -0.5854  0.5595
  299MPD2    C3 4556   0.853   3.829  10.789 -0.2894 -0.1358  0.3278
  299MPD2    C4 4557   0.766   3.793  10.892 -0.7152  0.1407 -0.1189
  299MPD2    C5 4558   0.810   3.767  11.016  0.4690 -0.2310 -0.6439
  299MPD2     H 4559   1.049   3.908  10.748 -0.5927 -1.7711 -0.8451
  299MPD2    H1 4560   0.659   3.794  10.878 -0.5571 -0.6206 -1.4174
  299MPD2    H2 4561   0.978   3.745  11.135 -0.7711 -2.6186 -0.2476
  299MPD2    H3 4562   0.742   3.746  11.098 -1.9911  0.9147 -2.3738
  299MPD2     N 4563   0.778   3.853  10.669  0.5639  0.0329  0.9905
  299MPD2    H5 4564   0.686   3.810  10.671  0.7053 -0.4410 -2.1159
  299MPD2    N1 4565   1.187   3.801  10.968  0.6342 -0.4419  0.1780
  299MPD2    H7 4566   1.201   3.745  11.050 -1.2759 -0.5923  0.4163
  300TMC3    C1 4567   0.757   3.932  10.437  0.1173  0.2770 -0.0330
  300TMC3    C2 4568   0.793   4.038  10.357  0.6874  0.1042 -0.4880
  300TMC3    C3 4569   0.708   4.084  10.260 -0.1900  0.0923  0.7126
  300TMC3    C4 4570   0.633   3.875  10.436 -0.4029  0.1936  0.6139
  300TMC3    C5 4571   0.552   3.921  10.339 -0.2287  0.4637  0.2258
  300TMC3    C6 4572   0.592   4.012  10.247 -0.0746 -0.8307 -0.5198
  300TMC3     C 4573   0.840   3.902  10.559 -0.1003 -0.0243  0.1920
  300TMC3     O 4574   0.945   3.963  10.547 -0.6449 -0.0482  0.1914
  300TMC3     H 4575   0.888   4.091  10.363  0.9794 -0.6593  1.6419
  300TMC3    H1 4576   0.596   3.801  10.507 -0.5052 -0.2356  0.1185
  300TMC3    H2 4577   0.532   4.048  10.164  0.7020  0.6379 -0.4502
  300TMC3    C7 4578   0.409   3.901  10.343  0.1212  0.0401 -0.6051
  300TMC3    C8 4579   0.693   4.232  10.257  0.5715  0.6194 -0.0517
  300TMC3    O1 4580   0.348   3.916  10.238  0.4603 -0.0616 -0.0367
  300TMC3    O2 4581   0.797   4.298  10.281  0.8652  0.1742 -0.2521
  301MPD2     C 4582   3.582   0.384   0.600 -0.3784  0.4504 -1.2154
  301MPD2    C1 4583   3.466   0.311   0.605  0.0543  0.0875 -0.1722
  301MPD2    C2 4584   3.465   0.185   0.658 -0.7998  0.1918  0.2416
  301MPD2    C3 4585   3.574   0.128   0.712  0.1833 -0.0721 -0.3556
  301MPD2    C4 4586   3.688   0.202   0.707 -0.3326  0.5716  0.7946
  301MPD2    C5 4587   3.696   0.326   0.658 -0.0699 -0.5779  0.5256
  301MPD2     H 4588   3.367   0.138   0.652  0.0840 -1.5273 -0.5101
  301MPD2    H1 4589   3.777   0.164   0.755  0.3219  1.5013  0.3218
  301MPD2    H2 4590   3.594   0.483   0.557  0.9817  0.6965 -0.2501
  301MPD2    H3 4591   3.786   0.384   0.674  1.4545 -2.9436  0.3862
  301MPD2     N 4592   3.578   0.012   0.791 -0.9807  0.6788 -0.4169
  301MPD2    H5 4593   3.666   4.725   0.837 -1.1308  0.1663 -0.3614
  301MPD2    N1 4594   3.346   0.368   0.550  0.4605  0.1720  0.0091
  301MPD2    H7 4595   3.261   0.314   0.539  1.7635 -1.5765 -1.3400
  302TMC3    C1 4596   3.489   4.549   0.877  0.1692 -0.3281  0.2580
  302TMC3    C2 4597   3.532   4.572   1.004 -0.6015  0.2888  0.1703
  302TMC3    C3 4598   3.495   4.488   1.103  0.3545  0.2239 -0.0123
  302TMC3    C4 4599   3.394   4.456   0.860 -0.0948  0.4463  0.1773
  302TMC3    C5 4600   3.349   4.381   0.963  0.1647  0.7672  0.2462
  302TMC3    C6 4601   3.403   4.393   1.088  0.8229 -0.0515  0.5461
  302TMC3     C 4602   3.474   4.658   0.782  0.6440  0.1134  1.1422
  302TMC3     O 4603   3.389   4.654   0.703 -0.6016  0.5437 -0.2843
  302TMC3     H 4604   3.605   4.652   1.015 -0.5787  0.6152 -2.2209
  302TMC3    H1 4605   3.353   4.449   0.760 -1.1951 -2.2102  0.8358
  302TMC3    H2 4606   3.362   4.332   1.168 -0.1190 -0.0891  0.0364
  302TMC3    C7 4607   3.235   4.291   0.951 -0.1911  0.7378  1.0591
  302TMC3    C8 4608   3.521   4.551   1.231  0.2050  0.3445 -0.1427
  302TMC3    O1 4609   3.248   4.183   1.014  0.3446  0.5528  0.0933
  302TMC3    O2 4610   3.625   4.605   1.255 -0.5265  0.2493 -0.0173
  303MPD2     C 4611   3.508   3.231  11.205 -0.2076 -0.2934 -0.1650
  303MPD2    C1 4612   3.424   3.122  11.199 -0.5447 -0.1572 -0.4328
  303MPD2    C2 4613   3.367   3.072  11.081  0.2539  0.1082 -0.0135
  303MPD2    C3 4614   3.398   3.140  10.960 -0.7413 -0.0396  0.0482
  303MPD2    C4 4615   3.479   3.252  10.967  0.3841  0.0709  0.1866
  303MPD2    C5 4616   3.533   3.293  11.089  0.2175 -1.0364 -0.2788
  303MPD2     H 4617   3.305   2.983  11.081 -0.8659  0.8910  2.0098
  303MPD2    H1 4618   3.504   3.300  10.873  0.3157 -0.8101 -0.2834
  303MPD2    H2 4619   3.545   3.267  11.301  1.2859 -0.4466 -0.6741
  303MPD2    H3 4620   3.597   3.381  11.095 -0.6861 -0.2178 -2.7755
  303MPD2     N 4621   3.351   3.093  10.835  0.0005  0.2215  0.3192
  303MPD2    H5 4622   3.416   3.106  10.759 -1.2552 -0.1796 -0.8328
  303MPD2    N1 4623   3.399   3.065  11.325  0.2224 -0.2945  0.4561
  303MPD2    H7 4624   3.449   3.098  11.407  1.0299  0.1276 -0.1965
  304TMC3    C1 4625   3.310   2.935  11.486  0.2827  0.2605  0.7487
  304TMC3    C2 4626   3.187   2.925  11.544 -0.1992 -0.3273 -0.7759
  304TMC3    C3 4627   3.165   2.835  11.644 -0.3619  0.0358 -0.0793
  304TMC3    C4 4628   3.412   2.854  11.515  0.2268  0.1370  0.2335
  304TMC3    C5 4629   3.392   2.758  11.613  0.3603 -0.4126 -0.2673
  304TMC3    C6 4630   3.267   2.753  11.674  0.7974 -0.5061  0.1382
  304TMC3     C 4631   3.305   2.971  11.346  0.4402  0.4863  0.1948
  304TMC3     O 4632   3.209   2.933  11.280  0.1000  0.1485 -0.6656
  304TMC3     H 4633   3.101   2.974  11.500  0.1388  1.6307  0.7487
  304TMC3    H1 4634   3.500   2.841  11.452  0.7333  2.7937  0.3933
  304TMC3    H2 4635   3.256   2.683  11.757  1.8862  0.7302  1.3365
  304TMC3    C7 4636   3.435   2.622  11.584 -0.4372  0.6399  0.0016
  304TMC3    C8 4637   3.040   2.761  11.616  1.1479  0.7247  0.1956
  304TMC3    O1 4638   3.352   2.535  11.604  0.2968  0.1474  0.4000
  304TMC3    O2 4639   2.934   2.823  11.590 -0.0623 -0.0299 -0.2854
  305MPD2     C 4640   1.378   0.259  14.150 -0.2281  0.2787  0.0259
  305MPD2    C1 4641   1.398   0.132  14.208  0.5320  0.7517 -0.1115
  305MPD2    C2 4642   1.383   0.026  14.122 -0.0183 -0.6298 -0.4377
  305MPD2    C3 4643   1.345   0.036  13.992  0.0791 -0.3085  0.3543
  305MPD2    C4 4644   1.316   0.160  13.935 -0.6134  0.4227 -0.4444
  305MPD2    C5 4645   1.345   0.264  14.015 -0.0211 -0.6092  0.0082
  305MPD2     H 4646   1.389   4.659  14.161  1.3336  0.1457  1.3991
  305MPD2    H1 4647   1.297   0.171  13.829 -0.0912  0.2333 -0.5620
  305MPD2    H2 4648   1.379   0.349  14.210  1.1793  0.6207 -0.5083
  305MPD2    H3 4649   1.311   0.357  13.971  1.0985  0.6836  1.9249
  305MPD2     N 4650   1.314   4.660  13.905  0.6690 -0.5632  0.1406
  305MPD2    H5 4651   1.293   4.682  13.808 -2.7090  1.7136  1.3584
  305MPD2    N1 4652   1.444   0.127  14.344  0.1067 -1.0562  0.5892
  305MPD2    H7 4653   1.466   0.219  14.381  1.0985 -0.8840 -0.3954
  306TMC3    C1 4654   1.502   0.020  14.542  0.0476 -0.0021  0.0568
  306TMC3    C2 4655   1.574   4.652  14.602 -0.2863  0.1893 -0.1687
  306TMC3    C3 4656   1.600   4.680  14.736 -0.3618  0.5006  0.7971
  306TMC3    C4 4657   1.448   0.123  14.608  0.0513  0.5457  0.2523
  306TMC3    C5 4658   1.474   0.148  14.736  0.4700  0.6246  0.5534
  306TMC3    C6 4659   1.543   0.057  14.809 -0.0225  0.5028 -0.9873
  306TMC3     C 4660   1.467   4.733  14.410 -0.4702 -0.6656  0.3435
  306TMC3     O 4661   1.439   4.621  14.370  0.2274 -0.6368  0.2727
  306TMC3     H 4662   1.609   4.567  14.544 -0.3566 -0.2115  0.3721
  306TMC3    H1 4663   1.389   0.200  14.560  0.4541 -0.7327 -2.2978
  306TMC3    H2 4664   1.554   0.069  14.916 -1.9914 -0.4789 -0.6622
  306TMC3    C7 4665   1.396   0.248  14.802  0.1082  0.5580 -0.2990
  306TMC3    C8 4666   1.665   4.574  14.806  0.5831 -0.3406 -0.3292
  306TMC3    O1 4667   1.289   0.274  14.750 -0.3155  0.2568 -0.3197
  306TMC3    O2 4668   1.665   4.464  14.754 -0.1298  0.6767  0.1792
  307MPD2     C 4669   4.384   3.313   0.837  0.4361  0.7528 -0.2231
  307MPD2    C1 4670   4.284   3.406   0.850  0.0132 -0.2911 -0.1929
  307MPD2    C2 4671   4.200   3.418   0.953  0.3141  0.1810 -0.4954
  307MPD2    C3 4672   4.200   3.316   1.046 -0.1168 -0.0799  0.7556
  307MPD2    C4 4673   4.290   3.210   1.036  0.2950  0.4685  0.3658
  307MPD2    C5 4674   4.381   3.204   0.932 -0.3410 -0.2462  0.1906
  307MPD2     H 4675   4.124   3.495   0.960 -0.3387 -0.5634  0.6900
  307MPD2    H1 4676   4.289   3.125   1.103 -2.5722 -0.7759 -1.2441
  307MPD2    H2 4677   4.459   3.323   0.760  1.1220 -0.2736  0.2958
  307MPD2    H3 4678   4.454   3.124   0.932  0.1752  0.2212 -1.3613
  307MPD2     N 4679   4.103   3.297   1.148 -0.0100 -0.2942 -0.3828
  307MPD2    H5 4680   4.102   3.206   1.193  0.0307 -0.5028 -0.8018
  307MPD2    N1 4681   4.264   3.515   0.759  0.0737 -0.2515  0.2560
  307MPD2    H7 4682   4.198   3.587   0.786  0.4110 -0.2904  1.1700
  308TMC3    C1 4683   3.693   3.268   1.241  0.0827  0.8375 -0.0977
  308TMC3    C2 4684   3.643   3.381   1.310  0.6660  0.8810 -0.3193
  308TMC3    C3 4685   3.732   3.462   1.376  0.0611  0.6434  0.2469
  308TMC3    C4 4686   3.830   3.248   1.235  0.0902 -0.3747  0.3229
  308TMC3    C5 4687   3.917   3.345   1.285  0.1823  0.2074  1.1153
  308TMC3    C6 4688   3.868   3.446   1.362 -0.1244  0.4842  0.5461
  308TMC3     C 4689   3.601   3.171   1.184  0.4226  0.3474 -0.8063
  308TMC3     O 4690   3.653   3.058   1.170 -0.1383 -0.0825  0.4619
  308TMC3     H 4691   3.539   3.392   1.339  0.1338 -1.9841 -1.1491
  308TMC3    H1 4692   3.881   3.174   1.174 -1.7025 -0.5070 -1.0001
  308TMC3    H2 4693   3.931   3.525   1.402  0.9256 -1.2372  2.3100
  308TMC3    C7 4694   4.017   3.391   1.195  0.5252  0.1187  0.1651
  308TMC3    C8 4695   3.686   3.603   1.393 -0.7557 -0.1943  0.0618
  308TMC3    O1 4696   4.021   3.514   1.181 -0.3413  0.8476 -0.2023
  308TMC3    O2 4697   3.751   3.678   1.462  0.5127 -0.1230 -0.2629
  309MPD2     C 4698   3.458   3.808  17.386  0.1434  0.1561  0.2774
  309MPD2    C1 4699   3.381   3.805  17.272 -0.6565 -0.2522  0.6094
  309MPD2    C2 4700   3.247   3.796  17.291 -0.4883 -0.5760 -0.6617
  309MPD2    C3 4701   3.186   3.789  17.416  0.1281  0.1787 -0.3387
  309MPD2    C4 4702   3.272   3.789  17.526  0.7000 -0.0105  0.4924
  309MPD2    C5 4703   3.405   3.806  17.515  0.2863 -0.4886  0.0081
  309MPD2     H 4704   3.182   3.785  17.205 -0.6001  1.2367 -0.8039
  309MPD2    H1 4705   3.227   3.780  17.624  0.6949 -1.2309  0.3724
  309MPD2    H2 4706   3.561   3.840  17.379 -0.2363  0.8385 -2.0796
  309MPD2    H3 4707   3.466   3.801  17.605  0.7435 -0.4845 -0.3032
  309MPD2     N 4708   3.045   3.773  17.435  0.7654  0.4342 -0.0930
  309MPD2    H5 4709   3.006   3.779  17.528  0.0021 -0.8294 -0.3306
  309MPD2    N1 4710   3.427   3.802  17.140 -0.1473 -0.1630  0.0459
  309MPD2    H7 4711   3.361   3.804  17.063  1.1762 -0.7227 -1.1079
  310TMC3    C1 4712   3.586   3.837  16.970 -0.1960 -0.0213  0.2080
  310TMC3    C2 4713   3.491   3.903  16.891 -0.0891 -0.7497  0.3650
  310TMC3    C3 4714   3.518   3.894  16.759  0.0848 -0.8047  0.3058
  310TMC3    C4 4715   3.692   3.768  16.916 -0.2203  0.3101  0.6236
  310TMC3    C5 4716   3.711   3.769  16.780  0.2823 -0.0643 -0.4512
  310TMC3    C6 4717   3.623   3.839  16.697  0.3951 -0.3953  0.1307
  310TMC3     C 4718   3.561   3.817  17.114  0.3788  0.6547 -0.3658
  310TMC3     O 4719   3.658   3.799  17.185 -0.2751 -0.1260  0.3357
  310TMC3     H 4720   3.422   3.973  16.938  1.2220  2.1320 -2.0243
  310TMC3    H1 4721   3.759   3.710  16.979 -0.9462 -1.1723  0.0511
  310TMC3    H2 4722   3.628   3.819  16.591  3.9287 -0.0646  0.2235
  310TMC3    C7 4723   3.808   3.676  16.722  0.2348 -0.4549  0.4500
  310TMC3    C8 4724   3.421   3.958  16.674  0.2468 -0.1885 -0.7514
  310TMC3    O1 4725   3.844   3.579  16.790 -0.4375 -0.9233 -0.1132
  310TMC3    O2 4726   3.305   3.970  16.711  0.0210  0.2657  0.2728
  311MPD2     C 4727   0.467   4.664  12.645 -0.3036 -0.3605 -0.0131
  311MPD2    C1 4728   0.505   0.017  12.747 -0.0536 -0.4035  0.6437
  311MPD2    C2 4729   0.440   0.019  12.874 -0.3348 -0.1939 -0.0570
  311MPD2    C3 4730   0.328   4.676  12.894 -0.2228  1.0055  0.2343
  311MPD2    C4 4731   0.290   4.591  12.794  0.7634  1.1898  0.3853
  311MPD2    C5 4732   0.355   4.585  12.670 -0.0758  0.1033 -0.6605
  311MPD2     H 4733   0.472   0.079  12.958 -1.5720 -1.8414  1.5820
  311MPD2    H1 4734   0.207   4.521  12.805  1.9754 -0.5204 -1.2190
  311MPD2    H2 4735   0.512   4.655  12.547 -2.9196  0.2323 -1.2702
  311MPD2    H3 4736   0.325   4.523  12.586 -1.9921 -1.0898  0.8938
  311MPD2     N 4737   0.271   4.675  13.023 -0.5663  0.4936 -0.3864
  311MPD2    H5 4738   0.316   0.002  13.091 -0.0566  0.2204 -0.4783
  311MPD2    N1 4739   0.619   0.095  12.737 -0.1579 -0.2255  0.6824
  311MPD2    H7 4740   0.652   0.148  12.817 -1.1033  1.8809 -0.3151
  312TMC3    C1 4741   0.106   4.655  13.194 -0.9983  0.0764 -0.2838
  312TMC3    C2 4742   4.711   4.626  13.224  0.0035 -0.1282 -0.5577
  312TMC3    C3 4743   4.673   4.622  13.351 -0.3054 -0.4790 -0.9050
  312TMC3    C4 4744   0.195   4.682  13.291 -0.1984 -0.1071  0.2324
  312TMC3    C5 4745   0.147   4.689  13.418  0.2133  0.1876  0.3385
  312TMC3    C6 4746   0.019   4.657  13.454 -0.1867  0.0175 -0.3237
  312TMC3     C 4747   0.154   4.611  13.061 -0.5143  0.1716  0.1422
  312TMC3     O 4748   0.088   4.525  13.006 -0.1105  0.3886  0.1539
  312TMC3     H 4749   4.640   4.583  13.154  0.9077 -2.3064 -0.1379
  312TMC3    H1 4750   0.301   4.690  13.268 -0.0539 -1.2509  0.4537
  312TMC3    H2 4751   4.724   4.640  13.558 -1.1850 -0.3572 -0.6639
  312TMC3    C7 4752   0.245   4.716  13.520 -0.0907 -0.2749  0.4977
  312TMC3    C8 4753   4.533   4.602  13.374  0.1292 -0.6674  0.1699
  312TMC3    O1 4754   0.334   0.052  13.481 -0.1398  0.2628  0.1755
  312TMC3    O2 4755   4.499   4.542  13.472 -0.0862  0.1666 -0.8606
  313MPD2     C 4756   4.233   4.137  11.908 -0.2920 -0.2665 -0.3930
  313MPD2    C1 4757   4.289   4.094  11.788  0.0232  0.5838  0.0693
  313MPD2    C2 4758   4.221   3.998  11.717 -0.5120 -0.0989  0.4847
  313MPD2    C3 4759   4.092   3.958  11.751  0.4965 -0.9211  0.0122
  313MPD2    C4 4760   4.042   3.994  11.874  1.0924 -0.2400  0.1949
  313MPD2    C5 4761   4.116   4.075  11.954 -0.2024 -0.4023  0.8687
  313MPD2     H 4762   4.262   3.965  11.623  0.6225  1.6837  0.3792
  313MPD2    H1 4763   3.943   3.957  11.897  0.2376  1.6652 -0.3716
  313MPD2    H2 4764   4.286   4.216  11.961  0.1430 -0.9858  0.2518
  313MPD2    H3 4765   4.064   4.112  12.041 -2.0378 -1.8050  0.3735
  313MPD2     N 4766   4.034   3.884  11.648 -0.7718  0.3199 -0.8331
  313MPD2    H5 4767   4.092   3.858  11.569  1.4241 -1.3040  1.3240
  313MPD2    N1 4768   4.405   4.140  11.723  0.4276  0.1980  0.9597
  313MPD2    H7 4769   4.435   4.086  11.642 -1.4522  1.0945 -0.3234
  314TMC3    C1 4770   4.567   4.291  11.650 -0.2827 -0.4985  0.8521
  314TMC3    C2 4771   4.634   4.412  11.661  0.5312 -0.0187  0.1579
  314TMC3    C3 4772   4.641   4.496  11.550 -0.0495 -0.2764  0.0944
  314TMC3    C4 4773   4.509   4.261  11.528 -0.0610 -0.6651  0.3595
  314TMC3    C5 4774   4.519   4.350  11.426 -0.1678 -0.1637 -0.2883
  314TMC3    C6 4775   4.591   4.460  11.432 -0.2460 -0.3058 -0.6611
  314TMC3     C 4776   4.486   4.242  11.758 -0.6554 -0.0994  0.7227
  314TMC3     O 4777   4.476   4.313  11.859 -0.1803 -0.3509 -0.1370
  314TMC3     H 4778   4.659   4.443  11.761 -3.2457  0.8310  0.8590
  314TMC3    H1 4779   4.457   4.172  11.495  2.6975 -2.2264  0.1616
  314TMC3    H2 4780   4.582   4.539  11.358  2.5347  1.4543  0.9050
  314TMC3    C7 4781   4.488   4.299  11.296 -0.3354 -0.6231  0.1199
  314TMC3    C8 4782   0.032   4.576  11.534  0.0431  0.0257  0.1586
  314TMC3    O1 4783   4.390   4.230  11.280 -0.0919 -0.5209 -0.0093
  314TMC3    O2 4784   0.061   4.581  11.416 -0.5283 -0.1264  0.0922
  315MPD2     C 4785   4.154   3.155   0.352 -0.1103 -0.1941  0.8784
  315MPD2    C1 4786   4.260   3.148   0.442  0.0431  0.6854 -0.1212
  315MPD2    C2 4787   4.361   3.241   0.441  0.2759 -0.4047 -0.3724
  315MPD2    C3 4788   4.364   3.340   0.347  0.1396 -0.0354 -0.6202
  315MPD2    C4 4789   4.262   3.344   0.258 -0.4667 -0.3640 -0.0014
  315MPD2    C5 4790   4.162   3.253   0.262 -0.7653  0.2289  0.4020
  315MPD2     H 4791   4.444   3.219   0.507 -2.2079 -1.0290  2.5323
  315MPD2    H1 4792   4.256   3.419   0.179  1.2810 -1.0820 -0.8123
  315MPD2    H2 4793   4.073   3.085   0.340 -0.4611  0.2716  0.5097
  315MPD2    H3 4794   4.077   3.255   0.195  0.1385 -2.7594 -0.8164
  315MPD2     N 4795   4.480   3.418   0.337 -0.4120  0.5035  0.0879
  315MPD2    H5 4796   4.547   3.401   0.411 -1.6831 -0.2441  1.0700
  315MPD2    N1 4797   4.289   3.042   0.532  0.5161  0.3606 -0.2529
  315MPD2    H7 4798   4.370   3.044   0.593  0.0312 -0.1260  0.4047
  316TMC3    C1 4799   4.651   3.560   0.255 -0.3774 -0.2023 -0.1959
  316TMC3    C2 4800   4.723   3.532   0.364  0.0604 -0.8366 -0.4069
  316TMC3    C3 4801   0.102   3.608   0.377 -0.0123  0.0615  0.4694
  316TMC3    C4 4802   4.685   3.648   0.157  0.0040 -0.3781 -0.6484
  316TMC3    C5 4803   0.070   3.709   0.164 -0.3877  0.0928 -0.2174
  316TMC3    C6 4804   0.146   3.691   0.276 -0.1881  0.4580 -0.3035
  316TMC3     C 4805   4.515   3.496   0.232 -0.2921 -0.1979  0.5961
  316TMC3     O 4806   4.452   3.533   0.133 -0.1966  0.0066 -0.0569
  316TMC3     H 4807   4.688   3.478   0.452 -0.3548  0.4663  0.2229
  316TMC3    H1 4808   4.609   3.680   0.087  0.9044 -0.1012 -1.5015
  316TMC3    H2 4809   0.242   3.741   0.280  0.3976 -0.7493  0.8539
  316TMC3    C7 4810   0.085   3.841   0.099  0.0951  0.0164  0.1438
  316TMC3    C8 4811   0.201   3.573   0.466  0.0095 -0.5994  0.2204
  316TMC3    O1 4812   0.159   3.926   0.145 -0.5097  0.6351  0.3877
  316TMC3    O2 4813   0.277   3.663   0.502 -0.2645 -0.0609  0.4648
  317MPD2     C 4814   1.443   1.886  13.341  0.3418  0.5242 -0.6989
  317MPD2    C1 4815   1.433   1.753  13.313 -0.2128  0.7075  0.6466
  317MPD2    C2 4816   1.500   1.670  13.398 -0.4001  0.2590 -0.9321
  317MPD2    C3 4817   1.545   1.713  13.519 -0.0884  0.1435 -0.0929
  317MPD2    C4 4818   1.547   1.846  13.560 -0.1096  0.1267  1.2358
  317MPD2    C5 4819   1.492   1.936  13.463  0.0280 -0.2989 -0.7239
  317MPD2     H 4820   1.488   1.564  13.377 -1.6218  0.1325  0.4339
  317MPD2    H1 4821   1.582   1.882  13.656  0.2688 -0.9122  1.4824
  317MPD2    H2 4822   1.397   1.962  13.278 -1.9555 -1.2568 -1.1319
  317MPD2    H3 4823   1.496   2.044  13.474  0.1964 -0.5424  1.7098
  317MPD2     N 4824   1.578   1.609  13.607  0.1362 -0.0776  0.1929
  317MPD2    H5 4825   1.547   1.518  13.573  1.0508  0.0530 -1.0070
  317MPD2    N1 4826   1.361   1.699  13.201  0.5695 -0.9365 -0.3066
  317MPD2    H7 4827   1.365   1.598  13.189  1.9719 -1.0435  1.1268
  318TMC3    C1 4828   1.680   1.483  13.767 -0.2020 -0.2429  0.2511
  318TMC3    C2 4829   1.603   1.371  13.739 -0.2345 -0.0039  0.0444
  318TMC3    C3 4830   1.644   1.245  13.790 -0.0830 -0.1632  0.1289
  318TMC3    C4 4831   1.796   1.462  13.844 -0.5594 -1.1978  0.5701
  318TMC3    C5 4832   1.834   1.338  13.888  0.7500  0.0965 -0.7495
  318TMC3    C6 4833   1.757   1.228  13.864 -0.0074 -0.0698 -0.4587
  318TMC3     C 4834   1.642   1.615  13.729 -0.5369  0.6517  0.3664
  318TMC3     O 4835   1.713   1.708  13.770 -0.4628  0.1204  0.4207
  318TMC3     H 4836   1.502   1.385  13.702 -0.1037  2.2463  0.5566
  318TMC3    H1 4837   1.871   1.537  13.865 -1.4766 -0.8656  2.7020
  318TMC3    H2 4838   1.772   1.139  13.923  0.5873  0.3524  0.0358
  318TMC3    C7 4839   1.936   1.340  13.989 -0.4812  0.3450  0.2681
  318TMC3    C8 4840   1.567   1.126  13.760 -1.2509 -0.4347  0.4926
  318TMC3    O1 4841   1.961   1.449  14.049 -0.3822 -0.0933  0.3716
  318TMC3    O2 4842   1.591   1.021  13.815 -0.1960 -0.4318 -0.2541
  319MPD2     C 4843   2.963   3.007  16.610 -0.5017  0.2871 -0.2181
  319MPD2    C1 4844   2.843   2.979  16.672  0.9770 -0.7081  0.1107
  319MPD2    C2 4845   2.745   2.915  16.607  0.4747 -0.2731 -1.2826
  319MPD2    C3 4846   2.771   2.895  16.472  0.6814  0.9828 -0.5755
  319MPD2    C4 4847   2.875   2.935  16.402  0.0217  0.0978  0.4665
  319MPD2    C5 4848   2.980   2.983  16.476  0.0805  0.1515  0.2838
  319MPD2     H 4849   2.651   2.892  16.656  1.0600 -0.6602 -0.3469
  319MPD2    H1 4850   2.871   2.930  16.293  2.0158 -1.8166  0.4827
  319MPD2    H2 4851   3.048   3.055  16.657 -1.6877  0.9941  1.1987
  319MPD2    H3 4852   3.076   3.014  16.438 -0.4847  0.3095 -0.9991
  319MPD2     N 4853   2.676   2.830  16.390  0.0990  0.1919  0.5245
  319MPD2    H5 4854   2.675   2.848  16.290 -3.7600  0.1348  0.5332
  319MPD2    N1 4855   2.819   3.009  16.806 -0.2540  0.3103  0.5131
  319MPD2    H7 4856   2.742   2.955  16.845  1.5069 -1.1584  1.9435
  320TMC3    C1 4857   2.492   2.701  16.345 -0.4824  0.4297 -0.0215
  320TMC3    C2 4858   2.469   2.769  16.228 -0.0710 -0.0925  0.1495
  320TMC3    C3 4859   2.359   2.738  16.157 -0.4191  0.5443 -0.3537
  320TMC3    C4 4860   2.413   2.595  16.379  0.1058 -0.5049 -0.3524
  320TMC3    C5 4861   2.309   2.563  16.300  0.4695 -0.3909  0.6262
  320TMC3    C6 4862   2.273   2.633  16.190  0.9029 -0.1017 -0.4056
  320TMC3     C 4863   2.580   2.739  16.441  0.0009 -0.2690  0.1736
  320TMC3     O 4864   2.579   2.682  16.551  0.1974 -0.3137 -0.0987
  320TMC3     H 4865   2.530   2.852  16.195  1.7506 -1.7048 -0.4985
  320TMC3    H1 4866   2.445   2.524  16.454  0.1846  0.6461  0.6935
  320TMC3    H2 4867   2.177   2.613  16.143  0.8292  0.5742 -0.5376
  320TMC3    C7 4868   2.242   2.429  16.313 -0.1906 -0.6851  0.4304
  320TMC3    C8 4869   2.292   2.843  16.085 -0.4216 -0.3056 -0.6363
  320TMC3    O1 4870   2.177   2.392  16.222 -0.3301  0.1988 -0.4567
  320TMC3    O2 4871   2.189   2.887  16.133 -0.2349  0.5536  0.2221
  321TMC3    C1 4872   2.851   3.105  17.017  0.0535  0.4540  0.1154
  321TMC3    C2 4873   2.830   2.990  17.085 -0.5743 -0.9631 -0.3182
  321TMC3    C3 4874   2.792   3.005  17.216  0.2962 -0.5955 -0.1377
  321TMC3    C4 4875   2.852   3.227  17.076 -0.9727 -0.3417 -0.2325
  321TMC3    C5 4876   2.810   3.237  17.207 -0.0985  0.7619  0.6596
  321TMC3    C6 4877   2.762   3.128  17.272  0.4667 -0.3049  0.3297
  321TMC3     C 4878   2.903   3.090  16.885 -0.1287 -0.1974  0.2902
  321TMC3     O 4879   2.977   3.180  16.848  0.4767 -0.3968 -0.8433
  321TMC3     H 4880   2.826   2.893  17.038 -1.8102 -0.1746 -1.8334
  321TMC3    H1 4881   2.885   3.315  17.021 -0.4792  1.4940  3.0136
  321TMC3    H2 4882   2.722   3.136  17.372 -0.3547  0.9837 -0.0993
  321TMC3    C7 4883   2.901   3.313  17.288 -0.1364 -0.6221 -0.3118
  321TMC3    C8 4884   2.823   2.902  17.316  0.5882 -0.5447 -0.8876
  321TMC3    O1 4885   2.951   3.408  17.235 -0.7988  0.1759 -0.1384
  321TMC3    O2 4886   2.822   2.933  17.436  0.1863  0.0755 -0.4467
  322MPD2     C 4887   1.155   4.020  13.750  0.6376 -0.3264 -0.5625
  322MPD2    C1 4888   1.187   3.959  13.872  0.1384 -0.1203 -0.2209
  322MPD2    C2 4889   1.241   3.833  13.868  0.3658 -0.5403  0.2059
  322MPD2    C3 4890   1.247   3.757  13.752  0.2557 -0.2065  0.1282
  322MPD2    C4 4891   1.203   3.809  13.638 -0.0541  0.6834  0.6293
  322MPD2    C5 4892   1.165   3.941  13.638  0.0749 -0.2779  0.3196
  322MPD2     H 4893   1.288   3.796  13.958 -0.7941  0.5042  1.2430
  322MPD2    H1 4894   1.201   3.745  13.550 -2.5862 -1.0182  1.9229
  322MPD2    H2 4895   1.111   4.118  13.740  2.4205  0.5028 -0.2479
  322MPD2    H3 4896   1.125   3.974  13.543  1.5766 -0.3353 -0.3317
  322MPD2     N 4897   1.306   3.625  13.757  0.4852 -0.6241 -0.1117
  322MPD2    H5 4898   1.343   3.599  13.848  1.0338 -2.1458 -0.7860
  322MPD2    N1 4899   1.178   4.036  13.991  0.2352 -0.2792  0.6499
  322MPD2    H7 4900   1.178   4.136  13.978 -1.4781 -0.0266  2.5450
  323TMC3    C1 4901   1.222   4.101  14.208 -0.4286  0.1258 -0.4760
  323TMC3    C2 4902   1.335   4.173  14.189  0.9537 -0.4696  0.4137
  323TMC3    C3 4903   1.428   4.205  14.287  0.7453 -0.1562  0.2970
  323TMC3    C4 4904   1.212   4.055  14.340  0.5841  0.4494  0.0373
  323TMC3    C5 4905   1.302   4.094  14.439  0.1325 -0.1555 -0.3893
  323TMC3    C6 4906   1.413   4.172  14.417 -0.0699  0.4265 -0.4438
  323TMC3     C 4907   1.200   3.992  14.113  0.3222 -0.8471 -0.0979
  323TMC3     O 4908   1.177   3.882  14.158  0.1828  0.1672  0.1991
  323TMC3     H 4909   1.370   4.190  14.088 -0.8844 -1.0380 -0.3172
  323TMC3    H1 4910   1.136   3.980  14.357  0.1711  1.3075  1.9228
  323TMC3    H2 4911   1.498   4.186  14.483 -0.3202 -1.2210  0.2263
  323TMC3    C7 4912   1.286   4.034  14.570 -0.8496 -0.0065  0.2842
  323TMC3    C8 4913   1.559   4.223  14.242 -0.2465 -0.1302 -0.4670
  323TMC3    O1 4914   1.238   3.922  14.574  0.7531  0.5748  0.0884
  323TMC3    O2 4915   1.642   4.187  14.324  0.3712 -0.0461 -0.3783
  324MPD2     C 4916   3.447   0.285  14.388 -0.5928  0.2111  0.3592
  324MPD2    C1 4917   3.394   0.385  14.474  0.3453 -0.4031 -0.1616
  324MPD2    C2 4918   3.256   0.392  14.477 -0.5073 -0.8313 -0.0879
  324MPD2    C3 4919   3.177   0.299  14.404  0.0427 -0.0969 -0.2568
  324MPD2    C4 4920   3.234   0.198  14.331 -0.3503  0.4043  0.4026
  324MPD2    C5 4921   3.375   0.196  14.319  0.1471  0.2066 -0.2507
  324MPD2     H 4922   3.212   0.460  14.548 -0.4309  0.6869 -1.4994
  324MPD2    H1 4923   3.185   0.114  14.284  0.8089 -0.7022  1.1833
  324MPD2    H2 4924   3.552   0.261  14.398 -0.0651  2.0446 -0.9429
  324MPD2    H3 4925   3.422   0.114  14.266 -0.4399 -2.5247  3.4924
  324MPD2     N 4926   3.037   0.298  14.405  0.0549 -0.1224 -0.2640
  324MPD2    H5 4927   3.006   0.205  14.379 -0.1173  0.0255 -0.5869
  324MPD2    N1 4928   3.477   0.465  14.552  0.2348 -0.2668 -0.1566
  324MPD2    H7 4929   3.431   0.517  14.627 -1.1775 -0.6933 -0.7315
  325TMC3    C1 4930   2.807   0.377  14.441  0.4931  0.0227  0.0524
  325TMC3    C2 4931   2.759   0.251  14.435  0.0125 -0.1157 -0.2704
  325TMC3    C3 4932   2.623   0.228  14.412  0.1436  0.5107  0.2317
  325TMC3    C4 4933   2.729   0.489  14.429 -0.5218 -0.4215  0.5625
  325TMC3    C5 4934   2.596   0.464  14.396 -0.6280 -0.5354 -0.5619
  325TMC3    C6 4935   2.542   0.337  14.390 -0.2013 -0.0336  0.1011
  325TMC3     C 4936   2.952   0.406  14.445  0.1155 -0.3893 -0.3576
  325TMC3     O 4937   2.977   0.527  14.443  0.3049 -0.4918 -0.0038
  325TMC3     H 4938   2.824   0.163  14.442 -1.5979 -1.4164 -1.6441
  325TMC3    H1 4939   2.766   0.588  14.406 -1.5800  0.2025  1.5844
  325TMC3    H2 4940   2.437   0.332  14.363 -0.0995 -0.1665 -0.2600
  325TMC3    C7 4941   2.513   0.571  14.353 -0.3061 -0.0784 -0.3262
  325TMC3    C8 4942   2.586   0.089  14.376 -0.1297 -0.7673 -0.0485
  325TMC3    O1 4943   2.428   0.545  14.267  0.2933 -0.2686 -0.6259
  325TMC3    O2 4944   2.668   4.731  14.362  0.4523  0.2008 -0.3650
  326MPD2     C 4945   4.690   2.096  11.385  0.1479 -0.1444  0.5334
  326MPD2    C1 4946   4.623   2.135  11.266 -0.1333  0.4799  0.1950
  326MPD2    C2 4947   4.707   2.174  11.169  0.1139  0.0238 -0.3883
  326MPD2    C3 4948   0.111   2.183  11.180 -0.3208  1.0934 -0.3763
  326MPD2    C4 4949   0.169   2.130  11.293  0.1109 -0.0982 -0.1729
  326MPD2    C5 4950   0.088   2.083  11.391 -0.1906  0.3918 -0.0070
  326MPD2     H 4951   4.657   2.201  11.076  0.0800 -1.5794 -0.8399
  326MPD2    H1 4952   0.274   2.125  11.320 -0.0256  0.1561  0.3931
  326MPD2    H2 4953   4.638   2.082  11.480 -1.3757 -1.9179 -0.5670
  326MPD2    H3 4954   0.135   2.053  11.484  1.4946  0.6412 -0.7896
  326MPD2     N 4955   0.196   2.234  11.086 -0.1508 -0.1075  0.1049
  326MPD2    H5 4956   0.294   2.241  11.108  0.2125 -0.7591 -1.2476
  326MPD2    N1 4957   4.481   2.141  11.249  0.1321  0.0051 -0.6817
  326MPD2    H7 4958   4.449   2.173  11.158 -0.9963  0.9120  0.0282
  327TMC3    C1 4959   4.263   2.100  11.269 -0.3348  0.0252 -0.3371
  327TMC3    C2 4960   4.182   2.212  11.247  0.1366  0.4961  1.3357
  327TMC3    C3 4961   4.116   2.213  11.130  1.2813  0.8986  0.4519
  327TMC3    C4 4962   4.261   1.992  11.188 -0.1863 -0.3795 -0.3052
  327TMC3    C5 4963   4.188   1.995  11.071 -1.0213 -0.1053  0.8634
  327TMC3    C6 4964   4.111   2.104  11.043  0.4796  0.3663  0.4104
  327TMC3     C 4965   4.387   2.113  11.341 -0.4386 -0.4142  0.1593
  327TMC3     O 4966   4.389   2.070  11.453  0.3254  0.2713 -0.4980
  327TMC3     H 4967   4.187   2.294  11.317  0.9318  1.8440 -0.2850
  327TMC3    H1 4968   4.308   1.901  11.222 -2.5699 -0.9045  1.5888
  327TMC3    H2 4969   4.080   2.116  10.940 -0.8923 -1.4853  0.6215
  327TMC3    C7 4970   4.268   1.962  10.950 -0.1165  0.1355 -0.2727
  327TMC3    C8 4971   4.011   2.314  11.128  0.1660 -0.0865 -0.3456
  327TMC3    O1 4972   4.217   1.976  10.838 -0.2472 -0.1728  0.1837
  327TMC3    O2 4973   4.029   2.427  11.168  0.0553 -0.1177  0.4068
  328MPD2     C 4974   2.188   1.715   0.067 -0.0536 -0.6377 -0.0452
  328MPD2    C1 4975   2.100   1.622   0.041  0.0774 -0.1131  0.0681
  328MPD2    C2 4976   2.073   1.578  17.645 -0.0525 -0.2295  0.0086
  328MPD2    C3 4977   2.136   1.640  17.536 -0.8378 -0.3491  0.1985
  328MPD2    C4 4978   2.230   1.740  17.565  0.4455  0.3324  0.5952
  328MPD2    C5 4979   2.239   1.786  17.694 -0.7062  0.6303  0.4315
  328MPD2     H 4980   1.998   1.505  17.616  0.1455 -0.2656 -0.4039
  328MPD2    H1 4981   2.272   1.792  17.480 -1.1852  4.5530  2.3345
  328MPD2    H2 4982   2.210   1.752   0.166 -0.6225  0.1281 -0.2049
  328MPD2    H3 4983   2.293   1.878  17.714 -0.1741  0.3347  0.3459
  328MPD2     N 4984   2.097   1.611  17.399 -0.3566 -0.3721 -0.2928
  328MPD2    H5 4985   2.128   1.681  17.332 -3.3744  2.0852  0.8496
  328MPD2    N1 4986   2.035   1.567   0.155  0.2307  0.3140 -0.3758
  328MPD2    H7 4987   2.041   1.621   0.240 -1.1332  0.1524 -0.1690
  329TMC3    C1 4988   1.894   1.418   0.271  0.1019 -0.0863  0.1894
  329TMC3    C2 4989   1.920   1.465   0.394 -0.5289 -0.5753  0.9992
  329TMC3    C3 4990   1.821   1.455   0.487  0.1629 -0.2879  0.3171
  329TMC3    C4 4991   1.778   1.353   0.242 -0.1446  0.3134 -0.3030
  329TMC3    C5 4992   1.679   1.350   0.330  0.0100 -0.3867  0.0094
  329TMC3    C6 4993   1.705   1.397   0.454 -0.6261 -0.1070 -0.1504
  329TMC3     C 4994   1.973   1.445   0.154  0.2084 -0.1322 -0.2440
  329TMC3     O 4995   1.973   1.367   0.060 -0.4881 -0.0436 -0.1108
  329TMC3     H 4996   2.013   1.518   0.407 -1.0822  1.2268 -2.2401
  329TMC3    H1 4997   1.751   1.332   0.139  0.4451 -2.3063  0.0671
  329TMC3    H2 4998   1.637   1.391   0.538 -0.3249  2.9836  0.3098
  329TMC3    C7 4999   1.550   1.368   0.272  0.1561 -0.0654 -0.1304
  329TMC3    C8 5000   1.810   1.562   0.591 -0.4092  0.4669  0.3222
  329TMC3    O1 5001   1.498   1.260   0.242  0.6681 -0.2016 -0.2837
  329TMC3    O2 5002   1.917   1.607   0.625 -0.2434 -0.0151 -0.2525
  330TMC3    C1 5003   0.135   0.855  10.047 -0.0221 -0.0869 -0.4378
  330TMC3    C2 5004   0.054   0.770   9.972  0.0564 -0.1771  0.3858
  330TMC3    C3 5005   0.087   0.637   9.983 -0.2777  0.3098 -0.3761
  330TMC3    C4 5006   0.242   0.814  10.121 -0.1163  0.0574  0.5151
  330TMC3    C5 5007   0.254   0.684  10.138  0.2726 -0.0160 -0.4478
  330TMC3    C6 5008   0.179   0.588  10.064 -0.1688  0.0444 -0.3604
  330TMC3     C 5009   0.136   1.001  10.032  0.1336 -0.3365  0.3228
  330TMC3     O 5010   0.206   1.071  10.105 -0.2117 -0.1769  0.2972
  330TMC3     H 5011   4.718   0.804   9.897 -0.2380  0.8923  1.1496
  330TMC3    H1 5012   0.301   0.879  10.183  1.2647 -0.4772 -0.2482
  330TMC3    H2 5013   0.201   0.483  10.072 -0.0811 -0.0640 -2.0191
  330TMC3    C7 5014   0.356   0.641  10.228 -0.4788  0.1046  0.2069
  330TMC3    C8 5015   4.722   0.554   9.921  0.5285  0.4321  0.9532
  330TMC3    O1 5016   0.392   0.729  10.306 -0.5978 -0.1903  0.0001
  330TMC3    O2 5017   4.666   0.597   9.817  0.5521 -0.0111 -0.0509
  331MPD2     C 5018   2.961   0.242  12.959  0.7535  0.1053 -0.5201
  331MPD2    C1 5019   2.833   0.199  12.926  0.7947  0.4927  0.4969
  331MPD2    C2 5020   2.787   0.082  12.979 -0.0331 -0.4252 -0.3485
  331MPD2    C3 5021   2.867   4.733  13.056 -0.0570 -0.0136 -0.5858
  331MPD2    C4 5022   2.996   0.047  13.083 -0.2945 -0.5206  0.2087
  331MPD2    C5 5023   3.042   0.159  13.032  0.3800  0.1257 -0.0023
  331MPD2     H 5024   2.686   0.052  12.951 -1.0740 -0.4812  3.4639
  331MPD2    H1 5025   3.073   4.719  13.128  1.5175 -0.4430 -2.7623
  331MPD2    H2 5026   2.998   0.333  12.915 -3.1640  2.0567  0.1907
  331MPD2    H3 5027   3.148   0.182  13.033  0.0544  1.6541 -1.4556
  331MPD2     N 5028   2.824   4.601  13.086  0.1863 -0.3377  0.0271
  331MPD2    H5 5029   2.733   4.573  13.051 -0.5210  1.1326  0.7275
  331MPD2    N1 5030   2.755   0.273  12.837  0.7024  0.0680  0.3108
  331MPD2    H7 5031   2.808   0.343  12.786 -0.4190 -0.5382 -1.6713
  332TMC3    C1 5032   2.827   4.374  13.149  0.2590  0.4716 -0.2201
  332TMC3    C2 5033   2.727   4.353  13.048 -0.3154  0.2601  0.2758
  332TMC3    C3 5034   2.697   4.228  13.010  0.5255  0.3452  0.0925
  332TMC3    C4 5035   2.885   4.268  13.214 -0.5794 -0.2571 -0.4940
  332TMC3    C5 5036   2.834   4.140  13.183 -0.5212  0.3365  0.0037
  332TMC3    C6 5037   2.742   4.120  13.082  0.2761  0.2633 -0.1610
  332TMC3     C 5038   2.893   4.504  13.154 -0.9431 -0.1476 -0.3755
  332TMC3     O 5039   2.991   4.526  13.223  0.1396  0.3775 -0.0398
  332TMC3     H 5040   2.680   4.428  12.985 -2.6021 -0.7098  0.8491
  332TMC3    H1 5041   2.972   4.278  13.279 -0.7964 -0.6893 -0.1380
  332TMC3    H2 5042   2.717   4.020  13.050  1.7259 -0.2814  0.3997
  332TMC3    C7 5043   2.889   4.027  13.248 -0.4289 -0.3367 -0.1561
  332TMC3    C8 5044   2.645   4.205  12.873  0.3991  0.8139  0.4546
  332TMC3    O1 5045   2.816   3.933  13.265 -0.3751  0.2011  0.3446
  332TMC3    O2 5046   2.633   4.304  12.797 -0.1775 -0.5301 -0.5025
  333MPD2     C 5047   3.286   4.191  11.690 -0.3295 -0.2006 -0.1115
  333MPD2    C1 5048   3.231   4.184  11.565 -0.0846 -0.3616  0.1984
  333MPD2    C2 5049   3.130   4.097  11.540  0.6565 -0.0339 -0.0989
  333MPD2    C3 5050   3.083   4.016  11.642  0.0012  0.9696  0.2676
  333MPD2    C4 5051   3.130   4.034  11.775 -0.0251 -0.2643 -0.6283
  333MPD2    C5 5052   3.230   4.126  11.795  0.0893  0.2263 -0.7991
  333MPD2     H 5053   3.086   4.093  11.441 -0.9240  1.2672  0.5429
  333MPD2    H1 5054   3.116   3.977  11.866  1.0346  0.5336  0.0358
  333MPD2    H2 5055   3.373   4.250  11.716 -1.5678  1.8120 -0.5016
  333MPD2    H3 5056   3.265   4.143  11.896  1.3437  0.8256 -1.3351
  333MPD2     N 5057   3.010   3.904  11.598  0.2197 -0.5359 -0.1310
  333MPD2    H5 5058   2.977   3.893  11.503  1.5657 -1.6973 -0.4651
  333MPD2    N1 5059   3.289   4.260  11.462 -0.1514 -0.0148 -0.6523
  333MPD2    H7 5060   3.369   4.317  11.483 -0.9661  0.1367  1.9753
  334TMC3    C1 5061   3.351   4.343  11.262  0.0322  0.1810  0.0845
  334TMC3    C2 5062   3.481   4.308  11.276  0.0490 -0.1655 -0.2387
  334TMC3    C3 5063   3.564   4.397  11.209  0.2029  0.0252 -0.1761
  334TMC3    C4 5064   3.298   4.443  11.189  0.1126 -0.3312  0.1793
  334TMC3    C5 5065   3.392   4.514  11.115  0.1624  0.1209  0.0704
  334TMC3    C6 5066   3.527   4.501  11.129  0.0150 -0.0245 -0.1542
  334TMC3     C 5067   3.249   4.269  11.329 -0.4830 -0.1338  0.7136
  334TMC3     O 5068   3.146   4.246  11.276  0.2607 -0.7731  0.4150
  334TMC3     H 5069   3.516   4.227  11.339 -0.6855 -0.6050 -0.3874
  334TMC3    H1 5070   3.193   4.467  11.188 -0.0502 -1.2004 -2.8927
  334TMC3    H2 5071   3.592   4.566  11.072 -0.1250  0.7202  0.5362
  334TMC3    C7 5072   3.356   4.659  11.106 -1.1960  0.0117  0.8156
  334TMC3    C8 5073   3.703   4.378  11.240 -0.6915 -0.3744  0.2979
  334TMC3    O1 5074   3.444   0.007  11.132  0.5327  0.4132  0.1815
  334TMC3    O2 5075   3.724   4.302  11.335 -1.0860  0.6000  0.4333
  335TMC3    C1 5076   2.595   1.649  17.734  0.0862 -0.0802 -0.8574
  335TMC3    C2 5077   2.521   1.602  17.630 -0.5741 -0.0484  0.5669
  335TMC3    C3 5078   2.562   1.625  17.502  0.2232  0.2765 -0.6524
  335TMC3    C4 5079   2.704   1.727  17.726 -0.4996 -0.0370 -0.4383
  335TMC3    C5 5080   2.741   1.752  17.596 -0.3824  0.7478 -0.4252
  335TMC3    C6 5081   2.675   1.707  17.487  0.2127 -0.4793 -0.0082
  335TMC3     C 5082   2.549   1.618   0.134  0.0544  0.0842 -0.5007
  335TMC3     O 5083   2.570   1.704   0.220  0.2171  0.3736 -0.0093
  335TMC3     H 5084   2.424   1.556  17.644 -1.4662  1.3831 -0.8935
  335TMC3    H1 5085   2.759   1.751   0.080 -0.0594 -0.3022 -0.6414
  335TMC3    H2 5086   2.708   1.723  17.385  1.1842 -0.1659  0.3629
  335TMC3    C7 5087   2.871   1.798  17.561 -0.0981  0.3682 -0.6404
  335TMC3    C8 5088   2.492   1.587  17.384  0.0705 -0.0643 -0.4663
  335TMC3    O1 5089   2.917   1.783  17.449  0.0606 -0.0819 -0.0605
  335TMC3    O2 5090   2.503   1.655  17.287  0.2838  0.4513  0.2457
  336MPD2     C 5091   2.570   4.076  16.386 -0.4480  0.7733 -0.8278
  336MPD2    C1 5092   2.528   4.015  16.268 -0.4727  0.1198 -0.1233
  336MPD2    C2 5093   2.542   3.879  16.249  0.4395 -0.5071  0.5426
  336MPD2    C3 5094   2.599   3.806  16.353  0.2831  0.5346 -0.1954
  336MPD2    C4 5095   2.645   3.865  16.473 -0.5640  0.0194 -0.5632
  336MPD2    C5 5096   2.629   4.001  16.488 -0.6128 -0.1902  0.5841
  336MPD2     H 5097   2.504   3.822  16.165  3.2005 -0.5631 -0.6534
  336MPD2    H1 5098   2.704   3.805  16.542  1.0801  1.6750 -0.5188
  336MPD2    H2 5099   2.565   4.183  16.402 -1.0006  0.8878 -1.7826
  336MPD2    H3 5100   2.660   4.044  16.582  2.3783 -4.0658  1.4045
  336MPD2     N 5101   2.632   3.666  16.348 -0.1419 -0.9499 -0.3113
  336MPD2    H5 5102   2.689   3.624  16.421 -0.1153 -0.8211 -0.2585
  336MPD2    N1 5103   2.460   4.084  16.169  0.2912  0.6562 -0.0690
  336MPD2    H7 5104   2.430   4.030  16.087  1.4006 -3.3891  2.1703
  337TMC3    C1 5105   2.396   4.275  16.038 -0.1354  0.3634  0.3743
  337TMC3    C2 5106   2.296   4.198  15.972  0.2595  0.5792 -0.2746
  337TMC3    C3 5107   2.182   4.261  15.918  0.0056  0.6181  0.0535
  337TMC3    C4 5108   2.375   4.410  16.050 -0.6274  0.2559  0.5282
  337TMC3    C5 5109   2.260   4.466  16.009 -0.8009 -0.2588  0.6821
  337TMC3    C6 5110   2.169   4.395  15.934  0.3869  0.0545  0.2574
  337TMC3     C 5111   2.470   4.221  16.157 -0.0082  0.9285 -0.1598
  337TMC3     O 5112   2.535   4.304  16.219 -0.1268  0.4409  0.5506
  337TMC3     H 5113   2.300   4.090  15.980 -0.2717  0.5201 -0.8351
  337TMC3    H1 5114   2.434   4.476  16.113  2.3264 -0.8800 -1.0434
  337TMC3    H2 5115   2.072   4.442  15.923  0.5036  0.3316  0.3960
  337TMC3    C7 5116   2.210   4.580  16.086 -0.1500  0.1482 -0.4563
  337TMC3    C8 5117   2.060   4.175  15.932 -0.4871 -0.4245 -0.0325
  337TMC3    O1 5118   2.092   4.592  16.092 -0.2881 -0.6018  0.9250
  337TMC3    O2 5119   2.076   4.067  15.975  0.3051 -0.8225  0.1198
  338MPD2     C 5120   2.532   3.878   1.013  0.7686  0.9346  0.3396
  338MPD2    C1 5121   2.509   3.819   0.889  0.7537 -0.3755 -0.0882
  338MPD2    C2 5122   2.390   3.848   0.812  0.5578  0.2117  0.9138
  338MPD2    C3 5123   2.306   3.951   0.871 -0.7563 -0.8563  0.0244
  338MPD2    C4 5124   2.337   4.014   0.993  0.3878 -0.1386 -0.0725
  338MPD2    C5 5125   2.446   3.972   1.069  0.4785  0.2285  0.5209
  338MPD2     H 5126   2.383   3.816   0.709 -1.9236 -1.8634  1.7324
  338MPD2    H1 5127   2.267   4.083   1.038  0.1662  0.9301 -2.0692
  338MPD2    H2 5128   2.621   3.858   1.071  0.0671  0.1628  1.1511
  338MPD2    H3 5129   2.470   4.009   1.168  0.2989  0.4050  0.4990
  338MPD2     N 5130   2.185   3.971   0.800  0.2984  0.2589  0.1752
  338MPD2    H5 5131   2.170   3.929   0.709  1.7373 -1.4766  0.7546
  338MPD2    N1 5132   2.597   3.727   0.834 -0.0511 -0.4977  0.0847
  338MPD2    H7 5133   2.568   3.686   0.746  0.2545  0.7746 -0.6053
  339TMC3    C1 5134   1.971   4.023   0.750 -0.2004 -0.2871  0.3447
  339TMC3    C2 5135   1.882   3.929   0.789 -0.7756 -0.0578  0.0296
  339TMC3    C3 5136   1.848   3.825   0.708  0.2534 -0.1984  0.0839
  339TMC3    C4 5137   2.012   4.030   0.619 -0.2913  0.1563  0.0594
  339TMC3    C5 5138   1.967   3.934   0.534  0.3260 -0.0523 -0.5473
  339TMC3    C6 5139   1.890   3.827   0.573  0.2445 -0.7130  0.0042
  339TMC3     C 5140   2.074   4.045   0.843  0.3632  0.0356  0.3185
  339TMC3     O 5141   2.042   4.075   0.958 -0.1833 -1.0668 -0.5758
  339TMC3     H 5142   1.881   3.915   0.897  2.0848  0.1400  0.0654
  339TMC3    H1 5143   2.075   4.113   0.590  0.5907 -0.3351  0.5843
  339TMC3    H2 5144   1.850   3.747   0.511 -1.5560  0.0030  0.2315
  339TMC3    C7 5145   2.064   3.925   0.423  0.9282 -0.1589 -0.5770
  339TMC3    C8 5146   1.759   3.724   0.749 -0.1659 -0.4695  0.2057
  339TMC3    O1 5147   2.114   4.031   0.382 -0.5955  0.0116  0.0588
  339TMC3    O2 5148   1.731   3.635   0.670 -0.0053 -0.3382 -0.0976
  340MPD2     C 5149   2.366   1.311  10.392  0.4516  0.7073 -0.6524
  340MPD2    C1 5150   2.375   1.207  10.474 -0.1398  0.1054  0.0700
  340MPD2    C2 5151   2.375   1.232  10.614  0.7955 -0.0100 -0.4877
  340MPD2    C3 5152   2.367   1.362  10.658  0.1922 -0.5087 -0.0038
  340MPD2    C4 5153   2.345   1.460  10.569  0.3667 -0.2643  0.7633
  340MPD2    C5 5154   2.338   1.437  10.437 -0.4393  0.6921 -0.2649
  340MPD2     H 5155   2.393   1.149  10.680  0.2860  1.0206  0.9537
  340MPD2    H1 5156   2.336   1.566  10.592 -1.6699 -0.6938  1.9067
  340MPD2    H2 5157   2.376   1.297  10.285 -0.3718  0.6654 -0.7256
  340MPD2    H3 5158   2.331   1.522  10.370  0.2466 -1.3327 -2.8945
  340MPD2     N 5159   2.388   1.399  10.793 -0.7289 -0.0245 -0.0871
  340MPD2    H5 5160   2.390   1.495  10.826  0.3839 -0.0790 -0.0117
  340MPD2    N1 5161   2.402   1.081  10.420  0.0129 -0.5294  0.0198
  340MPD2    H7 5162   2.407   1.078  10.318 -0.9650 -1.0990 -0.0070
  341TMC3    C1 5163   2.483   0.869  10.401 -0.4455  0.3300 -0.1259
  341TMC3    C2 5164   2.470   0.736  10.448  0.8024 -0.1413 -0.4795
  341TMC3    C3 5165   2.521   0.641  10.369  0.5218  0.4820  0.9421
  341TMC3    C4 5166   2.552   0.901  10.289 -0.0332 -0.1549 -0.0384
  341TMC3    C5 5167   2.590   0.799  10.210  0.5354  0.0411 -0.6707
  341TMC3    C6 5168   2.578   0.674  10.250 -0.2783  0.1256 -0.5415
  341TMC3     C 5169   2.437   0.971  10.490 -0.3090  0.4187 -0.0519
  341TMC3     O 5170   2.448   0.949  10.611 -0.7211  0.4947 -0.6798
  341TMC3     H 5171   2.427   0.715  10.546 -1.6954 -1.3512 -1.8072
  341TMC3    H1 5172   2.585   1.003  10.278 -0.1378 -0.4599 -3.1921
  341TMC3    H2 5173   2.619   0.594  10.189  0.5687  0.1490 -0.0019
  341TMC3    C7 5174   2.649   0.832  10.080 -0.5844 -0.0690  0.5763
  341TMC3    C8 5175   2.497   0.509  10.393 -0.4326 -0.8335 -0.0682
  341TMC3    O1 5176   2.713   0.741  10.035 -0.1711  0.2787 -0.3502
  341TMC3    O2 5177   2.500   0.436  10.295 -0.0568  0.1626  0.2267
  342MPD2     C 5178   0.641   4.177  17.597  0.2980 -0.0380  0.1088
  342MPD2    C1 5179   0.708   4.196  17.477  0.6080  0.3480  0.2589
  342MPD2    C2 5180   0.749   4.325  17.450  0.3219  0.1688  0.2470
  342MPD2    C3 5181   0.719   4.432  17.530  0.0707 -0.0005 -0.5212
  342MPD2    C4 5182   0.638   4.412  17.642  0.4263  0.4358  0.1888
  342MPD2    C5 5183   0.595   4.282  17.673  0.1344 -0.0285 -0.3651
  342MPD2     H 5184   0.817   4.323  17.365  1.0294 -1.8979  0.8578
  342MPD2    H1 5185   0.618   4.489  17.716 -0.4562  0.4641 -0.0804
  342MPD2    H2 5186   0.628   4.077  17.637  2.7084 -0.6813 -0.7207
  342MPD2    H3 5187   0.537   4.263   0.027 -0.0060  0.9601 -0.2428
  342MPD2     N 5188   0.765   4.569  17.516  0.0230  0.9424  0.6116
  342MPD2    H5 5189   0.738   4.637  17.587 -1.9787 -0.0580  0.8205
  342MPD2    N1 5190   0.746   4.087  17.392  0.0803  0.4699 -0.5189
  342MPD2    H7 5191   0.778   4.109  17.299  0.3098 -2.0597 -1.0150
  343TMC3    C1 5192   0.799   3.872  17.314 -0.0508  0.2441 -0.4585
  343TMC3    C2 5193   0.920   3.892  17.274 -0.1902  0.1139  0.5100
  343TMC3    C3 5194   0.995   3.783  17.227 -0.2121 -0.1899  0.6439
  343TMC3    C4 5195   0.737   3.751  17.305  0.0937 -0.1786 -0.5368
  343TMC3    C5 5196   0.811   3.641  17.277 -0.7753  0.4888 -0.5967
  343TMC3    C6 5197   0.943   3.661  17.234  0.3478  0.6075 -0.1623
  343TMC3     C 5198   0.738   3.954  17.425  0.9065 -0.8144  0.0373
  343TMC3     O 5199   0.711   3.898  17.533 -0.6135  0.1518 -0.5038
  343TMC3     H 5200   0.969   3.988  17.263  0.9924 -0.6196 -0.6008
  343TMC3    H1 5201   0.639   3.758  17.350 -0.7243  0.0362 -2.3176
  343TMC3    H2 5202   0.996   3.568  17.215 -1.0956 -0.4111  0.8155
  343TMC3    C7 5203   0.788   3.540  17.378  0.1580 -0.5314  0.6840
  343TMC3    C8 5204   1.141   3.804  17.201 -0.1057 -0.6940  0.1115
  343TMC3    O1 5205   0.877   3.514  17.457 -0.5583  0.0496 -0.0990
  343TMC3    O2 5206   1.194   3.909  17.228 -0.4084  0.2814  0.2023
  344MPD2     C 5207   1.810   4.222  11.177 -0.0613  0.3080  0.1710
  344MPD2    C1 5208   1.802   4.189  11.040  0.7260 -0.5060  0.7581
  344MPD2    C2 5209   1.858   4.270  10.947  0.1279  0.6879  0.6580
  344MPD2    C3 5210   1.920   4.389  10.990  0.2882  0.7635  0.1606
  344MPD2    C4 5211   1.926   4.416  11.127  0.2055 -0.1166  0.0567
  344MPD2    C5 5212   1.870   4.334  11.219 -0.0715  0.2927  0.5655
  344MPD2     H 5213   1.853   4.245  10.842 -2.7860  0.6427  0.8152
  344MPD2    H1 5214   1.958   4.511  11.168 -0.0660  0.3658 -0.8569
  344MPD2    H2 5215   1.761   4.171  11.260  1.6127 -2.2697 -0.4021
  344MPD2    H3 5216   1.875   4.359  11.324  1.4623  0.6897  0.4066
  344MPD2     N 5217   1.970   4.484  10.901  0.1890 -0.7202  0.9798
  344MPD2    H5 5218   1.999   4.572  10.942 -0.9824 -1.7853  4.0403
  344MPD2    N1 5219   1.733   4.077  10.990  0.0504  0.2079 -0.6055
  344MPD2    H7 5220   1.694   4.081  10.896 -0.6983 -1.1040 -0.3423
  345TMC3    C1 5221   1.982   4.632  10.722 -0.1390 -0.1872 -0.8813
  345TMC3    C2 5222   2.052   4.716  10.800 -0.2244  0.1939  0.2947
  345TMC3    C3 5223   2.093   0.100  10.746 -0.2476  0.3306 -0.5100
  345TMC3    C4 5224   1.954   4.662  10.591  0.1051  0.0988  0.0494
  345TMC3    C5 5225   2.000   0.046  10.536  0.1991  0.6424  0.1258
  345TMC3    C6 5226   2.076   0.133  10.615  0.1249  0.3820 -0.5028
  345TMC3     C 5227   1.939   4.501  10.770 -0.7990 -0.1225 -0.9714
  345TMC3     O 5228   1.876   4.423  10.696  0.3998 -0.1340  0.1005
  345TMC3     H 5229   2.051   4.701  10.907  0.7232 -1.0932  0.1241
  345TMC3    H1 5230   1.887   4.597  10.536  0.9585 -0.5725 -0.2037
  345TMC3    H2 5231   2.138   0.207  10.566  1.7735  1.4882  3.2047
  345TMC3    C7 5232   1.966   0.094  10.403  0.0917 -0.0725 -0.1458
  345TMC3    C8 5233   2.135   0.202  10.838 -0.2654 -0.4158 -0.5833
  345TMC3    O1 5234   2.013   0.207  10.373 -0.8546 -0.0898 -0.3182
  345TMC3    O2 5235   2.156   0.169  10.955  0.0248 -0.1507 -0.0968
  346MPD2     C 5236   1.414   1.115  14.778  0.0725  0.0692  1.4776
  346MPD2    C1 5237   1.484   1.016  14.710  0.2563 -0.3322 -0.7521
  346MPD2    C2 5238   1.604   0.974  14.766  0.7957  0.1081 -1.0755
  346MPD2    C3 5239   1.657   1.024  14.883 -0.4602  0.1898  0.8421
  346MPD2    C4 5240   1.580   1.118  14.949 -0.0691  0.0113  0.0532
  346MPD2    C5 5241   1.461   1.164  14.896  0.3562  0.0609 -0.1740
  346MPD2     H 5242   1.668   0.895  14.727  1.7620  0.4923 -0.2715
  346MPD2    H1 5243   1.614   1.163  15.041  1.0984  0.4687 -0.6137
  346MPD2    H2 5244   1.328   1.165  14.736  0.8535  0.7381  0.6654
  346MPD2    H3 5245   1.396   1.227  14.955 -0.2535  1.8210 -2.7090
  346MPD2     N 5246   1.788   0.995  14.926  0.2491  0.0048  0.3316
  346MPD2    H5 5247   1.836   0.946  14.851  1.2369 -0.9196  1.5596
  346MPD2    N1 5248   1.433   0.960  14.590 -0.4990  0.5540 -0.1634
  346MPD2    H7 5249   1.507   0.911  14.541 -1.3937 -0.4037 -0.5555
  347TMC3    C1 5250   1.997   1.000  15.047  0.0310 -0.0061  0.4898
  347TMC3    C2 5251   2.063   0.957  14.937  0.6967 -0.2249  0.2204
  347TMC3    C3 5252   2.198   0.972  14.933  0.1696  0.3532  0.0220
  347TMC3    C4 5253   2.058   1.046  15.162 -0.4258 -0.4171 -0.1306
  347TMC3    C5 5254   2.194   1.066  15.153  0.0248  0.6307 -0.2812
  347TMC3    C6 5255   2.268   1.020  15.049 -0.5132 -0.6088 -0.2448
  347TMC3     C 5256   1.851   1.023  15.044 -0.6522  0.3254 -0.3908
  347TMC3     O 5257   1.800   1.066  15.149 -0.4537  0.3871  0.0278
  347TMC3     H 5258   2.017   0.911  14.850 -0.3026 -1.7706  1.5652
  347TMC3    H1 5259   2.004   1.075  15.252 -0.7396  0.7284 -0.6821
  347TMC3    H2 5260   2.376   1.017  15.055 -0.5192 -0.7083 -0.1916
  347TMC3    C7 5261   2.263   1.118  15.268 -0.7828 -0.5343  0.2809
  347TMC3    C8 5262   2.268   0.912  14.824 -0.7281  0.5152  0.4616
  347TMC3    O1 5263   2.188   1.121  15.367 -0.0179  0.4216 -0.2686
  347TMC3    O2 5264   2.381   0.881  14.854 -0.4009 -0.2187 -0.1659
  348MPD2     C 5265   0.850   0.847  12.135  0.0715  0.3448  0.0826
  348MPD2    C1 5266   0.836   0.791  12.013 -0.0926 -0.1601 -0.8562
  348MPD2    C2 5267   0.783   0.868  11.914 -0.3874 -0.2121  0.2966
  348MPD2    C3 5268   0.746   1.001  11.947 -0.1210 -0.2779 -0.4865
  348MPD2    C4 5269   0.759   1.056  12.069  0.1959  0.0073  0.3196
  348MPD2    C5 5270   0.817   0.976  12.165  0.0423 -0.1408  0.5720
  348MPD2     H 5271   0.767   0.831  11.813  1.4527  1.6347 -0.6702
  348MPD2    H1 5272   0.732   1.160  12.082 -3.0495 -0.9138  1.0047
  348MPD2    H2 5273   0.897   0.797  12.219  1.9844  3.1152  0.6543
  348MPD2    H3 5274   0.826   1.021  12.263  3.4287 -1.1986  0.7395
  348MPD2     N 5275   0.708   1.078  11.834 -0.1141  0.1593  0.2476
  348MPD2    H5 5276   0.705   1.038  11.741  2.4456 -0.7690  0.5549
  348MPD2    N1 5277   0.886   0.665  11.972  0.1365  0.1543  0.0980
  348MPD2    H7 5278   0.873   0.638  11.876 -1.3599  1.9391 -0.2002
  349TMC3    C1 5279   0.949   0.431  11.998 -0.4855  0.1831  0.0588
  349TMC3    C2 5280   0.975   0.325  12.084 -0.2137  0.1806  0.2315
  349TMC3    C3 5281   0.977   0.198  12.036  0.4376 -0.4875  0.5472
  349TMC3    C4 5282   0.921   0.408  11.868 -0.1435  0.6702 -0.4731
  349TMC3    C5 5283   0.924   0.276  11.824  0.7138  0.1184  0.8352
  349TMC3    C6 5284   0.952   0.168  11.905  0.4031 -0.6224  1.0847
  349TMC3     C 5285   0.937   0.566  12.058  0.3134 -0.0628  0.5548
  349TMC3     O 5286   0.937   0.568  12.180  0.3710  0.6860  0.2015
  349TMC3     H 5287   0.981   0.337  12.192 -0.2654 -0.2858  0.2834
  349TMC3    H1 5288   0.889   0.486  11.800  0.6596  0.2717 -1.2984
  349TMC3    H2 5289   0.947   0.065  11.871  2.1070  0.7308 -3.2646
  349TMC3    C7 5290   0.827   0.246  11.723 -0.6336  0.2835 -0.2869
  349TMC3    C8 5291   0.947   0.101  12.134  0.6973  0.0968  0.9024
  349TMC3    O1 5292   0.740   0.167  11.757 -0.0236 -0.4895  0.2804
  349TMC3    O2 5293   0.883   0.134  12.234  0.4129 -0.1609 -0.3378
  350MPD2     C 5294   4.114   3.563  10.702 -0.3449 -0.2845 -0.3916
  350MPD2    C1 5295   4.048   3.462  10.757  0.0338  0.7017 -0.4170
  350MPD2    C2 5296   4.010   3.466  10.891  0.6403 -0.4746  0.0942
  350MPD2    C3 5297   4.038   3.581  10.967  0.9737  0.1130 -0.6182
  350MPD2    C4 5298   4.107   3.683  10.911  1.0550 -0.6416 -0.4886
  350MPD2    C5 5299   4.145   3.673  10.779 -0.6183  0.2108  0.3578
  350MPD2     H 5300   3.960   3.378  10.931  1.2633 -0.8243  0.0983
  350MPD2    H1 5301   4.118   3.775  10.968 -0.4558  0.0153 -1.2577
  350MPD2    H2 5302   4.134   3.565  10.596  0.3127 -1.6525 -0.2832
  350MPD2    H3 5303   4.198   3.758  10.738 -1.4532 -0.3664 -1.8841
  350MPD2     N 5304   3.990   3.580  11.094 -0.7856  0.4468  0.2213
  350MPD2    H5 5305   3.950   3.493  11.130 -1.0723 -0.6232 -2.6723
  350MPD2    N1 5306   4.002   3.349  10.682 -0.4415  0.6700 -0.0951
  350MPD2    H7 5307   3.950   3.278  10.732 -0.2919  0.7820  0.2198
  351TMC3    C1 5308   3.929   3.246  10.479  0.5417  0.6903 -0.0970
  351TMC3    C2 5309   3.964   3.189  10.362  0.2830  0.2933  0.0923
  351TMC3    C3 5310   3.867   3.116  10.296  0.3732 -0.0780 -0.0674
  351TMC3    C4 5311   3.804   3.241  10.528 -0.6085 -1.1704  0.3259
  351TMC3    C5 5312   3.716   3.147  10.467 -0.7376  0.2081 -1.1610
  351TMC3    C6 5313   3.748   3.083  10.351  0.4005 -0.2928 -0.3862
  351TMC3     C 5314   4.026   3.325  10.544  0.1113 -0.5815 -0.3163
  351TMC3     O 5315   4.127   3.349  10.476  0.0459 -0.3735  0.3493
  351TMC3     H 5316   4.063   3.205  10.321  0.5404 -1.4536  0.0137
  351TMC3    H1 5317   3.780   3.293  10.620 -0.9617  3.3646 -2.3171
  351TMC3    H2 5318   3.673   3.029  10.293  0.2173  0.0968 -0.5101
  351TMC3    C7 5319   3.640   3.063  10.558  0.1786  0.0171  0.7251
  351TMC3    C8 5320   3.921   3.014  10.201 -0.3507 -0.8192 -0.8089
  351TMC3    O1 5321   3.579   3.120  10.649 -0.4727  0.1068 -0.1778
  351TMC3    O2 5322   3.857   2.908  10.179  0.0826 -0.4697  0.1916
  352MPD2     C 5323   2.826   1.029   1.004  0.3383 -0.0336 -0.4300
  352MPD2    C1 5324   2.736   0.949   0.930 -0.2453  0.1884 -0.1860
  352MPD2    C2 5325   2.791   0.871   0.830 -0.7730 -0.5264  0.1470
  352MPD2    C3 5326   2.929   0.864   0.813 -0.6711  0.3343 -0.5167
  352MPD2    C4 5327   3.012   0.940   0.891  0.3406 -0.1652 -0.1133
  352MPD2    C5 5328   2.962   1.022   0.990 -0.0996  0.1056  0.2448
  352MPD2     H 5329   2.726   0.818   0.761 -2.7504  0.4574  1.2389
  352MPD2    H1 5330   3.118   0.944   0.867  0.2891  0.5912 -0.2037
  352MPD2    H2 5331   2.783   1.084   1.086 -1.5515 -1.5495 -0.4175
  352MPD2    H3 5332   3.028   1.085   1.048 -0.1391 -1.1206  1.6269
  352MPD2     N 5333   2.997   0.792   0.709  0.4119  0.6326  0.4712
  352MPD2    H5 5334   3.097   0.805   0.698  0.4142  1.4747  1.5663
  352MPD2    N1 5335   2.595   0.964   0.957 -0.1694 -0.2427  0.2044
  352MPD2    H7 5336   2.569   1.018   1.039 -1.7571 -1.1562  0.3001
  353TMC3    C1 5337   3.008   0.653   0.504  0.3406 -0.1750 -0.0050
  353TMC3    C2 5338   3.145   0.643   0.516  0.1779 -0.3595  0.0917
  353TMC3    C3 5339   3.197   0.526   0.471 -0.0876  0.0857  0.7937
  353TMC3    C4 5340   2.929   0.559   0.434 -0.0460 -0.4873 -0.7075
  353TMC3    C5 5341   2.990   0.446   0.402 -0.3158 -0.2722  0.4845
  353TMC3    C6 5342   3.121   0.419   0.423 -0.1592 -0.1534 -0.5966
  353TMC3     C 5343   2.930   0.721   0.612  0.5310  0.6186  0.3335
  353TMC3     O 5344   2.814   0.679   0.617  0.2679  0.7659  0.0506
  353TMC3     H 5345   3.199   0.695   0.595 -0.3876 -0.1127  0.3224
  353TMC3    H1 5346   2.823   0.580   0.424  0.2773  1.2079 -0.5891
  353TMC3    H2 5347   3.167   0.330   0.380 -0.7957 -1.3118  1.1500
  353TMC3    C7 5348   2.903   0.339   0.386  0.0710 -0.3893  0.6464
  353TMC3    C8 5349   3.332   0.497   0.511 -1.2372 -0.1506  0.1602
  353TMC3    O1 5350   2.917   0.248   0.464 -0.7718  0.4252 -0.0481
  353TMC3    O2 5351   3.408   0.594   0.499 -0.3053 -0.7456 -0.0425
  354TMC3    C1 5352   3.975   1.876  13.467  0.0312 -0.3193  0.4681
  354TMC3    C2 5353   4.099   1.943  13.465  0.2946  0.3518  0.2443
  354TMC3    C3 5354   4.133   2.009  13.356 -0.2764 -0.5277  0.9682
  354TMC3    C4 5355   3.889   1.889  13.360  0.0553  0.2332  0.1726
  354TMC3    C5 5356   3.935   1.950  13.251  0.2405 -0.2158 -0.3023
  354TMC3    C6 5357   4.055   2.013  13.245  0.7623  0.0115  0.7755
  354TMC3     C 5358   3.937   1.787  13.576 -0.2084 -0.5399 -0.2850
  354TMC3     O 5359   3.853   1.702  13.551  0.2153  0.3751  0.3003
  354TMC3     H 5360   4.165   1.952  13.551  0.1077  0.4420  0.3786
  354TMC3    H1 5361   3.801   1.826  13.350 -0.9753  2.1081 -2.5369
  354TMC3    H2 5362   4.084   2.079  13.164 -1.1264 -1.0023 -0.7246
  354TMC3    C7 5363   3.863   1.926  13.122  0.0389 -0.2421  0.5931
  354TMC3    C8 5364   4.250   2.105  13.368 -0.1284 -0.5374  0.3293
  354TMC3    O1 5365   3.747   1.884  13.125 -0.2825  0.2866  0.5796
  354TMC3    O2 5366   4.291   2.132  13.478 -0.2595  0.1328 -0.4187
  355MPD2     C 5367   4.399   2.650  11.545 -0.7216  0.2225  0.7020
  355MPD2    C1 5368   4.386   2.790  11.554 -0.0601  1.1089 -0.7324
  355MPD2    C2 5369   4.464   2.855  11.659  0.4430 -0.1504 -0.4839
  355MPD2    C3 5370   4.545   2.784  11.748  0.2547  0.3658  0.6377
  355MPD2    C4 5371   4.556   2.644  11.731  0.1249 -0.6526 -0.5360
  355MPD2    C5 5372   4.481   2.586  11.633 -0.1148  0.6257 -0.2190
  355MPD2     H 5373   4.440   2.960  11.677  1.5097  0.2104 -1.2134
  355MPD2    H1 5374   4.632   2.581  11.777 -1.0288 -1.2982  0.4929
  355MPD2    H2 5375   4.373   2.600  11.452  0.8392 -0.4249  0.6017
  355MPD2    H3 5376   4.495   2.480  11.616  1.9111  1.2287 -2.2504
  355MPD2     N 5377   4.619   2.854  11.844  0.1351  0.2214 -0.2096
  355MPD2    H5 5378   4.701   2.808  11.882  0.8985  1.3868 -0.4638
  355MPD2    N1 5379   4.309   2.857  11.456 -0.3860  0.2446 -0.4899
  355MPD2    H7 5380   4.248   2.795  11.404  2.7032 -3.3785  0.2470
  356TMC3    C1 5381   4.724   3.040  11.918 -0.6526  0.0638 -1.0216
  356TMC3    C2 5382   0.060   3.127  11.835 -0.5297 -1.1923 -0.1842
  356TMC3    C3 5383   0.186   3.163  11.863 -0.2299  0.0271  0.1773
  356TMC3    C4 5384   0.043   2.990  12.028 -0.0137  0.2786  0.1672
  356TMC3    C5 5385   0.172   3.036  12.057 -0.2733 -0.7560 -0.1096
  356TMC3    C6 5386   0.246   3.118  11.972  0.1551  0.2656 -0.1236
  356TMC3     C 5387   4.602   2.991  11.863  0.1300 -0.6295  0.0482
  356TMC3     O 5388   4.510   3.072  11.863  0.6698 -0.0801  0.4563
  356TMC3     H 5389   0.007   3.174  11.753  2.3216  0.8023 -0.8874
  356TMC3    H1 5390   4.727   2.913  12.085  2.4503 -1.0333  0.5542
  356TMC3    H2 5391   0.349   3.145  11.994 -0.0871 -0.2114  1.5883
  356TMC3    C7 5392   0.206   3.033  12.199  0.0151 -0.2592 -0.4416
  356TMC3    C8 5393   0.248   3.249  11.767  0.5500 -0.2225  0.3292
  356TMC3    O1 5394   0.186   2.925  12.254 -0.5024  0.2467  0.1857
  356TMC3    O2 5395   0.206   3.238  11.651  0.0546 -0.6812 -0.6317
  357MPD2     C 5396   3.764   1.868   1.766 -0.1322  0.6418  0.6406
  357MPD2    C1 5397   3.782   1.757   1.678  0.4668 -0.5024 -0.4158
  357MPD2    C2 5398   3.684   1.659   1.677 -0.8964  1.4444  0.2162
  357MPD2    C3 5399   3.573   1.657   1.761  1.0053  0.1415 -0.3612
  357MPD2    C4 5400   3.565   1.757   1.850 -0.1684 -0.1876  0.3565
  357MPD2    C5 5401   3.656   1.869   1.847  0.6998  0.4579  0.0154
  357MPD2     H 5402   3.694   1.582   1.602  0.4591  1.6220  0.2144
  357MPD2    H1 5403   3.482   1.760   1.920 -1.4174 -2.9249 -1.0129
  357MPD2    H2 5404   3.832   1.951   1.762  1.7333 -0.8684  0.9292
  357MPD2    H3 5405   3.630   1.953   1.910 -2.8555 -0.6048 -0.0386
  357MPD2     N 5406   3.477   1.558   1.762  0.1306  0.3375  0.4839
  357MPD2    H5 5407   3.404   1.567   1.831  1.7723  0.0071  2.2577
  357MPD2    N1 5408   3.899   1.752   1.604 -0.2242 -0.0169 -0.2278
  357MPD2    H7 5409   3.964   1.830   1.605 -0.7994  0.4877 -2.9689
  358TMC3    C1 5410   4.060   1.674   1.443 -0.7436 -0.8661  0.5113
  358TMC3    C2 5411   4.053   1.650   1.311  0.6865 -0.4799 -0.4155
  358TMC3    C3 5412   4.170   1.669   1.240  0.4836  0.6278  0.2432
  358TMC3    C4 5413   4.170   1.706   1.517  0.2665  0.2628  0.6253
  358TMC3    C5 5414   4.285   1.722   1.440  0.1391  0.3290  0.3716
  358TMC3    C6 5415   4.288   1.705   1.307 -0.2919  0.0744 -1.0423
  358TMC3     C 5416   3.931   1.657   1.505 -0.1860  0.4111  0.6257
  358TMC3     O 5417   3.866   1.558   1.471  0.1052 -0.5602  0.3721
  358TMC3     H 5418   3.962   1.615   1.262  1.2760  0.9865 -2.5794
  358TMC3    H1 5419   4.157   1.719   1.624  1.4676 -1.1805  0.9373
  358TMC3    H2 5420   4.383   1.713   1.255  0.4368  1.9355  0.5433
  358TMC3    C7 5421   4.416   1.735   1.506  0.1993  0.6235  0.4734
  358TMC3    C8 5422   4.182   1.693   1.101  0.3818 -0.3158  0.2077
  358TMC3    O1 5423   4.407   1.755   1.622  0.1508 -0.2123 -0.5070
  358TMC3    O2 5424   4.272   1.758   1.045 -0.8696  0.0397  0.2331
  359MPD2     C 5425   0.144   1.379  12.717  0.1285  0.2271 -0.0282
  359MPD2    C1 5426   0.133   1.372  12.582 -0.5229  0.0291  0.4221
  359MPD2    C2 5427   0.041   1.292  12.523 -1.0707  0.1302  0.2173
  359MPD2    C3 5428   4.683   1.222  12.603  0.6350 -0.0416  0.0915
  359MPD2    C4 5429   4.690   1.238  12.741  0.4973  0.2239 -0.2154
  359MPD2    C5 5430   0.058   1.312  12.794 -0.0007  0.5468  0.3449
  359MPD2     H 5431   0.050   1.276  12.416  0.2552  0.3210  0.3027
  359MPD2    H1 5432   4.623   1.193  12.812  0.0307 -1.3962 -1.6907
  359MPD2    H2 5433   0.219   1.441  12.764 -0.3826  0.2760  0.7193
  359MPD2    H3 5434   0.076   1.320  12.901  1.1383 -2.4389  0.3701
  359MPD2     N 5435   4.592   1.131  12.553  0.1013 -0.7988  0.4518
  359MPD2    H5 5436   4.538   1.076  12.619  0.1191 -2.1752 -0.6716
  359MPD2    N1 5437   0.240   1.423  12.506  0.3012  0.0972 -0.5004
  359MPD2    H7 5438   0.321   1.460  12.555  0.3081  0.5141 -0.8272
  360TMC3    C1 5439   0.353   1.527  12.325 -0.4745  0.9874  0.0310
  360TMC3    C2 5440   0.469   1.513  12.385 -0.3188  0.3703  0.1588
  360TMC3    C3 5441   0.584   1.490  12.306 -0.0400 -0.1798  0.6968
  360TMC3    C4 5442   0.352   1.536  12.189 -0.2231  0.2031  0.4172
  360TMC3    C5 5443   0.466   1.528  12.113 -0.3995 -0.8599  0.0235
  360TMC3    C6 5444   0.587   1.513  12.165 -0.1873 -0.3494 -0.1715
  360TMC3     C 5445   0.232   1.460  12.373 -0.5748  0.5326 -0.2280
  360TMC3     O 5446   0.129   1.456  12.303 -0.0065  0.2444 -0.0626
  360TMC3     H 5447   0.477   1.499  12.492 -1.3482  0.2599  0.2191
  360TMC3    H1 5448   0.258   1.543  12.136 -1.0665  1.6710  2.0808
  360TMC3    H2 5449   0.681   1.499  12.114  0.1778  0.0056  0.4094
  360TMC3    C7 5450   0.467   1.520  11.973 -0.4064 -0.1089  0.2698
  360TMC3    C8 5451   0.708   1.435  12.374  0.3865  0.1926 -0.0346
  360TMC3    O1 5452   0.551   1.583  11.912 -0.0282 -0.1797 -0.2926
  360TMC3    O2 5453   0.701   1.444  12.496 -0.1655 -0.0733  0.6407
  361MPD2     C 5454   1.728   0.060  16.340  0.5862 -0.4822  0.0431
  361MPD2    C1 5455   1.741   0.111  16.468  0.3073  0.1970  0.8824
  361MPD2    C2 5456   1.830   0.046  16.553  0.1365  0.8458  0.4220
  361MPD2    C3 5457   1.908   4.675  16.512  0.0645  0.3422  0.1149
  361MPD2    C4 5458   1.895   4.629  16.386 -0.1729  0.0996  0.3853
  361MPD2    C5 5459   1.804   4.690  16.298  0.0219  0.2823  0.4212
  361MPD2     H 5460   1.851   0.101  16.644  0.0654 -2.0536  2.1882
  361MPD2    H1 5461   1.943   4.539  16.348  1.0388 -0.0053  2.1819
  361MPD2    H2 5462   1.676   0.107  16.258 -0.6647 -2.8004 -0.5010
  361MPD2    H3 5463   1.788   4.673  16.192  2.3364 -0.5186  0.1779
  361MPD2     N 5464   2.006   4.615  16.593  0.0019 -0.6065  0.2097
  361MPD2    H5 5465   2.083   4.567  16.547 -1.6719 -1.6388 -1.5196
  361MPD2    N1 5466   1.675   0.222  16.521  0.0481  0.5448 -0.3945
  361MPD2    H7 5467   1.706   0.268  16.605  1.6858  1.1459 -1.3288
  362TMC3    C1 5468   1.509   0.383  16.516 -0.7299 -0.2074  0.1651
  362TMC3    C2 5469   1.506   0.394  16.656 -0.8869  0.0221 -0.4212
  362TMC3    C3 5470   1.417   0.487  16.700  0.2127  0.1461  0.4176
  362TMC3    C4 5471   1.418   0.449  16.432  0.1651  0.2939  0.1515
  362TMC3    C5 5472   1.334   0.541  16.498 -0.1109 -0.1358 -0.0449
  362TMC3    C6 5473   1.330   0.560  16.633 -0.1924 -0.2417  0.7541
  362TMC3     C 5474   1.561   0.264  16.459 -0.3225  0.8872 -0.3204
  362TMC3     O 5475   1.507   0.227  16.355 -0.3085 -0.1741  0.0261
  362TMC3     H 5476   1.574   0.347  16.726  0.0466  1.2487 -0.5006
  362TMC3    H1 5477   1.439   0.455  16.326 -1.3441  0.1405 -0.1620
  362TMC3    H2 5478   1.266   0.636  16.675  0.8638  1.7612 -1.2031
  362TMC3    C7 5479   1.237   0.632  16.430 -0.3207  0.1561  0.0813
  362TMC3    C8 5480   1.422   0.519  16.843  1.1227 -0.1810 -1.1136
  362TMC3    O1 5481   1.180   0.721  16.494 -0.5066 -0.6127 -0.0521
  362TMC3    O2 5482   1.534   0.542  16.886 -0.0209  0.0442 -0.5761
  363TMC3    C1 5483   0.073   1.909   9.406 -0.6972 -0.3076 -0.0645
  363TMC3    C2 5484   0.163   2.009   9.429 -0.7881  0.5678 -0.4674
  363TMC3    C3 5485   0.113   2.135   9.453  0.1190  0.2962 -0.2681
  363TMC3    C4 5486   4.672   1.938   9.388 -0.0324  0.1896  0.8439
  363TMC3    C5 5487   4.629   2.061   9.410  0.5452  0.2477  0.2015
  363TMC3    C6 5488   4.711   2.157   9.460 -0.7429 -0.7388 -0.2334
  363TMC3     C 5489   0.119   1.777   9.359  0.2164 -0.8741  0.2983
  363TMC3     O 5490   0.029   1.722   9.299  0.2134 -0.0564  0.6348
  363TMC3     H 5491   0.270   2.002   9.416 -1.0585 -2.0438 -1.2512
  363TMC3    H1 5492   4.598   1.861   9.375  0.5407 -0.3920  1.0381
  363TMC3    H2 5493   4.671   2.249   9.502 -0.6748 -0.6036 -0.4680
  363TMC3    C7 5494   4.502   2.108   9.362  0.2919 -0.1310 -0.0820
  363TMC3    C8 5495   0.191   2.231   9.530 -0.4416  0.4019 -0.8951
  363TMC3    O1 5496   4.480   2.225   9.383 -0.3058 -0.5884  0.1359
  363TMC3    O2 5497   0.158   2.345   9.529 -0.4110 -0.5640 -0.2339
  364MPD2     C 5498   3.529   2.459  11.027 -0.1887  0.0472 -0.1234
  364MPD2    C1 5499   3.639   2.521  11.081 -0.5040 -0.1066 -0.6867
  364MPD2    C2 5500   3.755   2.453  11.106  0.0799 -0.1242  0.2452
  364MPD2    C3 5501   3.774   2.328  11.058 -0.8165  0.0861  0.2334
  364MPD2    C4 5502   3.670   2.268  11.006  0.0706  0.1738 -0.1580
  364MPD2    C5 5503   3.550   2.331  10.983 -0.3695 -0.0272 -0.4772
  364MPD2     H 5504   3.829   2.508  11.162 -0.4782 -1.1693  2.0253
  364MPD2    H1 5505   3.688   2.168  10.969 -0.1674 -0.7805  2.2851
  364MPD2    H2 5506   3.440   2.512  10.994  0.4790 -1.3617 -4.1290
  364MPD2    H3 5507   3.465   2.280  10.940 -0.0447 -0.6577 -0.3594
  364MPD2     N 5508   3.903   2.258  11.068  0.2706  0.6086 -0.5455
  364MPD2    H5 5509   3.905   2.162  11.036  1.4036 -0.3526  2.4692
  364MPD2    N1 5510   3.646   2.662  11.082  0.0089  0.4425  0.2338
  364MPD2    H7 5511   3.576   2.704  11.022 -0.4696 -2.0280 -0.9305
  365TMC3    C1 5512   3.709   2.884  11.122  0.1726 -0.0062  0.6685
  365TMC3    C2 5513   3.707   2.911  10.982 -0.2251 -1.0772  0.2859
  365TMC3    C3 5514   3.756   3.031  10.943  0.8931  0.6266  0.0734
  365TMC3    C4 5515   3.759   2.968  11.214  0.1786  0.8223 -0.4077
  365TMC3    C5 5516   3.810   3.087  11.167 -1.5522  0.4157  0.7144
  365TMC3    C6 5517   3.812   3.116  11.032 -0.1338 -0.4673  0.3016
  365TMC3     C 5518   3.720   2.745  11.163 -0.2277 -0.3664 -0.0542
  365TMC3     O 5519   3.792   2.718  11.260 -1.0960  0.3932 -0.0358
  365TMC3     H 5520   3.652   2.845  10.915 -1.5584 -0.4866  0.7883
  365TMC3    H1 5521   3.756   2.945  11.320 -1.3900  3.0014  0.0095
  365TMC3    H2 5522   3.840   3.214  10.995  1.0430 -0.2904  1.6330
  365TMC3    C7 5523   3.851   3.194  11.259 -1.1445  0.4828 -0.3202
  365TMC3    C8 5524   3.849   3.026  10.835  0.3529  0.6776 -0.6633
  365TMC3    O1 5525   3.874   3.305  11.216  0.2626  0.0937  0.3283
  365TMC3    O2 5526   3.898   3.128  10.791 -0.2839 -0.1194  0.4610
  366MPD2     C 5527   1.948   3.305  15.758 -0.0716  0.0197 -0.1100
  366MPD2    C1 5528   1.978   3.361  15.632 -0.7604 -0.3177 -0.5732
  366MPD2    C2 5529   2.036   3.278  15.541  0.1844  0.5620  0.0471
  366MPD2    C3 5530   2.072   3.148  15.569  0.4461  0.4354 -0.4736
  366MPD2    C4 5531   2.044   3.097  15.691 -0.1438  0.5391  0.5075
  366MPD2    C5 5532   1.984   3.178  15.785  0.2295 -1.0783 -0.2968
  366MPD2     H 5533   2.047   3.314  15.440 -0.1449  1.9024  0.4810
  366MPD2    H1 5534   2.070   2.996  15.721 -1.1394  0.5892  1.5686
  366MPD2    H2 5535   1.895   3.362  15.833  3.4096  1.0203  1.6022
  366MPD2    H3 5536   1.968   3.135  15.883  0.6414 -0.7221 -0.0738
  366MPD2     N 5537   2.134   3.068  15.470 -0.0951 -0.4175  0.2177
  366MPD2    H5 5538   2.162   3.111  15.382 -0.6496 -0.8674 -0.1749
  366MPD2    N1 5539   1.955   3.496  15.599 -0.3410  0.2891  0.2950
  366MPD2    H7 5540   1.986   3.536  15.511  2.6836  0.0749  1.2615
  367TMC3    C1 5541   1.925   3.725  15.632  0.4094  0.1296 -1.2155
  367TMC3    C2 5542   2.058   3.758  15.639  0.3192  0.5205 -0.9420
  367TMC3    C3 5543   2.091   3.888  15.624  0.0354 -0.2187  0.2014
  367TMC3    C4 5544   1.827   3.821  15.609  0.9509 -0.0885  0.3049
  367TMC3    C5 5545   1.867   3.947  15.573  0.4573 -0.7590  0.1867
  367TMC3    C6 5546   1.999   3.987  15.589  0.7168 -0.9710 -0.1040
  367TMC3     C 5547   1.900   3.593  15.682  0.6628 -0.6519 -0.7805
  367TMC3     O 5548   1.840   3.588  15.787  0.0378 -0.0563 -0.4543
  367TMC3     H 5549   2.123   3.676  15.667  0.1130  0.2211 -1.3405
  367TMC3    H1 5550   1.724   3.790  15.601  0.8831  0.2524 -0.1474
  367TMC3    H2 5551   2.020   4.092  15.572 -1.3970 -0.4622  0.3565
  367TMC3    C7 5552   1.761   4.036  15.551 -1.1542  0.1925 -0.7679
  367TMC3    C8 5553   2.230   3.916  15.655 -0.8030 -0.5454  1.0501
  367TMC3    O1 5554   1.784   4.156  15.572 -0.5336 -0.2517 -0.5279
  367TMC3    O2 5555   2.295   3.822  15.709 -0.2199  0.3774 -0.1094
  368MPD2     C 5556   3.513   0.260  13.413 -0.4895  0.3042 -0.4905
  368MPD2    C1 5557   3.449   0.307  13.296  0.0902  0.0074  0.5620
  368MPD2    C2 5558   3.511   0.278  13.176 -0.8162 -0.6767 -0.5267
  368MPD2    C3 5559   3.634   0.215  13.177  0.7418  0.1735 -1.0697
  368MPD2    C4 5560   3.687   0.169  13.296  0.2601  0.1296  0.4059
  368MPD2    C5 5561   3.630   0.193  13.419 -0.1541 -1.0377 -0.2975
  368MPD2     H 5562   3.465   0.324  13.090 -2.0713 -2.4874 -0.8317
  368MPD2    H1 5563   3.783   0.119  13.301  0.5206  0.6351  0.3770
  368MPD2    H2 5564   3.474   0.295  13.508  4.6769 -0.1517  1.7579
  368MPD2    H3 5565   3.674   0.167  13.514  1.8523  0.4512 -0.8297
  368MPD2     N 5566   3.705   0.189  13.056  0.5808  0.5644 -0.1364
  368MPD2    H5 5567   3.799   0.155  13.072 -0.1182  1.2754  5.5833
  368MPD2    N1 5568   3.325   0.379  13.308 -0.2570  0.0418 -0.0787
  368MPD2    H7 5569   3.284   0.387  13.400  1.5143 -0.1868  0.7279
  369TMC3    C1 5570   3.143   0.507  13.264 -1.1684 -0.5884  0.4068
  369TMC3    C2 5571   3.105   0.614  13.191 -0.5805 -0.3090 -0.5851
  369TMC3    C3 5572   2.982   0.636  13.133 -0.0255 -0.5882 -0.3420
  369TMC3    C4 5573   3.047   0.415  13.273  0.3964 -0.4939 -0.1165
  369TMC3    C5 5574   2.923   0.429  13.225  0.8476  0.0935  0.2791
  369TMC3    C6 5575   2.882   0.540  13.150  0.0867 -0.7300  0.2309
  369TMC3     C 5576   3.269   0.448  13.211  0.3401 -0.3055 -0.0082
  369TMC3     O 5577   3.306   0.485  13.098  0.1657  0.0704 -0.5623
  369TMC3     H 5578   3.186   0.681  13.164  1.2203 -1.2970  2.3783
  369TMC3    H1 5579   3.065   0.315  13.313 -1.8683 -0.8325  0.0882
  369TMC3    H2 5580   2.783   0.548  13.106 -0.0787  0.6508  0.8860
  369TMC3    C7 5581   2.821   0.353  13.296 -0.3088 -0.6009  0.0478
  369TMC3    C8 5582   2.993   0.685  13.000 -0.0634  0.5618  0.4590
  369TMC3    O1 5583   2.851   0.305  13.406 -0.5395 -0.4721 -1.2086
  369TMC3    O2 5584   2.898   0.757  12.974  0.4779 -0.3891  0.1058
  370TMC3    C1 5585   2.760   1.138  16.422 -0.5193  0.1310  0.6504
  370TMC3    C2 5586   2.644   1.122  16.499 -0.2030  0.2407 -0.1840
  370TMC3    C3 5587   2.566   1.007  16.473 -0.2348  0.4896  0.4537
  370TMC3    C4 5588   2.772   1.071  16.304 -1.0222 -0.3608  0.4891
  370TMC3    C5 5589   2.687   0.972  16.275 -0.1179 -0.5956  0.3788
  370TMC3    C6 5590   2.588   0.939  16.357 -0.6677  0.3090  0.6159
  370TMC3     C 5591   2.864   1.229  16.462  0.2502  0.6066 -0.2016
  370TMC3     O 5592   2.850   1.248  16.583 -0.2774 -0.2456  0.3382
  370TMC3     H 5593   2.633   1.176  16.592  1.2628  1.1846 -0.5644
  370TMC3    H1 5594   2.845   1.103  16.230  0.8679 -2.3009  1.5243
  370TMC3    H2 5595   2.535   0.847  16.338  0.8327 -0.7681  1.5977
  370TMC3    C7 5596   2.719   0.890  16.161 -0.5837  0.0610 -0.6946
  370TMC3    C8 5597   2.526   0.926  16.586 -0.0692 -0.8217 -0.5149
  370TMC3    O1 5598   2.630   0.826  16.108 -0.0152  0.3213  0.2474
  370TMC3    O2 5599   2.551   0.809  16.569  0.2859  0.1007  0.3560
  371TMC3    C1 5600   4.114   4.125  15.652  0.2212  0.7525 -0.3659
  371TMC3    C2 5601   4.036   4.138  15.763  0.5582 -0.5106  0.3685
  371TMC3    C3 5602   4.032   4.265  15.816  0.6632 -0.4445  0.4060
  371TMC3    C4 5603   4.191   4.226  15.598 -0.1068 -0.4485 -0.1886
  371TMC3    C5 5604   4.174   4.351  15.649 -0.7825 -0.3393 -0.3459
  371TMC3    C6 5605   4.091   4.374  15.756  0.4428  0.0329 -0.4666
  371TMC3     C 5606   4.138   3.999  15.589 -0.5073 -0.1500  0.5803
  371TMC3     O 5607   4.176   4.001  15.472 -0.2003 -0.2033 -0.2501
  371TMC3     H 5608   3.977   4.059  15.808 -0.4457 -0.9877 -1.7667
  371TMC3    H1 5609   4.244   4.205  15.506  2.3608 -1.0120  1.3745
  371TMC3    H2 5610   4.091   4.472  15.804  1.8297 -0.0595 -0.2649
  371TMC3    C7 5611   4.263   4.457  15.606 -0.0187 -0.7860 -0.5785
  371TMC3    C8 5612   3.948   4.275  15.935 -0.4890 -0.4166 -0.3914
  371TMC3    O1 5613   4.224   4.566  15.639 -0.0523 -0.1564 -0.1281
  371TMC3    O2 5614   3.925   4.175  16.000  0.2446  0.1279  0.5496
  372MPD2     C 5615   3.795   0.217  13.765 -0.0351  0.4911  0.0637
  372MPD2    C1 5616   3.879   0.125  13.822 -0.1434 -0.3956 -0.4170
  372MPD2    C2 5617   3.824   0.039  13.913 -0.0631 -0.0126 -0.5467
  372MPD2    C3 5618   3.694   0.056  13.950  0.4278  1.1555 -0.2107
  372MPD2    C4 5619   3.617   0.166  13.906  0.0511 -0.3222  0.4765
  372MPD2    C5 5620   3.665   0.239  13.804  0.2685 -0.1868  0.1722
  372MPD2     H 5621   3.887   4.695  13.955 -0.4029 -0.5538 -1.0558
  372MPD2    H1 5622   3.524   0.196  13.954 -0.6406  0.9014 -1.6146
  372MPD2    H2 5623   3.827   0.282  13.684  4.0486 -1.5026  0.0429
  372MPD2    H3 5624   3.599   0.308  13.753  1.0816 -0.3791 -1.1574
  372MPD2     N 5625   3.633   4.698  14.045 -0.1746  0.4544 -0.2814
  372MPD2    H5 5626   3.700   4.633  14.085 -2.3745 -1.6862 -0.1101
  372MPD2    N1 5627   4.011   0.106  13.782  0.1836 -0.8850 -0.1968
  372MPD2    H7 5628   4.056   0.039  13.842 -0.2084  0.7184  1.8718
  373TMC3    C1 5629   3.468   4.581  14.153  0.0305  0.2013 -0.6094
  373TMC3    C2 5630   3.564   4.548  14.247 -0.3175  0.2134 -0.4553
  373TMC3    C3 5631   3.564   4.419  14.302  0.1554  0.5396  0.1738
  373TMC3    C4 5632   3.377   4.492  14.107  0.1521  0.0172 -0.2173
  373TMC3    C5 5633   3.391   4.364  14.151  0.0049 -0.2581 -0.4046
  373TMC3    C6 5634   3.487   4.326  14.247 -0.2232  0.0472  0.3821
  373TMC3     C 5635   3.500   4.693  14.074 -0.9931 -0.2147  0.1418
  373TMC3     O 5636   3.407   0.023  14.027 -0.8729  0.1377  0.2561
  373TMC3     H 5637   3.633   4.622  14.288 -1.1730  0.0545  1.2863
  373TMC3    H1 5638   3.304   4.519  14.031 -0.8835 -1.3230  0.3082
  373TMC3    H2 5639   3.518   4.224  14.270  2.4352  0.5481 -1.0337
  373TMC3    C7 5640   3.409   4.270  14.039 -0.1658  0.3843 -0.8052
  373TMC3    C8 5641   3.660   4.385  14.411 -0.2438  0.5110 -0.0641
  373TMC3    O1 5642   3.468   4.317  13.943 -0.1949  0.4199 -0.0572
  373TMC3    O2 5643   3.747   4.465  14.434 -0.7090  0.7870  0.2580
  374TMC3    C1 5644   4.303   0.347  10.179 -0.2960 -0.2970 -0.3343
  374TMC3    C2 5645   4.380   0.458  10.167 -0.7808 -0.5609 -0.2060
  374TMC3    C3 5646   4.337   0.567  10.102  0.1058  0.4556  0.5372
  374TMC3    C4 5647   4.173   0.352  10.145 -0.0207  0.3629  0.1819
  374TMC3    C5 5648   4.131   0.461  10.076  0.1081 -0.1771  0.0006
  374TMC3    C6 5649   4.211   0.574  10.058  1.0065 -0.0111 -0.6553
  374TMC3     C 5650   4.358   0.229  10.240 -0.1744 -0.2524  0.4300
  374TMC3     O 5651   4.465   0.247  10.293  0.3133 -0.6167  0.1461
  374TMC3     H 5652   4.485   0.452  10.194 -0.5044 -0.0855 -1.1536
  374TMC3    H1 5653   4.094   0.282  10.165  1.8536 -1.4813  1.1112
  374TMC3    H2 5654   4.186   0.668  10.010  0.2911  0.5237  0.7667
  374TMC3    C7 5655   4.003   0.448  10.008 -0.2311 -0.4847  0.5097
  374TMC3    C8 5656   4.416   0.689  10.111 -0.2574  0.1851  0.3791
  374TMC3    O1 5657   3.917   0.382  10.061  0.7556  0.1786  0.0862
  374TMC3    O2 5658   4.383   0.782  10.041 -0.4417 -0.2359 -0.4148
  375MPD2     C 5659   4.257   1.829  17.524 -0.0719  0.2778  0.6412
  375MPD2    C1 5660   4.200   1.784  17.408  0.1340  0.1274  0.3743
  375MPD2    C2 5661   4.274   1.724  17.310  0.4603  0.0754 -0.3291
  375MPD2    C3 5662   4.415   1.706  17.326  1.1706  0.3456 -0.1052
  375MPD2    C4 5663   4.468   1.746  17.444  0.1783  0.6714  0.0872
  375MPD2    C5 5664   4.390   1.810  17.540  0.0124  0.6714  0.5588
  375MPD2     H 5665   4.208   1.700  17.228 -0.1447  1.1662 -0.1584
  375MPD2    H1 5666   4.572   1.729  17.470  0.4891  0.6444 -1.1585
  375MPD2    H2 5667   4.208   1.885  17.603 -0.8780 -2.4221  2.0489
  375MPD2    H3 5668   4.437   1.842  17.632  3.2321 -1.1148 -0.4505
  375MPD2     N 5669   4.492   1.647  17.222  0.2845 -0.3646 -0.0763
  375MPD2    H5 5670   4.591   1.652  17.240 -0.1067  1.4084  1.6242
  375MPD2    N1 5671   4.064   1.818  17.374 -0.3135 -0.1285  0.3434
  375MPD2    H7 5672   4.024   1.777  17.290  2.0090  0.3209 -0.9952
  376TMC3    C1 5673   4.556   1.556  17.020  0.4733  0.0555  0.2087
  376TMC3    C2 5674   4.670   1.629  17.023  0.5068 -0.2024 -0.2183
  376TMC3    C3 5675   0.028   1.604  16.924 -0.8480 -0.5348  0.1717
  376TMC3    C4 5676   4.538   1.455  16.920  0.2650 -0.2211  0.2473
  376TMC3    C5 5677   4.638   1.431  16.828  0.3577  0.3591  0.2678
  376TMC3    C6 5678   0.018   1.506  16.828  0.5625 -0.1478 -0.3312
  376TMC3     C 5679   4.441   1.600  17.104 -0.5957 -0.6606  0.6354
  376TMC3     O 5680   4.328   1.576  17.071  0.4385 -0.1942 -0.7040
  376TMC3     H 5681   4.675   1.716  17.087  0.7484 -0.3514 -0.0347
  376TMC3    H1 5682   4.441   1.407  16.925  0.1725 -0.1045 -0.3868
  376TMC3    H2 5683   0.098   1.489  16.756  1.0626  1.1121 -0.0730
  376TMC3    C7 5684   4.597   1.371  16.705 -0.2374  0.0885 -0.3657
  376TMC3    C8 5685   0.140   1.690  16.902 -0.5731  0.1357  0.5663
  376TMC3    O1 5686   4.646   1.425  16.608  0.3586 -0.3415 -0.2263
  376TMC3    O2 5687   0.203   1.681  16.795  0.1164 -0.6378 -0.3917
  377MPD2     C 5688   2.108   0.628  12.988 -0.6062  0.0054 -0.1334
  377MPD2    C1 5689   2.237   0.611  13.031  0.4488 -0.1245 -0.4576
  377MPD2    C2 5690   2.261   0.538  13.149  1.2144 -0.1519 -0.7802
  377MPD2    C3 5691   2.151   0.490  13.224 -0.8133  0.6828  0.2038
  377MPD2    C4 5692   2.019   0.509  13.179  0.1125 -1.1201 -0.2571
  377MPD2    C5 5693   2.003   0.573  13.057 -0.0604  0.5370  0.1701
  377MPD2     H 5694   2.363   0.516  13.179  1.1300  1.5329  0.7355
  377MPD2    H1 5695   1.929   0.477  13.231  0.4741 -2.8170 -0.6780
  377MPD2    H2 5696   2.079   0.685  12.900  1.7124  2.0759  0.4544
  377MPD2    H3 5697   1.900   0.581  13.026 -0.2655 -2.6386  0.0298
  377MPD2     N 5698   2.170   0.421  13.346  0.6443 -0.2401 -0.0931
  377MPD2    H5 5699   2.090   0.366  13.376  0.6808 -0.2616 -0.0350
  377MPD2    N1 5700   2.339   0.645  12.932  0.0852  0.8548  0.1691
  377MPD2    H7 5701   2.302   0.694  12.852  0.5167  3.8583  1.8189
  378TMC3    C1 5702   2.543   0.820  12.638  0.0023 -0.4676  0.1589
  378TMC3    C2 5703   2.479   0.774  12.751  0.4078  0.0570  0.1804
  378TMC3    C3 5704   2.540   0.691  12.836  0.3134 -0.1099  0.1193
  378TMC3    C4 5705   2.658   0.763  12.602 -0.0248 -0.2926 -0.0079
  378TMC3    C5 5706   2.715   0.670  12.676 -0.2689  0.0448  0.1121
  378TMC3    C6 5707   2.661   0.645  12.797  0.2009 -0.2977  0.3460
  378TMC3     C 5708   2.465   0.909  12.551 -0.4908 -0.0520 -0.4410
  378TMC3     O 5709   2.357   0.945  12.597 -0.2615  0.1768 -0.2339
  378TMC3     H 5710   2.371   0.787  12.749  0.4229 -0.1593 -1.7205
  378TMC3    H1 5711   2.694   0.788  12.502 -2.0519  0.4612 -0.5501
  378TMC3    H2 5712   2.716   0.576  12.861  0.8570 -1.5906 -1.5973
  378TMC3    C7 5713   2.833   0.585  12.636 -0.2324 -0.2097 -0.3995
  378TMC3    C8 5714   2.469   0.616  12.936 -0.1553  0.2097  0.6592
  378TMC3    O1 5715   2.881   0.507  12.720  0.4567 -0.1284  0.4333
  378TMC3    O2 5716   2.529   0.562  13.024  0.1396  0.1438  0.2891
  379MPD2     C 5717   3.318   4.185  16.230 -0.5105 -0.8738 -0.2060
  379MPD2    C1 5718   3.243   4.098  16.314 -0.4714 -0.3497  0.7768
  379MPD2    C2 5719   3.295   4.052  16.434 -0.5358  0.3311  0.0825
  379MPD2    C3 5720   3.427   4.074  16.461  0.1352  0.1416 -0.1423
  379MPD2    C4 5721   3.508   4.155  16.378  0.6436  0.6163  0.9712
  379MPD2    C5 5722   3.456   4.214  16.265  0.9395 -0.0997 -0.9183
  379MPD2     H 5723   3.234   3.986  16.494  0.8544  0.8311  2.0750
  379MPD2    H1 5724   3.613   4.174  16.398  0.9339  0.9386 -0.8951
  379MPD2    H2 5725   3.272   4.236  16.146 -0.6371 -0.4726  0.1106
  379MPD2    H3 5726   3.517   4.264  16.191 -0.1729  1.2859 -0.9091
  379MPD2     N 5727   3.485   4.013  16.567 -0.3247 -0.0113  0.5592
  379MPD2    H5 5728   3.585   3.997  16.555 -0.1155  0.6871  1.3409
  379MPD2    N1 5729   3.111   4.072  16.271  0.3817 -0.0585 -0.6898
  379MPD2    H7 5730   3.090   4.099  16.175 -3.1450 -1.5939 -0.3245
  380TMC3    C1 5731   2.914   3.945  16.236  0.1847  0.1331  0.7615
  380TMC3    C2 5732   2.907   3.812  16.197 -0.2795 -0.7814 -0.2903
  380TMC3    C3 5733   2.889   3.785  16.061 -0.6965 -0.5683  0.5302
  380TMC3    C4 5734   2.886   4.043  16.144  0.2577 -0.3125  0.1310
  380TMC3    C5 5735   2.854   4.008  16.018 -0.2798 -0.5384  0.2486
  380TMC3    C6 5736   2.865   3.882  15.969  0.0099  0.7303  0.4527
  380TMC3     C 5737   3.027   3.971  16.328  0.6583 -0.2457  0.6102
  380TMC3     O 5738   3.038   3.900  16.422  0.2328  0.5594 -0.1583
  380TMC3     H 5739   2.942   3.731  16.260  1.2013 -0.0510 -0.1536
  380TMC3    H1 5740   2.882   4.149  16.167 -1.0457 -0.0738 -1.1732
  380TMC3    H2 5741   2.828   3.856  15.871  2.9459 -0.6992 -0.2598
  380TMC3    C7 5742   2.785   4.104  15.937  0.1081  0.2285 -0.4171
  380TMC3    C8 5743   2.912   3.647  16.026 -0.3156 -0.2669 -0.1848
  380TMC3    O1 5744   2.827   4.219  15.934  0.3590  0.6153  0.1062
  380TMC3    O2 5745   2.901   3.558  16.110 -0.0823 -0.0298  0.6429
  381TMC3    C1 5746   2.820   0.309  16.313  0.2999 -0.1009 -0.0918
  381TMC3    C2 5747   2.845   0.446  16.306 -0.8855 -0.3939 -0.2909
  381TMC3    C3 5748   2.789   0.535  16.395  0.0719  0.2045 -0.4448
  381TMC3    C4 5749   2.732   0.262  16.404 -0.0996 -0.0668  0.4049
  381TMC3    C5 5750   2.681   0.354  16.489  0.1983  0.1347 -0.1871
  381TMC3    C6 5751   2.700   0.485  16.482 -0.1417  0.3085 -0.4351
  381TMC3     C 5752   2.880   0.217  16.213 -0.6431 -0.2878  0.0304
  381TMC3     O 5753   2.916   0.271  16.111 -0.3607 -0.0653  0.4400
  381TMC3     H 5754   2.920   0.479  16.235 -2.8736  0.0175 -2.1904
  381TMC3    H1 5755   2.707   0.156  16.409  0.3415 -0.1146  1.6640
  381TMC3    H2 5756   2.675   0.547  16.567 -0.4252  0.7366 -0.8219
  381TMC3    C7 5757   2.614   0.297  16.606 -0.5849 -0.3758 -0.0297
  381TMC3    C8 5758   2.882   0.636  16.446 -0.1834 -0.0057  0.2618
  381TMC3    O1 5759   2.657   0.186  16.633  0.1527  0.0270  0.6023
  381TMC3    O2 5760   2.997   0.628  16.401 -0.1635  0.4131  0.1094
  382MPD2     C 5761   2.162   2.571  17.192  0.1633  0.1023  0.2768
  382MPD2    C1 5762   2.133   2.599  17.322 -0.7412  0.5031 -0.3502
  382MPD2    C2 5763   2.111   2.496  17.403 -0.5634 -0.1231 -0.3795
  382MPD2    C3 5764   2.102   2.368  17.357 -0.4034  0.4583  0.5798
  382MPD2    C4 5765   2.120   2.340  17.222 -0.5698 -0.8254  0.1814
  382MPD2    C5 5766   2.156   2.441  17.143  0.4746  0.6755  0.2417
  382MPD2     H 5767   2.084   2.522  17.504  3.1142  1.6658  0.1471
  382MPD2    H1 5768   2.116   2.241  17.177 -2.8579 -0.6039 -0.1055
  382MPD2    H2 5769   2.181   2.654  17.124 -1.8818  1.3149  1.1646
  382MPD2    H3 5770   2.179   2.423  17.039  0.5313  2.5050 -0.0562
  382MPD2     N 5771   2.064   2.258  17.445  0.2109  0.4636 -0.0289
  382MPD2    H5 5772   2.055   2.163  17.411 -4.5546  1.0561 -0.4514
  382MPD2    N1 5773   2.135   2.729  17.374  0.3042 -1.3104  0.1824
  382MPD2    H7 5774   2.121   2.734  17.475  4.4562  1.0402  0.6295
  383TMC3    C1 5775   1.990   2.124  17.623  0.2417  0.1952  0.2471
  383TMC3    C2 5776   1.932   2.039  17.536 -0.2780  0.5472  0.4056
  383TMC3    C3 5777   1.876   1.926  17.591 -0.0813 -0.3284  1.0337
  383TMC3    C4 5778   2.020   2.102   0.021  0.3848 -0.7173  0.2506
  383TMC3    C5 5779   1.973   1.978   0.064  0.0940 -0.2410  0.6926
  383TMC3    C6 5780   1.898   1.890  17.719  0.1906  0.0247  0.9106
  383TMC3     C 5781   2.021   2.260  17.572  0.5816  0.4108 -0.3582
  383TMC3     O 5782   2.022   2.353  17.652 -0.0802 -0.2697  0.5090
  383TMC3     H 5783   1.906   2.059  17.433 -1.8233 -0.4768  0.6005
  383TMC3    H1 5784   2.051   2.182   0.086 -0.6404  0.9531 -1.3122
  383TMC3    H2 5785   1.866   1.794   0.022  0.0362 -1.2208 -2.3070
  383TMC3    C7 5786   2.007   1.931   0.199 -0.9711 -0.1020 -0.8549
  383TMC3    C8 5787   1.795   1.844  17.511 -0.0293  0.5780 -0.5728
  383TMC3    O1 5788   1.951   1.833   0.250 -0.6016 -0.0832  0.1945
  383TMC3    O2 5789   1.796   1.875  17.395 -0.0083  0.1549  0.1198
  384MPD2     C 5790   3.563   3.818  13.098 -0.2249  0.2537  0.6449
  384MPD2    C1 5791   3.589   3.712  13.185 -0.2596  0.0616  0.9681
  384MPD2    C2 5792   3.722   3.670  13.186  0.2146 -0.8185  0.0312
  384MPD2    C3 5793   3.828   3.750  13.141 -0.4653  0.0898 -0.5271
  384MPD2    C4 5794   3.793   3.875  13.095 -0.0438  0.8986 -0.2440
  384MPD2    C5 5795   3.663   3.900  13.055 -0.0283 -0.0130  0.2816
  384MPD2     H 5796   3.741   3.573  13.229  0.4246 -0.5473  0.5574
  384MPD2    H1 5797   3.873   3.937  13.056 -1.2458  2.0606 -0.8837
  384MPD2    H2 5798   3.461   3.840  13.068 -0.5678 -1.2375  0.7130
  384MPD2    H3 5799   3.645   3.982  12.986  1.1123 -0.0911 -0.1152
  384MPD2     N 5800   3.965   3.707  13.127 -0.0360 -0.4724 -0.4979
  384MPD2    H5 5801   4.021   3.771  13.071  0.5604 -1.3194 -0.8608
  384MPD2    N1 5802   3.488   3.625  13.240  0.0080  0.0410 -0.5802
  384MPD2    H7 5803   3.396   3.619  13.198 -1.3951  0.7933  2.3984
  385TMC3    C1 5804   4.135   3.531  13.109  0.4221 -0.0784  0.4645
  385TMC3    C2 5805   4.141   3.547  12.974  0.1692 -0.4564 -0.6393
  385TMC3    C3 5806   4.190   3.448  12.896 -0.1969  0.6084 -0.5219
  385TMC3    C4 5807   4.182   3.422  13.171  0.6962  0.7071  0.2587
  385TMC3    C5 5808   4.230   3.319  13.093 -0.4095  0.0570 -0.7814
  385TMC3    C6 5809   4.234   3.331  12.956 -0.7206  0.1588 -1.5026
  385TMC3     C 5810   4.018   3.585  13.181 -0.3538  0.1476 -0.3030
  385TMC3     O 5811   3.971   3.510  13.261 -0.0748 -0.1970 -0.3029
  385TMC3     H 5812   4.121   3.646  12.934  1.1325 -0.9534 -2.3144
  385TMC3    H1 5813   4.183   3.419  13.279 -1.2595  2.5649  0.3057
  385TMC3    H2 5814   4.282   3.254  12.896 -0.0832  0.4959 -1.4290
  385TMC3    C7 5815   4.165   3.194  13.121  0.3243  0.0727 -0.1861
  385TMC3    C8 5816   4.239   3.475  12.761 -0.2866  0.1126 -0.0833
  385TMC3    O1 5817   4.199   3.100  13.055  0.1071 -0.2754  0.3459
  385TMC3    O2 5818   4.283   3.589  12.744 -0.0208  0.6572 -0.0862
  386TMC3    C1 5819   3.906   0.788  11.888 -0.5070 -0.4287 -0.3637
  386TMC3    C2 5820   3.967   0.840  11.776 -0.1686  0.0815  0.9831
  386TMC3    C3 5821   3.923   0.957  11.722 -0.3571  0.1917 -0.3217
  386TMC3    C4 5822   3.796   0.845  11.942 -0.9520 -0.7901 -0.3467
  386TMC3    C5 5823   3.749   0.961  11.881  0.5247  0.9290 -0.4912
  386TMC3    C6 5824   3.808   1.008  11.774 -0.8077  0.5898 -0.3815
  386TMC3     C 5825   3.949   0.654  11.929  0.1075 -0.3270 -0.4202
  386TMC3     O 5826   4.037   0.605  11.859 -0.4899 -0.3257  0.4117
  386TMC3     H 5827   4.049   0.787  11.728  0.7868  1.6671  0.8591
  386TMC3    H1 5828   3.724   0.791  12.003 -0.5303  1.0474  1.7996
  386TMC3    H2 5829   3.780   1.108  11.745  0.8275  0.9283 -0.7907
  386TMC3    C7 5830   3.615   0.998  11.915 -0.8023  0.3430 -0.7733
  386TMC3    C8 5831   3.896   0.947  11.581  0.2160 -1.2515  0.0209
  386TMC3    O1 5832   3.559   0.937  12.007 -0.3147  0.2851 -0.4014
  386TMC3    O2 5833   3.796   1.010  11.553 -0.2945 -0.0097 -0.0447
  387MPD2     C 5834   1.153   1.321  10.024  0.8852  0.1230 -0.0258
  387MPD2    C1 5835   1.282   1.342   9.983 -0.4964  0.1156  0.6270
  387MPD2    C2 5836   1.353   1.236   9.934  0.0698 -0.2236  0.0589
  387MPD2    C3 5837   1.307   1.107   9.951 -0.6232  0.2143  0.1682
  387MPD2    C4 5838   1.176   1.085   9.994  0.2456  0.0083 -0.4170
  387MPD2    C5 5839   1.094   1.197  10.012 -0.3188 -1.1268  0.0300
  387MPD2     H 5840   1.460   1.250   9.922  0.4761 -1.6839  1.9498
  387MPD2    H1 5841   1.130   0.987   9.985 -1.1923  0.6828 -0.4362
  387MPD2    H2 5842   1.088   1.395  10.069  0.8812 -0.9539  1.7481
  387MPD2    H3 5843   0.987   1.180  10.019 -0.8009  1.4090 -1.2118
  387MPD2     N 5844   1.402   0.999   9.942 -0.0771  0.5491 -0.1700
  387MPD2    H5 5845   1.496   1.023   9.913  0.4565  0.1895  1.2738
  387MPD2    N1 5846   1.357   1.461  10.008  0.2376  0.0639  0.3571
  387MPD2    H7 5847   1.456   1.452   9.987 -0.3214 -2.5770 -1.0333
  388TMC3    C1 5848   1.434   1.652  10.096  0.2535  0.6574  0.0012
  388TMC3    C2 5849   1.444   1.782  10.069  0.1330 -0.3916  0.8759
  388TMC3    C3 5850   1.565   1.839  10.082  0.2664 -0.0852 -0.5409
  388TMC3    C4 5851   1.538   1.579  10.144 -0.6163 -0.3226 -0.6886
  388TMC3    C5 5852   1.660   1.638  10.161  0.6047 -0.6329 -0.5554
  388TMC3    C6 5853   1.678   1.768  10.127 -0.4739 -0.1488 -0.0830
  388TMC3     C 5854   1.312   1.579  10.063 -0.1591  0.0425  0.9491
  388TMC3     O 5855   1.199   1.632  10.066  0.1728 -0.2829 -0.1273
  388TMC3     H 5856   1.352   1.824  10.029  1.7495  2.6070  0.2752
  388TMC3    H1 5857   1.524   1.476  10.175  0.7800  0.0346  1.1452
  388TMC3    H2 5858   1.777   1.812  10.128 -0.3025 -0.5660  0.8198
  388TMC3    C7 5859   1.768   1.553  10.191  0.1495  0.8485  0.0099
  388TMC3    C8 5860   1.580   1.963  10.006  0.3822  0.4653  1.0103
  388TMC3    O1 5861   1.853   1.598  10.261 -0.0194 -0.1567 -0.6147
  388TMC3    O2 5862   1.480   2.015   9.964 -0.2189 -0.2009  0.2657
  389MPD2     C 5863   1.009   4.277  11.567 -0.7267  0.8502 -0.0628
  389MPD2    C1 5864   0.923   4.195  11.497  0.3265 -0.3050  0.2192
  389MPD2    C2 5865   0.811   4.146  11.568  0.0779 -0.1168  0.1634
  389MPD2    C3 5866   0.781   4.192  11.697  1.1504  0.4562  0.2087
  389MPD2    C4 5867   0.862   4.285  11.761 -0.0244 -0.8402 -0.0204
  389MPD2    C5 5868   0.978   4.314  11.695  0.0329 -0.6444  0.0180
  389MPD2     H 5869   0.723   4.104  11.521  1.5801 -1.9770 -0.9577
  389MPD2    H1 5870   0.845   4.331  11.858  2.8389 -1.1583  0.6300
  389MPD2    H2 5871   1.102   4.316  11.527 -0.4001  0.0054 -0.1247
  389MPD2    H3 5872   1.034   4.388  11.750 -0.4003  0.6429 -1.2658
  389MPD2     N 5873   0.666   4.147  11.770  0.0209  0.6204  0.1134
  389MPD2    H5 5874   0.655   4.197  11.858 -0.1828  1.3546 -0.3294
  389MPD2    N1 5875   0.944   4.163  11.360 -0.1846  0.2231  0.2647
  389MPD2    H7 5876   1.017   4.216  11.313  0.2699  1.2587  2.1854
  390TMC3    C1 5877   0.481   4.008  11.822  0.9198 -0.0853  0.4097
  390TMC3    C2 5878   0.390   3.918  11.786  0.1814  0.0804  0.0552
  390TMC3    C3 5879   0.307   3.864  11.880 -0.3736 -0.2484  0.9769
  390TMC3    C4 5880   0.495   4.036  11.955  1.5064 -0.3720 -0.2812
  390TMC3    C5 5881   0.418   3.982  12.051  0.3048 -0.1256 -0.6510
  390TMC3    C6 5882   0.314   3.901  12.013  1.0957 -0.5361  0.3878
  390TMC3     C 5883   0.584   4.044  11.731 -0.1040 -0.7346  0.2128
  390TMC3     O 5884   0.592   3.974  11.632 -0.2298  0.1197  0.2857
  390TMC3     H 5885   0.369   3.891  11.683  0.5988  0.4651 -0.1289
  390TMC3    H1 5886   0.579   4.099  11.985 -0.1370  1.1387  1.1670
  390TMC3    H2 5887   0.260   3.861  12.098 -1.5997 -1.0205 -1.5585
  390TMC3    C7 5888   0.460   4.002  12.184 -0.6255 -0.2740  0.4140
  390TMC3    C8 5889   0.210   3.761  11.833  0.1244 -0.5420  0.3560
  390TMC3    O1 5890   0.502   4.111  12.212 -0.3628 -0.5028  0.3788
  390TMC3    O2 5891   0.205   3.736  11.713 -0.6906 -0.4476  0.5495
  391MPD2     C 5892   0.319   0.744  11.526  0.1976 -0.3701 -0.5181
  391MPD2    C1 5893   0.398   0.815  11.443  0.0082 -0.0468 -0.1843
  391MPD2    C2 5894   0.406   0.781  11.312 -1.0775  0.6455  0.0329
  391MPD2    C3 5895   0.324   0.685  11.258 -0.1457  0.8419  0.3165
  391MPD2    C4 5896   0.257   0.606  11.344 -0.3045  0.3401 -0.9332
  391MPD2    C5 5897   0.251   0.633  11.480 -0.0399  0.0835  0.4392
  391MPD2     H 5898   0.476   0.839  11.253 -0.9460 -0.5023 -0.9270
  391MPD2    H1 5899   0.197   0.523  11.309  0.8000  0.1912 -2.5020
  391MPD2    H2 5900   0.304   0.767  11.630 -0.9404  1.5126 -1.1095
  391MPD2    H3 5901   0.193   0.576  11.552 -2.6446  1.3590 -0.6932
  391MPD2     N 5902   0.323   0.675  11.116  0.3298 -0.2252  0.2240
  391MPD2    H5 5903   0.370   0.753  11.071 -2.0614  1.7576  1.1431
  391MPD2    N1 5904   0.463   0.932  11.502  0.1403 -0.5132  0.2565
  391MPD2    H7 5905   0.436   0.964  11.594  1.0067 -0.8900  0.6432
  392TMC3    C1 5906   0.284   0.621  10.902 -0.0472 -0.1665  0.3753
  392TMC3    C2 5907   0.179   0.649  10.820 -0.0269 -0.0441 -0.5110
  392TMC3    C3 5908   0.214   0.703  10.702 -0.2539 -0.0098 -0.6792
  392TMC3    C4 5909   0.408   0.656  10.878  0.0681 -0.8380  0.1332
  392TMC3    C5 5910   0.435   0.722  10.765 -0.0387 -1.1475 -0.0006
  392TMC3    C6 5911   0.344   0.750  10.671  1.2110  0.7162 -0.0807
  392TMC3     C 5912   0.253   0.587  11.037 -0.0178  0.1954  0.5304
  392TMC3     O 5913   0.156   0.515  11.059 -0.0422 -0.2174  0.4168
  392TMC3     H 5914   0.078   0.611  10.835 -0.0166  0.3831  0.5959
  392TMC3    H1 5915   0.488   0.617  10.940 -1.3408 -1.9331  1.2890
  392TMC3    H2 5916   0.376   0.788  10.574  1.6424  1.0512  0.1972
  392TMC3    C7 5917   0.571   0.754  10.747  0.6924 -0.3390  0.1849
  392TMC3    C8 5918   0.111   0.713  10.600 -0.5638  0.2051  0.1685
  392TMC3    O1 5919   0.653   0.677  10.790 -0.0905  0.1329  0.3894
  392TMC3    O2 5920   0.011   0.643  10.628  0.8276  0.5141  0.4676
  393TMC3    C1 5921   3.145   3.389  10.786  0.0467 -0.3305  0.5025
  393TMC3    C2 5922   3.065   3.292  10.728 -0.3539  0.1328 -0.8743
  393TMC3    C3 5923   2.966   3.239  10.805  0.6466 -0.8904 -0.4151
  393TMC3    C4 5924   3.130   3.416  10.920 -0.1486 -0.3410 -0.3497
  393TMC3    C5 5925   3.045   3.339  10.998 -0.2046  0.2652  0.4122
  393TMC3    C6 5926   2.960   3.259  10.940 -0.0629  0.6457 -0.6460
  393TMC3     C 5927   3.258   3.445  10.714  0.5081  0.3390 -0.7472
  393TMC3     O 5928   3.260   3.413  10.594 -0.2335  0.0483  0.1928
  393TMC3     H 5929   3.072   3.260  10.624 -1.1703 -1.1416 -0.5300
  393TMC3    H1 5930   3.189   3.496  10.964 -2.4781  0.8821  0.5564
  393TMC3    H2 5931   2.875   3.230  11.000 -0.3390 -0.8940 -1.7804
  393TMC3    C7 5932   3.050   3.339  11.141  0.5093  0.0049 -0.3406
  393TMC3    C8 5933   2.885   3.129  10.754  0.9460 -0.1634 -0.5194
  393TMC3    O1 5934   2.980   3.256  11.202 -0.2844 -0.3802 -0.1678
  393TMC3    O2 5935   2.849   3.046  10.832  0.3038 -0.5885 -0.3941
  394TMC3    C1 5936   0.897   4.095  11.134 -0.2908 -0.1506 -0.3209
  394TMC3    C2 5937   0.784   4.092  11.063 -0.0263  0.1864  0.1275
  394TMC3    C3 5938   0.789   4.133  10.936  0.6474  0.3817  0.4026
  394TMC3    C4 5939   1.016   4.137  11.081 -0.5867  0.2599  0.3399
  394TMC3    C5 5940   1.018   4.174  10.949  0.5218  0.0160 -0.6604
  394TMC3    C6 5941   0.907   4.170  10.873  0.1149  0.2968  0.4933
  394TMC3     C 5942   0.875   4.074  11.280 -0.5006 -0.5784 -0.1114
  394TMC3     O 5943   0.778   4.007  11.325  0.4395  0.0272  0.4584
  394TMC3     H 5944   0.691   4.069  11.113  1.0146 -4.3155  0.0010
  394TMC3    H1 5945   1.097   4.148  11.152  0.5656 -2.1219 -0.6000
  394TMC3    H2 5946   0.912   4.189  10.767  0.0046  1.9366  0.7792
  394TMC3    C7 5947   1.122   4.248  10.889 -0.1043 -0.5307  0.1344
  394TMC3    C8 5948   0.658   4.159  10.869  0.1016  0.3351  0.5457
  394TMC3    O1 5949   1.118   4.282  10.774 -0.4161  0.1576  0.0799
  394TMC3    O2 5950   0.555   4.123  10.926  0.3584  0.0626 -0.1963
  395TMC3    C1 5951   0.560   1.090  14.832 -0.6086 -0.2397  0.3778
  395TMC3    C2 5952   0.438   1.139  14.788 -0.4996  0.3322 -0.2234
  395TMC3    C3 5953   0.439   1.245  14.689 -0.2283  0.2021 -0.4149
  395TMC3    C4 5954   0.676   1.138  14.785  0.5772 -0.8686  0.1957
  395TMC3    C5 5955   0.670   1.240  14.697  0.4166 -0.0594 -0.2954
  395TMC3    C6 5956   0.556   1.290  14.646 -0.1399 -0.0233 -0.1810
  395TMC3     C 5957   0.565   0.985  14.930  0.5509 -0.1465 -0.4315
  395TMC3     O 5958   0.479   0.981  15.018 -0.4497  0.1394 -0.0914
  395TMC3     H 5959   0.349   1.099  14.835 -1.1149 -2.0620 -3.4003
  395TMC3    H1 5960   0.776   1.110  14.817  0.6553 -1.7333 -0.8146
  395TMC3    H2 5961   0.556   1.358  14.562 -1.1394  0.3606  0.1353
  395TMC3    C7 5962   0.763   1.351  14.709 -0.2387  0.5644  0.1863
  395TMC3    C8 5963   0.325   1.332  14.675  0.2829  0.2579  0.1997
  395TMC3    O1 5964   0.718   1.463  14.690  0.6251 -0.2418  0.0358
  395TMC3    O2 5965   0.342   1.452  14.690  0.4341  0.1968 -0.0836
  396MPD2     C 5966   4.547   2.377  17.325 -1.1832 -0.1562  0.0460
  396MPD2    C1 5967   4.641   2.457  17.396  0.3902  0.3963 -0.2506
  396MPD2    C2 5968   4.734   2.522  17.315 -0.4467 -0.3121  0.2651
  396MPD2    C3 5969   4.731   2.512  17.174  0.1327 -0.3948 -0.7430
  396MPD2    C4 5970   4.635   2.437  17.111  0.4854  0.1668 -0.0463
  396MPD2    C5 5971   4.541   2.377  17.188  0.7992  0.2287  0.4326
  396MPD2     H 5972   0.086   2.566  17.364 -0.2825  0.2307 -0.5181
  396MPD2    H1 5973   4.625   2.425  17.003 -1.0202  2.3899 -0.1595
  396MPD2    H2 5974   4.472   2.323  17.383 -1.6580  0.6311  0.1700
  396MPD2    H3 5975   4.460   2.322  17.140  1.5017  1.8862 -2.6852
  396MPD2     N 5976   0.098   2.581  17.108  0.6996 -0.2616 -0.1019
  396MPD2    H5 5977   0.157   2.632  17.173 -0.4575  0.0875  0.6782
  396MPD2    N1 5978   4.647   2.451  17.539  0.0989 -0.0699  0.0933
  396MPD2    H7 5979   4.580   2.389  17.584 -2.5407  2.5214 -0.2386
  397TMC3    C1 5980   4.733   2.474   0.022  0.0191 -0.4767 -0.2060
  397TMC3    C2 5981   0.128   2.502   0.063  0.0155  0.5380  0.0109
  397TMC3    C3 5982   0.215   2.403   0.104 -0.3704  0.0383 -0.5411
  397TMC3    C4 5983   4.682   2.349   0.048  0.3030 -0.0859  0.1507
  397TMC3    C5 5984   0.036   2.248   0.075  0.1405  0.0934  0.0484
  397TMC3    C6 5985   0.170   2.275   0.108  0.3623  0.3520  0.3624
  397TMC3     C 5986   0.015   2.498  17.616 -0.1387 -0.5503  0.1531
  397TMC3     O 5987   0.107   2.572  17.581 -0.2180  0.5649 -0.4478
  397TMC3     H 5988   0.161   2.605   0.067 -0.5930  0.6091  2.8080
  397TMC3    H1 5989   4.576   2.339   0.030  0.2517 -3.6866  2.3870
  397TMC3    H2 5990   0.241   2.198   0.138  0.0620 -0.4300 -0.9426
  397TMC3    C7 5991   4.718   2.131   0.141  0.7925 -0.5304 -0.4560
  397TMC3    C8 5992   0.353   2.427   0.071 -0.5883  0.0033 -0.8759
  397TMC3    O1 5993   0.048   2.079   0.230 -0.5049  0.3621  0.0477
  397TMC3    O2 5994   0.430   2.344   0.117  0.3642  0.0078  0.6585
  398MPD2     C 5995   3.141   3.160   0.413  0.3390 -0.4307 -0.4176
  398MPD2    C1 5996   3.239   3.178   0.507 -1.3519  0.5484  0.3212
  398MPD2    C2 5997   3.257   3.308   0.549  0.6576 -0.4595  0.7682
  398MPD2    C3 5998   3.196   3.419   0.495  0.0308 -0.4196 -0.1068
  398MPD2    C4 5999   3.120   3.397   0.381 -0.1044  0.3833  0.2712
  398MPD2    C5 6000   3.090   3.270   0.348  0.1946 -0.3752  1.2489
  398MPD2     H 6001   3.319   3.322   0.637  1.6398 -0.4756  0.0851
  398MPD2    H1 6002   3.073   3.479   0.328  1.6010  1.7343  0.8260
  398MPD2    H2 6003   3.102   3.064   0.383  1.8130 -1.0223 -0.4146
  398MPD2    H3 6004   3.026   3.251   0.263  2.5252  1.1270 -0.8570
  398MPD2     N 6005   3.219   3.543   0.558  0.3006  0.3554  0.1709
  398MPD2    H5 6006   3.265   3.546   0.648  1.1801  2.3064 -0.3453
  398MPD2    N1 6007   3.310   3.071   0.568  0.7457  0.0567 -0.2279
  398MPD2    H7 6008   3.382   3.091   0.636  0.6298 -0.8784  0.1668
  399TMC3    C1 6009   3.365   2.838   0.612  0.7518 -0.5560 -0.4812
  399TMC3    C2 6010   3.469   2.879   0.701  0.5352 -0.4739 -0.2429
  399TMC3    C3 6011   3.552   2.787   0.750 -0.1007  0.5966 -0.1447
  399TMC3    C4 6012   3.344   2.698   0.589  0.2325  0.4688 -0.3845
  399TMC3    C5 6013   3.440   2.615   0.638 -0.4507  0.6776  0.0494
  399TMC3    C6 6014   3.537   2.655   0.726 -0.3926  0.4463  0.4600
  399TMC3     C 6015   3.286   2.939   0.539 -0.6249  0.2740  0.3394
  399TMC3     O 6016   3.197   2.889   0.477 -0.2980 -0.2130  0.2702
  399TMC3     H 6017   3.476   2.984   0.725 -0.1750 -0.2025 -1.2180
  399TMC3    H1 6018   3.275   2.660   0.514 -0.1673  2.6562 -1.1255
  399TMC3    H2 6019   3.619   2.591   0.753  0.3502  0.8660 -0.8298
  399TMC3    C7 6020   3.431   2.471   0.616 -0.1079  0.8570 -0.0155
  399TMC3    C8 6021   3.688   2.829   0.771 -0.1586 -0.0071  0.2514
  399TMC3    O1 6022   3.383   2.439   0.508 -0.7700 -0.2186  0.0302
  399TMC3    O2 6023   3.770   2.761   0.830  0.0859 -0.4310  0.2939
  400TMC3    C1 6024   1.959   1.548  17.226  0.3764  0.0925  0.6215
  400TMC3    C2 6025   1.908   1.446  17.146 -0.2559  0.5647 -1.3321
  400TMC3    C3 6026   1.823   1.469  17.046 -0.1535 -0.2594  0.2231
  400TMC3    C4 6027   1.934   1.680  17.192  0.1198 -0.3364  0.7256
  400TMC3    C5 6028   1.853   1.701  17.080 -0.1473  0.2511 -0.0933
  400TMC3    C6 6029   1.811   1.600  17.004 -0.1785  0.7532  0.0933
  400TMC3     C 6030   2.016   1.509  17.357 -0.4888  0.2727 -0.1378
  400TMC3     O 6031   1.969   1.409  17.406 -0.2410  0.3738 -0.0447
  400TMC3     H 6032   1.910   1.343  17.178 -0.3536 -0.0151 -3.2102
  400TMC3    H1 6033   1.977   1.765  17.244 -0.9177  0.9388 -0.5192
  400TMC3    H2 6034   1.742   1.615  16.921  0.3223 -1.5041 -0.7353
  400TMC3    C7 6035   1.864   1.823  17.012  0.0478  0.4549  0.3265
  400TMC3    C8 6036   1.778   1.358  16.954  0.3488  0.0933 -0.7939
  400TMC3    O1 6037   1.877   1.833  16.890 -0.4936 -0.1149 -0.2107
  400TMC3    O2 6038   1.855   1.262  16.970 -0.0588  0.4249 -0.7311
  401MPD2     C 6039   4.516   0.275   0.466 -0.2569  0.4435 -0.0871
  401MPD2    C1 6040   4.554   0.205   0.578 -0.2704  0.2326 -1.2382
  401MPD2    C2 6041   4.496   0.082   0.597  0.7442 -0.2024 -0.2869
  401MPD2    C3 6042   4.405   0.021   0.517 -0.1944  0.0323  0.0514
  401MPD2    C4 6043   4.367   0.091   0.407 -0.5096 -0.6483  0.0595
  401MPD2    C5 6044   4.420   0.213   0.387 -0.0210  0.3363  0.6269
  401MPD2     H 6045   4.521   0.022   0.684  0.6279 -1.6929 -1.2676
  401MPD2    H1 6046   4.300   0.049   0.332 -1.9301  3.3931 -0.9061
  401MPD2    H2 6047   4.568   0.368   0.444  1.6590  0.1535  3.2261
  401MPD2    H3 6048   4.394   0.252   0.289  0.4030 -1.1905 -0.0938
  401MPD2     N 6049   4.348   4.631   0.561  0.0676  0.1556 -0.6667
  401MPD2    H5 6050   4.405   4.589   0.635 -0.9471 -1.6064 -0.8766
  401MPD2    N1 6051   4.656   0.241   0.665  0.2259  0.2568  0.7894
  401MPD2    H7 6052   4.694   0.172   0.729  0.9046  1.3449  1.5616
  402TMC3    C1 6053   4.202   4.471   0.603 -0.1344 -0.1691 -0.1370
  402TMC3    C2 6054   4.222   4.529   0.724 -0.4264  0.6179  0.1644
  402TMC3    C3 6055   4.268   4.451   0.826  0.6150  0.1342 -0.3819
  402TMC3    C4 6056   4.258   4.349   0.568 -0.6096  0.3734  0.5413
  402TMC3    C5 6057   4.286   4.266   0.669 -0.2589 -0.0111 -0.3785
  402TMC3    C6 6058   4.291   4.318   0.801  0.1701  0.4488 -0.1926
  402TMC3     C 6059   4.241   4.570   0.505  0.3501  0.2682  0.2874
  402TMC3     O 6060   4.167   4.615   0.420 -0.0992  0.0962 -0.1201
  402TMC3     H 6061   4.194   4.631   0.748  0.4283  1.1272 -1.0307
  402TMC3    H1 6062   4.248   4.306   0.469  0.8028  0.4893  0.3529
  402TMC3    H2 6063   4.336   4.259   0.880 -2.1685 -1.4086 -0.2636
  402TMC3    C7 6064   4.400   4.182   0.642 -0.2357  0.5333 -0.5540
  402TMC3    C8 6065   4.360   4.511   0.925  0.3304  0.0564 -0.4541
  402TMC3    O1 6066   4.479   4.219   0.556 -0.2254 -0.1648 -0.0531
  402TMC3    O2 6067   4.434   4.438   0.989 -0.1556 -0.4719  0.2850
  403MPD2     C 6068   3.350   2.457  13.562 -0.3021 -0.6831 -0.5464
  403MPD2    C1 6069   3.256   2.546  13.608 -0.3435  0.1785 -0.1736
  403MPD2    C2 6070   3.273   2.632  13.716  0.3920 -0.5417  0.5732
  403MPD2    C3 6071   3.400   2.639  13.779  0.3337  0.5469 -1.2656
  403MPD2    C4 6072   3.495   2.558  13.730 -0.2154  0.2892 -0.0420
  403MPD2    C5 6073   3.475   2.472  13.624 -0.5835 -0.0864 -0.0265
  403MPD2     H 6074   3.188   2.679  13.763 -1.0766 -2.4259 -0.1952
  403MPD2    H1 6075   3.594   2.556  13.774 -1.1956 -0.2717  2.1562
  403MPD2    H2 6076   3.337   2.399  13.471  1.2571  0.2582 -1.3684
  403MPD2    H3 6077   3.560   2.416  13.587 -2.1211 -0.2454 -3.3259
  403MPD2     N 6078   3.413   2.724  13.886 -0.5998  0.1050 -1.0438
  403MPD2    H5 6079   3.334   2.778  13.920 -2.1653 -2.8956  0.1038
  403MPD2    N1 6080   3.132   2.536  13.543 -0.3855 -0.1446  0.0588
  403MPD2    H7 6081   3.121   2.457  13.480  2.2202 -0.7954  0.4183
  404TMC3    C1 6082   2.943   2.616  13.448  0.3744  0.5034 -0.0520
  404TMC3    C2 6083   2.862   2.506  13.472 -0.4202  0.4992 -0.3667
  404TMC3    C3 6084   2.736   2.499  13.434  0.3420  0.1216 -0.3042
  404TMC3    C4 6085   2.888   2.717  13.375 -0.2056  0.6292 -0.4430
  404TMC3    C5 6086   2.760   2.713  13.327 -0.2054 -0.1235 -1.0233
  404TMC3    C6 6087   2.679   2.601  13.352 -0.0063 -0.8646  0.1241
  404TMC3     C 6088   3.052   2.645  13.538  0.1805 -0.0836 -0.3672
  404TMC3     O 6089   3.062   2.756  13.593 -0.2576 -0.0181 -0.1434
  404TMC3     H 6090   2.890   2.437  13.551  0.6429  0.8065 -0.4850
  404TMC3    H1 6091   2.958   2.798  13.360  0.3315  0.0650 -1.0177
  404TMC3    H2 6092   2.571   2.596  13.345 -0.2597  3.7857  0.5172
  404TMC3    C7 6093   2.720   2.796  13.218  0.3725 -0.0552  0.1513
  404TMC3    C8 6094   2.643   2.442  13.536 -0.3303  0.4209  0.1302
  404TMC3    O1 6095   2.782   2.901  13.201  0.6739  0.0883 -0.3697
  404TMC3    O2 6096   2.552   2.374  13.487  0.4168 -0.2721 -0.3402
  405MPD2     C 6097   3.165   4.376  15.227 -0.3013  0.9087 -0.1859
  405MPD2    C1 6098   3.206   4.293  15.128  0.1130  0.1912  0.0444
  405MPD2    C2 6099   3.124   4.261  15.028 -0.2681  0.1750  0.5297
  405MPD2    C3 6100   2.991   4.304  15.019  0.3653  1.3831  0.5566
  405MPD2    C4 6101   2.947   4.384  15.123  0.3008  0.1618 -0.2674
  405MPD2    C5 6102   3.035   4.428  15.222  0.1954  0.0513 -0.3871
  405MPD2     H 6103   3.156   4.192  14.952 -0.1837  0.9456 -0.1335
  405MPD2    H1 6104   2.843   4.416  15.121  0.4574  0.6777 -0.0197
  405MPD2    H2 6105   3.229   4.401  15.310  0.1200  1.2709 -0.6167
  405MPD2    H3 6106   3.007   4.496  15.301  0.5982  0.4295 -0.5710
  405MPD2     N 6107   2.915   4.254  14.912  0.6655  0.2751  0.1546
  405MPD2    H5 6108   2.969   4.192  14.853  0.0488  1.9130 -2.1591
  405MPD2    N1 6109   3.337   4.235  15.140 -0.0664  0.2982 -0.1292
  405MPD2    H7 6110   3.396   4.267  15.216 -0.2008  0.3432 -0.0430
  406TMC3    C1 6111   2.602   4.100  14.610  0.3389  0.9859 -0.9273
  406TMC3    C2 6112   2.640   3.968  14.632  0.2419 -0.5647 -0.2252
  406TMC3    C3 6113   2.752   3.949  14.714  0.3863 -0.0024  0.1250
  406TMC3    C4 6114   2.651   4.206  14.690 -0.2854  0.3288  0.4840
  406TMC3    C5 6115   2.747   4.180  14.781  0.5261 -0.0998 -0.1054
  406TMC3    C6 6116   2.799   4.055  14.794 -0.0349  0.1255  0.5057
  406TMC3     C 6117   2.481   4.122  14.533 -0.0411  0.1846 -1.2363
  406TMC3     O 6118   2.469   4.231  14.477 -0.5105 -0.4855 -0.1202
  406TMC3     H 6119   2.609   3.880  14.576  0.9479 -0.1193 -1.3164
  406TMC3    H1 6120   2.620   4.309  14.676  2.1967  1.0596  0.4074
  406TMC3    H2 6121   2.878   4.031  14.864  0.4230  0.4760  0.1092
  406TMC3    C7 6122   2.784   4.273  14.887 -0.0362  0.6834 -0.2768
  406TMC3    C8 6123   2.817   3.819  14.725  0.7070 -0.4904  1.0480
  406TMC3    O1 6124   2.704   4.353  14.931  0.2789 -0.0268 -0.1471
  406TMC3    O2 6125   2.745   3.720  14.716  0.6443  0.0316  0.4288
  407MPD2     C 6126   0.945   0.512  10.162  0.1970  0.5493 -0.1394
  407MPD2    C1 6127   0.993   0.628  10.105 -0.1913 -0.3546  0.4273
  407MPD2    C2 6128   1.023   0.736  10.186 -0.4037  0.2572 -0.0050
  407MPD2    C3 6129   1.028   0.733  10.324 -0.6692  0.0565  0.5959
  407MPD2    C4 6130   0.991   0.606  10.383 -0.6095  0.3484  0.4790
  407MPD2    C5 6131   0.960   0.507  10.295  0.3774  0.1531  1.0545
  407MPD2     H 6132   1.057   0.824  10.133 -0.0331 -0.6466 -1.2633
  407MPD2    H1 6133   0.978   0.593  10.489  4.5954 -0.6654  0.9510
  407MPD2    H2 6134   0.904   0.427  10.107  0.1689  0.5940 -0.1873
  407MPD2    H3 6135   0.935   0.408  10.332  0.7463 -0.3581 -0.0848
  407MPD2     N 6136   1.082   0.840  10.394 -0.1659 -0.2024  0.6368
  407MPD2    H5 6137   1.094   0.927  10.343 -0.7441  0.5529  1.7784
  407MPD2    N1 6138   1.033   0.647   9.971 -0.0434  0.0441  0.0405
  407MPD2    H7 6139   1.091   0.727   9.948 -0.3603  0.7024  1.4897
  408TMC3    C1 6140   1.082   0.609   9.747 -0.4946 -0.9928  0.6611
  408TMC3    C2 6141   1.189   0.543   9.690 -0.4621  0.1226  0.6145
  408TMC3    C3 6142   1.268   0.620   9.606 -0.1047 -0.1467  0.6001
  408TMC3    C4 6143   1.063   0.746   9.735  1.0765 -0.3033  0.0485
  408TMC3    C5 6144   1.132   0.817   9.639 -0.3980 -1.0090 -0.1052
  408TMC3    C6 6145   1.236   0.751   9.575 -0.1260 -0.2440  0.0571
  408TMC3     C 6146   1.023   0.550   9.874  0.2188 -0.3229 -0.4774
  408TMC3     O 6147   1.000   0.432   9.870  0.2382 -0.0606  0.4592
  408TMC3     H 6148   1.219   0.443   9.722 -0.0469 -0.6639 -2.2219
  408TMC3    H1 6149   0.997   0.802   9.801 -1.1063 -0.7554 -1.7465
  408TMC3    H2 6150   1.304   0.805   9.510 -0.0538 -0.0622  0.2844
  408TMC3    C7 6151   1.113   0.960   9.628  0.3185 -0.1898 -0.1594
  408TMC3    C8 6152   1.400   0.566   9.581  0.0565  0.2726 -0.1205
  408TMC3    O1 6153   1.210   1.022   9.594  0.4070  0.3537 -0.1942
  408TMC3    O2 6154   1.407   0.449   9.607  0.4396 -0.2519  0.7661
  409MPD2     C 6155   0.559   1.330  17.032 -0.2090 -0.1053  0.6006
  409MPD2    C1 6156   0.674   1.254  17.044 -0.0586  0.0019 -0.5598
  409MPD2    C2 6157   0.794   1.311  17.008  0.5519  0.9385 -0.3466
  409MPD2    C3 6158   0.807   1.442  16.962 -0.4561  0.3414 -0.1802
  409MPD2    C4 6159   0.693   1.514  16.952  0.2990  0.2896  0.3818
  409MPD2    C5 6160   0.573   1.462  16.994  0.1110  0.3660 -0.5871
  409MPD2     H 6161   0.886   1.255  17.022 -1.0180 -1.6539 -0.4536
  409MPD2    H1 6162   0.703   1.615  16.915 -1.5173  0.2124 -0.3133
  409MPD2    H2 6163   0.462   1.298  17.068 -1.2983  1.6656 -0.7465
  409MPD2    H3 6164   0.481   1.518  16.992  0.1902  0.5071  0.0428
  409MPD2     N 6165   0.931   1.502  16.922  0.1880  0.1102 -0.1735
  409MPD2    H5 6166   0.917   1.591  16.875  0.9732  0.5625  0.4596
  409MPD2    N1 6167   0.673   1.126  17.103 -0.4512  0.0909 -0.4061
  409MPD2    H7 6168   0.766   1.084  17.103 -0.9531 -1.0475 -1.3754
  410TMC3    C1 6169   1.154   1.568  16.918  0.1055 -0.4889  0.1075
  410TMC3    C2 6170   1.260   1.570  17.009 -0.9577 -0.1546  0.0222
  410TMC3    C3 6171   1.333   1.685  17.028  0.2571  0.0795 -0.1675
  410TMC3    C4 6172   1.110   1.685  16.857  0.2705 -0.1746  0.0924
  410TMC3    C5 6173   1.182   1.794  16.887 -0.1860 -0.2398 -0.2349
  410TMC3    C6 6174   1.289   1.800  16.970 -0.5146  0.3475  0.1336
  410TMC3     C 6175   1.057   1.464  16.956  0.4914 -0.5662  0.7728
  410TMC3     O 6176   1.085   1.358  17.013 -0.5715 -0.0651  0.3330
  410TMC3     H 6177   1.268   1.492  17.085 -0.4154 -0.0212  0.1033
  410TMC3    H1 6178   1.015   1.702  16.808  0.7932 -0.6799 -1.1147
  410TMC3    H2 6179   1.319   1.898  17.003  1.0497 -0.6844  1.7916
  410TMC3    C7 6180   1.105   1.918  16.875  0.0212 -0.6577  0.3416
  410TMC3    C8 6181   1.424   1.698  17.139  0.4645 -0.1090  0.2377
  410TMC3    O1 6182   0.982   1.920  16.880 -0.0802  0.0165  0.3976
  410TMC3    O2 6183   1.441   1.812  17.174 -0.4819 -0.2760  0.3497
  411MPD2     C 6184   0.823   1.677  14.457 -0.1436 -0.9162  0.7419
  411MPD2    C1 6185   0.713   1.734  14.401 -0.1586 -0.0297  0.5137
  411MPD2    C2 6186   0.624   1.656  14.341  0.1292  1.1428  0.4469
  411MPD2    C3 6187   0.643   1.524  14.330 -0.8697  0.4708  0.0342
  411MPD2    C4 6188   0.768   1.472  14.364  0.0740 -0.0040 -0.8966
  411MPD2    C5 6189   0.862   1.549  14.428  0.4147  0.0473  0.1524
  411MPD2     H 6190   0.529   1.699  14.309  1.4643  3.6968 -0.0318
  411MPD2    H1 6191   0.774   1.364  14.366  1.9661  0.1548  2.0180
  411MPD2    H2 6192   0.889   1.736  14.519 -0.8052  1.8915 -1.2330
  411MPD2    H3 6193   0.945   1.506  14.484 -0.9276 -0.5743  1.6706
  411MPD2     N 6194   0.552   1.441  14.259  0.0522  0.1578  0.4098
  411MPD2    H5 6195   0.576   1.342  14.254 -0.3226  0.1675 -1.5017
  411MPD2    N1 6196   0.698   1.878  14.427 -0.1357  0.6474  0.7867
  411MPD2    H7 6197   0.761   1.930  14.486  0.9845  0.5236 -0.2874
  412TMC3    C1 6198   0.349   1.367  14.183  0.0448 -0.4491 -0.3541
  412TMC3    C2 6199   0.229   1.325  14.236  0.1452 -0.5527 -0.0433
  412TMC3    C3 6200   0.147   1.251  14.151  0.3567  0.0172 -1.1908
  412TMC3    C4 6201   0.385   1.337  14.051 -0.5125  0.3646 -0.0789
  412TMC3    C5 6202   0.298   1.267  13.972 -0.5993 -0.6957 -0.1443
  412TMC3    C6 6203   0.185   1.225  14.025  0.4843 -1.0204  0.4284
  412TMC3     C 6204   0.417   1.467  14.256 -0.1750 -0.1272  0.4398
  412TMC3     O 6205   0.348   1.549  14.318  0.6448 -0.1976  0.4889
  412TMC3     H 6206   0.199   1.338  14.339  0.3934 -1.7461  0.1784
  412TMC3    H1 6207   0.479   1.373  14.011 -1.0475  1.6265 -0.1807
  412TMC3    H2 6208   0.116   1.177  13.957 -0.0452 -1.3868  1.2226
  412TMC3    C7 6209   0.303   1.316  13.836  0.2078  0.7486  0.1873
  412TMC3    C8 6210   0.006   1.214  14.188  0.8491  1.1281 -0.4097
  412TMC3    O1 6211   0.404   1.286  13.774  0.2354  0.7418 -0.6658
  412TMC3    O2 6212   4.715   1.199  14.305  0.3911 -0.0204  0.1122
  413MPD2     C 6213   2.277   0.500  15.876 -0.0968  0.0232  0.3224
  413MPD2    C1 6214   2.216   0.451  15.760 -0.5916  0.2738  0.2370
  413MPD2    C2 6215   2.279   0.357  15.688 -0.7792  0.7295  0.3161
  413MPD2    C3 6216   2.400   0.307  15.733 -0.4418 -0.1595 -0.8088
  413MPD2    C4 6217   2.458   0.345  15.849 -0.4023 -0.3421 -0.5703
  413MPD2    C5 6218   2.394   0.446  15.920  0.0149 -0.6920  0.4077
  413MPD2     H 6219   2.242   0.330  15.590 -0.2960  0.3518  0.2339
  413MPD2    H1 6220   2.550   0.304  15.888  0.9058  2.4425 -0.7496
  413MPD2    H2 6221   2.234   0.570  15.946 -3.2638 -0.0307 -1.5103
  413MPD2    H3 6222   2.442   0.483  16.010  0.3509  1.0642 -0.4962
  413MPD2     N 6223   2.450   0.203  15.642 -0.1767  0.1425  0.2869
  413MPD2    H5 6224   2.413   0.200  15.547  2.2925 -1.9382 -0.6171
  413MPD2    N1 6225   2.085   0.508  15.728 -0.3097  0.8097 -0.4635
  413MPD2    H7 6226   2.037   0.561  15.799 -0.2059 -0.6151  0.6655
  414TMC3    C1 6227   2.608   0.063  15.544 -0.1316 -0.2554 -0.1886
  414TMC3    C2 6228   2.650   4.668  15.575  0.3004 -0.1058 -0.1724
  414TMC3    C3 6229   2.652   4.584  15.462  0.4353  0.4138 -0.2409
  414TMC3    C4 6230   2.571   0.118  15.424  0.4288 -0.3528  0.1491
  414TMC3    C5 6231   2.610   0.039  15.319  0.1462 -0.1082 -0.6127
  414TMC3    C6 6232   2.650   4.639  15.337  0.2164  0.1966  0.2302
  414TMC3     C 6233   2.572   0.140  15.660 -0.5835 -0.5579  0.5702
  414TMC3     O 6234   2.636   0.139  15.765 -0.3423  0.5252  0.0439
  414TMC3     H 6235   2.661   4.625  15.673 -0.7154  1.6901  0.7351
  414TMC3    H1 6236   2.538   0.221  15.413  0.4549 -0.2226  1.2415
  414TMC3    H2 6237   2.666   4.573  15.252  0.6600  1.4076 -0.6235
  414TMC3    C7 6238   2.696   0.117  15.229 -0.0442  0.2468 -0.2170
  414TMC3    C8 6239   2.735   4.460  15.452 -0.8413 -0.0334  0.0834
  414TMC3    O1 6240   2.734   0.225  15.268  0.4907 -0.3840 -0.3327
  414TMC3    O2 6241   2.698   4.380  15.369 -0.3539  0.2343 -0.1751
  415TMC3    C1 6242   3.205   2.983  10.677  0.1085 -0.7409  0.9457
  415TMC3    C2 6243   3.279   3.048  10.582 -0.3785  0.9340 -0.6095
  415TMC3    C3 6244   3.308   2.978  10.468 -0.4513  0.5374  0.3719
  415TMC3    C4 6245   3.166   2.853  10.661  0.7924  0.5422 -0.1140
  415TMC3    C5 6246   3.195   2.789  10.544 -0.1543  0.0035  0.0188
  415TMC3    C6 6247   3.272   2.855  10.448 -0.2743 -0.8226  0.4260
  415TMC3     C 6248   3.233   3.008  10.813 -0.8710  0.3366 -0.6622
  415TMC3     O 6249   3.158   2.952  10.891 -1.3961 -0.0983  0.0993
  415TMC3     H 6250   3.298   3.154  10.597  2.3560  0.0103  2.5296
  415TMC3    H1 6251   3.109   2.807  10.741  0.7852 -1.3371 -1.2125
  415TMC3    H2 6252   3.286   2.806  10.353 -2.6932  0.9545 -0.8420
  415TMC3    C7 6253   3.150   2.654  10.519  0.1631 -0.4662  0.3241
  415TMC3    C8 6254   3.339   3.063  10.356  0.1462  0.0660 -0.1115
  415TMC3    O1 6255   3.135   2.625  10.402  0.1961 -0.4573 -0.0786
  415TMC3    O2 6256   3.322   3.185  10.378  0.0699  0.0549  0.3131
  416MPD2     C 6257   0.572   2.516  11.083 -0.1061 -0.3166  0.2954
  416MPD2    C1 6258   0.526   2.454  11.199  0.4062 -0.3126 -0.6742
  416MPD2    C2 6259   0.506   2.315  11.206  0.3199 -0.4814  0.1598
  416MPD2    C3 6260   0.536   2.237  11.095 -0.3162 -0.8312 -0.8284
  416MPD2    C4 6261   0.582   2.295  10.973 -0.2507  0.0386 -1.2570
  416MPD2    C5 6262   0.603   2.431  10.975 -0.0691  0.2166 -0.2745
  416MPD2     H 6263   0.484   2.268  11.301 -0.8877  0.1340  0.1817
  416MPD2    H1 6264   0.624   2.237  10.892  0.4900 -1.4611  0.1932
  416MPD2    H2 6265   0.593   2.622  11.076 -0.4392 -0.4468 -2.5898
  416MPD2    H3 6266   0.644   2.475  10.885  0.5878  2.3369  1.0617
  416MPD2     N 6267   0.522   2.097  11.104 -0.4347 -0.2883  0.5027
  416MPD2    H5 6268   0.524   2.047  11.016  1.5095 -1.9176  1.4843
  416MPD2    N1 6269   0.481   2.543  11.298  0.1519  0.6187 -0.0406
  416MPD2    H7 6270   0.488   2.643  11.280 -0.3811  0.3429 -1.7012
  417TMC3    C1 6271   0.357   2.595  11.498 -0.5426 -0.0470 -0.0957
  417TMC3    C2 6272   0.339   2.576  11.632  0.7498  0.4315 -0.5373
  417TMC3    C3 6273   0.236   2.649  11.687  1.0962  0.2151 -0.1898
  417TMC3    C4 6274   0.286   2.682  11.424  0.3239 -0.7231  0.0960
  417TMC3    C5 6275   0.185   2.758  11.484 -0.3472 -0.5807 -0.0883
  417TMC3    C6 6276   0.166   2.750  11.621  0.0046 -0.3335  0.2099
  417TMC3     C 6277   0.439   2.502  11.424  0.2036  0.0098  0.1510
  417TMC3     O 6278   0.468   2.395  11.481  0.2210  0.0710 -0.7480
  417TMC3     H 6279   0.409   2.508  11.679  1.9711  1.8542 -0.2818
  417TMC3    H1 6280   0.276   2.689  11.316  6.0740  0.9818 -0.2737
  417TMC3    H2 6281   0.089   2.810  11.667  0.4376  0.7211 -0.4611
  417TMC3    C7 6282   0.061   2.777  11.408  0.0624 -0.1200 -0.1691
  417TMC3    C8 6283   0.192   2.623  11.825 -0.0466  0.2467  0.4476
  417TMC3    O1 6284   0.021   2.895  11.395  0.5944 -0.0582 -0.2654
  417TMC3    O2 6285   0.115   2.700  11.875  0.7743  0.4530 -0.3564
  418TMC3    C1 6286   3.303   3.987   0.613 -0.2801  0.4085 -0.7139
  418TMC3    C2 6287   3.271   3.882   0.529 -0.2028  0.3706  0.0784
  418TMC3    C3 6288   3.215   3.772   0.591  0.0129  0.1765  1.0188
  418TMC3    C4 6289   3.284   3.979   0.753  0.0420  0.1844 -0.3915
  418TMC3    C5 6290   3.225   3.870   0.807 -0.5276  0.3128 -0.0055
  418TMC3    C6 6291   3.183   3.765   0.726  0.5296  0.0199  0.2891
  418TMC3     C 6292   3.411   4.075   0.574 -0.1215  0.2667  0.0833
  418TMC3     O 6293   3.397   4.192   0.593 -0.1854  0.2806 -0.2008
  418TMC3     H 6294   3.290   3.884   0.422 -0.9827  1.5051 -0.0405
  418TMC3    H1 6295   3.339   4.043   0.821  0.8872  0.5118 -1.3728
  418TMC3    H2 6296   3.142   3.676   0.771 -0.5907  0.2195 -0.3489
  418TMC3    C7 6297   3.286   3.820   0.932  0.6223  0.0733  0.3154
  418TMC3    C8 6298   3.181   3.665   0.506 -0.0768  0.8309 -0.4108
  418TMC3    O1 6299   3.290   3.700   0.952  0.7275  0.8585  1.1210
  418TMC3    O2 6300   3.141   3.701   0.398  0.3054 -0.4641  0.4258
  419MPD2     C 6301   1.354   1.461  12.590 -0.6256 -0.2277 -0.3673
  419MPD2    C1 6302   1.325   1.598  12.574  0.7619 -0.3415 -0.0448
  419MPD2    C2 6303   1.371   1.690  12.664 -0.2033  0.3040  0.1530
  419MPD2    C3 6304   1.446   1.649  12.769 -0.1427  0.2717  0.5357
  419MPD2    C4 6305   1.481   1.518  12.781 -0.1047 -0.3676  0.2887
  419MPD2    C5 6306   1.429   1.422  12.698  0.3874  0.6036 -0.8567
  419MPD2     H 6307   1.342   1.794  12.656 -3.5755 -0.6094  0.2629
  419MPD2    H1 6308   1.554   1.480  12.851 -0.6379  1.6761  1.9788
  419MPD2    H2 6309   1.335   1.387  12.513  0.3544  0.7614 -1.5456
  419MPD2    H3 6310   1.446   1.316  12.714 -1.1807  0.5748  0.5962
  419MPD2     N 6311   1.517   1.753  12.837  0.0278  0.7930 -0.2102
  419MPD2    H5 6312   1.492   1.851  12.823 -1.6501  0.3191 -0.5572
  419MPD2    N1 6313   1.279   1.657  12.457  0.6136  0.3492  0.4957
  419MPD2    H7 6314   1.269   1.758  12.462  0.6366  0.4102 -0.5836
  420TMC3    C1 6315   1.669   1.846  12.998  0.1772 -0.3538  0.1641
  420TMC3    C2 6316   1.665   1.966  12.925  0.7316  0.3649 -1.0534
  420TMC3    C3 6317   1.728   2.069  12.985  1.1377 -0.5174 -1.0961
  420TMC3    C4 6318   1.720   1.837  13.129 -0.5808  0.9684 -0.8942
  420TMC3    C5 6319   1.772   1.951  13.187  0.0617 -0.1247  0.8814
  420TMC3    C6 6320   1.779   2.071  13.112 -0.4221 -0.2050 -0.4912
  420TMC3     C 6321   1.600   1.730  12.943  0.5189  0.5081  1.5395
  420TMC3     O 6322   1.638   1.622  12.988  0.0050 -0.3117 -0.2049
  420TMC3     H 6323   1.635   1.979  12.822 -3.3073  0.9983  0.2142
  420TMC3    H1 6324   1.717   1.741  13.179 -0.3921  0.3525 -2.0953
  420TMC3    H2 6325   1.844   2.149  13.152 -0.4537 -0.1298 -0.5867
  420TMC3    C7 6326   1.811   1.939  13.322  0.1623 -0.0297  0.0260
  420TMC3    C8 6327   1.733   2.197  12.905  0.0191 -0.0511 -0.0867
  420TMC3    O1 6328   1.820   1.834  13.376  0.1662 -0.0656  0.0045
  420TMC3    O2 6329   1.643   2.205  12.817  0.2258  0.2333 -0.1375
  421TMC3    C1 6330   3.503   2.812  14.079 -0.3322 -0.4601 -0.6504
  421TMC3    C2 6331   3.407   2.911  14.076 -0.0186  0.2702  0.5399
  421TMC3    C3 6332   3.401   2.989  14.191 -0.4620  0.3880  0.2885
  421TMC3    C4 6333   3.575   2.781  14.189  0.1062  0.1788 -0.5576
  421TMC3    C5 6334   3.553   2.854  14.300  0.4206  0.5443 -0.3702
  421TMC3    C6 6335   3.467   2.956  14.303  0.2029 -0.3871  0.4819
  421TMC3     C 6336   3.532   2.744  13.953  0.3260  0.5696 -0.0961
  421TMC3     O 6337   3.642   2.689  13.952 -0.1958 -0.5263 -0.2587
  421TMC3     H 6338   3.367   2.953  13.984 -0.4888 -1.4186 -0.0208
  421TMC3    H1 6339   3.662   2.718  14.175 -0.9077 -0.9148 -1.9410
  421TMC3    H2 6340   3.457   3.015  14.394 -0.0914  0.2710  0.0274
  421TMC3    C7 6341   3.672   2.876  14.382 -0.0906 -0.2617 -0.6062
  421TMC3    C8 6342   3.294   3.085  14.204  0.2867 -0.7200 -1.2813
  421TMC3    O1 6343   3.740   2.978  14.366 -0.3805  0.3961 -0.7808
  421TMC3    O2 6344   3.289   3.138  14.314  0.0110  0.6156  0.0522
  422TMC3    C1 6345   1.072   0.161  12.618  0.2476  0.2795  0.9704
  422TMC3    C2 6346   1.077   0.290  12.660  0.3745 -0.6725 -0.1305
  422TMC3    C3 6347   0.962   0.340  12.710 -0.0001  0.0850  0.5159
  422TMC3    C4 6348   0.958   0.091  12.607  0.1016 -0.1363  0.2469
  422TMC3    C5 6349   0.840   0.145  12.657  0.2809  0.3703 -0.2682
  422TMC3    C6 6350   0.839   0.267  12.718 -0.1641  0.2996  0.3031
  422TMC3     C 6351   1.196   0.102  12.575 -0.4618 -0.4797  0.1340
  422TMC3     O 6352   1.282   0.184  12.559 -0.2198 -0.4932  0.2533
  422TMC3     H 6353   1.167   0.351  12.658  1.8776 -2.9660 -2.5261
  422TMC3    H1 6354   0.955   4.726  12.564  1.0077  0.6177 -1.5615
  422TMC3    H2 6355   0.751   0.302  12.770 -0.1723  0.5676  0.1070
  422TMC3    C7 6356   0.715   0.075  12.639 -0.3320  0.0595  0.0332
  422TMC3    C8 6357   0.949   0.484  12.730 -0.4312  0.3118  0.0548
  422TMC3    O1 6358   0.726   4.720  12.557 -0.8626  0.1170  0.8442
  422TMC3    O2 6359   1.049   0.547  12.772 -0.3884 -0.3413 -0.7177
  423MPD2     C 6360   1.888   0.683   0.565  0.5654  0.0376 -0.2032
  423MPD2    C1 6361   2.007   0.753   0.545 -0.2619 -0.3060 -0.1255
  423MPD2    C2 6362   2.065   0.761   0.419 -0.5950 -0.0383  0.2849
  423MPD2    C3 6363   2.011   0.689   0.312  0.5960 -0.0353  0.0536
  423MPD2    C4 6364   1.896   0.616   0.339  0.1296 -0.4289 -0.2790
  423MPD2    C5 6365   1.828   0.621   0.462  0.0414  0.0578 -0.1460
  423MPD2     H 6366   2.156   0.818   0.407 -1.7922  1.3839 -2.0242
  423MPD2    H1 6367   1.849   0.565   0.256 -2.1406 -0.3778  0.9729
  423MPD2    H2 6368   1.855   0.655   0.664 -1.1085  2.1586 -0.1435
  423MPD2    H3 6369   1.729   0.583   0.485 -0.4655  1.3360 -0.2239
  423MPD2     N 6370   2.060   0.675   0.179 -0.3126  0.9200 -0.6199
  423MPD2    H5 6371   2.007   0.618   0.114  1.2333 -0.9390 -0.2334
  423MPD2    N1 6372   2.082   0.813   0.650  0.3352  0.3384 -0.3132
  423MPD2    H7 6373   2.176   0.846   0.632 -0.7499  3.4195 -0.3486
  424TMC3    C1 6374   2.147   0.862   0.873  0.5873 -0.4007  0.6911
  424TMC3    C2 6375   2.277   0.843   0.841  0.3507  0.0706 -0.0220
  424TMC3    C3 6376   2.367   0.914   0.916  0.5319 -0.0079  1.0842
  424TMC3    C4 6377   2.119   0.897   1.003 -0.6839  0.0562  0.9422
  424TMC3    C5 6378   2.207   0.956   1.078  0.1179  0.6886 -0.2572
  424TMC3    C6 6379   2.339   0.968   1.041 -0.2463  0.0626 -1.0124
  424TMC3     C 6380   2.039   0.828   0.782  0.5280 -0.4190 -0.0111
  424TMC3     O 6381   1.926   0.813   0.826 -0.7404  0.2442  0.9802
  424TMC3     H 6382   2.304   0.791   0.749 -0.9657  2.1048 -1.5583
  424TMC3    H1 6383   2.015   0.879   1.028 -0.4256 -1.5242  0.8615
  424TMC3    H2 6384   2.407   1.022   1.105 -1.8884  2.9675 -1.7478
  424TMC3    C7 6385   2.169   1.037   1.185 -0.0816 -0.4701  0.2181
  424TMC3    C8 6386   2.500   0.911   0.867  0.6861  0.4575  0.0593
  424TMC3    O1 6387   2.235   1.138   1.215  0.0020 -0.3546 -0.0703
  424TMC3    O2 6388   2.517   0.858   0.757  0.2241  0.4979 -0.1366
  425MPD2     C 6389   1.557   0.247  17.110  0.3250 -0.2694 -0.7397
  425MPD2    C1 6390   1.459   0.187  17.030 -0.4096  0.3265  0.5381
  425MPD2    C2 6391   1.327   0.180  17.082  0.3135  0.3119 -0.1535
  425MPD2    C3 6392   1.290   0.233  17.203  0.1069 -0.2518 -0.3631
  425MPD2    C4 6393   1.393   0.275  17.282 -0.8373 -0.2747 -0.0785
  425MPD2    C5 6394   1.517   0.287  17.231 -0.4552  0.3838  0.1457
  425MPD2     H 6395   1.248   0.131  17.027  1.1465  2.1398 -2.9610
  425MPD2    H1 6396   1.386   0.301  17.387  3.1959  2.5590 -0.4806
  425MPD2    H2 6397   1.655   0.274  17.072 -0.7337  2.0978 -1.8027
  425MPD2    H3 6398   1.596   0.327  17.294  2.1172 -0.4824 -2.5038
  425MPD2     N 6399   1.154   0.220  17.247  0.0631 -0.2872 -0.3405
  425MPD2    H5 6400   1.090   0.174  17.184 -1.1648 -0.7574  1.2678
  425MPD2    N1 6401   1.504   0.110  16.917 -0.5651  0.7010 -0.3308
  425MPD2    H7 6402   1.604   0.109  16.900 -0.3456  2.5695  0.8040
  426TMC3    C1 6403   1.482   4.680  16.742 -0.1322  0.2473  0.5644
  426TMC3    C2 6404   1.401   4.617  16.651  0.8382 -0.1507  0.3535
  426TMC3    C3 6405   1.448   4.510  16.577 -0.3792 -0.1535  0.2559
  426TMC3    C4 6406   1.603   4.634  16.771 -0.1728 -0.0170  0.8520
  426TMC3    C5 6407   1.652   4.531  16.698 -0.2757  0.5198 -0.5436
  426TMC3    C6 6408   1.581   4.473  16.593  0.1440 -0.5128 -0.6195
  426TMC3     C 6409   1.414   0.036  16.832  0.0966  0.0741 -0.1241
  426TMC3     O 6410   1.290   0.019  16.833 -0.2102 -0.4819 -0.4103
  426TMC3     H 6411   1.299   4.652  16.640  1.7360  2.0385 -0.9703
  426TMC3    H1 6412   1.659   4.669  16.857 -0.1685 -1.0463  1.2768
  426TMC3    H2 6413   1.617   4.383  16.544 -1.3552 -0.5109 -1.7257
  426TMC3    C7 6414   1.714   4.428  16.777 -0.7538  0.5273  0.7937
  426TMC3    C8 6415   1.378   4.393  16.602 -0.7404  0.5260 -0.2818
  426TMC3    O1 6416   1.772   4.343  16.708 -0.1163  0.0066  0.1095
  426TMC3    O2 6417   1.401   4.293  16.537 -0.4294 -0.1551 -0.7396
  427MPD2     C 6418   4.344   1.560  14.849  0.6867  1.1851 -0.1062
  427MPD2    C1 6419   4.398   1.620  14.967  0.0917 -0.5857 -0.2224
  427MPD2    C2 6420   4.367   1.747  14.992 -0.0625  0.2204 -0.0616
  427MPD2    C3 6421   4.267   1.816  14.926  0.2269  0.0593  0.3975
  427MPD2    C4 6422   4.207   1.754  14.820 -0.2806 -0.3024 -0.9129
  427MPD2    C5 6423   4.257   1.626  14.780  0.4069 -0.3099 -0.5802
  427MPD2     H 6424   4.402   1.786  15.087  0.0995 -1.8992  0.7369
  427MPD2    H1 6425   4.114   1.778  14.769 -1.3158 -0.8166  0.7248
  427MPD2    H2 6426   4.364   1.456  14.827  0.0866  1.0031  0.2290
  427MPD2    H3 6427   4.205   1.588  14.692  0.1144  1.5998 -1.2420
  427MPD2     N 6428   4.222   1.940  14.968 -0.4531  0.7435  0.2432
  427MPD2    H5 6429   4.125   1.962  14.947 -0.0737  2.2145  0.0907
  427MPD2    N1 6430   4.486   1.560  15.058  0.3101 -0.9489  0.1439
  427MPD2    H7 6431   4.526   1.622  15.127  1.3891  0.7277 -1.9972
  428TMC3    C1 6432   4.575   1.388  15.189  0.5670 -0.2728 -0.5858
  428TMC3    C2 6433   4.575   1.252  15.228  0.0424 -0.0920 -0.4177
  428TMC3    C3 6434   4.647   1.213  15.337  0.3367 -0.1653 -0.8425
  428TMC3    C4 6435   4.649   1.474  15.256 -0.0797  0.3433  0.4371
  428TMC3    C5 6436   4.709   1.431  15.377  0.1509 -0.7187  0.1040
  428TMC3    C6 6437   4.717   1.296  15.417  0.2968 -0.3256 -1.1035
  428TMC3     C 6438   4.507   1.422  15.069  0.1931 -0.2945  0.0734
  428TMC3     O 6439   4.473   1.327  14.999 -0.5847  0.2577 -0.3130
  428TMC3     H 6440   4.493   1.197  15.183 -0.3437  3.4347 -3.9610
  428TMC3    H1 6441   4.670   1.567  15.205  0.8936 -0.7622 -1.2136
  428TMC3    H2 6442   0.047   1.256  15.494  0.5408  0.3352 -0.9667
  428TMC3    C7 6443   0.075   1.517  15.419  0.1676 -0.4178  0.5301
  428TMC3    C8 6444   4.665   1.077  15.362  0.5700  0.4775  0.5088
  428TMC3    O1 6445   0.096   1.615  15.349 -0.0610  0.2981  0.6772
  428TMC3    O2 6446   0.016   1.045  15.446 -0.2695  0.1233  0.6046
  429MPD2     C 6447   1.151   2.149   0.300  0.1105 -0.6975  0.0749
  429MPD2    C1 6448   1.172   2.073   0.187 -0.0900 -0.3264 -0.2966
  429MPD2    C2 6449   1.214   2.128   0.060 -0.2594  0.1309 -0.1644
  429MPD2    C3 6450   1.231   2.266   0.058  0.0713 -0.2823  0.0455
  429MPD2    C4 6451   1.198   2.345   0.170  0.0722 -1.5396  0.9529
  429MPD2    C5 6452   1.173   2.285   0.289 -0.1902  0.6878  0.6722
  429MPD2     H 6453   1.244   2.070  17.709 -0.4639 -1.8350  1.0837
  429MPD2    H1 6454   1.205   2.453   0.174  0.6217 -1.5711  0.8235
  429MPD2    H2 6455   1.103   2.116   0.391 -0.3558  0.1117  0.1222
  429MPD2    H3 6456   1.151   2.343   0.378 -0.8521  0.4817  0.6408
  429MPD2     N 6457   1.301   2.325  17.685 -0.2961  1.4047  0.3089
  429MPD2    H5 6458   1.331   2.254  17.619 -1.1757 -1.1333  2.6053
  429MPD2    N1 6459   1.164   1.931   0.196 -0.2629  0.5833 -0.7718
  429MPD2    H7 6460   1.159   1.880   0.109  0.6087 -1.1522  0.1908
  430TMC3    C1 6461   1.402   2.488  17.550 -0.6327 -0.0315 -0.3147
  430TMC3    C2 6462   1.397   2.611  17.495  0.5977  0.1079 -0.8114
  430TMC3    C3 6463   1.489   2.649  17.403 -0.5522  0.3573  0.0200
  430TMC3    C4 6464   1.498   2.400  17.519  0.1768  0.2410  0.3004
  430TMC3    C5 6465   1.581   2.432  17.415  0.5641  0.1510  0.1972
  430TMC3    C6 6466   1.582   2.553  17.359  0.3247  0.1993  0.2789
  430TMC3     C 6467   1.310   2.458  17.657 -0.2373  0.1264 -0.0897
  430TMC3     O 6468   1.243   2.547  17.707  0.6830 -0.3398  0.2010
  430TMC3     H 6469   1.318   2.682  17.516 -0.1934 -0.6336 -1.2501
  430TMC3    H1 6470   1.512   2.305  17.570 -2.1844  0.6783  1.7615
  430TMC3    H2 6471   1.667   2.577  17.297 -1.3714 -1.0437 -2.5358
  430TMC3    C7 6472   1.672   2.327  17.373 -0.5772  0.0063  0.2867
  430TMC3    C8 6473   1.457   2.762  17.330 -0.8065 -0.1441 -0.1630
  430TMC3    O1 6474   1.698   2.233  17.442 -0.3025 -0.1463  0.0276
  430TMC3    O2 6475   1.401   2.856  17.387 -0.2676 -0.0291 -0.5364
  431MPD2     C 6476   1.870   1.932  12.650  0.4961  0.3922  0.1919
  431MPD2    C1 6477   1.833   2.033  12.558  0.3998  0.1899  0.1523
  431MPD2    C2 6478   1.739   2.019  12.459  0.3984  0.3849  0.2878
  431MPD2    C3 6479   1.659   1.906  12.467 -0.2824  0.5716  0.2038
  431MPD2    C4 6480   1.687   1.805  12.557 -0.2746 -0.2194 -0.0568
  431MPD2    C5 6481   1.793   1.820  12.643 -0.5503 -0.4200  0.0452
  431MPD2     H 6482   1.720   2.105  12.397 -0.0754 -0.0551 -0.1784
  431MPD2    H1 6483   1.639   1.708  12.552 -0.1598 -0.2777 -0.0244
  431MPD2    H2 6484   1.934   1.943  12.736  2.2606  2.0051 -1.3381
  431MPD2    H3 6485   1.812   1.745  12.719 -2.1059 -2.5133 -1.6377
  431MPD2     N 6486   1.554   1.877  12.380 -0.5980  0.0878  0.6274
  431MPD2    H5 6487   1.495   1.796  12.392  0.5398 -0.9208 -0.5391
  431MPD2    N1 6488   1.892   2.161  12.567  0.8154 -0.8254  0.3310
  431MPD2    H7 6489   1.846   2.228  12.506 -1.0674  0.2430  2.9074
  432TMC3    C1 6490   1.423   1.868  12.184  0.5006 -0.6690  0.9009
  432TMC3    C2 6491   1.435   1.826  12.052  0.1254  0.2396  0.2330
  432TMC3    C3 6492   1.366   1.719  12.009  0.5616 -0.1687  0.0424
  432TMC3    C4 6493   1.331   1.808  12.262 -0.2512  0.7559 -0.4475
  432TMC3    C5 6494   1.269   1.693  12.225 -0.5447  0.1049 -0.6294
  432TMC3    C6 6495   1.282   1.647  12.096  0.4554 -0.5409  0.3189
  432TMC3     C 6496   1.530   1.936  12.255 -0.5620 -0.0882 -0.5033
  432TMC3     O 6497   1.582   2.034  12.197  0.0762  0.1185 -0.8130
  432TMC3     H 6498   1.504   1.887  11.994 -0.0501 -1.2600 -1.5429
  432TMC3    H1 6499   1.301   1.858  12.353  0.0698  0.7238 -0.3272
  432TMC3    H2 6500   1.260   1.544  12.072 -0.7540 -0.1578 -0.1964
  432TMC3    C7 6501   1.256   1.595  12.332 -0.4327 -0.2096 -0.0094
  432TMC3    C8 6502   1.430   1.633  11.907  0.1810  0.6020  0.2771
  432TMC3    O1 6503   1.283   1.476  12.306 -0.1609  0.4009 -0.7480
  432TMC3    O2 6504   1.360   1.549  11.846 -0.4819 -0.8284  1.0385
  433MPD2     C 6505   0.918   0.739  11.125  0.1723  0.0028 -0.0423
  433MPD2    C1 6506   1.026   0.689  11.188 -0.0770 -0.0445 -0.3528
  433MPD2    C2 6507   1.062   0.732  11.309 -0.2787 -0.1042  0.6289
  433MPD2    C3 6508   0.981   0.814  11.375 -0.6266  0.1766 -0.2364
  433MPD2    C4 6509   0.867   0.861  11.320 -0.5504 -0.0050  0.4557
  433MPD2    C5 6510   0.837   0.829  11.185  0.0517  0.1262 -0.2153
  433MPD2     H 6511   1.156   0.715  11.360 -0.7468 -1.2346  1.1243
  433MPD2    H1 6512   0.798   0.934  11.361  0.5118  1.9132 -1.1572
  433MPD2    H2 6513   0.896   0.702  11.025 -0.2729  0.2719 -0.0433
  433MPD2    H3 6514   0.756   0.878  11.132  1.2281  0.9034 -1.2952
  433MPD2     N 6515   1.031   0.849  11.505 -0.5906  0.2081  0.9729
  433MPD2    H5 6516   1.125   0.818  11.527 -0.7433 -0.8147  0.1968
  433MPD2    N1 6517   1.111   0.604  11.119  1.2942  0.1153 -0.2318
  433MPD2    H7 6518   1.087   0.592  11.021 -1.7734 -0.2795  0.5710
  434TMC3    C1 6519   1.309   0.481  11.069  0.1899 -0.2051  0.2371
  434TMC3    C2 6520   1.408   0.405  11.120 -0.3884  0.2498  0.8366
  434TMC3    C3 6521   1.543   0.419  11.083 -0.3439 -0.9294 -0.0775
  434TMC3    C4 6522   1.345   0.555  10.962 -0.0143 -0.5111  0.2795
  434TMC3    C5 6523   1.470   0.556  10.903  0.2746 -0.2010 -0.2513
  434TMC3    C6 6524   1.573   0.491  10.972 -0.0402  0.2206 -0.0974
  434TMC3     C 6525   1.214   0.520  11.177  0.8576  0.4302 -0.3053
  434TMC3     O 6526   1.242   0.495  11.292  0.0369 -0.1392 -0.3044
  434TMC3     H 6527   1.389   0.347  11.210  0.9819  0.6531  1.3812
  434TMC3    H1 6528   1.271   0.614  10.909 -2.1403 -1.4964  2.1529
  434TMC3    H2 6529   1.677   0.508  10.945 -0.1892  0.2186 -0.6620
  434TMC3    C7 6530   1.499   0.575  10.763  0.9276 -0.4584  0.7746
  434TMC3    C8 6531   1.647   0.360  11.175  0.2883 -0.0232 -0.2250
  434TMC3    O1 6532   1.609   0.615  10.728  0.7064 -0.7011  0.7721
  434TMC3    O2 6533   1.611   0.260  11.239  0.2811  0.9499 -0.1290
  435MPD2     C 6534   2.832   1.073  15.592 -0.0635  0.0995  0.6689
  435MPD2    C1 6535   2.786   1.054  15.722  0.4327  0.0324  0.1956
  435MPD2    C2 6536   2.879   1.064  15.822 -0.1275  0.1017  0.0584
  435MPD2    C3 6537   3.013   1.079  15.791 -0.5182 -0.2483  0.2206
  435MPD2    C4 6538   3.055   1.075  15.654 -0.6493 -0.0876  0.0357
  435MPD2    C5 6539   2.962   1.078  15.555  0.1258 -0.2682  0.2370
  435MPD2     H 6540   2.846   1.058  15.924  2.2107 -1.7546  0.7095
  435MPD2    H1 6541   3.158   1.073  15.622 -0.8788  1.4585 -0.7637
  435MPD2    H2 6542   2.765   1.070  15.507  2.6173  0.1622 -1.4824
  435MPD2    H3 6543   2.992   1.077  15.451  0.1137 -1.1267  0.2416
  435MPD2     N 6544   3.102   1.076  15.902 -0.5486 -0.7844 -0.0258
  435MPD2    H5 6545   3.067   1.064  15.996  0.1565 -0.2761  0.2993
  435MPD2    N1 6546   2.655   1.027  15.760 -0.3058 -0.0019 -0.6611
  435MPD2    H7 6547   2.632   1.052  15.855 -0.2932 -1.5906 -0.2461
  436TMC3    C1 6548   2.303   0.922  15.936 -0.8780 -0.0640  0.4470
  436TMC3    C2 6549   2.425   0.946  15.883 -0.1429  0.3613  0.3500
  436TMC3    C3 6550   2.434   0.964  15.743  0.3234 -0.5775  0.3465
  436TMC3    C4 6551   2.192   0.902  15.867  0.1760 -0.0669  0.5875
  436TMC3    C5 6552   2.209   0.918  15.727 -0.1480  0.7556  0.4230
  436TMC3    C6 6553   2.325   0.948  15.661 -0.1317  0.7793  0.5858
  436TMC3     C 6554   2.291   0.871  16.074 -0.1145  0.1090 -0.1518
  436TMC3     O 6555   2.305   0.749  16.092  0.0208  0.4225  0.5088
  436TMC3     H 6556   2.508   0.950  15.953  0.5123  0.3365 -0.4322
  436TMC3    H1 6557   2.098   0.867  15.908  0.8671 -2.5172  0.0668
  436TMC3    H2 6558   2.334   0.957  15.554  0.9013  0.6962  0.6605
  436TMC3    C7 6559   2.088   0.890  15.646 -0.2139 -0.5198 -0.2591
  436TMC3    C8 6560   2.560   0.966  15.679 -0.2407  0.7280 -0.1189
  436TMC3    O1 6561   1.979   0.887  15.700  0.1686 -0.4606  0.0796
  436TMC3    O2 6562   2.556   0.916  15.567  0.1913 -0.1103 -0.1546
  437TMC3    C1 6563   1.456   3.139  12.694 -0.6502 -0.2855 -0.0795
  437TMC3    C2 6564   1.365   3.242  12.706 -0.0658 -0.2982 -0.0496
  437TMC3    C3 6565   1.394   3.366  12.654 -0.1631  0.5462  0.3873
  437TMC3    C4 6566   1.577   3.163  12.637 -0.4319 -0.3928  0.4403
  437TMC3    C5 6567   1.600   3.281  12.579  0.0183  0.1995 -0.1232
  437TMC3    C6 6568   1.513   3.384  12.588 -0.5203  0.3518 -0.2711
  437TMC3     C 6569   1.463   3.038  12.801 -0.0572 -0.4417 -0.4355
  437TMC3     O 6570   1.555   2.964  12.788  0.2922 -0.0691  0.3719
  437TMC3     H 6571   1.274   3.235  12.765 -0.8242  1.2716 -1.0144
  437TMC3    H1 6572   1.653   3.085  12.630  0.3750  0.4336  0.0181
  437TMC3    H2 6573   1.532   3.473  12.529 -0.6493 -0.2670 -1.2485
  437TMC3    C7 6574   1.741   3.312  12.537  0.3939 -0.5762  0.0537
  437TMC3    C8 6575   1.317   3.483  12.698  0.1524  0.2752 -0.3113
  437TMC3    O1 6576   1.763   3.388  12.446 -0.2849  0.1533 -0.1268
  437TMC3    O2 6577   1.197   3.485  12.682 -0.2819 -1.2557  0.2784
  438MPD2     C 6578   4.000   3.976  16.753  0.6523 -0.0238 -0.3926
  438MPD2    C1 6579   4.113   3.934  16.814 -0.3236  0.0380  0.5932
  438MPD2    C2 6580   4.114   3.957  16.953 -0.8715  0.8963 -0.4446
  438MPD2    C3 6581   4.000   4.010  17.019  0.4173  0.1588  0.0422
  438MPD2    C4 6582   3.885   4.039  16.952 -0.1599  0.1647  0.1799
  438MPD2    C5 6583   3.888   4.035  16.819 -0.1732  0.4385 -0.1785
  438MPD2     H 6584   4.208   3.933  17.001 -1.6723  0.9292  1.1405
  438MPD2    H1 6585   3.799   4.087  16.997 -0.7863 -1.0092  0.2398
  438MPD2    H2 6586   3.981   3.968  16.646  0.7313  1.8725 -0.5527
  438MPD2    H3 6587   3.801   4.053  16.757  0.3304  1.6744 -0.5244
  438MPD2     N 6588   4.006   4.034  17.159  0.1590 -0.5243  0.0962
  438MPD2    H5 6589   3.923   4.072  17.203 -0.7109  0.6048 -2.4591
  438MPD2    N1 6590   4.215   3.870  16.752 -0.1487  0.2079  0.2715
  438MPD2    H7 6591   4.285   3.820  16.805  0.7535  1.1440 -0.0500
  439TMC3    C1 6592   4.286   3.729  16.581 -0.0940  0.0030  0.4076
  439TMC3    C2 6593   4.327   3.710  16.454 -0.1285 -0.0752  0.1830
  439TMC3    C3 6594   4.387   3.594  16.422 -0.0125 -0.2635 -0.0071
  439TMC3    C4 6595   4.296   3.632  16.678  0.2821  0.4364  0.2810
  439TMC3    C5 6596   4.365   3.517  16.641  0.5610  0.3373 -0.0193
  439TMC3    C6 6597   4.402   3.492  16.511  0.4921  1.0032  0.0689
  439TMC3     C 6598   4.214   3.846  16.615  1.0796 -1.0019  0.4672
  439TMC3     O 6599   4.175   3.914  16.523 -0.0609 -0.1538  0.3483
  439TMC3     H 6600   4.326   3.796  16.388 -0.5762 -0.3516 -0.1638
  439TMC3    H1 6601   4.235   3.637  16.767 -0.6122  2.2496 -0.4530
  439TMC3    H2 6602   4.454   3.402  16.481 -1.9245 -0.9539  1.7254
  439TMC3    C7 6603   4.379   3.413  16.746 -0.4147  0.4428  0.1123
  439TMC3    C8 6604   4.403   3.554  16.284 -0.0790 -0.5097 -0.5613
  439TMC3    O1 6605   4.381   3.440  16.863  0.5004  0.4255 -0.0899
  439TMC3    O2 6606   4.442   3.439  16.272 -0.3858 -0.0644  0.0889
  440MPD2     C 6607   2.296   3.919  14.948 -0.0176  0.0995  0.5848
  440MPD2    C1 6608   2.391   4.016  14.988  0.4059  0.5605  0.4921
  440MPD2    C2 6609   2.511   3.966  15.035  0.3203  0.1921  0.4291
  440MPD2    C3 6610   2.551   3.833  15.016  0.0543 -0.5736 -0.2132
  440MPD2    C4 6611   2.460   3.745  14.956 -0.6499 -0.3686  0.1473
  440MPD2    C5 6612   2.334   3.790  14.934  0.7101 -0.3565  0.4813
  440MPD2     H 6613   2.581   4.040  15.072  0.6258  0.8604 -1.4836
  440MPD2    H1 6614   2.486   3.640  14.949 -0.1019 -0.0896 -1.9307
  440MPD2    H2 6615   2.197   3.947  14.914  0.6988  1.7444 -0.1593
  440MPD2    H3 6616   2.261   3.729  14.883 -1.1812  2.3279 -0.0419
  440MPD2     N 6617   2.675   3.779  15.063 -0.7683 -0.0350 -0.3308
  440MPD2    H5 6618   2.678   3.678  15.071  0.1633 -0.0091 -0.4105
  440MPD2    N1 6619   2.357   4.154  14.997  0.5490  0.6269 -0.1380
  440MPD2    H7 6620   2.428   4.211  15.041  2.4398 -0.8171 -1.2745
  441TMC3    C1 6621   2.903   3.790  15.153 -0.0380 -0.3977 -0.2843
  441TMC3    C2 6622   3.004   3.883  15.188 -0.3410  0.0540 -0.3178
  441TMC3    C3 6623   3.087   3.844  15.289 -0.3562 -0.6741 -0.0325
  441TMC3    C4 6624   2.901   3.668  15.208 -0.3243 -0.3125  0.9873
  441TMC3    C5 6625   2.999   3.623  15.294 -0.2753  0.3795  0.0238
  441TMC3    C6 6626   3.092   3.714  15.340  0.4269 -0.2334 -0.2916
  441TMC3     C 6627   2.789   3.856  15.092  0.7527  0.8469  0.0005
  441TMC3     O 6628   2.792   3.976  15.088  0.6192  0.1990 -0.4897
  441TMC3     H 6629   3.009   3.974  15.129  1.9298  0.5157  0.6029
  441TMC3    H1 6630   2.822   3.597  15.185 -1.0950  0.1702  2.1278
  441TMC3    H2 6631   3.153   3.676  15.421  0.2004 -2.3341 -1.1074
  441TMC3    C7 6632   2.946   3.532  15.391 -0.1521  0.1653  0.3520
  441TMC3    C8 6633   3.133   3.946  15.379  0.2703  0.5752  0.4032
  441TMC3    O1 6634   2.827   3.551  15.425  0.3668  0.8010 -0.0707
  441TMC3    O2 6635   3.219   3.923  15.463 -0.7305  0.0606  0.1743
  442MPD2     C 6636   0.934   4.660  16.663 -0.0974 -0.0456 -0.7802
  442MPD2    C1 6637   0.876   4.563  16.745 -0.6962 -0.3988  0.1303
  442MPD2    C2 6638   0.901   4.431  16.725  0.3181  0.3345 -0.7827
  442MPD2    C3 6639   0.999   4.391  16.632 -0.2628 -0.0350 -0.3443
  442MPD2    C4 6640   1.056   4.482  16.549  0.1832 -0.2096 -0.3896
  442MPD2    C5 6641   1.015   4.614  16.554  0.1718 -0.5966  0.4104
  442MPD2     H 6642   0.850   4.355  16.784  0.5139 -0.4502 -1.6198
  442MPD2    H1 6643   1.122   4.452  16.469 -0.2653 -1.9155 -0.1031
  442MPD2    H2 6644   0.906   0.030  16.665  1.7484  0.4171  0.8586
  442MPD2    H3 6645   1.052   4.681  16.477  0.2049  1.0104  1.8221
  442MPD2     N 6646   1.049   4.261  16.594 -0.3309  0.0206 -0.1206
  442MPD2    H5 6647   1.118   4.258  16.520  1.8149  0.6271  1.8618
  442MPD2    N1 6648   0.767   4.593  16.829 -0.7495  0.1580  0.1042
  442MPD2    H7 6649   0.723   4.525  16.889 -1.8604 -0.7709 -1.7620
  443TMC3    C1 6650   0.579   4.702  16.925 -0.5063 -0.4405 -0.7859
  443TMC3    C2 6651   0.467   0.026  16.885 -0.3258  0.0897  0.3763
  443TMC3    C3 6652   0.352   0.011  16.962 -0.3414 -0.0959  0.2826
  443TMC3    C4 6653   0.593   4.640  17.043 -0.5713 -0.9723 -0.4947
  443TMC3    C5 6654   0.479   4.626  17.111  0.0176  0.4030 -0.6288
  443TMC3    C6 6655   0.365   4.676  17.078  0.1274 -0.0613 -0.1952
  443TMC3     C 6656   0.700   4.708  16.838 -0.4475 -0.3297 -0.5091
  443TMC3     O 6657   0.742   0.086  16.809 -0.2170 -0.2967 -0.1870
  443TMC3     H 6658   0.480   0.081  16.793  0.2665 -0.3549  0.1913
  443TMC3    H1 6659   0.681   4.594  17.085 -0.3295 -1.0127 -1.0469
  443TMC3    H2 6660   0.279   4.653  17.140  0.5605 -2.4487 -0.4871
  443TMC3    C7 6661   0.477   4.521  17.210 -0.3372  0.4578  0.1020
  443TMC3    C8 6662   0.239   0.096  16.964 -0.0704  0.6645 -0.0398
  443TMC3    O1 6663   0.552   4.422  17.197  0.6065 -0.3561 -0.1002
  443TMC3    O2 6664   0.197   0.136  17.073 -0.0869 -0.0269  0.4213
  444MPD2     C 6665   1.416   3.715  17.180 -0.5579  0.4006  0.1319
  444MPD2    C1 6666   1.319   3.657  17.106  0.4754 -0.2993 -0.3191
  444MPD2    C2 6667   1.355   3.550  17.020  0.0574 -0.0434 -0.5715
  444MPD2    C3 6668   1.485   3.511  17.005  0.2613 -0.3024  0.1111
  444MPD2    C4 6669   1.581   3.575  17.086 -1.2052 -0.8356  0.7035
  444MPD2    C5 6670   1.543   3.670  17.174  1.0079  0.1323  0.7234
  444MPD2     H 6671   1.277   3.504  16.959 -0.9710  0.7576  0.1533
  444MPD2    H1 6672   1.688   3.559  17.077 -1.0709  0.2097  0.4165
  444MPD2    H2 6673   1.401   3.792  17.255 -0.9389  0.9658 -0.5235
  444MPD2    H3 6674   1.615   3.706  17.247  0.8888  1.3555  0.2392
  444MPD2     N 6675   1.525   3.406  16.912  0.1917 -0.5201  0.4732
  444MPD2    H5 6676   1.453   3.364  16.854 -0.9943 -1.8659  2.9033
  444MPD2    N1 6677   1.185   3.701  17.121  0.1526  0.5420 -0.4844
  444MPD2    H7 6678   1.119   3.658  17.058 -2.1892  0.9180  1.6848
  445TMC3    C1 6679   1.664   3.235  16.808 -0.1040 -0.2487 -0.0222
  445TMC3    C2 6680   1.597   3.247  16.687  0.0662 -0.4594  0.9096
  445TMC3    C3 6681   1.643   3.162  16.589  0.1909 -0.4036 -0.1882
  445TMC3    C4 6682   1.769   3.150  16.839 -0.1826 -0.2355 -0.0476
  445TMC3    C5 6683   1.810   3.071  16.734 -0.5908 -0.7189  0.4192
  445TMC3    C6 6684   1.742   3.072  16.617  0.3969  0.2483  0.3360
  445TMC3     C 6685   1.646   3.345  16.904 -0.3846 -0.9677 -0.1704
  445TMC3     O 6686   1.752   3.370  16.968  0.5041 -0.2830  0.1156
  445TMC3     H 6687   1.512   3.313  16.680 -0.3519 -0.9680  1.1658
  445TMC3    H1 6688   1.812   3.135  16.938 -2.4381  1.3675  1.1779
  445TMC3    H2 6689   1.766   3.008  16.532  2.4169  0.2865  0.8853
  445TMC3    C7 6690   1.949   3.046  16.716 -0.1116 -0.1084 -0.2853
  445TMC3    C8 6691   1.572   3.159  16.464  0.1254  0.0181  0.5860
  445TMC3    O1 6692   1.994   3.022  16.605 -0.1752 -0.1811 -0.0491
  445TMC3    O2 6693   1.591   3.055  16.398  0.2480 -0.1839 -0.3936
  446MPD2     C 6694   1.142   0.003  11.553 -0.3507  0.6734 -0.2091
  446MPD2    C1 6695   1.106   0.112  11.464  0.5187  0.9902 -0.8518
  446MPD2    C2 6696   1.190   0.220  11.451 -0.3917 -0.5033  0.7709
  446MPD2    C3 6697   1.307   0.224  11.522 -0.2898 -0.0061 -0.1679
  446MPD2    C4 6698   1.327   0.123  11.611 -1.2362  0.0853  0.1530
  446MPD2    C5 6699   1.253   0.018  11.624 -0.2010 -0.4840  0.2581
  446MPD2     H 6700   1.172   0.305  11.387  0.1062 -0.0626  1.2173
  446MPD2    H1 6701   1.427   0.121  11.653 -0.3040 -0.5684 -2.1016
  446MPD2    H2 6702   1.086   4.646  11.567 -0.1528  0.3183 -1.8197
  446MPD2    H3 6703   1.273   4.661  11.678 -1.5066 -0.5136  0.6784
  446MPD2     N 6704   1.382   0.342  11.511  0.0133  0.3561 -0.3118
  446MPD2    H5 6705   1.349   0.412  11.445 -3.1670 -2.0587 -1.3285
  446MPD2    N1 6706   0.996   0.087  11.376  0.2145 -0.4224 -0.4088
  446MPD2    H7 6707   0.949   4.733  11.394 -2.7977  1.0103 -1.2563
  447TMC3    C1 6708   1.564   0.499  11.551 -0.3323  0.5003 -0.8056
  447TMC3    C2 6709   1.517   0.573  11.440  0.2166 -0.0799  0.2023
  447TMC3    C3 6710   1.608   0.669  11.398 -0.6065  1.3931  0.0509
  447TMC3    C4 6711   1.683   0.522  11.615 -0.0787  0.3956 -0.1981
  447TMC3    C5 6712   1.767   0.614  11.560 -0.4079 -0.3072  0.2225
  447TMC3    C6 6713   1.736   0.684  11.452  0.1764  0.8302 -0.4483
  447TMC3     C 6714   1.499   0.366  11.577  0.3427 -0.7663 -0.3095
  447TMC3     O 6715   1.557   0.295  11.650 -0.1952 -0.3255  0.6163
  447TMC3     H 6716   1.419   0.563  11.396 -0.3331  2.1613  0.8881
  447TMC3    H1 6717   1.708   0.458  11.698 -0.8491 -0.9163 -0.9650
  447TMC3    H2 6718   1.799   0.770  11.431 -1.5239  2.8363  2.6943
  447TMC3    C7 6719   1.907   0.613  11.603 -0.4150  0.4065  0.4873
  447TMC3    C8 6720   1.589   0.721  11.263  0.5198  0.1434  0.4724
  447TMC3    O1 6721   1.974   0.658  11.514 -0.2099 -0.7282  0.1253
  447TMC3    O2 6722   1.477   0.721  11.220 -0.4366  0.1673 -0.5754
  448TMC3    C1 6723   0.026   0.375  17.317  0.1137  0.3318  0.2204
  448TMC3    C2 6724   4.702   0.277  17.244 -0.3082 -0.0848  0.4148
  448TMC3    C3 6725   4.571   0.241  17.274  0.7343  0.0096  0.8673
  448TMC3    C4 6726   4.691   0.436  17.418  0.0759  0.1389 -0.3580
  448TMC3    C5 6727   4.567   0.387  17.461  0.3251 -0.5233  0.4114
  448TMC3    C6 6728   4.505   0.288  17.386 -0.4494  0.5341  0.0717
  448TMC3     C 6729   0.124   0.456  17.249  0.3481 -0.3455 -0.0248
  448TMC3     O 6730   0.130   0.574  17.283 -0.2622 -0.0512  0.2569
  448TMC3     H 6731   0.020   0.260  17.150 -0.4658  0.3428  0.2499
  448TMC3    H1 6732   0.003   0.520  17.468 -0.2057 -0.4975  0.9643
  448TMC3    H2 6733   4.404   0.258  17.410 -1.5012  2.7119 -1.5573
  448TMC3    C7 6734   4.485   0.475  17.547 -0.3204 -0.7212  0.0576
  448TMC3    C8 6735   4.499   0.135  17.200 -0.0747 -0.5453 -0.2127
  448TMC3    O1 6736   4.528   0.588  17.557 -0.3254 -0.4230  0.0001
  448TMC3    O2 6737   4.433   0.056  17.271 -0.1172 -0.1478  0.3928
  449MPD2     C 6738   0.735   3.480  14.197  0.2245 -0.0514  0.3129
  449MPD2    C1 6739   0.608   3.437  14.155  0.0065  0.3470 -0.6048
  449MPD2    C2 6740   0.512   3.411  14.249 -0.2524  0.2540  0.1701
  449MPD2    C3 6741   0.532   3.445  14.382  0.4549  0.3530 -0.1018
  449MPD2    C4 6742   0.657   3.491  14.419 -0.0180  0.0998 -0.1614
  449MPD2    C5 6743   0.755   3.506  14.334 -0.7498 -0.0756 -0.1865
  449MPD2     H 6744   0.417   3.368  14.222  0.1395  0.1064 -0.9425
  449MPD2    H1 6745   0.672   3.509  14.525 -1.3590 -0.7861  0.1837
  449MPD2    H2 6746   0.821   3.494  14.131 -0.8071  0.6829 -0.8773
  449MPD2    H3 6747   0.853   3.536  14.367 -0.4156 -0.0531 -1.1951
  449MPD2     N 6748   0.421   3.439  14.472 -0.4108  0.2133 -0.2886
  449MPD2    H5 6749   0.330   3.408  14.440  0.8696 -1.0627 -2.6777
  449MPD2    N1 6750   0.556   3.446  14.024 -0.2199  0.1897 -0.1373
  449MPD2    H7 6751   0.467   3.401  14.004  1.1909 -1.5950 -2.5037
  450TMC3    C1 6752   0.540   3.530  13.812  0.3465  0.3860  0.7417
  450TMC3    C2 6753   0.585   3.508  13.686  0.3755 -0.0762 -0.6989
  450TMC3    C3 6754   0.483   3.503  13.590 -0.1346  0.3191 -0.2589
  450TMC3    C4 6755   0.410   3.553  13.844 -0.2454 -0.8365  0.2636
  450TMC3    C5 6756   0.319   3.550  13.742 -0.1761  0.5377 -0.4026
  450TMC3    C6 6757   0.350   3.522  13.611  0.3941  0.1803  0.0138
  450TMC3     C 6758   0.628   3.492  13.914  0.2006 -0.1928 -0.5524
  450TMC3     O 6759   0.752   3.508  13.892 -0.5597  0.4532  0.7750
  450TMC3     H 6760   0.684   3.466  13.678  0.4860 -0.0998  0.6831
  450TMC3    H1 6761   0.383   3.590  13.942  0.4264 -0.6092  0.3655
  450TMC3    H2 6762   0.276   3.533  13.532  0.3650  0.2244  0.0474
  450TMC3    C7 6763   0.181   3.565  13.764  0.0585  0.4778  0.2274
  450TMC3    C8 6764   0.502   3.438  13.463 -0.1630  0.5292  0.5305
  450TMC3    O1 6765   0.111   3.634  13.688 -0.2856 -0.0688  0.0598
  450TMC3    O2 6766   0.399   3.403  13.409  0.7039  0.0455  0.8244
  451MPD2     C 6767   2.297   2.235   0.967 -0.6755 -0.0375  0.1592
  451MPD2    C1 6768   2.199   2.146   0.977  0.5463 -0.4934  0.7781
  451MPD2    C2 6769   2.233   2.010   0.967 -0.4706 -0.6724  0.2080
  451MPD2    C3 6770   2.362   1.965   0.955  0.1972  0.7097 -0.5580
  451MPD2    C4 6771   2.465   2.059   0.956  0.6032  1.0255 -0.2044
  451MPD2    C5 6772   2.428   2.193   0.957  0.0023 -0.2184 -0.3646
  451MPD2     H 6773   2.155   1.935   0.972 -0.7435 -0.3778  0.3960
  451MPD2    H1 6774   2.568   2.024   0.951  0.9922  2.0319  0.7146
  451MPD2    H2 6775   2.284   2.343   0.968 -0.1966  0.0013  1.7542
  451MPD2    H3 6776   2.503   2.270   0.945 -2.3207  1.9550 -0.8294
  451MPD2     N 6777   2.404   1.832   0.945 -0.0804 -0.1772 -0.5322
  451MPD2    H5 6778   2.504   1.819   0.935  0.1569  2.0083 -1.0206
  451MPD2    N1 6779   2.063   2.185   0.986 -0.5303  0.1823 -0.3066
  451MPD2    H7 6780   2.051   2.285   0.977  0.4840  0.4485  1.1794
  452TMC3    C1 6781   2.402   1.602   0.933 -0.0720  0.3935 -0.7737
  452TMC3    C2 6782   2.335   1.483   0.951 -0.4388  0.2417 -0.5891
  452TMC3    C3 6783   2.372   1.373   0.877  0.2087 -0.1213  0.0945
  452TMC3    C4 6784   2.502   1.609   0.840  0.3237 -0.4176  0.5234
  452TMC3    C5 6785   2.538   1.493   0.771 -0.6225  0.2585  0.2950
  452TMC3    C6 6786   2.474   1.377   0.787 -0.1462 -0.3274  0.1737
  452TMC3     C 6787   2.324   1.724   0.955 -0.4617  0.0475  0.0372
  452TMC3     O 6788   2.204   1.717   0.967  0.2401  0.8385 -0.3744
  452TMC3     H 6789   2.248   1.479   1.015 -0.5235  1.4608 -0.6267
  452TMC3    H1 6790   2.556   1.700   0.815  1.7846 -1.2108  0.8153
  452TMC3    H2 6791   2.500   1.286   0.735 -1.0483 -0.9444  0.8106
  452TMC3    C7 6792   2.624   1.509   0.658  0.1812  0.5431  0.2748
  452TMC3    C8 6793   2.272   1.275   0.841  0.0814 -0.3959  0.0621
  452TMC3    O1 6794   2.685   1.614   0.651 -0.1296  0.1280  0.1174
  452TMC3    O2 6795   2.302   1.193   0.756 -0.4088  0.1648  0.2109
  453TMC3    C1 6796   3.454   3.790  12.123  0.0576  0.5408 -0.8658
  453TMC3    C2 6797   3.380   3.677  12.131  0.1680 -0.0618 -0.1465
  453TMC3    C3 6798   3.325   3.624  12.017 -0.2035 -0.1034  0.1398
  453TMC3    C4 6799   3.475   3.848  11.999  0.1367  0.0873  0.4540
  453TMC3    C5 6800   3.415   3.796  11.889  0.0584  0.6951  0.0438
  453TMC3    C6 6801   3.338   3.682  11.894  0.0371  0.3833 -0.0981
  453TMC3     C 6802   3.532   3.848  12.233 -0.2907 -0.3544 -0.5592
  453TMC3     O 6803   3.594   3.950  12.210 -0.0853  0.4628 -0.2574
  453TMC3     H 6804   3.375   3.623  12.225  2.0268 -0.7281 -0.4303
  453TMC3    H1 6805   3.528   3.942  11.986 -0.0936  0.2273  0.5226
  453TMC3    H2 6806   3.295   3.642  11.803  1.9273  0.9415 -1.2294
  453TMC3    C7 6807   3.446   3.865  11.762  0.0433 -0.0016 -0.2727
  453TMC3    C8 6808   3.216   3.529  12.038  0.0704  0.3163  0.0238
  453TMC3    O1 6809   3.540   3.946  11.768  0.0009  0.6034  0.5101
  453TMC3    O2 6810   3.173   3.477  11.935  0.1422 -0.4705 -0.1136
  454MPD2     C 6811   2.279   3.518  16.713  0.4543 -0.0195 -0.3192
  454MPD2    C1 6812   2.197   3.621  16.679  0.5794 -0.2245  0.1169
  454MPD2    C2 6813   2.112   3.667  16.774 -0.1134  0.4651 -0.1759
  454MPD2    C3 6814   2.117   3.606  16.903 -0.5396 -0.2758  0.7214
  454MPD2    C4 6815   2.208   3.511  16.934 -0.1000  0.0147  0.0813
  454MPD2    C5 6816   2.288   3.466  16.836  0.3139  0.1644  0.1319
  454MPD2     H 6817   2.041   3.749  16.766 -2.5243 -1.4999  1.0749
  454MPD2    H1 6818   2.211   3.473  17.036 -3.4491 -1.0123 -0.1975
  454MPD2    H2 6819   2.358   3.476  16.652 -0.3683  0.9035 -2.0279
  454MPD2    H3 6820   2.368   3.396  16.858 -1.7820 -2.2725  0.0732
  454MPD2     N 6821   2.034   3.644  17.009 -0.0742  0.2263  0.1628
  454MPD2    H5 6822   2.063   3.601  17.096  0.0925  0.0882  0.0371
  454MPD2    N1 6823   2.185   3.667  16.541  0.1263 -0.3011  0.6708
  454MPD2    H7 6824   2.126   3.748  16.526 -0.4799 -0.7389  0.6710
  455TMC3    C1 6825   1.820   3.721  16.907  0.4275 -0.1878  0.5124
  455TMC3    C2 6826   1.723   3.817  16.910 -0.2584  0.8426  0.0308
  455TMC3    C3 6827   1.625   3.814  16.815 -0.7487 -0.1694  0.1492
  455TMC3    C4 6828   1.818   3.618  16.819  0.4971  0.0415  0.2086
  455TMC3    C5 6829   1.720   3.621  16.715  0.4105  0.3355 -0.1164
  455TMC3    C6 6830   1.622   3.725  16.720 -0.9621 -0.5068 -0.4657
  455TMC3     C 6831   1.923   3.725  17.018 -0.0594 -0.4090 -1.0916
  455TMC3     O 6832   1.876   3.765  17.122 -0.3946  0.3220 -0.2075
  455TMC3     H 6833   1.718   3.901  16.978  0.8523  1.5983 -0.8112
  455TMC3    H1 6834   1.888   3.539  16.847  1.0682  1.6430  3.4021
  455TMC3    H2 6835   1.547   3.741  16.643 -1.1140 -2.0121 -0.6448
  455TMC3    C7 6836   1.751   3.565  16.581 -0.6535  0.8859  0.3354
  455TMC3    C8 6837   1.550   3.929  16.797  0.8437  0.2478  0.6553
  455TMC3    O1 6838   1.663   3.548  16.501 -0.0606 -0.2918  0.0601
  455TMC3    O2 6839   1.565   3.988  16.693 -0.2604  0.0468 -0.5031
  456MPD2     C 6840   4.712   3.868  16.279 -0.0954 -0.1147  0.0674
  456MPD2    C1 6841   4.718   3.765  16.368  0.6653 -0.2332  0.5792
  456MPD2    C2 6842   4.682   3.781  16.504 -0.0116  0.5565  0.1481
  456MPD2    C3 6843   4.639   3.906  16.545  0.3452  0.3912 -0.0639
  456MPD2    C4 6844   4.632   4.007  16.449  0.1180 -0.6380  0.0921
  456MPD2    C5 6845   4.662   3.991  16.315  0.3166 -0.3410  0.2847
  456MPD2     H 6846   4.682   3.699  16.575 -1.8882  0.4872  0.0784
  456MPD2    H1 6847   4.590   4.105  16.463 -0.4683 -0.5469 -2.2892
  456MPD2    H2 6848   0.011   3.853  16.177  1.9738  1.4522  0.5024
  456MPD2    H3 6849   4.650   4.074  16.247 -1.4741  0.9293  2.1747
  456MPD2     N 6850   4.629   3.934  16.686  1.1352  0.1585 -0.6175
  456MPD2    H5 6851   4.656   3.854  16.742  1.3134 -0.2643 -1.3142
  456MPD2    N1 6852   0.047   3.641  16.319 -0.3033  0.8959  0.0231
  456MPD2    H7 6853   0.091   3.637  16.228  0.1636 -0.8682  0.3290
  457TMC3    C1 6854   4.515   4.053  16.890  0.5230  0.4073  0.6841
  457TMC3    C2 6855   4.428   4.161  16.900  0.5689  0.3643  0.6213
  457TMC3    C3 6856   4.410   4.215  17.023  0.3829  0.1257  0.5345
  457TMC3    C4 6857   4.588   4.003  16.997 -0.4608  0.5862 -0.9277
  457TMC3    C5 6858   4.575   4.070  17.117 -0.0507 -0.1548  0.0710
  457TMC3    C6 6859   4.478   4.168  17.127 -0.3325  0.0665 -0.0769
  457TMC3     C 6860   4.567   4.048  16.751  0.2714 -0.4178  0.0788
  457TMC3     O 6861   4.521   4.138  16.688 -0.2904 -0.1295  0.3911
  457TMC3     H 6862   4.354   4.179  16.822  1.4039 -2.3871 -0.8121
  457TMC3    H1 6863   4.650   3.916  16.981  1.7093  2.1837 -1.1550
  457TMC3    H2 6864   4.434   4.187  17.224 -0.6265  0.1725 -0.2303
  457TMC3    C7 6865   4.647   4.026  17.237 -0.1081  0.0005 -0.1391
  457TMC3    C8 6866   4.401   4.353  17.035 -0.1387  0.6254  0.1567
  457TMC3    O1 6867   4.689   3.912  17.243  0.7629  0.5162  0.2313
  457TMC3    O2 6868   4.384   4.387  17.151 -0.0441 -0.0582  0.1556
  458MPD2     C 6869   2.242   3.233  12.595 -0.2736  0.2196 -0.1512
  458MPD2    C1 6870   2.180   3.196  12.710 -0.0013 -0.3799  0.4879
  458MPD2    C2 6871   2.039   3.198  12.715  0.2230 -0.4115  0.5976
  458MPD2    C3 6872   1.968   3.252  12.608 -0.4744  0.5880  0.5056
  458MPD2    C4 6873   2.029   3.290  12.487  0.3884 -0.6013  0.3463
  458MPD2    C5 6874   2.164   3.285  12.484  0.3594  0.6523  0.0724
  458MPD2     H 6875   1.987   3.155  12.800  1.1717 -2.6468  0.0358
  458MPD2    H1 6876   1.974   3.323  12.399  0.8773 -0.1828  0.1996
  458MPD2    H2 6877   2.348   3.250  12.580  0.2823 -0.5856  2.8595
  458MPD2    H3 6878   2.217   3.307  12.393  3.6236  1.0152  2.0477
  458MPD2     N 6879   1.828   3.242  12.615  0.5580 -0.4796  0.9183
  458MPD2    H5 6880   1.785   3.213  12.702  0.0755 -1.6228  0.2970
  458MPD2    N1 6881   2.260   3.134  12.810 -0.3792 -0.3822  0.1078
  458MPD2    H7 6882   2.359   3.140  12.792 -0.3666  1.1364  0.6739
  459TMC3    C1 6883   2.313   3.039  13.013  0.2965 -0.2714  0.4332
  459TMC3    C2 6884   2.403   3.134  13.033 -0.5011  0.1501  0.5922
  459TMC3    C3 6885   2.454   3.153  13.159 -0.3021  0.2455 -0.4949
  459TMC3    C4 6886   2.274   2.953  13.115 -0.1736  1.0819 -0.2161
  459TMC3    C5 6887   2.343   2.949  13.226 -0.3197 -0.5422 -0.7598
  459TMC3    C6 6888   2.428   3.059  13.257 -0.6317  0.2345  0.9202
  459TMC3     C 6889   2.211   3.064  12.916 -0.0522 -0.1814  0.7791
  459TMC3     O 6890   2.100   3.014  12.938  0.7526  0.2093  0.3604
  459TMC3     H 6891   2.439   3.200  12.954  0.1328 -0.1897  0.5934
  459TMC3    H1 6892   2.208   2.868  13.100 -1.1892  1.7546  0.5184
  459TMC3    H2 6893   2.485   3.056  13.349  0.8954 -0.7818 -0.0512
  459TMC3    C7 6894   2.346   2.831  13.310  0.1533 -0.0249 -0.4679
  459TMC3    C8 6895   2.579   3.220  13.177  0.0734  0.8871 -0.1307
  459TMC3    O1 6896   2.344   2.720  13.259 -0.3453 -0.1262  0.3836
  459TMC3    O2 6897   2.657   3.190  13.266  0.3154 -0.2334 -0.1890
  460MPD2     C 6898   1.844   0.839  11.039  0.0250  0.7884 -0.3314
  460MPD2    C1 6899   1.720   0.801  11.074 -0.3430 -0.4482 -0.1523
  460MPD2    C2 6900   1.612   0.842  10.998 -0.7157  0.4761 -0.0948
  460MPD2    C3 6901   1.635   0.897  10.873 -0.4256  0.3462  0.2332
  460MPD2    C4 6902   1.762   0.929  10.828 -0.3822  0.1591 -0.0135
  460MPD2    C5 6903   1.869   0.893  10.916  0.8624 -0.7221  0.2237
  460MPD2     H 6904   1.509   0.822  11.025  0.2557 -2.0458  1.7561
  460MPD2    H1 6905   1.785   0.950  10.724 -0.7044  0.3393 -0.0455
  460MPD2    H2 6906   1.922   0.794  11.098  0.3762 -0.8510 -2.0408
  460MPD2    H3 6907   1.967   0.893  10.870  0.2271  0.6908 -1.1257
  460MPD2     N 6908   1.527   0.936  10.794  0.7051  0.1402  0.5514
  460MPD2    H5 6909   1.435   0.899  10.814  0.5405  0.0327 -0.4212
  460MPD2    N1 6910   1.706   0.747  11.201 -0.9324 -0.3359 -0.1184
  460MPD2    H7 6911   1.788   0.747  11.261 -0.9542 -0.2549 -0.0883
  461TMC3    C1 6912   1.412   1.048  10.617  0.1222  0.0748  0.1285
  461TMC3    C2 6913   1.338   0.935  10.604  0.0698  0.0043 -0.0611
  461TMC3    C3 6914   1.227   0.950  10.528  0.3998  0.6194  0.6025
  461TMC3    C4 6915   1.373   1.173  10.578 -0.3517 -0.1369  0.1398
  461TMC3    C5 6916   1.259   1.188  10.504  0.3910 -0.1104  0.5005
  461TMC3    C6 6917   1.186   1.077  10.477 -0.1365  0.3527  0.3356
  461TMC3     C 6918   1.533   1.036  10.691 -0.2108  0.4755  0.3986
  461TMC3     O 6919   1.622   1.116  10.663 -0.0696  0.0162 -0.3641
  461TMC3     H 6920   1.360   0.839  10.650 -1.7723  0.2407  1.3547
  461TMC3    H1 6921   1.425   1.257  10.624  1.1325 -0.2111 -1.4012
  461TMC3    H2 6922   1.091   1.086  10.427 -0.3435  2.8502  1.2040
  461TMC3    C7 6923   1.223   1.324  10.459  0.1187 -0.1185 -0.3340
  461TMC3    C8 6924   1.139   0.833  10.515  0.0268 -0.5640  0.1466
  461TMC3    O1 6925   1.113   1.323  10.400  0.6777 -0.1642  0.5884
  461TMC3    O2 6926   1.156   0.735  10.582  0.3168 -0.5666  0.2956
  462TMC3    C1 6927   0.928   2.070   0.868  0.1035 -0.4736  0.1487
  462TMC3    C2 6928   1.047   2.052   0.925  0.1339 -0.5621 -0.3395
  462TMC3    C3 6929   1.129   1.961   0.856 -0.3467 -0.4294 -0.3218
  462TMC3    C4 6930   0.879   1.996   0.761 -0.3034 -0.1445  0.3010
  462TMC3    C5 6931   0.963   1.900   0.705 -0.2311 -0.4230 -0.3046
  462TMC3    C6 6932   1.091   1.880   0.750  0.4022 -0.1573  0.5065
  462TMC3     C 6933   0.845   2.173   0.927  0.5188  0.2633  0.7029
  462TMC3     O 6934   0.890   2.233   1.027  0.4991  0.1561  1.0045
  462TMC3     H 6935   1.080   2.113   1.008  1.6918  0.1657 -1.4950
  462TMC3    H1 6936   0.784   2.017   0.714 -1.4172 -2.5696  1.4570
  462TMC3    H2 6937   1.140   1.784   0.738  2.8510  1.0466  0.9616
  462TMC3    C7 6938   0.912   1.797   0.619  0.5626  0.5094  0.2848
  462TMC3    C8 6939   1.271   1.951   0.887  0.6039  0.5227 -0.4038
  462TMC3    O1 6940   0.969   1.689   0.624 -0.1606  0.4811  0.4078
  462TMC3    O2 6941   1.310   1.998   0.990 -0.1550  0.0842 -0.1229
  463MPD2     C 6942   2.512   0.880   1.370  0.7859  0.0616  0.1765
  463MPD2    C1 6943   2.439   0.767   1.328 -0.3824 -0.7428 -0.7270
  463MPD2    C2 6944   2.487   0.684   1.227 -0.2671 -0.5497 -0.0120
  463MPD2    C3 6945   2.617   0.705   1.184  0.0074 -0.0838 -0.1775
  463MPD2    C4 6946   2.698   0.795   1.239 -0.8477 -0.6005 -0.3715
  463MPD2    C5 6947   2.640   0.884   1.334  0.1939 -0.2465 -0.6516
  463MPD2     H 6948   2.441   0.589   1.202  2.1848 -0.7124 -3.8311
  463MPD2    H1 6949   2.800   0.812   1.206 -0.4998 -2.9050 -0.4763
  463MPD2    H2 6950   2.475   0.956   1.437 -0.3920  1.3442 -1.9189
  463MPD2    H3 6951   2.699   0.969   1.366 -0.1124  0.6367 -2.4452
  463MPD2     N 6952   2.671   0.629   1.079 -0.2140  0.1579  0.4105
  463MPD2    H5 6953   2.771   0.631   1.063 -0.4386  1.0813 -0.8198
  463MPD2    N1 6954   2.308   0.742   1.377 -0.4221 -0.1475 -0.0611
  463MPD2    H7 6955   2.252   0.668   1.336 -2.5118 -0.2030  2.8951
  464TMC3    C1 6956   2.109   0.733   1.503 -0.1465 -0.0411  0.8032
  464TMC3    C2 6957   1.994   0.798   1.540  0.4801  0.2783 -0.0535
  464TMC3    C3 6958   1.886   0.727   1.582  0.0256 -0.4161 -0.4256
  464TMC3    C4 6959   2.124   0.594   1.516  0.1172 -0.7689 -0.2913
  464TMC3    C5 6960   2.010   0.524   1.561 -0.2928 -0.0579  0.4797
  464TMC3    C6 6961   1.889   0.587   1.588 -0.4096  0.3888  0.5531
  464TMC3     C 6962   2.231   0.810   1.475 -0.2911 -0.6299  0.2385
  464TMC3     O 6963   2.262   0.900   1.550 -0.5639 -0.4505  0.1616
  464TMC3     H 6964   1.986   0.904   1.520  1.7351  0.4474  0.3427
  464TMC3    H1 6965   2.210   0.538   1.483 -0.4616 -1.4375 -0.6741
  464TMC3    H2 6966   1.802   0.528   1.616 -2.2244  3.3595  1.2409
  464TMC3    C7 6967   1.990   0.394   1.503  0.6069 -0.0331  0.5137
  464TMC3    C8 6968   1.757   0.775   1.544 -0.6573 -0.4846 -0.2930
  464TMC3    O1 6969   2.080   0.313   1.505 -0.8417  0.1423  0.1266
  464TMC3    O2 6970   1.678   0.701   1.490  0.4065  0.2321 -0.4390
  465MPD2     C 6971   4.029   4.397  17.114 -0.2436 -0.5681  0.0704
  465MPD2    C1 6972   3.907   4.392  17.177 -0.0564 -0.0864  0.6511
  465MPD2    C2 6973   3.797   4.374  17.091  0.2446  0.2233 -0.1832
  465MPD2    C3 6974   3.809   4.365  16.953  0.1626 -0.5918  0.1835
  465MPD2    C4 6975   3.933   4.384  16.899 -0.5156 -0.0699 -1.0010
  465MPD2    C5 6976   4.040   4.394  16.980  0.2871  0.5625  0.1981
  465MPD2     H 6977   3.700   4.376  17.141  0.6273 -0.2824  0.5825
  465MPD2    H1 6978   3.951   4.373  16.792 -0.9029  1.0724 -1.1779
  465MPD2    H2 6979   4.116   4.401  17.178  0.0658  2.2991 -0.5478
  465MPD2    H3 6980   4.138   4.401  16.935  0.3342  0.3664  0.2697
  465MPD2     N 6981   3.694   4.352  16.876 -0.5522 -0.7539  0.8963
  465MPD2    H5 6982   3.609   4.331  16.927 -0.7905  0.1821  0.8849
  465MPD2    N1 6983   3.897   4.392  17.320 -0.3569  0.2821  0.2366
  465MPD2    H7 6984   3.802   4.398  17.356  0.9594  0.5575  3.5964
  466TMC3    C1 6985   3.321   4.291  16.713  0.1363  0.1183 -0.0481
  466TMC3    C2 6986   3.290   4.374  16.611  0.4701  0.0390 -0.0591
  466TMC3    C3 6987   3.390   4.452  16.548 -0.1858 -0.4882 -0.6571
  466TMC3    C4 6988   3.447   4.290  16.766 -0.6555  0.0668  0.0038
  466TMC3    C5 6989   3.545   4.371  16.704  0.7224  0.5377 -0.2693
  466TMC3    C6 6990   3.514   4.463  16.603 -0.2041 -0.0897  0.1552
  466TMC3     C 6991   3.207   4.241  16.784  0.6604 -0.0376  0.0665
  466TMC3     O 6992   3.104   4.213  16.722 -0.2105  0.1168  0.1982
  466TMC3     H 6993   3.187   4.403  16.596  0.8679  2.5342  2.0465
  466TMC3    H1 6994   3.472   4.213  16.839  0.5894 -1.0826 -1.6402
  466TMC3    H2 6995   3.584   4.535  16.564 -0.7618  0.8055  0.8072
  466TMC3    C7 6996   3.686   4.375  16.745  0.2521  0.3460 -0.4615
  466TMC3    C8 6997   3.334   4.564  16.477 -0.3657 -0.3404  0.1575
  466TMC3    O1 6998   3.775   4.410  16.668 -0.5984 -0.3989 -0.3837
  466TMC3    O2 6999   3.397   4.608  16.381 -0.3000 -0.2488  0.1003
  467TMC3    C1 7000   4.093   2.541  14.319  0.4079  0.8591  0.0551
  467TMC3    C2 7001   4.041   2.637  14.236 -0.3802  0.5692 -0.3250
  467TMC3    C3 7002   3.934   2.604  14.150 -0.2293 -0.0886  0.1069
  467TMC3    C4 7003   4.040   2.419  14.305 -0.1574  0.3133  0.2908
  467TMC3    C5 7004   3.934   2.390  14.229  0.3872 -0.7348 -0.1370
  467TMC3    C6 7005   3.876   2.481  14.147  0.2553 -0.5616  0.6759
  467TMC3     C 7006   4.240   2.542  14.315  0.4188 -0.1329  0.5668
  467TMC3     O 7007   4.305   2.537  14.419 -0.5322  0.0044 -0.1983
  467TMC3     H 7008   4.085   2.734  14.253 -0.7886  0.8460 -0.8438
  467TMC3    H1 7009   4.087   2.331  14.347 -0.0079 -0.4975 -1.6035
  467TMC3    H2 7010   3.799   2.451  14.077  0.0249  0.4549  0.4860
  467TMC3    C7 7011   3.887   2.255  14.236  0.8574  0.3631  0.5835
  467TMC3    C8 7012   3.940   2.683  14.025  0.6832 -0.4007 -0.1415
  467TMC3    O1 7013   3.961   2.160  14.251 -0.1406  0.3187  0.2948
  467TMC3    O2 7014   3.991   2.796  14.036  0.0252 -0.2229 -0.2543
  468MPD2     C 7015   3.021   0.295  11.015  0.8669 -0.3120 -0.1565
  468MPD2    C1 7016   3.144   0.303  11.072 -0.5999  0.0493 -0.0691
  468MPD2    C2 7017   3.219   0.190  11.076 -0.7228 -0.0513  0.1309
  468MPD2    C3 7018   3.164   0.063  11.045  0.2833  0.5337  0.1934
  468MPD2    C4 7019   3.036   0.057  11.005 -0.1809 -0.1902  0.1801
  468MPD2    C5 7020   2.968   0.173  10.988  0.0713 -0.2865 -0.4739
  468MPD2     H 7021   3.321   0.196  11.110 -0.4274  2.1555 -1.1474
  468MPD2    H1 7022   2.986   4.697  10.985  1.2554 -1.4791  2.7381
  468MPD2    H2 7023   2.954   0.379  11.002 -0.1989 -0.6898  2.8093
  468MPD2    H3 7024   2.866   0.173  10.949 -0.1942  3.5991  0.2092
  468MPD2     N 7025   3.228   4.674  11.061 -0.2087  0.1273  0.4836
  468MPD2    H5 7026   3.166   4.594  11.060 -0.3964  0.2700  0.7097
  468MPD2    N1 7027   3.215   0.424  11.077  0.2527 -0.2657  0.9361
  468MPD2    H7 7028   3.316   0.416  11.086  0.4203  0.6905 -0.1049
  469TMC3    C1 7029   3.257   0.651  11.108 -0.5184 -0.0270  0.2033
  469TMC3    C2 7030   3.378   0.634  11.050 -0.2582  0.6474  0.7578
  469TMC3    C3 7031   3.459   0.754  11.050 -0.3392  0.1859 -0.2379
  469TMC3    C4 7032   3.208   0.768  11.157 -0.0092  0.1891  0.1138
  469TMC3    C5 7033   3.284   0.879  11.146  0.7666 -0.5652 -0.0825
  469TMC3    C6 7034   3.410   0.876  11.091  0.2646 -0.3641  0.4303
  469TMC3     C 7035   3.155   0.549  11.085 -0.5822  0.0592  0.3338
  469TMC3     O 7036   3.041   0.580  11.111  0.5848  0.1410 -0.2907
  469TMC3     H 7037   3.420   0.540  11.015  1.1318  1.2773  0.7236
  469TMC3    H1 7038   3.109   0.768  11.200 -0.1950 -1.9993 -0.3157
  469TMC3    H2 7039   3.473   0.964  11.087  1.9191 -1.4966  1.8251
  469TMC3    C7 7040   3.232   1.008  11.178  0.6391 -0.5690  0.0948
  469TMC3    C8 7041   3.606   0.748  11.034  0.6866  0.2444 -0.2874
  469TMC3    O1 7042   3.303   1.098  11.130 -0.2479 -0.1896  0.2997
  469TMC3    O2 7043   3.644   0.666  10.953 -0.2831  0.3274  0.3421
  470TMC3    C1 7044   0.383   1.291   0.614  1.1569  0.1349 -0.1899
  470TMC3    C2 7045   0.508   1.310   0.658  0.1432  0.0580 -0.2349
  470TMC3    C3 7046   0.525   1.359   0.785 -0.3124  0.3066  1.2020
  470TMC3    C4 7047   0.277   1.291   0.700 -0.1907 -0.2300  0.7793
  470TMC3    C5 7048   0.296   1.329   0.830  0.4714 -0.0868 -0.3714
  470TMC3    C6 7049   0.418   1.366   0.881 -0.3425 -0.1814 -0.0177
  470TMC3     C 7050   0.368   1.279   0.476  0.2184 -1.1899 -0.5061
  470TMC3     O 7051   0.447   1.344   0.413 -0.1806  0.1354  0.3178
  470TMC3     H 7052   0.590   1.304   0.587 -0.8552  0.8828 -1.4616
  470TMC3    H1 7053   0.181   1.271   0.654  1.1830 -1.2881 -1.6316
  470TMC3    H2 7054   0.429   1.376   0.989 -1.7918 -1.0103  0.1988
  470TMC3    C7 7055   0.175   1.322   0.908 -0.5470  0.3477  0.3289
  470TMC3    C8 7056   0.661   1.410   0.826 -0.1066  0.0795  0.2017
  470TMC3    O1 7057   0.070   1.327   0.843 -0.0988 -0.1656  0.6392
  470TMC3    O2 7058   0.751   1.391   0.750  0.1655 -0.1838  0.2972
  471MPD2     C 7059   1.387   3.019  16.891  0.4435  0.6411  0.3085
  471MPD2    C1 7060   1.427   2.891  16.856 -0.6462  0.3854 -0.4815
  471MPD2    C2 7061   1.443   2.802  16.964  0.2429 -0.8070  0.3074
  471MPD2    C3 7062   1.429   2.838  17.095  0.2528  0.2710 -0.1706
  471MPD2    C4 7063   1.405   2.978  17.126  0.1625  0.7651 -0.6098
  471MPD2    C5 7064   1.386   3.062  17.025 -0.5582 -0.1684 -0.2363
  471MPD2     H 7065   1.471   2.699  16.946 -1.2327 -1.0791 -0.4355
  471MPD2    H1 7066   1.402   3.009  17.230  2.8387  1.9303 -0.8706
  471MPD2    H2 7067   1.371   3.090  16.811  0.3932 -0.8623 -1.0137
  471MPD2    H3 7068   1.359   3.166  17.040 -2.3494 -0.6951  0.1940
  471MPD2     N 7069   1.459   2.738  17.194  0.1942  0.4163 -0.2038
  471MPD2    H5 7070   1.489   2.649  17.156  1.2241  0.6056  0.1637
  471MPD2    N1 7071   1.417   2.837  16.726 -0.6515  0.0687 -0.0376
  471MPD2    H7 7072   1.433   2.737  16.719 -0.1418  0.2571 -1.4754
  472TMC3    C1 7073   1.364   2.807  16.500  0.2335  0.5016  0.1808
  472TMC3    C2 7074   1.247   2.840  16.425  0.0721 -0.7874 -0.1757
  472TMC3    C3 7075   1.160   2.735  16.407 -1.0443 -0.8769 -0.5818
  472TMC3    C4 7076   1.404   2.680  16.531  0.0047  0.2754  0.1831
  472TMC3    C5 7077   1.320   2.580  16.499 -0.3551 -0.5459 -0.2144
  472TMC3    C6 7078   1.196   2.602  16.443 -0.7282  0.7904  0.5980
  472TMC3     C 7079   1.368   2.900  16.614  0.6129  0.1777 -0.7379
  472TMC3     O 7080   1.337   3.012  16.594 -0.7067 -0.3001 -0.8222
  472TMC3     H 7081   1.223   2.944  16.404 -0.2716 -0.9062 -0.3702
  472TMC3    H1 7082   1.499   2.662  16.580  1.2315  0.3340 -2.1785
  472TMC3    H2 7083   1.124   2.523  16.427  0.5212  0.0132 -1.1842
  472TMC3    C7 7084   1.322   2.475  16.597  0.4850  0.0235 -0.0373
  472TMC3    C8 7085   1.036   2.753  16.346  0.2317  0.0307  0.0376
  472TMC3    O1 7086   1.423   2.418  16.624 -0.8042  0.0585  0.6910
  472TMC3    O2 7087   1.014   2.816  16.244  0.1331 -0.2943  0.2738
  473MPD2     C 7088   0.879   4.626  13.981  0.0242 -0.6479 -0.0363
  473MPD2    C1 7089   0.923   4.728  13.907 -0.2778 -0.4620 -0.2379
  473MPD2    C2 7090   0.964   0.108  13.967  0.0779 -0.8441 -0.0666
  473MPD2    C3 7091   0.971   0.122  14.096 -0.3603 -0.5358 -0.2365
  473MPD2    C4 7092   0.936   0.009  14.179 -0.5488 -0.0392 -0.6202
  473MPD2    C5 7093   0.884   4.627  14.122 -0.0064  0.2626 -0.1681
  473MPD2     H 7094   0.987   0.184  13.893 -0.0071 -0.6632  0.0941
  473MPD2    H1 7095   0.953   0.010  14.286 -1.2270  0.6306 -0.5149
  473MPD2    H2 7096   0.841   4.532  13.942 -1.6755  0.0701 -0.1473
  473MPD2    H3 7097   0.853   4.547  14.188  1.5624  0.8596  1.2924
  473MPD2     N 7098   0.988   0.249  14.155  0.0197 -0.0668 -0.5170
  473MPD2    H5 7099   0.987   0.256  14.256  1.1175  2.3984 -0.6635
  473MPD2    N1 7100   0.907   4.734  13.764 -0.9045 -0.5056 -0.5474
  473MPD2    H7 7101   0.934   0.087  13.719 -3.8138  0.2908 -0.7255
  474TMC3    C1 7102   1.059   0.466  14.180  0.1253 -0.1890 -0.1888
  474TMC3    C2 7103   0.995   0.588  14.155 -0.2498 -0.1462 -0.5956
  474TMC3    C3 7104   0.992   0.687  14.249  0.0674 -0.3606 -0.0601
  474TMC3    C4 7105   1.117   0.448  14.304 -0.1733  0.2178  0.4176
  474TMC3    C5 7106   1.104   0.543  14.401  0.5821 -0.4239  0.6372
  474TMC3    C6 7107   1.048   0.661  14.377 -0.6048  0.2210  0.4717
  474TMC3     C 7108   1.014   0.365  14.090  0.1681 -0.6783  0.0310
  474TMC3     O 7109   1.006   0.397  13.971 -0.4095 -0.5209  0.1203
  474TMC3     H 7110   0.971   0.607  14.051 -0.8314 -0.8849 -0.5914
  474TMC3    H1 7111   1.164   0.354  14.330  0.1191 -0.6381 -3.2006
  474TMC3    H2 7112   1.052   0.740  14.451  0.2227 -0.0035  0.6644
  474TMC3    C7 7113   1.210   0.541  14.501  0.3985 -0.1551 -0.4313
  474TMC3    C8 7114   0.935   0.820  14.228  0.8863 -0.5057  0.1227
  474TMC3    O1 7115   1.310   0.476  14.480  0.3950  0.3697  0.3171
  474TMC3    O2 7116   0.948   0.905  14.312 -0.4117 -0.5826  0.3712
  475MPD2     C 7117   3.284   3.451  11.586 -0.8248  0.2236  0.6152
  475MPD2    C1 7118   3.365   3.488  11.483 -0.1053  0.6994 -0.2248
  475MPD2    C2 7119   3.306   3.475  11.358  0.3561  0.0622 -0.1598
  475MPD2    C3 7120   3.187   3.415  11.328 -0.3078  0.5549  0.1769
  475MPD2    C4 7121   3.108   3.383  11.437  0.2649  0.3721 -0.3495
  475MPD2    C5 7122   3.155   3.404  11.567  0.5166  0.1252 -0.2909
  475MPD2     H 7123   3.358   3.504  11.267 -1.5503  0.5585 -1.0996
  475MPD2    H1 7124   3.007   3.347  11.421 -0.5813  3.2877 -1.5870
  475MPD2    H2 7125   3.322   3.464  11.687  3.8266 -0.4670 -1.0176
  475MPD2    H3 7126   3.100   3.367  11.653  1.0655  1.2349  0.5325
  475MPD2     N 7127   3.154   3.411  11.190 -0.0352  1.0589  0.2294
  475MPD2    H5 7128   3.215   3.449  11.119  1.4554 -0.7111  0.5711
  475MPD2    N1 7129   3.495   3.537  11.501  0.4505 -0.4167  0.2807
  475MPD2    H7 7130   3.531   3.535  11.596 -1.1993 -1.6961  0.8787
  476TMC3    C1 7131   3.714   3.614  11.420  0.0226  0.6845 -0.8371
  476TMC3    C2 7132   3.796   3.612  11.304  0.2858  0.0139 -0.2323
  476TMC3    C3 7133   3.921   3.668  11.316 -0.4214 -0.7872 -0.2736
  476TMC3    C4 7134   3.750   3.673  11.538  1.0330  0.7296  0.1000
  476TMC3    C5 7135   3.871   3.747  11.535  0.1927  0.3317  0.1638
  476TMC3    C6 7136   3.951   3.745  11.426  0.7017 -0.7930  0.2127
  476TMC3     C 7137   3.576   3.581  11.396  0.8268 -0.7298 -0.7911
  476TMC3     O 7138   3.542   3.582  11.277 -0.2152  0.4683 -0.3496
  476TMC3     H 7139   3.763   3.563  11.213 -1.9052 -0.0739  0.6124
  476TMC3    H1 7140   3.688   3.686  11.626  1.2133 -0.0373  0.3446
  476TMC3    H2 7141   4.052   3.780  11.439 -0.0164  1.1755  0.5988
  476TMC3    C7 7142   3.911   3.826  11.650 -0.3064 -0.2384 -0.3536
  476TMC3    C8 7143   4.008   3.680  11.191  0.2961 -0.3752  0.0469
  476TMC3    O1 7144   3.831   3.818  11.741 -0.6808  0.2273  0.2780
  476TMC3    O2 7145   4.078   3.779  11.194 -0.0056 -0.2726  0.4583
  477MPD2     C 7146   2.298   4.591  12.111  0.4705 -0.3534  0.6479
  477MPD2    C1 7147   2.170   4.530  12.092 -0.5425 -0.1687  1.0739
  477MPD2    C2 7148   2.147   4.410  12.158  0.4211  0.7014  0.2404
  477MPD2    C3 7149   2.240   4.356  12.246  0.0432 -0.3259  0.0748
  477MPD2    C4 7150   2.363   4.419  12.263  0.1699  0.4942  0.1504
  477MPD2    C5 7151   2.387   4.539  12.197 -0.3465 -0.2076 -0.6393
  477MPD2     H 7152   2.046   4.369  12.158  0.6034  0.2592  0.6568
  477MPD2    H1 7153   2.439   4.379  12.330 -0.0621  1.2507  0.8651
  477MPD2    H2 7154   2.336   4.670  12.047 -4.0557  0.8296 -0.5535
  477MPD2    H3 7155   2.480   4.593  12.207 -1.0855  0.1137  4.4871
  477MPD2     N 7156   2.202   4.232  12.296 -0.3292  0.3060  0.2701
  477MPD2    H5 7157   2.135   4.179  12.242 -0.5957 -0.1771  1.0662
  477MPD2    N1 7158   2.088   4.599  12.004 -0.0660 -0.1861  0.3669
  477MPD2    H7 7159   2.130   4.683  11.967 -0.2538 -0.7405 -1.1310
  478TMC3    C1 7160   1.897   4.647  11.875 -0.4384 -0.9507  0.0119
  478TMC3    C2 7161   1.770   4.683  11.907 -0.6248  0.0801  0.3628
  478TMC3    C3 7162   1.716   0.066  11.877 -0.5639  0.4927  0.4663
  478TMC3    C4 7163   1.975   0.001  11.809  0.5635  0.4038  0.8246
  478TMC3    C5 7164   1.928   0.130  11.788 -0.7096  0.6641 -0.4581
  478TMC3    C6 7165   1.802   0.163  11.820  0.2643  0.0155 -0.4095
  478TMC3     C 7166   1.967   4.556  11.966  0.3902  0.2974  0.4630
  478TMC3     O 7167   1.902   4.454  11.993 -0.7213  0.1067  0.3243
  478TMC3     H 7168   1.708   4.614  11.964  0.1156  0.8869  2.1745
  478TMC3    H1 7169   2.078   4.714  11.785 -0.4897 -2.8093 -0.8521
  478TMC3    H2 7170   1.767   0.265  11.810  0.4528  0.3094  1.8544
  478TMC3    C7 7171   2.003   0.204  11.686  0.3826 -0.4575  0.5668
  478TMC3    C8 7172   1.595   0.099  11.953 -0.2827  0.7371 -1.0664
  478TMC3    O1 7173   2.122   0.177  11.685  0.0844 -0.8251 -0.2306
  478TMC3    O2 7174   1.532   0.005  12.006 -0.3042  0.2424  0.2161
  479MPD2     C 7175   0.337   1.426  15.662  0.0853 -0.7310  0.0420
  479MPD2    C1 7176   0.268   1.511  15.571  0.0774 -0.0500 -0.9263
  479MPD2    C2 7177   0.341   1.625  15.518  0.3359 -0.3287  0.0015
  479MPD2    C3 7178   0.466   1.651  15.567 -0.0344 -0.2883 -0.6777
  479MPD2    C4 7179   0.537   1.565  15.652  0.7314 -0.0869  0.1648
  479MPD2    C5 7180   0.466   1.456  15.709  0.3842  0.0683 -0.0977
  479MPD2     H 7181   0.284   1.696  15.459 -1.4970 -0.9620  1.0125
  479MPD2    H1 7182   0.635   1.593  15.688 -0.0253  1.4913  1.0295
  479MPD2    H2 7183   0.296   1.334  15.703  0.7519 -0.3678  1.4946
  479MPD2    H3 7184   0.516   1.384  15.772  0.3366  0.6462  0.5965
  479MPD2     N 7185   0.521   1.781  15.545  0.2295 -0.1291 -0.6867
  479MPD2    H5 7186   0.609   1.793  15.594  0.9685 -0.5987 -1.8773
  479MPD2    N1 7187   0.137   1.473  15.533  0.3994  0.1125 -0.4532
  479MPD2    H7 7188   0.091   1.392  15.572  0.2039  0.6164  0.3741
  480TMC3    C1 7189   0.599   2.165  15.682 -0.4410  0.3487  0.0990
  480TMC3    C2 7190   0.580   2.271  15.597 -0.3675 -0.0543  0.2689
  480TMC3    C3 7191   0.538   2.243  15.469 -0.4213  0.8923  0.8356
  480TMC3    C4 7192   0.583   2.033  15.645 -0.3484  1.3823 -0.4245
  480TMC3    C5 7193   0.550   2.010  15.515  0.5862  0.3150 -0.2830
  480TMC3    C6 7194   0.527   2.114  15.423 -0.2145 -0.0840  0.2074
  480TMC3     C 7195   0.649   2.185  15.817  0.7025  0.7026 -0.7639
  480TMC3     O 7196   0.622   2.104  15.904 -0.3300 -0.1596 -0.2527
  480TMC3     H 7197   0.580   2.370  15.640 -1.3510  0.6559 -1.3871
  480TMC3    H1 7198   0.609   1.947  15.706  0.1081  1.2139 -0.8564
  480TMC3    H2 7199   0.474   2.085  15.333  1.3460  1.3403 -1.1647
  480TMC3    C7 7200   0.469   1.892  15.482 -0.4571  0.3735  0.4116
  480TMC3    C8 7201   0.470   2.348  15.392  0.7406 -0.5420 -0.0015
  480TMC3    O1 7202   0.373   1.901  15.406 -0.0516  0.4011 -0.3801
  480TMC3    O2 7203   0.409   2.441  15.445  0.1803  0.0369  0.0695
  481MPD2     C 7204   2.343   1.867  14.470 -0.2579  0.0360  0.1899
  481MPD2    C1 7205   2.241   1.780  14.472  0.0811 -0.3464  0.7465
  481MPD2    C2 7206   2.228   1.702  14.582 -0.3792  0.3547 -0.1194
  481MPD2    C3 7207   2.318   1.716  14.686 -0.6836 -0.1852 -0.1697
  481MPD2    C4 7208   2.421   1.810  14.683 -0.3363 -0.1446 -0.5896
  481MPD2    C5 7209   2.438   1.878  14.569 -0.0700 -0.8251  0.4873
  481MPD2     H 7210   2.148   1.629  14.592  1.0152 -0.8388  2.1850
  481MPD2    H1 7211   2.500   1.810  14.757 -0.1648 -0.3124 -0.7740
  481MPD2    H2 7212   2.367   1.918  14.377  0.3474 -0.2173  0.2118
  481MPD2    H3 7213   2.520   1.947  14.558  0.0808 -1.3150 -1.4576
  481MPD2     N 7214   2.312   1.638  14.808 -0.0989 -0.2110  0.1172
  481MPD2    H5 7215   2.375   1.662  14.884 -1.0021  1.0803  0.4708
  481MPD2    N1 7216   2.162   1.779  14.357 -0.4556 -0.5370 -0.7208
  481MPD2    H7 7217   2.182   1.842  14.280 -1.0471  1.4904  0.7677
  482TMC3    C1 7218   1.958   1.734  14.240  0.6731  0.0416  0.6036
  482TMC3    C2 7219   1.834   1.663  14.235  0.5464  0.0389 -0.2365
  482TMC3    C3 7220   1.750   1.693  14.136  0.8603  0.4540 -0.0766
  482TMC3    C4 7221   1.983   1.839  14.156 -0.4869  0.5049 -0.0739
  482TMC3    C5 7222   1.879   1.877  14.076 -0.0606 -0.2015  0.5012
  482TMC3    C6 7223   1.766   1.803  14.056 -0.0446  0.1398 -0.4174
  482TMC3     C 7224   2.046   1.697  14.353  0.3047 -0.4475 -0.2930
  482TMC3     O 7225   2.005   1.608  14.427  0.1270  0.6233 -0.4544
  482TMC3     H 7226   1.823   1.572  14.292 -0.0044  0.2360 -0.0195
  482TMC3    H1 7227   2.056   1.912  14.191  0.8661 -1.4194  1.1078
  482TMC3    H2 7228   1.688   1.827  13.985  0.4979  0.1221 -1.0204
  482TMC3    C7 7229   1.932   1.974  13.972  0.3956 -0.6438  0.4497
  482TMC3    C8 7230   1.639   1.593  14.122 -0.6555 -0.2335  0.1337
  482TMC3    O1 7231   2.026   2.042  14.012 -0.3136  0.2184 -0.4395
  482TMC3    O2 7232   1.663   1.485  14.175  0.4657 -0.2138  0.2001
  483TMC3    C1 7233   0.098   0.351   0.763  0.5294 -0.5102  0.5712
  483TMC3    C2 7234   0.132   0.464   0.830  0.1594 -0.5309 -0.6343
  483TMC3    C3 7235   0.234   0.467   0.916 -0.9087  0.5616  0.0135
  483TMC3    C4 7236   0.165   0.233   0.791 -0.5267  0.7830  0.1955
  483TMC3    C5 7237   0.261   0.243   0.891 -0.2318 -0.1681 -0.2161
  483TMC3    C6 7238   0.297   0.357   0.954  0.2686  1.0201  0.3387
  483TMC3     C 7239   4.729   0.359   0.663  0.6506  0.4154  0.0794
  483TMC3     O 7240   4.707   0.466   0.610 -0.7224 -0.1085  0.0539
  483TMC3     H 7241   0.077   0.555   0.811 -0.6063 -1.2826 -2.0644
  483TMC3    H1 7242   0.154   0.145   0.729  1.1340  0.1321  0.8277
  483TMC3    H2 7243   0.380   0.359   1.023  1.3809 -2.3547 -0.8957
  483TMC3    C7 7244   0.363   0.137   0.897 -0.1743 -0.1252  0.3688
  483TMC3    C8 7245   0.295   0.588   0.950  0.1310 -0.2789  0.1534
  483TMC3    O1 7246   0.468   0.167   0.947 -0.1302 -0.6229  0.0188
  483TMC3    O2 7247   0.371   0.590   1.047  0.1629 -0.6342  0.5514
  484MPD2     C 7248   2.690   3.495  12.971 -0.1906  0.9237  0.1972
  484MPD2    C1 7249   2.708   3.386  13.056 -0.3285 -0.6700  0.2938
  484MPD2    C2 7250   2.830   3.367  13.117  0.0752  0.2497  0.0796
  484MPD2    C3 7251   2.936   3.455  13.097 -0.4835  0.8160  0.1053
  484MPD2    C4 7252   2.920   3.569  13.019  0.1444 -0.6167  0.2463
  484MPD2    C5 7253   2.794   3.587  12.959  0.0986  1.1506  0.6223
  484MPD2     H 7254   2.841   3.279  13.179  0.0419  1.7159  2.2048
  484MPD2    H1 7255   2.997   3.643  13.002  1.5113 -2.3881 -1.2239
  484MPD2    H2 7256   2.599   3.501  12.912 -0.1966 -0.7609  0.0236
  484MPD2    H3 7257   2.766   3.673  12.899  0.3244  1.6047  1.1643
  484MPD2     N 7258   3.065   3.444  13.164  0.3250  0.5680  0.1166
  484MPD2    H5 7259   3.138   3.514  13.153  2.2647 -1.8837 -2.6517
  484MPD2    N1 7260   2.590   3.311  13.079 -0.2850  0.1466 -0.1769
  484MPD2    H7 7261   2.511   3.346  13.027 -0.9493 -1.8199 -0.4862
  485TMC3    C1 7262   3.229   3.335  13.298  0.1581 -0.6055  0.6013
  485TMC3    C2 7263   3.278   3.214  13.342  0.0487 -0.1175  0.0520
  485TMC3    C3 7264   3.391   3.206  13.415 -0.9026 -0.2469  0.7445
  485TMC3    C4 7265   3.285   3.455  13.316  0.5017 -0.1165  0.2812
  485TMC3    C5 7266   3.403   3.444  13.382  0.5765 -0.0884  0.1144
  485TMC3    C6 7267   3.450   3.329  13.436  0.3140 -0.2807 -0.2710
  485TMC3     C 7268   3.096   3.333  13.239  0.3770 -0.2758  0.0413
  485TMC3     O 7269   3.037   3.225  13.252  0.0168 -0.9071 -0.6325
  485TMC3     H 7270   3.251   3.112  13.320  0.7748 -0.6527  1.7367
  485TMC3    H1 7271   3.251   3.548  13.272  1.3759 -0.4770 -1.1247
  485TMC3    H2 7272   3.544   3.339  13.489 -0.1629 -0.8087  0.6827
  485TMC3    C7 7273   3.507   3.541  13.357  0.1000 -0.1787 -0.6857
  485TMC3    C8 7274   3.480   3.102  13.368  0.0745  0.8461  0.5420
  485TMC3    O1 7275   3.607   3.541  13.424 -0.7215  0.1128  0.2843
  485TMC3    O2 7276   3.432   2.992  13.329 -0.2886  0.0925 -0.0875
  486MPD2     C 7277   4.573   1.820  13.096  0.7137  1.1171 -0.9017
  486MPD2    C1 7278   4.641   1.854  12.981  0.1493 -0.3943  0.4889
  486MPD2    C2 7279   4.701   1.981  12.970 -1.0230  0.0003 -0.3597
  486MPD2    C3 7280   4.707   2.066  13.077  0.4007 -0.1745 -0.7117
  486MPD2    C4 7281   4.632   2.038  13.188 -0.3343  0.0377 -0.4701
  486MPD2    C5 7282   4.571   1.916  13.204 -0.3412  0.8795  0.4043
  486MPD2     H 7283   0.016   2.013  12.879  1.4594 -0.7690  0.7154
  486MPD2    H1 7284   4.616   2.105  13.272 -4.1093  0.3041 -1.3962
  486MPD2    H2 7285   4.513   1.731  13.109 -0.9452  2.6031  1.7851
  486MPD2    H3 7286   4.507   1.898  13.290  0.6522  0.2328  1.0064
  486MPD2     N 7287   0.046   2.186  13.071 -0.6161  0.1828 -0.3542
  486MPD2    H5 7288   0.099   2.210  12.987  1.3219  2.3711  1.5103
  486MPD2    N1 7289   4.630   1.765  12.876  0.1139  0.1389  0.1318
  486MPD2    H7 7290   4.580   1.678  12.895  1.7352 -1.4094 -2.5718
  487TMC3    C1 7291   4.583   1.701  12.661  0.4770  0.8447  0.5145
  487TMC3    C2 7292   4.480   1.777  12.606 -0.0759 -0.1731  0.1761
  487TMC3    C3 7293   4.361   1.718  12.591 -0.0151 -0.3885 -0.4601
  487TMC3    C4 7294   4.558   1.580  12.718 -0.2519  0.0040  0.7259
  487TMC3    C5 7295   4.426   1.527  12.701  0.0410  0.2465  0.4631
  487TMC3    C6 7296   4.330   1.584  12.623  0.1291 -0.1273  0.7111
  487TMC3     C 7297   4.662   1.792  12.744  0.1026 -0.6094 -0.3348
  487TMC3     O 7298   4.712   1.894  12.696  0.0369  0.1102  0.3211
  487TMC3     H 7299   4.499   1.883  12.596 -0.2011 -0.3112 -1.4743
  487TMC3    H1 7300   4.628   1.525  12.780 -0.3422  1.0107  1.7184
  487TMC3    H2 7301   4.225   1.561  12.638  0.0034  0.2867  0.4862
  487TMC3    C7 7302   4.383   1.435  12.804  0.6750  0.1236 -0.0937
  487TMC3    C8 7303   4.262   1.811  12.631 -0.1755  0.2865 -0.1181
  487TMC3    O1 7304   4.429   1.448  12.914  0.4321 -0.0807  0.5633
  487TMC3    O2 7305   4.306   1.902  12.703  0.3091  0.0411  0.2263
  488MPD2     C 7306   0.621   3.779  16.718  1.3837 -0.2268 -0.4180
  488MPD2    C1 7307   0.577   3.900  16.774  0.4738  0.5697 -0.7596
  488MPD2    C2 7308   0.508   3.900  16.893  0.8333 -0.2712  0.0308
  488MPD2    C3 7309   0.485   3.783  16.966 -0.6413 -0.5087  0.4692
  488MPD2    C4 7310   0.529   3.659  16.908  0.0944  0.1710  0.0952
  488MPD2    C5 7311   0.603   3.663  16.791  0.2545 -0.5723 -0.1967
  488MPD2     H 7312   0.484   3.999  16.930 -1.7148 -0.9071  0.0232
  488MPD2    H1 7313   0.505   3.567  16.961 -2.0302  1.0593  0.6921
  488MPD2    H2 7314   0.668   3.780  16.621  1.3501 -0.7908 -0.4346
  488MPD2    H3 7315   0.619   3.570  16.738 -1.5492 -1.3393  0.6083
  488MPD2     N 7316   0.415   3.794  17.087 -0.0755  0.2736 -0.4252
  488MPD2    H5 7317   0.367   3.882  17.102 -0.8543 -0.2834  0.3519
  488MPD2    N1 7318   0.589   4.026  16.707 -0.2498  0.0979 -0.0749
  488MPD2    H7 7319   0.562   4.105  16.765  1.0445 -0.3505  1.1578
  489TMC3    C1 7320   0.312   3.713  17.281  0.0746 -0.4024 -0.2277
  489TMC3    C2 7321   0.273   3.846  17.279  0.3778  0.6349 -0.4852
  489TMC3    C3 7322   0.285   3.917  17.392 -0.4673 -0.1158 -0.1490
  489TMC3    C4 7323   0.343   3.651  17.402  0.7446  0.0076  0.9502
  489TMC3    C5 7324   0.349   3.728  17.516  0.0801 -0.3483 -0.1637
  489TMC3    C6 7325   0.327   3.863  17.514  0.5572  0.3346 -0.9027
  489TMC3     C 7326   0.403   3.684  17.166  0.9517 -0.4023 -0.4057
  489TMC3     O 7327   0.473   3.579  17.176  0.0353  0.0435 -0.0453
  489TMC3     H 7328   0.227   3.891  17.192 -1.5011  0.3223  0.3594
  489TMC3    H1 7329   0.372   3.547  17.390 -1.4006 -0.4310 -0.4061
  489TMC3    H2 7330   0.350   3.931  17.595  3.0942  0.3165 -1.5972
  489TMC3    C7 7331   0.359   3.659  17.645  0.3654  1.0677 -0.4039
  489TMC3    C8 7332   0.293   4.059  17.373 -0.5357  0.1621  0.2571
  489TMC3    O1 7333   0.386   3.727   0.007  0.6861  0.1704  0.3156
  489TMC3    O2 7334   0.335   4.088  17.264  0.1226  0.0590  0.1577
  490MPD2     C 7335   1.157   3.629  17.547  0.4840 -0.3305  0.3239
  490MPD2    C1 7336   1.174   3.536  17.644 -0.6007  0.0700 -0.6359
  490MPD2    C2 7337   1.263   3.568   0.011 -0.6497 -0.6866  0.3203
  490MPD2    C3 7338   1.326   3.686   0.022  0.4879  0.1230 -0.7832
  490MPD2    C4 7339   1.292   3.789  17.668 -0.7275  0.5098  0.1788
  490MPD2    C5 7340   1.215   3.749  17.561 -0.3992  0.0020  0.3411
  490MPD2     H 7341   1.292   3.489   0.080  2.9719 -1.5054 -2.1403
  490MPD2    H1 7342   1.327   3.889  17.688 -1.8254  0.9134  0.0854
  490MPD2    H2 7343   1.093   3.615  17.461 -0.5692  1.2598  0.8245
  490MPD2    H3 7344   1.192   3.823  17.485  2.1462 -0.7062 -1.1078
  490MPD2     N 7345   1.429   3.721   0.112 -0.3090 -0.2299  0.8581
  490MPD2    H5 7346   1.462   3.817   0.107 -0.4791 -0.2756 -1.2321
  490MPD2    N1 7347   1.102   3.422  17.633  0.2968 -0.0912 -0.0053
  490MPD2    H7 7348   1.039   3.419  17.553 -1.4829 -1.2491  1.4297
  491TMC3    C1 7349   0.992   3.232  17.696 -0.3022  0.2087  0.3178
  491TMC3    C2 7350   0.954   3.145   0.060 -0.4991  0.3378 -0.0950
  491TMC3    C3 7351   0.894   3.023   0.020  0.0009  0.2447  0.7375
  491TMC3    C4 7352   0.969   3.203  17.559  0.2394 -0.0029 -0.5437
  491TMC3    C5 7353   0.906   3.082  17.532  0.4094  0.5997  0.0914
  491TMC3    C6 7354   0.868   2.990  17.629  0.8521 -0.1749 -0.0148
  491TMC3     C 7355   1.092   3.329  17.733  0.5542 -0.2820 -0.7411
  491TMC3     O 7356   1.143   3.328   0.109 -0.3422  0.6741 -0.7737
  491TMC3     H 7357   0.973   3.170   0.164  1.1406 -5.0503  0.9318
  491TMC3    H1 7358   1.015   3.261  17.480 -1.0085  2.1360  0.2937
  491TMC3    H2 7359   0.811   2.902  17.601 -0.4120  0.1460  1.5975
  491TMC3    C7 7360   0.844   3.057  17.400 -0.6278  0.0380  0.0178
  491TMC3    C8 7361   0.844   2.938   0.125  0.9706 -0.0157  0.1615
  491TMC3    O1 7362   0.804   2.945  17.370 -0.6767 -0.8118  0.1548
  491TMC3    O2 7363   0.780   2.986   0.220  0.2856  0.1616 -0.4306
  492MPD2     C 7364   1.676   3.664  11.535 -1.0406  0.1145  1.3196
  492MPD2    C1 7365   1.584   3.623  11.445 -0.0229  0.6405 -0.1506
  492MPD2    C2 7366   1.464   3.578  11.495  0.7087 -0.5358  0.2669
  492MPD2    C3 7367   1.441   3.565  11.627 -0.1125 -0.0560 -0.7866
  492MPD2    C4 7368   1.547   3.586  11.715  0.3619  0.7847  0.5694
  492MPD2    C5 7369   1.663   3.646  11.670 -0.2504  0.3761  0.6193
  492MPD2     H 7370   1.384   3.564  11.423  0.1162  0.0338  0.8242
  492MPD2    H1 7371   1.537   3.565  11.821 -1.0503 -0.8888  0.0997
  492MPD2    H2 7372   1.762   3.718  11.498 -2.8510  1.2881 -1.1672
  492MPD2    H3 7373   1.734   3.689  11.740 -0.2070  0.9157  0.2372
  492MPD2     N 7374   1.314   3.542  11.677 -0.2176 -0.7039  0.2082
  492MPD2    H5 7375   1.318   3.528  11.778  0.6178  0.2127  0.3036
  492MPD2    N1 7376   1.609   3.640  11.303 -0.1498 -0.1408 -0.5230
  492MPD2    H7 7377   1.670   3.715  11.274  1.4557 -0.9642  0.7074
  493TMC3    C1 7378   1.538   3.674  11.085  0.6050 -0.1849  0.4170
  493TMC3    C2 7379   1.649   3.753  11.075  0.3006  0.1632 -0.0083
  493TMC3    C3 7380   1.639   3.871  11.008  0.3710  0.1528  0.5832
  493TMC3    C4 7381   1.424   3.705  11.024 -0.2651 -0.4866  0.7948
  493TMC3    C5 7382   1.414   3.824  10.966  0.0775 -0.4826  0.2486
  493TMC3    C6 7383   1.523   3.907  10.952 -0.0689  0.0317 -0.8647
  493TMC3     C 7384   1.526   3.593  11.205 -0.2365 -0.0924  0.7611
  493TMC3     O 7385   1.430   3.519  11.217  0.5887  0.6113  0.6393
  493TMC3     H 7386   1.744   3.713  11.110  0.5679  0.9413  0.1360
  493TMC3    H1 7387   1.343   3.638  11.050 -0.2767 -1.8954 -2.9018
  493TMC3    H2 7388   1.512   4.004  10.906 -0.8491 -0.2257 -1.2247
  493TMC3    C7 7389   1.290   3.860  10.896 -0.0071 -0.2079 -0.5932
  493TMC3    C8 7390   1.712   3.973  11.077  0.1276  0.3200 -0.4917
  493TMC3    O1 7391   1.288   3.950  10.813  0.2771  0.1289 -0.3563
  493TMC3    O2 7392   1.755   3.946  11.188  0.1379  0.1269  0.0143
  494TMC3    C1 7393   1.436   0.507   0.523 -0.3952  0.8330 -0.3489
  494TMC3    C2 7394   1.509   0.407   0.581 -0.3702  0.3521 -0.4464
  494TMC3    C3 7395   1.596   0.331   0.493 -0.8409  0.6020 -0.1126
  494TMC3    C4 7396   1.451   0.543   0.394  0.2454  0.1523  0.0803
  494TMC3    C5 7397   1.537   0.467   0.313 -0.5040  0.2029 -0.0145
  494TMC3    C6 7398   1.612   0.363   0.360 -0.3049 -0.1048 -0.3124
  494TMC3     C 7399   1.332   0.573   0.601 -0.8459 -0.1465 -0.4430
  494TMC3     O 7400   1.367   0.603   0.713 -0.4118  0.3455  0.1453
  494TMC3     H 7401   1.492   0.386   0.686 -2.1207  1.2335 -0.5512
  494TMC3    H1 7402   1.420   0.642   0.362  2.1268  0.5273 -0.5974
  494TMC3    H2 7403   1.665   0.297   0.292 -0.8054 -1.7823  0.9192
  494TMC3    C7 7404   1.571   0.507   0.175  0.6214  0.1844 -0.0614
  494TMC3    C8 7405   1.679   0.218   0.541  0.3562  0.0187 -0.0953
  494TMC3    O1 7406   1.678   0.466   0.137  0.2919  0.1109  0.2231
  494TMC3    O2 7407   1.768   0.183   0.469  0.3606 -0.1411  0.0199
  495TMC3    C1 7408   0.566   2.086  14.418 -0.0129 -0.6280 -0.9680
  495TMC3    C2 7409   0.485   2.158  14.335  0.1770 -0.3077  0.0829
  495TMC3    C3 7410   0.445   2.281  14.379  0.0556 -0.1900 -0.1688
  495TMC3    C4 7411   0.578   2.112  14.553  0.2927 -0.3804  0.2165
  495TMC3    C5 7412   0.519   2.228  14.595  0.4774  0.3907 -0.6510
  495TMC3    C6 7413   0.456   2.318  14.511  0.1995 -0.2935  0.3284
  495TMC3     C 7414   0.597   1.951  14.372  0.5137 -0.1261  0.0097
  495TMC3     O 7415   0.530   1.926  14.276 -0.2956 -0.0438 -0.0488
  495TMC3     H 7416   0.455   2.131  14.235  1.0126 -2.4220  0.3977
  495TMC3    H1 7417   0.620   2.036  14.619  1.8076 -0.6712 -1.0675
  495TMC3    H2 7418   0.418   2.416  14.538 -0.1321 -0.3108 -0.0676
  495TMC3    C7 7419   0.506   2.245  14.741  0.4821 -0.3035 -0.5055
  495TMC3    C8 7420   0.327   2.336  14.315 -0.1238  0.6126  1.0551
  495TMC3    O1 7421   0.563   2.165  14.812 -0.0133 -0.6620 -0.1545
  495TMC3    O2 7422   0.246   2.384  14.398 -0.3120 -0.5662 -0.2740
  496MPD2     C 7423   2.466   2.816  15.067  0.5977  0.7429  0.4335
  496MPD2    C1 7424   2.544   2.769  15.170 -0.3783  0.0332 -0.4220
  496MPD2    C2 7425   2.495   2.679  15.259  0.8837  0.2946 -0.0241
  496MPD2    C3 7426   2.368   2.626  15.239 -0.7263 -0.4032 -0.2894
  496MPD2    C4 7427   2.298   2.673  15.132 -0.1721 -0.2650 -0.1893
  496MPD2    C5 7428   2.346   2.760  15.046  0.2759  0.3860 -0.3571
  496MPD2     H 7429   2.549   2.645  15.347 -1.1070 -1.6401  0.4522
  496MPD2    H1 7430   2.195   2.644  15.113  0.1628  0.2027 -2.7289
  496MPD2    H2 7431   2.502   2.872  14.981 -0.1473 -0.0940 -0.4308
  496MPD2    H3 7432   2.279   2.801  14.971  1.3534 -2.8804 -3.1201
  496MPD2     N 7433   2.317   2.532  15.339 -0.2548  0.1414 -0.1256
  496MPD2    H5 7434   2.218   2.511  15.324 -0.3668  0.2002  0.5506
  496MPD2    N1 7435   2.679   2.816  15.187  0.7526  0.4227 -0.3141
  496MPD2    H7 7436   2.698   2.883  15.114 -0.6470  1.3788  0.2174
  497TMC3    C1 7437   2.308   2.377  15.520 -0.6213 -0.6473  0.4466
  497TMC3    C2 7438   2.193   2.312  15.464  0.0299 -0.1999 -0.3872
  497TMC3    C3 7439   2.142   2.207  15.533 -0.5438 -0.1129 -0.1143
  497TMC3    C4 7440   2.359   2.337  15.638 -0.5487 -0.6942  0.4566
  497TMC3    C5 7441   2.293   2.241  15.710 -0.1746  0.9487 -0.4938
  497TMC3    C6 7442   2.192   2.173  15.654 -0.1203  0.6075  0.2687
  497TMC3     C 7443   2.384   2.468  15.437  0.4115 -0.2648 -0.1807
  497TMC3     O 7444   2.500   2.483  15.459  0.0521 -0.2599  0.1162
  497TMC3     H 7445   2.168   2.329  15.360 -1.9331 -0.7691  0.0033
  497TMC3    H1 7446   2.445   2.386  15.681 -1.3594  0.6201  0.5622
  497TMC3    H2 7447   2.154   2.087  15.707 -0.5049 -0.0695 -1.1154
  497TMC3    C7 7448   2.353   2.180  15.833  0.3152  0.5082 -0.3304
  497TMC3    C8 7449   2.021   2.145  15.497  0.8381  0.5016 -0.0987
  497TMC3    O1 7450   2.307   2.072  15.862  0.3477  0.6801  0.1596
  497TMC3    O2 7451   1.962   2.091  15.592  0.4924  0.3468 -0.1031
  498MPD2     C 7452   3.547   3.193   9.913 -0.1963  0.3156  0.1890
  498MPD2    C1 7453   3.604   3.079   9.958  0.5458 -0.9076  0.6300
  498MPD2    C2 7454   3.546   3.011  10.061 -0.1490  0.4510 -0.3042
  498MPD2    C3 7455   3.437   3.065  10.128 -0.5712 -0.3819  0.3385
  498MPD2    C4 7456   3.376   3.177  10.084  1.0102 -0.8379 -0.4069
  498MPD2    C5 7457   3.436   3.243   9.978  0.1598  0.2733  0.0580
  498MPD2     H 7458   3.593   2.926  10.107 -0.8444  0.0482 -0.3443
  498MPD2    H1 7459   3.279   3.204  10.126  1.5450  0.0367  0.2738
  498MPD2    H2 7460   3.584   3.260   9.836 -1.5754 -0.7770 -1.4338
  498MPD2    H3 7461   3.389   3.331   9.936  0.3473  0.7938  0.9548
  498MPD2     N 7462   3.395   2.999  10.250  0.0481 -0.1444 -0.2641
  498MPD2    H5 7463   3.412   2.901  10.271  1.1568  0.2677  0.7888
  498MPD2    N1 7464   3.731   3.038   9.915 -0.5102  0.8663 -0.3584
  498MPD2    H7 7465   3.766   2.947   9.945  1.1886  1.0458 -1.7944
  499TMC3    C1 7466   3.949   3.059   9.822  0.2201 -0.5413 -0.4955
  499TMC3    C2 7467   3.969   2.928   9.803  0.1698  0.4404 -0.9743
  499TMC3    C3 7468   4.101   2.884   9.793  0.1747  0.8330 -0.7171
  499TMC3    C4 7469   4.057   3.145   9.818  0.4221  0.3333 -0.8157
  499TMC3    C5 7470   4.183   3.103   9.809  0.7549  0.4197  0.3651
  499TMC3    C6 7471   4.210   2.967   9.804 -0.1293 -0.4304  0.1289
  499TMC3     C 7472   3.825   3.120   9.853 -0.2253 -0.4992  0.4684
  499TMC3     O 7473   3.816   3.240   9.828 -0.2168  0.1252 -0.5076
  499TMC3     H 7474   3.881   2.865   9.798  0.3532  0.1205 -0.2420
  499TMC3    H1 7475   4.034   3.250   9.825  0.5826  0.4417 -1.8673
  499TMC3    H2 7476   4.308   2.925   9.824 -0.0860 -0.2851  0.2223
  499TMC3    C7 7477   4.297   3.195   9.811 -0.3855  0.2592 -0.1668
  499TMC3    C8 7478   4.135   2.745   9.792  0.5367 -0.2272  0.1444
  499TMC3    O1 7479   4.283   3.299   9.872 -0.7060 -0.0609 -0.2541
  499TMC3    O2 7480   4.251   2.714   9.779 -0.6231 -0.1879 -0.5864
  500MPD2     C 7481   0.763   4.427  11.215 -0.6291  0.7909 -0.1678
  500MPD2    C1 7482   0.820   4.486  11.107 -0.2526  0.8252  0.3850
  500MPD2    C2 7483   0.729   4.521  11.007  0.8007  0.2408 -0.8819
  500MPD2    C3 7484   0.598   4.486  11.001 -0.2557  0.1240  0.2471
  500MPD2    C4 7485   0.549   4.418  11.107 -0.8224 -0.3403 -0.6033
  500MPD2    C5 7486   0.631   4.392  11.218 -0.3494  0.7882 -0.2205
  500MPD2     H 7487   0.769   4.584  10.928 -2.4152  0.1778 -2.5565
  500MPD2    H1 7488   0.446   4.388  11.123 -1.0026  0.4089 -0.3592
  500MPD2    H2 7489   0.820   4.413  11.307  0.7476 -1.2534 -1.3280
  500MPD2    H3 7490   0.589   4.341  11.303 -0.7442  0.7870 -0.4153
  500MPD2     N 7491   0.507   4.519  10.898  0.4625 -0.4601  0.0973
  500MPD2    H5 7492   0.412   4.483  10.908  0.5471 -0.4384  1.0116
  500MPD2    N1 7493   0.948   4.522  11.094  0.2518 -0.1576  0.0866
  500MPD2    H7 7494   0.976   4.575  11.012 -0.0241 -0.6764 -0.3440
  501TMC3    C1 7495   1.169   4.565  11.175 -0.7098 -0.7464  0.3392
  501TMC3    C2 7496   1.196   4.646  11.069  0.2186  0.0537 -0.3390
  501TMC3    C3 7497   1.320   4.715  11.072 -0.3872  0.4431 -0.2603
  501TMC3    C4 7498   1.252   4.562  11.282  0.3267 -0.4219 -0.1055
  501TMC3    C5 7499   1.369   4.627  11.284 -0.1727 -0.1929  0.1229
  501TMC3    C6 7500   1.413   4.703  11.177  0.5097 -0.4297  0.2322
  501TMC3     C 7501   1.046   4.496  11.189  0.4343 -0.2122  0.3554
  501TMC3     O 7502   1.048   4.416  11.281  0.2945 -0.1586 -0.1225
  501TMC3     H 7503   1.123   4.658  10.989 -0.1384  0.0973 -0.0040
  501TMC3    H1 7504   1.227   4.522  11.379  2.2919  1.2930  1.1009
  501TMC3    H2 7505   1.506   0.024  11.175  0.2083  0.1855  2.9250
  501TMC3    C7 7506   1.456   4.608  11.400 -0.0478 -0.5331 -1.0056
  501TMC3    C8 7507   1.359   0.080  10.970 -0.1075  0.3761 -0.6548
  501TMC3    O1 7508   1.436   4.502  11.463  0.3538 -0.0548 -0.0991
  501TMC3    O2 7509   1.460   0.148  10.984  0.4330 -0.7097  0.1535
  502TMC3    C1 7510   0.129   3.001  14.886  0.1619 -0.5359 -0.2495
  502TMC3    C2 7511   0.139   3.126  14.831 -0.0362  0.7078 -0.0278
  502TMC3    C3 7512   0.037   3.218  14.857  0.6093 -0.1788  0.4195
  502TMC3    C4 7513   0.023   2.970  14.963 -0.0572  0.2928  0.2662
  502TMC3    C5 7514   4.648   3.050  14.969 -0.7476 -0.1166 -0.5051
  502TMC3    C6 7515   4.659   3.174  14.920  0.3226 -0.0698  0.5296
  502TMC3     C 7516   0.246   2.980  14.965 -0.0116 -0.0660  0.3342
  502TMC3     O 7517   0.350   2.993  14.905 -0.1397 -0.1627  0.0486
  502TMC3     H 7518   0.238   3.160  14.802  1.4871 -2.9876  0.7411
  502TMC3    H1 7519   0.009   2.873  15.008 -0.1643  0.2132  0.0597
  502TMC3    H2 7520   4.583   3.246  14.949 -1.1038 -0.9043 -1.1672
  502TMC3    C7 7521   4.599   3.048  15.103  0.4853  0.1199 -0.0397
  502TMC3    C8 7522   0.080   3.345  14.917 -0.0317 -0.6759 -0.3096
  502TMC3    O1 7523   4.686   3.014  15.178 -0.0120 -0.1023 -0.3075
  502TMC3    O2 7524   4.734   3.434  14.908 -0.5393  0.4912  0.0294
  503MPD2     C 7525   2.390   3.993  16.739 -0.1686  0.0721  0.2807
  503MPD2    C1 7526   2.426   4.083  16.838  0.2185 -0.0343  0.7036
  503MPD2    C2 7527   2.483   4.033  16.954 -0.8385 -0.0084  0.3483
  503MPD2    C3 7528   2.501   3.898  16.970  0.1443 -0.6769  0.2663
  503MPD2    C4 7529   2.471   3.813  16.871 -0.5489  0.3299 -0.3381
  503MPD2    C5 7530   2.411   3.859  16.756 -0.4099  0.4799  0.3984
  503MPD2     H 7531   2.507   4.103  17.033 -1.5117 -0.9202  1.3586
  503MPD2    H1 7532   2.492   3.707  16.885 -0.1375  0.3075 -1.1346
  503MPD2    H2 7533   2.351   4.011  16.640  1.0666  1.4858  0.0537
  503MPD2    H3 7534   2.373   3.790  16.682 -4.9306  2.2720  1.0687
  503MPD2     N 7535   2.556   3.858  17.096 -0.7300 -0.4139  0.4439
  503MPD2    H5 7536   2.593   3.927  17.160  0.0950  1.3934 -2.0339
  503MPD2    N1 7537   2.418   4.221  16.819  0.2340  0.2224  0.4998
  503MPD2    H7 7538   2.473   4.272  16.887  1.6849 -0.5705 -0.0812
  504TMC3    C1 7539   2.622   3.716  17.275  0.9420  0.4233 -0.6109
  504TMC3    C2 7540   2.600   3.601  17.342  0.6142  0.0048 -0.0255
  504TMC3    C3 7541   2.694   3.567  17.434 -0.7137  0.7072  0.3391
  504TMC3    C4 7542   2.733   3.803  17.297  0.0979 -0.2615  0.0918
  504TMC3    C5 7543   2.821   3.758  17.388  0.4532  0.0729 -0.1591
  504TMC3    C6 7544   2.793   3.646  17.468  0.0305 -0.4718 -0.5964
  504TMC3     C 7545   2.552   3.731  17.150 -0.1634  0.7618 -0.3565
  504TMC3     O 7546   2.494   3.637  17.106  0.4333  0.0271  0.0550
  504TMC3     H 7547   2.509   3.547  17.324  1.2896 -0.0970 -3.1862
  504TMC3    H1 7548   2.771   3.867  17.219  1.5228 -1.2460 -0.0357
  504TMC3    H2 7549   2.879   3.597  17.513  0.0209  0.3595  0.3261
  504TMC3    C7 7550   2.955   3.758  17.331 -0.6491  0.3539 -0.1458
  504TMC3    C8 7551   2.665   3.453  17.517 -0.5508  0.2865 -0.8304
  504TMC3    O1 7552   2.960   3.750  17.207  0.3181  0.3886  0.3259
  504TMC3    O2 7553   2.611   3.358  17.457 -0.5904  0.1955  0.0790
  505MPD2     C 7554   2.840   2.333  11.420 -0.2791  0.1679  0.3489
  505MPD2    C1 7555   2.980   2.327  11.410 -1.1986 -0.2280  1.0527
  505MPD2    C2 7556   3.056   2.433  11.460  0.1902  0.3462 -0.4798
  505MPD2    C3 7557   2.997   2.535  11.528 -0.4098  0.4566  0.3310
  505MPD2    C4 7558   2.864   2.533  11.553  0.2892 -0.8006 -0.0625
  505MPD2    C5 7559   2.786   2.431  11.496  0.2025 -0.0432  0.1297
  505MPD2     H 7560   3.164   2.439  11.448  0.3218  1.2285  1.1263
  505MPD2    H1 7561   2.814   2.619  11.596  1.2915 -1.4810  2.4063
  505MPD2    H2 7562   2.770   2.263  11.375  0.8209 -0.2554 -0.7073
  505MPD2    H3 7563   2.678   2.441  11.499  0.1203 -1.1361  0.8138
  505MPD2     N 7564   3.083   2.635  11.579 -0.5856 -0.0385  0.2652
  505MPD2    H5 7565   3.183   2.618  11.579 -0.2870  1.8188 -1.0077
  505MPD2    N1 7566   3.032   2.206  11.363  0.2402 -0.3198 -0.0705
  505MPD2    H7 7567   2.975   2.134  11.320  0.1500  0.3155 -1.0074
  506TMC3    C1 7568   3.201   2.046  11.300  0.0697  0.0835 -0.9232
  506TMC3    C2 7569   3.168   2.059  11.164  0.1500 -0.3593  0.2541
  506TMC3    C3 7570   3.266   2.040  11.075 -0.7058  0.3353  0.6411
  506TMC3    C4 7571   3.333   2.022  11.334  0.5063  0.2778 -0.2355
  506TMC3    C5 7572   3.426   2.001  11.242 -0.1575 -0.0134  0.4972
  506TMC3    C6 7573   3.393   2.009  11.109 -0.1342  0.4165  0.1203
  506TMC3     C 7574   3.162   2.169  11.370 -0.4145 -0.6675 -0.0922
  506TMC3     O 7575   3.253   2.237  11.419 -0.1714  0.1354 -0.2660
  506TMC3     H 7576   3.069   2.091  11.134  0.8141 -0.0660 -1.6028
  506TMC3    H1 7577   3.357   2.005  11.438 -0.4935  1.1010  0.1286
  506TMC3    H2 7578   3.473   2.007  11.036  0.1445  2.2941  0.3596
  506TMC3    C7 7579   3.553   2.067  11.275  0.4206  0.8426 -0.3563
  506TMC3    C8 7580   3.234   2.060  10.934 -0.3770  0.0060 -0.0125
  506TMC3    O1 7581   3.660   2.031  11.228  0.0513 -0.4829  0.4471
  506TMC3    O2 7582   3.283   1.988  10.849 -0.2335  0.4702 -0.9071
  507TMC3    C1 7583   3.507   3.996  15.355 -0.3664 -0.8669 -0.3061
  507TMC3    C2 7584   3.493   3.864  15.319  0.2677  0.2584 -0.2091
  507TMC3    C3 7585   3.491   3.845  15.182  0.1119 -0.9160 -0.9255
  507TMC3    C4 7586   3.512   4.096  15.270  0.3324 -0.8145 -0.8014
  507TMC3    C5 7587   3.503   4.067  15.136 -0.0841  0.5124  0.1043
  507TMC3    C6 7588   3.508   3.945  15.089  0.2738 -0.2315 -0.6463
  507TMC3     C 7589   3.538   4.034  15.494 -0.2682 -0.3872 -0.2589
  507TMC3     O 7590   3.610   4.128  15.517  0.1924 -0.5582 -0.1149
  507TMC3     H 7591   3.492   3.782  15.391 -1.6017 -1.4502 -2.1726
  507TMC3    H1 7592   3.515   4.201  15.298 -2.5882 -1.0048  0.2398
  507TMC3    H2 7593   3.511   3.927  14.982 -1.3668  1.2091 -0.9363
  507TMC3    C7 7594   3.384   4.126  15.070 -0.0293  0.2466 -0.7115
  507TMC3    C8 7595   3.411   3.732  15.144  0.7814  0.1064 -0.7051
  507TMC3    O1 7596   3.330   4.058  14.981  0.4407  0.2632 -0.3659
  507TMC3    O2 7597   3.400   3.640  15.225 -0.0554  0.0412  0.6803
  508MPD2     C 7598   4.296   1.171  16.652 -0.4152  0.1502  0.3469
  508MPD2    C1 7599   4.398   1.261  16.618 -0.6030 -0.6673  0.3924
  508MPD2    C2 7600   4.395   1.315  16.489  0.2670 -0.0953  0.9797
  508MPD2    C3 7601   4.287   1.298  16.412  0.2013 -0.4571 -0.4128
  508MPD2    C4 7602   4.182   1.217  16.454 -0.3164 -0.2559  0.5186
  508MPD2    C5 7603   4.191   1.153  16.569  0.0458  0.4368  0.4059
  508MPD2     H 7604   4.479   1.374  16.456 -0.1186 -0.0936  0.0002
  508MPD2    H1 7605   4.094   1.204  16.394 -0.4144 -0.0697  0.6237
  508MPD2    H2 7606   4.300   1.108  16.741  3.2928  1.3347  0.9940
  508MPD2    H3 7607   4.119   1.077  16.598 -0.9231  0.7128 -1.2835
  508MPD2     N 7608   4.284   1.353  16.284  0.0717 -0.4182  0.5418
  508MPD2    H5 7609   4.370   1.397  16.252 -0.7079 -0.2661 -1.3179
  508MPD2    N1 7610   4.485   1.295  16.717  0.4757  0.2676 -0.4128
  508MPD2    H7 7611   4.457   1.277  16.813 -2.0563  1.5320 -0.9229
  509TMC3    C1 7612   4.161   1.678  16.025  0.6149  0.5876  0.3259
  509TMC3    C2 7613   4.283   1.677  15.967  0.4130  0.3885 -0.5860
  509TMC3    C3 7614   4.360   1.556  15.953  0.1264 -0.8919 -0.5866
  509TMC3    C4 7615   4.120   1.566  16.089 -0.0270  0.6424  0.5456
  509TMC3    C5 7616   4.198   1.456  16.092  0.0448  0.3975 -0.5768
  509TMC3    C6 7617   4.315   1.446  16.020 -0.2918 -0.0881  0.6735
  509TMC3     C 7618   4.072   1.789  16.004  0.0239 -0.2650 -0.1963
  509TMC3     O 7619   3.986   1.801  16.091  0.1746  0.2118  0.1748
  509TMC3     H 7620   4.318   1.763  15.911  2.8403  0.6656  1.3906
  509TMC3    H1 7621   4.025   1.566  16.141  0.6616 -0.3493  1.7993
  509TMC3    H2 7622   4.372   1.354  16.026  0.0850  0.0941 -0.1715
  509TMC3    C7 7623   4.177   1.363  16.197  0.0451 -0.2667  0.0365
  509TMC3    C8 7624   4.496   1.552  15.903  0.2755  0.2029 -0.1536
  509TMC3    O1 7625   4.062   1.355  16.233 -0.6477  0.4670  0.4344
  509TMC3    O2 7626   4.567   1.458  15.929 -0.8681  0.5070  0.0745
  510MPD2     C 7627   2.033   2.978  14.559 -1.0414 -0.0679  0.3923
  510MPD2    C1 7628   2.077   2.888  14.656  0.3169  0.4955 -0.1292
  510MPD2    C2 7629   2.207   2.850  14.644  0.1994 -0.7247 -0.4768
  510MPD2    C3 7630   2.290   2.896  14.545  0.2392 -0.0014  0.0613
  510MPD2    C4 7631   2.246   2.993  14.456 -0.6690 -0.4104 -0.5322
  510MPD2    C5 7632   2.118   3.045  14.469 -0.5564  0.2437 -0.1050
  510MPD2     H 7633   2.242   2.782  14.721  0.3342  0.3251  0.3771
  510MPD2    H1 7634   2.316   3.026  14.380 -0.8204 -0.9355 -0.9042
  510MPD2    H2 7635   1.933   3.021  14.565 -1.4541 -1.1218  1.0478
  510MPD2    H3 7636   2.071   3.106  14.393 -2.0034 -1.3398 -0.4920
  510MPD2     N 7637   2.417   2.828  14.532 -0.2052  0.3369 -0.0894
  510MPD2    H5 7638   2.438   2.761  14.605  1.0171  0.0464 -0.7071
  510MPD2    N1 7639   1.983   2.829  14.742  0.2170  0.5196 -0.3603
  510MPD2    H7 7640   1.892   2.874  14.743  0.8067  1.7312 -0.7462
  511TMC3    C1 7641   1.877   2.663  14.859 -0.4825  0.2449  0.1561
  511TMC3    C2 7642   1.800   2.749  14.935  0.1420  0.5741 -0.0152
  511TMC3    C3 7643   1.687   2.689  14.989 -0.1442 -0.0679 -0.2376
  511TMC3    C4 7644   1.855   2.524  14.851  0.0489  0.9905 -0.1143
  511TMC3    C5 7645   1.739   2.477  14.913  0.0643 -0.6828 -0.1765
  511TMC3    C6 7646   1.647   2.560  14.968 -0.1668  0.1142 -0.1140
  511TMC3     C 7647   2.003   2.711  14.811 -0.0886  0.2443  0.1333
  511TMC3     O 7648   2.106   2.640  14.815 -0.5092  0.1503  0.3432
  511TMC3     H 7649   1.826   2.851  14.956  0.3786  0.3192  0.9366
  511TMC3    H1 7650   1.932   2.465  14.801 -0.3297  0.1531  0.2930
  511TMC3    H2 7651   1.545   2.535  14.993  0.7230 -0.3428  2.9695
  511TMC3    C7 7652   1.692   2.355  14.863  0.2669  1.1593 -0.5971
  511TMC3    C8 7653   1.660   2.746  15.116  0.6132 -0.0643 -0.7492
  511TMC3    O1 7654   1.736   2.312  14.757  0.2458 -0.5971  0.0545
  511TMC3    O2 7655   1.739   2.824  15.166 -0.2403  0.2051  0.2928
  512TMC3    C1 7656   0.630   2.303  13.622  0.1952  0.3689  0.7257
  512TMC3    C2 7657   0.743   2.274  13.701 -0.6401  0.0296 -0.4859
  512TMC3    C3 7658   0.825   2.167  13.666  0.1747  0.4315  0.3424
  512TMC3    C4 7659   0.618   2.230  13.504 -0.5908  1.3877 -0.6146
  512TMC3    C5 7660   0.700   2.121  13.478 -0.5331 -0.3278  0.0768
  512TMC3    C6 7661   0.800   2.082  13.560 -0.5603 -0.4773  0.4526
  512TMC3     C 7662   0.533   2.403  13.656 -0.2205  0.1301 -0.0978
  512TMC3     O 7663   0.587   2.479  13.734 -0.2929  0.5183  0.3221
  512TMC3     H 7664   0.772   2.334  13.787 -0.9801 -0.1074 -0.2753
  512TMC3    H1 7665   0.529   2.248  13.445 -0.7885 -0.7152 -0.9824
  512TMC3    H2 7666   0.876   2.007  13.539 -1.1934 -1.0548  0.2598
  512TMC3    C7 7667   0.710   2.097  13.337  0.4470  0.4222  0.0642
  512TMC3    C8 7668   0.932   2.135  13.767 -0.0138  0.1699 -0.8615
  512TMC3    O1 7669   0.679   2.192  13.266 -0.1954  0.3687  0.3562
  512TMC3    O2 7670   0.961   2.017  13.764  0.4964 -0.1824 -0.3797
  513MPD2     C 7671   2.442   1.517  13.556  0.5282  0.0372  0.2973
  513MPD2    C1 7672   2.502   1.552  13.434  0.1964 -0.2378 -0.2943
  513MPD2    C2 7673   2.577   1.665  13.426  1.5441  0.0560 -0.9122
  513MPD2    C3 7674   2.588   1.752  13.531  0.9847  0.4392 -0.1024
  513MPD2    C4 7675   2.517   1.725  13.645  0.7408 -0.3242  0.5622
  513MPD2    C5 7676   2.456   1.604  13.658 -0.6709 -0.5435  0.5813
  513MPD2     H 7677   2.632   1.693  13.337  2.8585  0.7860  0.1346
  513MPD2    H1 7678   2.525   1.795  13.728 -3.1937  0.5993  0.1618
  513MPD2    H2 7679   2.394   1.422  13.575  0.0479  0.6771  2.2665
  513MPD2    H3 7680   2.417   1.574  13.755 -0.0817  2.3741  1.7287
  513MPD2     N 7681   2.655   1.873  13.508 -0.7481  0.1090  0.2402
  513MPD2    H5 7682   2.686   1.893  13.413 -0.0943 -2.0095  0.0079
  513MPD2    N1 7683   2.512   1.464  13.329 -0.9430 -0.7710 -0.0339
  513MPD2    H7 7684   2.571   1.493  13.252 -0.6647 -1.1816  0.0256
  514TMC3    C1 7685   2.444   1.321  13.160  0.2095  0.0158 -0.7235
  514TMC3    C2 7686   2.339   1.318  13.071  0.7136  0.5251  0.0645
  514TMC3    C3 7687   2.362   1.338  12.935  0.4175  0.4241  0.6064
  514TMC3    C4 7688   2.566   1.342  13.111 -0.1269  0.6142  0.7813
  514TMC3    C5 7689   2.586   1.398  12.981  0.8031  0.1349  0.3377
  514TMC3    C6 7690   2.485   1.389  12.888 -0.7624 -0.7361  0.0903
  514TMC3     C 7691   2.424   1.363  13.299 -0.0462 -0.2209 -0.2088
  514TMC3     O 7692   2.322   1.342  13.364 -0.3692  0.2979 -0.3883
  514TMC3     H 7693   2.238   1.300  13.107  1.4228 -2.0392  0.7641
  514TMC3    H1 7694   2.656   1.316  13.166  0.6266  0.4203 -0.5426
  514TMC3    H2 7695   2.502   1.438  12.793 -2.3083 -2.0284 -0.8525
  514TMC3    C7 7696   2.645   1.531  12.996 -0.8655  0.3230  0.8603
  514TMC3    C8 7697   2.253   1.370  12.854  0.0678 -0.1572 -0.1288
  514TMC3    O1 7698   2.680   1.555  13.109 -0.2030 -0.1996 -0.1117
  514TMC3    O2 7699   2.145   1.363  12.914 -0.4104 -0.8154  0.2639
  515MPD2     C 7700   0.638   4.021  15.503  0.8250 -0.0881  0.3719
  515MPD2    C1 7701   0.707   4.079  15.403 -0.4526  0.5071  0.4038
  515MPD2    C2 7702   0.799   4.182  15.424 -0.4461 -0.0394  0.3942
  515MPD2    C3 7703   0.824   4.222  15.558 -0.7612 -0.1691 -0.6807
  515MPD2    C4 7704   0.758   4.152  15.661  0.3542 -0.5907 -0.3339
  515MPD2    C5 7705   0.669   4.057  15.634  0.5539 -0.2837  0.0823
  515MPD2     H 7706   0.851   4.230  15.342  2.2090 -2.4980  0.6289
  515MPD2    H1 7707   0.781   4.177  15.764  0.6162  2.2297 -1.0963
  515MPD2    H2 7708   0.581   3.931  15.483  1.9479 -0.4011 -1.3930
  515MPD2    H3 7709   0.623   4.000  15.714 -0.6809  1.9702  0.9801
  515MPD2     N 7710   0.917   4.324  15.598  0.6549 -0.7889  0.0078
  515MPD2    H5 7711   0.920   4.346  15.697  0.8476 -1.7028  0.2028
  515MPD2    N1 7712   0.696   4.019  15.275  0.2824  0.1182  0.0342
  515MPD2    H7 7713   0.622   3.950  15.265  0.0117 -0.0036  2.7414
  516TMC3    C1 7714   0.719   3.953  15.051 -0.1995  0.3392 -0.1872
  516TMC3    C2 7715   0.633   4.004  14.959  0.9582 -0.5562 -0.9792
  516TMC3    C3 7716   0.559   3.906  14.893  0.0522  0.4160 -0.3844
  516TMC3    C4 7717   0.739   3.820  15.076 -0.1533 -0.0280 -0.1279
  516TMC3    C5 7718   0.669   3.729  14.998  0.1496  1.1112  0.6344
  516TMC3    C6 7719   0.567   3.772  14.919 -1.0525 -0.1317 -0.1761
  516TMC3     C 7720   0.752   4.051  15.151  0.0445  0.4311  0.1873
  516TMC3     O 7721   0.837   4.137  15.126 -0.7880  0.4646  0.8733
  516TMC3     H 7722   0.633   4.111  14.944  1.9351 -0.4936 -0.4787
  516TMC3    H1 7723   0.811   3.796  15.153 -0.7484 -2.0666 -0.1808
  516TMC3    H2 7724   0.488   3.708  14.879  0.1217 -1.0508 -1.0395
  516TMC3    C7 7725   0.700   3.589  15.018 -0.1051  0.3816 -0.2709
  516TMC3    C8 7726   0.475   3.943  14.786  0.2303  0.1829  0.0207
  516TMC3    O1 7727   0.762   3.576  15.123  0.8559 -0.3636 -0.1388
  516TMC3    O2 7728   0.437   3.857  14.711  0.6262 -0.3550  1.0041
  517MPD2     C 7729   0.471   0.567  17.473  1.3028  0.5539  0.6028
  517MPD2    C1 7730   0.593   0.561  17.540  0.2631 -0.1376  0.3521
  517MPD2    C2 7731   0.631   0.661  17.623  0.4864 -0.6182  0.1653
  517MPD2    C3 7732   0.549   0.774  17.636 -0.2736  0.2294 -1.0126
  517MPD2    C4 7733   0.429   0.778  17.567  0.2215  0.2472 -0.1292
  517MPD2    C5 7734   0.385   0.680  17.481 -0.1993 -0.1459 -0.5337
  517MPD2     H 7735   0.713   0.642  17.691 -0.5523 -3.1988  0.6796
  517MPD2    H1 7736   0.362   0.863  17.572  1.0315  0.7932  1.1462
  517MPD2    H2 7737   0.439   0.492  17.402  0.9973  0.8436  0.4377
  517MPD2    H3 7738   0.288   0.685  17.434 -0.5497 -0.1264  0.1919
  517MPD2     N 7739   0.567   0.872  17.732  0.4780  0.4691 -0.0710
  517MPD2    H5 7740   0.519   0.960  17.719  0.2682  0.2266 -0.9316
  517MPD2    N1 7741   0.677   0.445  17.537 -0.8857 -0.3115 -0.4674
  517MPD2    H7 7742   0.767   0.446  17.583 -0.0488  1.7513 -2.1655
  518TMC3    C1 7743   0.758   0.237  17.472  0.4278  0.4487 -0.4329
  518TMC3    C2 7744   0.742   0.104  17.452  0.6497  0.1117  0.1658
  518TMC3    C3 7745   0.834   0.023  17.391  0.0175  0.3883  0.4059
  518TMC3    C4 7746   0.881   0.296  17.443 -0.5210 -0.5012 -0.2816
  518TMC3    C5 7747   0.967   0.221  17.376  1.1954  0.3824  0.1198
  518TMC3    C6 7748   0.956   0.085  17.357  0.7279 -1.1634  0.6089
  518TMC3     C 7749   0.646   0.333  17.464 -0.3073  0.9143 -0.3800
  518TMC3     O 7750   0.543   0.300  17.415  0.2275  0.2068  0.1892
  518TMC3     H 7751   0.648   0.054  17.475  1.0717 -0.4809  0.6003
  518TMC3    H1 7752   0.902   0.402  17.446  0.1536 -0.7067  1.8937
  518TMC3    H2 7753   1.030   0.013  17.324 -1.3683 -2.8710 -0.3582
  518TMC3    C7 7754   1.102   0.267  17.363 -0.4435  0.3516  0.4475
  518TMC3    C8 7755   0.840   4.614  17.408  0.6972  0.2356 -0.6412
  518TMC3    O1 7756   1.148   0.342  17.448  0.6691 -0.3806  0.0966
  518TMC3    O2 7757   0.894   4.551  17.318 -0.0012  0.6951 -0.2661
  519MPD2     C 7758   2.326   3.595  14.577 -0.8706 -0.1053  0.7778
  519MPD2    C1 7759   2.241   3.602  14.467  0.3862  0.0056 -0.3103
  519MPD2    C2 7760   2.296   3.583  14.344  0.0782  0.0149  0.6954
  519MPD2    C3 7761   2.431   3.559  14.327 -0.6007  0.0952  0.1035
  519MPD2    C4 7762   2.516   3.552  14.434  0.1220  0.8039  0.5548
  519MPD2    C5 7763   2.463   3.574  14.560  0.0199 -0.7997 -0.7300
  519MPD2     H 7764   2.235   3.600  14.256 -1.7445  2.4664  2.4342
  519MPD2    H1 7765   2.623   3.535  14.422  0.1786  1.0992  0.6564
  519MPD2    H2 7766   2.289   3.610  14.677  2.0417 -1.2436  2.0098
  519MPD2    H3 7767   2.527   3.578  14.647 -0.8058  0.7967 -0.2112
  519MPD2     N 7768   2.493   3.523  14.200  0.5438  0.1641  0.1549
  519MPD2    H5 7769   2.594   3.518  14.190  0.5224 -0.7607  0.4415
  519MPD2    N1 7770   2.105   3.635  14.490 -0.5814 -0.4718 -0.5952
  519MPD2    H7 7771   2.074   3.642  14.587  1.6013  0.7452  0.0290
  520TMC3    C1 7772   2.497   3.419  13.990  0.6591  0.0150 -0.2175
  520TMC3    C2 7773   2.450   3.401  13.862  0.5440 -0.0048 -0.6764
  520TMC3    C3 7774   2.492   3.296  13.789  0.0799  0.6039  0.2549
  520TMC3    C4 7775   2.576   3.324  14.051  0.1282  0.4083 -0.8118
  520TMC3    C5 7776   2.608   3.211  13.980  0.1225  0.5041  0.1476
  520TMC3    C6 7777   2.573   3.197  13.844 -0.1572 -0.2331  0.1126
  520TMC3     C 7778   2.429   3.513  14.077  0.6155 -0.0147 -0.3654
  520TMC3     O 7779   2.314   3.523  14.039 -0.2279  0.0878 -0.5903
  520TMC3     H 7780   2.373   3.466  13.824 -0.3504 -0.0965  1.0001
  520TMC3    H1 7781   2.576   3.319  14.159 -0.0148  0.4250 -0.8116
  520TMC3    H2 7782   2.607   3.113  13.785 -0.5048  0.6825 -1.3968
  520TMC3    C7 7783   2.681   3.111  14.059  0.3620 -0.5320 -0.1043
  520TMC3    C8 7784   2.416   3.251  13.674  0.7412 -0.6781 -0.2079
  520TMC3    O1 7785   2.717   3.143  14.173 -0.1099  0.1258 -0.8047
  520TMC3    O2 7786   2.477   3.207  13.580 -0.7767  0.6779  0.0756
  521MPD2     C 7787   3.063   2.024   0.045  0.3556 -0.2935  0.6838
  521MPD2    C1 7788   3.047   1.938  17.677 -0.1271 -0.1202  0.6238
  521MPD2    C2 7789   3.149   1.920  17.586  0.5067 -0.5306 -0.3850
  521MPD2    C3 7790   3.274   1.974  17.601  0.4726 -0.2279  0.0982
  521MPD2    C4 7791   3.289   2.057  17.710  0.3985 -0.1679  0.3112
  521MPD2    C5 7792   3.189   2.079   0.061  0.4811  0.4458 -0.3623
  521MPD2     H 7793   3.145   1.847  17.506 -0.9853 -0.9417  0.0605
  521MPD2    H1 7794   3.379   2.113  17.733  0.4774  1.0021 -2.8304
  521MPD2    H2 7795   2.983   2.049   0.114 -0.8845  0.2003 -0.9374
  521MPD2    H3 7796   3.219   2.143   0.143 -1.6928  1.4626 -0.3456
  521MPD2     N 7797   3.388   1.938  17.517  1.0904  0.5675  0.2467
  521MPD2    H5 7798   3.371   1.877  17.439 -0.6942  0.8053  0.4565
  521MPD2    N1 7799   2.923   1.871  17.670  0.3851  0.1456 -0.1650
  521MPD2    H7 7800   2.857   1.890   0.009  2.1033  2.9825  0.6327
  522TMC3    C1 7801   3.619   1.950  17.442  0.5637 -0.9178 -0.1901
  522TMC3    C2 7802   3.740   1.919  17.495  0.5241 -0.0104 -0.2535
  522TMC3    C3 7803   3.844   1.906  17.409  0.2137  0.1715  0.0621
  522TMC3    C4 7804   3.597   1.944  17.305 -0.3765  0.6643 -0.1089
  522TMC3    C5 7805   3.705   1.920  17.223 -0.4176 -0.6440  0.4751
  522TMC3    C6 7806   3.836   1.913  17.274 -0.1254  0.2527 -0.1823
  522TMC3     C 7807   3.515   1.994  17.536  0.0991 -0.0772 -0.5146
  522TMC3     O 7808   3.569   2.038  17.639 -0.3025  0.2841  0.5083
  522TMC3     H 7809   3.750   1.913  17.603  1.4168 -0.5426 -0.3657
  522TMC3    H1 7810   3.505   1.986  17.265 -1.6355 -1.1343  0.8656
  522TMC3    H2 7811   3.924   1.916  17.211 -1.3048  0.8098 -1.8087
  522TMC3    C7 7812   3.685   1.949  17.076 -0.5286  0.5146  0.5590
  522TMC3    C8 7813   3.976   1.884  17.461 -0.2707 -0.3054  0.0789
  522TMC3    O1 7814   3.788   1.952  17.010 -0.7074 -0.0868 -0.7063
  522TMC3    O2 7815   3.994   1.917  17.576 -0.5241 -0.0155 -0.0918
  523MPD2     C 7816   1.397   1.631  10.496  0.2519 -0.5276 -0.0023
  523MPD2    C1 7817   1.300   1.549  10.453  0.0082  0.1356 -0.7974
  523MPD2    C2 7818   1.191   1.605  10.383 -0.2592  0.4745  0.8133
  523MPD2    C3 7819   1.191   1.740  10.366 -0.1059  0.0141 -0.2885
  523MPD2    C4 7820   1.290   1.816  10.421  1.0740  0.3050 -0.3008
  523MPD2    C5 7821   1.393   1.765  10.486  0.2601 -0.1552 -0.9171
  523MPD2     H 7822   1.107   1.542  10.356 -0.7178  0.5704  2.0386
  523MPD2    H1 7823   1.294   1.923  10.406 -1.5775  0.4426 -0.1397
  523MPD2    H2 7824   1.483   1.596  10.553  1.1118  0.0993 -0.9070
  523MPD2    H3 7825   1.462   1.839  10.524  0.9617 -0.7208 -1.0882
  523MPD2     N 7826   1.077   1.788  10.303 -0.2582 -0.3632  0.3693
  523MPD2    H5 7827   1.015   1.711  10.277 -0.7181  0.4175 -0.8152
  523MPD2    N1 7828   1.311   1.419  10.488  0.3941  0.4002 -0.2876
  523MPD2    H7 7829   1.391   1.405  10.549 -1.0662 -1.5825  1.1666
  524TMC3    C1 7830   0.905   1.941  10.270  0.5488  0.3193 -0.0835
  524TMC3    C2 7831   0.820   1.853  10.336  0.2650 -0.5101 -0.5862
  524TMC3    C3 7832   0.687   1.881  10.316 -0.3606  0.1102  0.5662
  524TMC3    C4 7833   0.871   2.028  10.171 -0.4942  0.5172 -0.3487
  524TMC3    C5 7834   0.739   2.033  10.152 -0.1824  0.0270 -0.2881
  524TMC3    C6 7835   0.644   1.956  10.217  0.6307  0.0640  0.4921
  524TMC3     C 7836   1.049   1.916  10.279  0.2038  0.2095  0.5224
  524TMC3     O 7837   1.104   2.021  10.304 -0.2550  0.0802  0.2998
  524TMC3     H 7838   0.851   1.819  10.434  0.7857  1.1487 -0.1707
  524TMC3    H1 7839   0.950   2.093  10.137  0.4032  0.2792  1.2755
  524TMC3    H2 7840   0.537   1.965  10.199  0.1499 -2.9890  1.7529
  524TMC3    C7 7841   0.702   2.144  10.064  0.5128 -0.6094 -0.1360
  524TMC3    C8 7842   0.603   1.787  10.387 -0.4305 -0.4123  0.2941
  524TMC3    O1 7843   0.764   2.249  10.072 -0.2766 -0.5495 -0.1678
  524TMC3    O2 7844   0.650   1.674  10.376 -0.3241  0.1348  0.1631
  525MPD2     C 7845   3.655   3.010  14.697  0.2935  0.1096 -0.3479
  525MPD2    C1 7846   3.762   3.015  14.781  0.6597  0.2423  0.5368
  525MPD2    C2 7847   3.846   3.124  14.783 -0.5247 -0.1312 -0.7774
  525MPD2    C3 7848   3.817   3.237  14.696 -0.5221 -0.2023  0.3146
  525MPD2    C4 7849   3.707   3.222  14.613  0.0704 -0.1724 -0.3181
  525MPD2    C5 7850   3.625   3.115  14.620  0.7629 -0.8059 -0.1380
  525MPD2     H 7851   3.913   3.135  14.868 -1.4732  0.4508 -0.1034
  525MPD2    H1 7852   3.688   3.312  14.555 -0.5108 -0.6834 -0.9187
  525MPD2    H2 7853   3.589   2.924  14.697 -0.5883  0.7874  0.2450
  525MPD2    H3 7854   3.543   3.133  14.552 -0.1695 -0.4151  1.0968
  525MPD2     N 7855   3.884   3.359  14.701  0.1756  0.2520  0.3827
  525MPD2    H5 7856   3.838   3.434  14.649  0.9586 -0.8526 -1.8856
  525MPD2    N1 7857   3.776   2.912  14.888 -0.0355  0.3638  0.1005
  525MPD2    H7 7858   3.862   2.918  14.941 -0.3347  0.4773  0.5728
  526TMC3    C1 7859   3.717   2.763  15.052  0.1569 -0.4171 -0.3719
  526TMC3    C2 7860   3.651   2.807  15.174 -0.0782  1.1099 -0.8149
  526TMC3    C3 7861   3.702   2.757  15.286  0.0963  0.1705  0.3557
  526TMC3    C4 7862   3.839   2.711  15.047  0.0081 -0.1329  0.7554
  526TMC3    C5 7863   3.876   2.654  15.156 -0.4744  0.0246  0.4265
  526TMC3    C6 7864   3.812   2.670  15.276 -0.2303 -0.3730  0.0389
  526TMC3     C 7865   3.673   2.833  14.932 -0.1638  0.9316 -0.5857
  526TMC3     O 7866   3.554   2.845  14.908 -0.5990  0.5405  0.6221
  526TMC3     H 7867   3.572   2.881  15.166  0.1584  1.2327 -2.0765
  526TMC3    H1 7868   3.890   2.685  14.955 -1.4131 -1.1312  0.2379
  526TMC3    H2 7869   3.851   2.625  15.366  0.6678 -0.4232 -0.3644
  526TMC3    C7 7870   4.019   2.603  15.162 -0.0966  0.2540  0.6399
  526TMC3    C8 7871   3.712   2.839  15.410 -0.1092 -0.1716  0.0533
  526TMC3    O1 7872   4.080   2.626  15.268 -0.3832 -0.3125 -0.2022
  526TMC3    O2 7873   3.825   2.846  15.457  0.6471  0.6708  0.1757
  527MPD2     C 7874   1.762   1.285   1.402  0.0193  0.3963 -0.0691
  527MPD2    C1 7875   1.716   1.183   1.317  0.0249  0.1229 -1.0398
  527MPD2    C2 7876   1.810   1.085   1.271  0.5270 -0.1188  0.2651
  527MPD2    C3 7877   1.945   1.095   1.294 -0.4966 -0.4740  0.8967
  527MPD2    C4 7878   1.984   1.196   1.384  0.5681  0.2189  0.5712
  527MPD2    C5 7879   1.891   1.281   1.440  0.6217 -0.2150 -0.7249
  527MPD2     H 7880   1.771   1.003   1.212 -1.1181 -0.2834  1.5673
  527MPD2    H1 7881   2.086   1.186   1.420  0.6694  0.7212  0.4356
  527MPD2    H2 7882   1.698   1.363   1.442  1.0768  1.9501 -1.4414
  527MPD2    H3 7883   1.922   1.362   1.504 -2.6894  0.3357  0.1703
  527MPD2     N 7884   2.041   1.008   1.223  0.0943 -0.5355  0.0339
  527MPD2    H5 7885   1.998   0.924   1.185  0.1621 -0.5467 -0.0184
  527MPD2    N1 7886   1.583   1.169   1.267 -0.5926 -0.8531 -0.4784
  527MPD2    H7 7887   1.567   1.091   1.205 -2.5984  1.3560 -2.7589
  528TMC3    C1 7888   1.365   1.232   1.191  0.1770  1.4208 -0.0174
  528TMC3    C2 7889   1.381   1.177   1.069 -0.7077 -0.1436 -0.0969
  528TMC3    C3 7890   1.272   1.148   0.993  0.0386  0.3698  0.6719
  528TMC3    C4 7891   1.246   1.292   1.228  0.3752  0.2610 -0.7979
  528TMC3    C5 7892   1.144   1.285   1.141  0.3796 -0.0560  0.0807
  528TMC3    C6 7893   1.151   1.210   1.023 -0.1580 -0.5398 -0.0814
  528TMC3     C 7894   1.485   1.268   1.277  0.1660 -0.1871 -0.3878
  528TMC3     O 7895   1.489   1.374   1.334  0.8998  0.3863  0.0794
  528TMC3     H 7896   1.483   1.162   1.035 -0.4333  2.6787 -0.5716
  528TMC3    H1 7897   1.233   1.352   1.317 -1.3524 -0.9448 -0.2440
  528TMC3    H2 7898   1.055   1.195   0.975 -0.6098  0.1429  0.6076
  528TMC3    C7 7899   1.009   1.293   1.190 -0.0769 -0.1129 -0.2854
  528TMC3    C8 7900   1.296   1.083   0.864 -0.1889 -0.2316  0.1072
  528TMC3    O1 7901   0.932   1.200   1.162 -0.8114  0.2066 -0.5953
  528TMC3    O2 7902   1.414   1.060   0.839  0.3729  0.2455  0.0611
  529MPD2     C 7903   3.757   4.348   0.826  0.0104 -0.9294  0.3412
  529MPD2    C1 7904   3.849   4.451   0.853  0.6680 -0.7133 -0.0832
  529MPD2    C2 7905   3.865   4.544   0.749 -0.0848 -0.2789 -0.6437
  529MPD2    C3 7906   3.784   4.542   0.639  0.7477  0.8026 -0.2134
  529MPD2    C4 7907   3.694   4.441   0.630  0.7910  0.6852 -0.4193
  529MPD2    C5 7908   3.689   4.339   0.714 -0.0448 -0.5489 -0.4289
  529MPD2     H 7909   3.940   4.621   0.758  0.8194 -1.3047  0.5753
  529MPD2    H1 7910   3.621   4.433   0.551  1.9768  0.0669 -1.4495
  529MPD2    H2 7911   3.727   4.275   0.900  2.3253  0.4744  2.6442
  529MPD2    H3 7912   3.615   4.259   0.706 -0.1868 -0.3399 -1.2174
  529MPD2     N 7913   3.789   4.646   0.542  0.6936  0.0350  0.0549
  529MPD2    H5 7914   3.861   4.714   0.566  0.4639  1.1843 -2.5106
  529MPD2    N1 7915   3.939   4.456   0.964 -0.4501  0.5276 -0.4028
  529MPD2    H7 7916   4.002   4.535   0.968 -1.0332  1.0241 -0.8899
  530TMC3    C1 7917   4.050   4.372   1.160  0.1913 -0.1868 -0.0585
  530TMC3    C2 7918   4.103   4.259   1.204 -0.6800  0.0123  0.6216
  530TMC3    C3 7919   4.222   4.259   1.275  0.0420  0.1604 -0.3001
  530TMC3    C4 7920   4.110   4.494   1.180 -0.3298 -0.3132 -0.7418
  530TMC3    C5 7921   4.223   4.498   1.263 -0.3578  0.5713  0.6513
  530TMC3    C6 7922   4.282   4.383   1.309 -0.6091 -0.0834  0.0151
  530TMC3     C 7923   3.941   4.359   1.063  0.1255 -0.1737 -0.0455
  530TMC3     O 7924   3.867   4.259   1.082  0.4719  0.5561  0.2899
  530TMC3     H 7925   4.059   4.167   1.166  0.7897 -0.7913  0.8354
  530TMC3    H1 7926   4.071   4.587   1.143 -0.5228 -0.4418 -0.8579
  530TMC3    H2 7927   4.360   4.383   1.384 -0.0810  0.0902 -0.5289
  530TMC3    C7 7928   4.269   4.616   1.335  0.1591  0.4033  0.2360
  530TMC3    C8 7929   4.279   4.142   1.328  0.5701  0.5420 -0.2976
  530TMC3    O1 7930   4.389   4.619   1.359 -0.0019  0.1469 -0.9306
  530TMC3    O2 7931   4.205   4.048   1.355 -0.4136  0.6076  0.1177
  531MPD2     C 7932   2.777   2.000  12.842 -0.3989  0.4664  0.2005
  531MPD2    C1 7933   2.722   1.958  12.967  0.0761  0.1461  0.1440
  531MPD2    C2 7934   2.680   1.829  12.984  0.8484  0.0648 -0.7906
  531MPD2    C3 7935   2.687   1.742  12.877 -0.2296  0.7170  0.2267
  531MPD2    C4 7936   2.731   1.785  12.755 -0.0162 -0.4027 -0.2509
  531MPD2    C5 7937   2.781   1.910  12.743  0.0497  0.6654  0.2053
  531MPD2     H 7938   2.644   1.799  13.082 -0.4392  1.1471 -0.9339
  531MPD2    H1 7939   2.738   1.719  12.669  1.5248  1.3211 -1.4582
  531MPD2    H2 7940   2.811   2.101  12.826 -0.8029  0.5568 -0.0667
  531MPD2    H3 7941   2.819   1.935  12.644 -1.5357  2.3858  0.0339
  531MPD2     N 7942   2.650   1.607  12.883 -0.3782  0.6314 -0.4652
  531MPD2    H5 7943   2.655   1.552  12.798  0.1949  0.8907 -0.5912
  531MPD2    N1 7944   2.722   2.064  13.064  0.2420 -0.0264 -0.1283
  531MPD2    H7 7945   2.791   2.138  13.051 -0.6863  0.5948 -1.5530
  532TMC3    C1 7946   2.697   2.136  13.296  0.1367  0.4739  0.7240
  532TMC3    C2 7947   2.634   2.102  13.411  0.0723 -0.5482 -0.1723
  532TMC3    C3 7948   2.709   2.084  13.525  0.4956  0.0752  0.3439
  532TMC3    C4 7949   2.829   2.175  13.302 -0.4435 -0.1591  0.1967
  532TMC3    C5 7950   2.897   2.179  13.424 -0.6079 -0.6956  0.4125
  532TMC3    C6 7951   2.843   2.110  13.534  0.0218 -0.6053  0.6035
  532TMC3     C 7952   2.640   2.068  13.176 -0.2438 -0.1970 -0.1096
  532TMC3     O 7953   2.528   2.019  13.180  0.9492 -0.3374 -0.9340
  532TMC3     H 7954   2.531   2.071  13.406  0.0709 -0.8239  1.4829
  532TMC3    H1 7955   2.882   2.216  13.216  1.3518 -0.7966  1.0144
  532TMC3    H2 7956   2.899   2.084  13.623  2.0939  0.5430 -0.3715
  532TMC3    C7 7957   3.041   2.165  13.408 -0.4210 -0.8611  0.2426
  532TMC3    C8 7958   2.669   1.973  13.599  0.3288 -0.0098  0.5360
  532TMC3    O1 7959   3.111   2.263  13.440  0.8033 -0.2974 -0.0354
  532TMC3    O2 7960   2.644   1.981  13.720  0.4294  0.4390  0.0386
  533TMC3    C1 7961   4.011   3.541  14.781 -0.6029 -0.3143  0.1770
  533TMC3    C2 7962   4.135   3.593  14.766 -0.5745  0.5700 -0.1371
  533TMC3    C3 7963   4.148   3.730  14.750 -0.7752 -0.6991  0.3499
  533TMC3    C4 7964   3.901   3.619  14.796 -0.0574  0.2253  0.0775
  533TMC3    C5 7965   3.917   3.751  14.796 -0.8873 -0.1876  0.0715
  533TMC3    C6 7966   4.041   3.811  14.770 -0.6566  0.0313 -0.2247
  533TMC3     C 7967   3.997   3.392  14.772  0.1345  0.0746  0.2130
  533TMC3     O 7968   4.088   3.318  14.798  0.6745  0.2097  0.4662
  533TMC3     H 7969   4.225   3.533  14.766 -0.7101  0.4082  2.9410
  533TMC3    H1 7970   3.803   3.575  14.791  0.7325 -1.5400  0.1450
  533TMC3    H2 7971   4.043   3.919  14.768 -2.0667  0.0425 -0.7482
  533TMC3    C7 7972   3.837   3.802  14.905 -0.1440  0.4363 -0.6967
  533TMC3    C8 7973   4.283   3.782  14.765  0.0843  0.2354  0.4783
  533TMC3    O1 7974   3.731   3.742  14.918 -0.1571 -0.4138 -0.5365
  533TMC3    O2 7975   4.357   3.727  14.848  0.0877 -0.0238 -0.1609
  534MPD2     C 7976   1.883   0.177   1.341  0.1107  0.4031 -0.0451
  534MPD2    C1 7977   1.818   0.295   1.362  0.7218 -0.4289  0.0146
  534MPD2    C2 7978   1.697   0.332   1.302 -0.6589 -0.4574 -0.7817
  534MPD2    C3 7979   1.640   0.246   1.211 -0.6725  0.5333 -0.2772
  534MPD2    C4 7980   1.702   0.124   1.190  0.3421 -0.4853 -0.1004
  534MPD2    C5 7981   1.820   0.096   1.254 -0.0146  0.0689  0.0424
  534MPD2     H 7982   1.647   0.424   1.330  3.5099  1.3110  0.7752
  534MPD2    H1 7983   1.666   0.056   1.114 -0.9750  1.2014 -0.9857
  534MPD2    H2 7984   1.971   0.138   1.391 -0.2077 -3.0601 -2.1818
  534MPD2    H3 7985   1.855   4.730   1.233 -0.4784 -0.0281 -0.2769
  534MPD2     N 7986   1.532   0.284   1.125 -0.1900 -0.8276  0.1074
  534MPD2    H5 7987   1.486   0.207   1.078  0.6270  0.3115 -2.5310
  534MPD2    N1 7988   1.866   0.396   1.441 -0.1571 -0.7165 -0.1969
  534MPD2    H7 7989   1.802   0.469   1.469 -0.7317 -1.7129  1.1329
  535TMC3    C1 7990   1.345   0.397   1.035 -0.0984  0.0742 -0.0800
  535TMC3    C2 7991   1.229   0.457   1.078 -0.3249  0.0322  0.1100
  535TMC3    C3 7992   1.116   0.458   0.999 -0.5037 -0.4646  0.2905
  535TMC3    C4 7993   1.349   0.325   0.914 -1.1117 -0.3233 -0.3334
  535TMC3    C5 7994   1.237   0.333   0.838  0.2631  0.4070  0.4385
  535TMC3    C6 7995   1.116   0.401   0.874 -0.0181  0.1316  0.4436
  535TMC3     C 7996   1.464   0.404   1.123 -1.0760 -0.0086  0.7677
  535TMC3     O 7997   1.473   0.503   1.194 -0.9084  0.6908 -0.4931
  535TMC3     H 7998   1.229   0.508   1.174 -0.3603  0.0286  0.1117
  535TMC3    H1 7999   1.441   0.276   0.885  0.0581  0.9068  1.2668
  535TMC3    H2 8000   1.030   0.421   0.811  0.6185 -1.5731 -0.9591
  535TMC3    C7 8001   1.241   0.251   0.715  0.1660 -0.7402 -0.5280
  535TMC3    C8 8002   0.985   0.456   1.064 -0.0358  0.4804  0.2300
  535TMC3    O1 8003   1.351   0.201   0.696 -0.0653 -0.4571  0.5277
  535TMC3    O2 8004   0.897   0.401   0.999 -0.0574  0.6574 -0.2082
  536MPD2     C 8005   0.598   2.908  16.385 -0.9287  0.4535  0.0307
  536MPD2    C1 8006   0.466   2.891  16.412  0.2419  0.8429  0.2115
  536MPD2    C2 8007   0.380   2.904  16.310 -0.6858 -0.0920 -0.1579
  536MPD2    C3 8008   0.425   2.947  16.187  0.5842 -0.1121  0.3841
  536MPD2    C4 8009   0.558   2.967  16.163 -0.2323 -0.1330  0.6732
  536MPD2    C5 8010   0.650   2.947  16.261  0.2312 -0.9334  0.4433
  536MPD2     H 8011   0.274   2.899  16.328 -0.3662 -0.6900  1.6057
  536MPD2    H1 8012   0.592   2.988  16.062  2.9579  1.0445  1.9783
  536MPD2    H2 8013   0.669   2.907  16.467 -0.9460  3.3838  0.0881
  536MPD2    H3 8014   0.757   2.962  16.252  0.0903 -0.1065  0.0921
  536MPD2     N 8015   0.347   2.989  16.074  0.1377 -0.0416 -0.1007
  536MPD2    H5 8016   0.384   3.014  15.983 -0.8734 -2.4087 -1.1701
  536MPD2    N1 8017   0.427   2.862  16.546 -0.4612 -0.6290 -0.0218
  536MPD2    H7 8018   0.506   2.869  16.610 -1.4495 -0.5344  1.1812
  537TMC3    C1 8019   0.315   2.799  16.744 -0.3572 -0.1949  0.1848
  537TMC3    C2 8020   0.372   2.888  16.828  0.3128 -0.1549  0.2495
  537TMC3    C3 8021   0.355   2.872  16.962  0.0655  0.7723  0.6619
  537TMC3    C4 8022   0.215   2.712  16.786  0.2379 -0.6893  0.3230
  537TMC3    C5 8023   0.209   2.692  16.920  0.0275 -0.3541 -0.1458
  537TMC3    C6 8024   0.283   2.769  17.009  0.1529  0.0192 -0.0054
  537TMC3     C 8025   0.306   2.827  16.602 -0.3761 -0.1689 -0.2507
  537TMC3     O 8026   0.209   2.798  16.538 -0.7197 -0.1346  0.3849
  537TMC3     H 8027   0.447   2.955  16.788  1.0059  0.0185  1.8323
  537TMC3    H1 8028   0.161   2.646  16.719  2.1058 -0.8024 -1.0814
  537TMC3    H2 8029   0.274   2.758  17.117 -1.8439 -1.9129 -0.3645
  537TMC3    C7 8030   0.102   2.603  16.972 -0.2101  0.0448  0.3051
  537TMC3    C8 8031   0.444   2.945  17.052  0.5970  0.1473 -0.3660
  537TMC3    O1 8032   0.047   2.546  16.879 -0.2975 -0.2158 -0.0507
  537TMC3    O2 8033   0.489   2.879  17.144 -0.0423 -0.0970 -0.4906
  538TMC3    C1 8034   1.617   1.152  11.204 -0.6895 -0.9089  0.2424
  538TMC3    C2 8035   1.747   1.192  11.217  0.8362 -0.0914 -0.1939
  538TMC3    C3 8036   1.805   1.256  11.110 -0.5299 -0.5133  0.0767
  538TMC3    C4 8037   1.541   1.190  11.099 -0.6899 -0.5162 -0.6746
  538TMC3    C5 8038   1.598   1.267  11.006  0.6030  0.8256  0.3462
  538TMC3    C6 8039   1.729   1.305  11.010 -0.8919 -0.3006 -0.8951
  538TMC3     C 8040   1.533   1.106  11.315 -0.1798  0.3978  0.5090
  538TMC3     O 8041   1.418   1.081  11.288  0.2482 -0.8936  0.2788
  538TMC3     H 8042   1.807   1.143  11.293 -1.3848 -0.5843  1.2472
  538TMC3    H1 8043   1.441   1.150  11.088 -0.8043 -0.0738 -1.2005
  538TMC3    H2 8044   1.763   1.346  10.916  1.8046 -1.8908 -0.6337
  538TMC3    C7 8045   1.508   1.355  10.930  0.3163 -0.2029 -0.2474
  538TMC3    C8 8046   1.930   1.330  11.137 -0.4360  0.0100  0.6957
  538TMC3    O1 8047   1.422   1.295  10.865  0.0814 -0.9992 -0.2223
  538TMC3    O2 8048   1.982   1.327  11.249 -0.7914  0.2362 -0.2346
  539MPD2     C 8049   1.413   0.256  12.133 -0.1098  0.2048  0.0957
  539MPD2    C1 8050   1.457   0.301  12.012 -0.0981  0.5027 -0.4376
  539MPD2    C2 8051   1.405   0.423  11.968  0.8231 -0.3102  0.3031
  539MPD2    C3 8052   1.322   0.502  12.046 -0.3761  0.1015  0.1043
  539MPD2    C4 8053   1.283   0.457  12.168  0.1255 -0.2243 -0.2537
  539MPD2    C5 8054   1.332   0.334  12.216  0.1181  0.5726  0.2232
  539MPD2     H 8055   1.440   0.467  11.876 -2.5790  0.1036 -0.7878
  539MPD2    H1 8056   1.215   0.517  12.227  0.8732 -0.6161  0.9991
  539MPD2    H2 8057   1.462   0.170  12.176 -2.0785 -0.8258  0.2734
  539MPD2    H3 8058   1.311   0.304  12.318  2.4188  1.7991  1.0608
  539MPD2     N 8059   1.276   0.636  12.006 -0.3982 -0.2526 -0.4710
  539MPD2    H5 8060   1.223   0.690  12.073  0.8316  0.6317 -0.2099
  539MPD2    N1 8061   1.551   0.231  11.932  0.0388 -0.2211 -0.1677
  539MPD2    H7 8062   1.585   0.278  11.849  0.4663  0.1181  0.2011
  540TMC3    C1 8063   1.195   0.801  11.859  0.2813 -0.4001 -0.2524
  540TMC3    C2 8064   1.127   0.803  11.742  1.8592 -0.2863 -0.3181
  540TMC3    C3 8065   1.063   0.923  11.721 -0.6018 -0.4942  0.1584
  540TMC3    C4 8066   1.201   0.896  11.959 -0.0991  0.0161  0.2723
  540TMC3    C5 8067   1.125   1.010  11.920  0.3575 -0.8792  1.0439
  540TMC3    C6 8068   1.067   1.025  11.803  0.1121 -0.3115 -0.3240
  540TMC3     C 8069   1.275   0.685  11.876 -1.2667  0.2250 -0.4717
  540TMC3     O 8070   1.285   0.613  11.778  0.0797  0.3482 -0.4661
  540TMC3     H 8071   1.112   0.719  11.676  0.5297 -0.2854 -0.0123
  540TMC3    H1 8072   1.271   0.893  12.042 -1.9971  1.1743  1.8948
  540TMC3    H2 8073   1.012   1.116  11.782 -0.1534 -0.7851 -1.6896
  540TMC3    C7 8074   1.120   1.125  12.006 -1.0158 -0.5942  0.3054
  540TMC3    C8 8075   0.975   0.930  11.602 -0.5094  0.4313 -0.0709
  540TMC3    O1 8076   1.094   1.237  11.959  0.2728  0.4453 -0.1322
  540TMC3    O2 8077   0.876   1.000  11.593 -0.4976 -0.4559 -0.0108
  541MPD2     C 8078   4.369   2.375  13.331  0.0748  0.2536  0.1751
  541MPD2    C1 8079   4.366   2.283  13.236 -0.1163 -0.9872  1.0531
  541MPD2    C2 8080   4.421   2.307  13.114 -0.1543 -0.5436  0.0211
  541MPD2    C3 8081   4.469   2.434  13.080  0.2004  0.0031  0.3846
  541MPD2    C4 8082   4.467   2.535  13.179  0.3516  0.3851  0.0722
  541MPD2    C5 8083   4.416   2.502  13.305 -0.2171 -0.1228 -0.2100
  541MPD2     H 8084   4.412   2.238  13.031  0.8947 -1.0747  0.3493
  541MPD2    H1 8085   4.498   2.634  13.148 -5.2569  1.9334 -0.5436
  541MPD2    H2 8086   4.323   2.359  13.428 -0.0917 -0.5380 -0.0426
  541MPD2    H3 8087   4.419   2.574  13.386  0.4183  1.3785 -1.5461
  541MPD2     N 8088   4.500   2.469  12.946 -0.1575  0.5853 -0.2467
  541MPD2    H5 8089   4.509   2.566  12.921  0.6837  0.0502 -1.9527
  541MPD2    N1 8090   4.297   2.162  13.249 -0.1776 -0.5454  0.5869
  541MPD2    H7 8091   4.278   2.116  13.160  1.5237  1.5318 -0.8564
  542TMC3    C1 8092   4.549   2.452  12.716  0.5233  0.1885  0.1824
  542TMC3    C2 8093   4.629   2.387  12.621 -0.0899  0.5084  0.2084
  542TMC3    C3 8094   4.619   2.436  12.490 -0.1524  0.5256  0.5867
  542TMC3    C4 8095   4.453   2.536  12.679  0.0116  0.7124 -0.7306
  542TMC3    C5 8096   4.437   2.564  12.548  0.3867  0.0844  0.5629
  542TMC3    C6 8097   4.523   2.523  12.451 -0.6937 -0.3437  0.1057
  542TMC3     C 8098   4.532   2.384  12.847 -0.2088 -0.3382 -0.0485
  542TMC3     O 8099   4.569   2.269  12.851  0.9704  0.0170 -0.1247
  542TMC3     H 8100   4.705   2.313  12.643 -1.9890 -1.3669  0.4533
  542TMC3    H1 8101   4.383   2.573  12.753  0.0716  1.0446 -0.8385
  542TMC3    H2 8102   4.513   2.545  12.345 -1.2774 -2.2210 -0.2344
  542TMC3    C7 8103   4.312   2.619  12.513 -0.3372  0.2255  0.8404
  542TMC3    C8 8104   4.697   2.358  12.389 -1.0635  0.0904 -0.2946
  542TMC3    O1 8105   4.261   2.704  12.586  0.0219 -0.5023 -0.4057
  542TMC3    O2 8106   0.005   2.250  12.424  0.0065 -0.4274  0.5102
  543TMC3    C1 8107   4.076   4.014  17.375  0.4690 -0.0056 -0.7247
  543TMC3    C2 8108   3.969   3.939  17.419  0.1012  0.3567 -0.1054
  543TMC3    C3 8109   3.942   3.924  17.553 -0.2955  0.1066 -1.3684
  543TMC3    C4 8110   4.139   4.095  17.463 -0.1469 -0.3232  0.5123
  543TMC3    C5 8111   4.118   4.073  17.596  0.3008 -1.0027 -0.8257
  543TMC3    C6 8112   4.016   3.991  17.645 -0.3642  0.1601 -0.2386
  543TMC3     C 8113   4.116   4.014  17.235 -0.7220  0.6811  0.0016
  543TMC3     O 8114   4.234   4.023  17.213  0.1400  0.7602  0.0026
  543TMC3     H 8115   3.933   3.869  17.346  1.5141  0.9560 -1.3791
  543TMC3    H1 8116   4.194   4.179  17.422 -1.0903 -0.4042 -0.9217
  543TMC3    H2 8117   3.995   3.988   0.015  0.2721  1.0861 -0.0844
  543TMC3    C7 8118   4.181   4.159  17.696 -0.1585  0.5266  0.4364
  543TMC3    C8 8119   3.870   3.809  17.595 -0.1463 -0.3926  0.2490
  543TMC3    O1 8120   4.177   4.127   0.079 -0.0757 -0.5026 -0.0872
  543TMC3    O2 8121   3.857   3.730  17.505 -0.2628 -0.0893  0.4945
  544MPD2     C 8122   3.740   3.514   0.249 -0.9042 -0.5639 -0.1256
  544MPD2    C1 8123   3.765   3.485   0.116  0.4868 -0.8394 -0.3702
  544MPD2    C2 8124   3.787   3.577   0.024 -0.3745  0.1035  0.5212
  544MPD2    C3 8125   3.782   3.715   0.064  0.4567 -0.4917  0.6698
  544MPD2    C4 8126   3.747   3.742   0.191  0.2793 -0.4150 -0.6620
  544MPD2    C5 8127   3.733   3.644   0.286 -0.3198 -0.1325  0.0064
  544MPD2     H 8128   3.821   3.551  17.660  0.2812 -2.1943  1.3339
  544MPD2    H1 8129   3.727   3.847   0.211  1.1926  0.2923 -3.6086
  544MPD2    H2 8130   3.719   3.448   0.332  2.8282 -1.5013  0.0941
  544MPD2    H3 8131   3.708   3.661   0.390  1.0181 -1.7505  0.6086
  544MPD2     N 8132   3.813   3.824  17.713  0.8517  0.4673  0.2559
  544MPD2    H5 8133   3.833   3.916   0.014 -1.2461  1.1735 -0.3720
  544MPD2    N1 8134   3.759   3.352   0.068  0.5040  0.3035 -0.0129
  544MPD2    H7 8135   3.753   3.334  17.704 -2.3129  0.4774  0.1175
  545TMC3    C1 8136   3.725   3.119   0.065  0.4004  0.4358  0.3566
  545TMC3    C2 8137   3.631   3.134  17.704 -0.0267 -0.4222 -0.4006
  545TMC3    C3 8138   3.587   3.017  17.641  0.1652 -0.3823  0.1947
  545TMC3    C4 8139   3.765   2.999   0.098 -0.0658  0.0937 -0.4136
  545TMC3    C5 8140   3.736   2.887   0.021 -0.1381  0.4991 -0.4676
  545TMC3    C6 8141   3.643   2.894  17.661  0.2849  0.3850  0.4130
  545TMC3     C 8142   3.767   3.233   0.141 -0.1494  0.5749 -0.1212
  545TMC3     O 8143   3.794   3.216   0.261  0.5294 -0.0155 -0.1484
  545TMC3     H 8144   3.584   3.231  17.703 -0.4655 -0.6229  1.8707
  545TMC3    H1 8145   3.834   2.995   0.181  0.9160 -0.6206 -1.2702
  545TMC3    H2 8146   3.610   2.806  17.607  2.9458  0.1697 -0.8632
  545TMC3    C7 8147   3.798   2.761   0.062  0.5018  0.3616 -0.3138
  545TMC3    C8 8148   3.496   3.031  17.527  0.5301 -0.6859 -0.3255
  545TMC3    O1 8149   3.900   2.767   0.128 -0.0186 -0.1726  0.3898
  545TMC3    O2 8150   3.438   2.931  17.484  0.0876 -0.2081  0.4091
  546MPD2     C 8151   0.516   3.178  17.608  0.7323  0.2455  0.6371
  546MPD2    C1 8152   0.456   3.204  17.488  0.1958  0.7131  0.6130
  546MPD2    C2 8153   0.509   3.311  17.413  0.7576  0.3955  0.2426
  546MPD2    C3 8154   0.612   3.392  17.464 -0.1079 -0.6588 -0.1107
  546MPD2    C4 8155   0.668   3.364  17.580  0.5133  0.0245 -0.5486
  546MPD2    C5 8156   0.624   3.255  17.646 -0.0797  0.0266  0.4168
  546MPD2     H 8157   0.461   3.333  17.319  1.6560 -2.0079 -0.7879
  546MPD2    H1 8158   0.746   3.423  17.627  0.2221  0.1786 -0.2578
  546MPD2    H2 8159   0.499   3.088  17.666 -0.3026 -0.6099 -1.0018
  546MPD2    H3 8160   0.664   3.238   0.009 -3.6624 -2.5051  1.4131
  546MPD2     N 8161   0.660   3.488  17.371 -0.7390 -0.1486  0.4183
  546MPD2    H5 8162   0.607   3.504  17.287  0.0272  0.6575  0.0865
  546MPD2    N1 8163   0.354   3.116  17.449 -0.6545 -0.4921 -0.0445
  546MPD2    H7 8164   0.338   3.037  17.510  0.1832  0.1341  0.9885
  547TMC3    C1 8165   0.161   3.049  17.339  0.5309  0.5232  0.3071
  547TMC3    C2 8166   0.102   3.038  17.224  0.6053  0.5919  0.5572
  547TMC3    C3 8167   4.734   2.958  17.213 -0.5025 -0.4536 -0.6363
  547TMC3    C4 8168   0.121   3.001  17.463  0.3601  0.0200 -0.0943
  547TMC3    C5 8169   0.006   2.928  17.442 -0.0421 -0.2541 -0.4496
  547TMC3    C6 8170   4.683   2.904  17.323  0.1851  0.7110  0.2783
  547TMC3     C 8171   0.277   3.129  17.337  0.1536  0.1203 -0.0363
  547TMC3     O 8172   0.278   3.219  17.252  0.4709  0.5014  0.2268
  547TMC3     H 8173   0.136   3.098  17.141 -1.8830 -1.7190 -2.1495
  547TMC3    H1 8174   0.175   3.010  17.557  0.3183 -0.7285  0.0004
  547TMC3    H2 8175   4.591   2.847  17.314  0.9319 -0.4064 -0.2591
  547TMC3    C7 8176   4.688   2.861  17.560 -0.8948  0.1637 -0.6825
  547TMC3    C8 8177   4.667   2.934  17.092 -0.1828 -0.6280  0.1461
  547TMC3    O1 8178   0.011   2.887  17.668 -0.1897 -0.2496  0.0696
  547TMC3    O2 8179   4.607   2.827  17.088 -0.0118  0.2330 -0.0685
  548MPD2     C 8180   0.576   3.843  13.190  0.2716  0.4416  0.2736
  548MPD2    C1 8181   0.519   3.737  13.135  0.2417  0.3891  0.2956
  548MPD2    C2 8182   0.587   3.690  13.026 -0.4013  0.6336 -0.8993
  548MPD2    C3 8183   0.699   3.751  12.968  0.7475  0.4657 -0.7501
  548MPD2    C4 8184   0.755   3.860  13.026 -0.5786 -0.5432  0.3848
  548MPD2    C5 8185   0.700   3.904  13.142 -0.0448 -0.3483 -0.3638
  548MPD2     H 8186   0.545   3.604  12.976  1.3381  0.5225 -2.1608
  548MPD2    H1 8187   0.848   3.904  12.991 -2.0760  2.2192 -0.1609
  548MPD2    H2 8188   0.530   3.874  13.283  1.0165 -0.3287  0.9006
  548MPD2    H3 8189   0.747   3.983  13.198 -0.6181 -0.9656  0.9999
  548MPD2     N 8190   0.743   3.691  12.847  0.2087  0.3742  0.1478
  548MPD2    H5 8191   0.701   3.602  12.824  3.1884 -0.8769 -0.5020
  548MPD2    N1 8192   0.390   3.685  13.182 -0.0125  0.2300  0.2416
  548MPD2    H7 8193   0.354   3.737  13.262 -1.9612  0.7729 -0.9938
  549TMC3    C1 8194   0.186   3.579  13.169  0.6293 -0.2423 -0.0038
  549TMC3    C2 8195   0.111   3.691  13.148 -0.4094  0.0317 -0.6148
  549TMC3    C3 8196   4.711   3.683  13.131 -0.0663  0.1029 -0.4393
  549TMC3    C4 8197   0.122   3.457  13.144 -0.4666 -0.7526  0.7671
  549TMC3    C5 8198   4.720   3.452  13.129 -0.8478  0.4770  0.3331
  549TMC3    C6 8199   4.640   3.564  13.127 -0.2188  0.2110  0.0064
  549TMC3     C 8200   0.320   3.581  13.133 -0.2744 -0.2034  0.3108
  549TMC3     O 8201   0.359   3.502  13.045  0.0060 -0.6259  0.1589
  549TMC3     H 8202   0.161   3.787  13.156 -1.2410  0.4342 -0.2551
  549TMC3    H1 8203   0.186   3.371  13.159 -2.0977 -2.0232  0.4004
  549TMC3    H2 8204   4.534   3.556  13.108 -0.6798  1.8880  1.8749
  549TMC3    C7 8205   4.645   3.322  13.115 -0.1478  0.2248  0.0804
  549TMC3    C8 8206   4.646   3.797  13.076 -0.0694  0.5209 -0.8185
  549TMC3    O1 8207   4.522   3.327  13.107  0.0540  0.4091 -0.3615
  549TMC3    O2 8208   4.528   3.780  13.052 -0.5696  0.5611  0.3506
  550TMC3    C1 8209   3.514   1.336  12.227 -0.1983  0.4913 -0.4048
  550TMC3    C2 8210   3.516   1.371  12.360 -0.2617 -0.2576  0.2999
  550TMC3    C3 8211   3.407   1.430  12.419  0.6021 -0.0796  0.1640
  550TMC3    C4 8212   3.403   1.350  12.154 -0.4014  0.2031 -0.2514
  550TMC3    C5 8213   3.299   1.414  12.213 -0.3609 -0.3891 -1.1269
  550TMC3    C6 8214   3.298   1.451  12.343  0.0454 -0.2084 -0.4281
  550TMC3     C 8215   3.635   1.284  12.163 -0.2265 -0.3259 -0.3060
  550TMC3     O 8216   3.718   1.230  12.233  0.2032  0.0305 -0.1022
  550TMC3     H 8217   3.610   1.360  12.413 -0.7119 -2.0986  0.7213
  550TMC3    H1 8218   3.401   1.314  12.052 -3.0329  0.0335 -0.1393
  550TMC3    H2 8219   3.217   1.507  12.390  0.1657  1.3199 -2.0569
  550TMC3    C7 8220   3.176   1.433  12.136  0.3298 -0.6049  1.4778
  550TMC3    C8 8221   3.417   1.507  12.547  0.1642 -0.0013  0.0512
  550TMC3    O1 8222   3.073   1.444  12.203  0.6145  0.9123  0.4382
  550TMC3    O2 8223   3.349   1.610  12.548 -0.1530 -0.3250 -0.2018
  551TMC3    C1 8224   1.234   4.420  13.608  0.9176  0.2216  0.0688
  551TMC3    C2 8225   1.333   4.332  13.573 -0.5558  0.5261 -0.5004
  551TMC3    C3 8226   1.440   4.326  13.656  0.0308 -0.8152  0.0374
  551TMC3    C4 8227   1.235   4.491  13.720 -0.4255 -0.3031  0.3494
  551TMC3    C5 8228   1.336   4.462  13.810 -0.3408 -0.1066 -0.1547
  551TMC3    C6 8229   1.438   4.378  13.783 -0.6034 -0.0387 -0.0894
  551TMC3     C 8230   1.142   4.452  13.499 -0.3167 -0.3696 -0.1135
  551TMC3     O 8231   1.101   4.361  13.427  0.2379  0.4473 -0.1312
  551TMC3     H 8232   1.327   4.290  13.473 -0.8627  0.0828 -0.2948
  551TMC3    H1 8233   1.157   4.564  13.740 -0.2747  0.0557 -0.3579
  551TMC3    H2 8234   1.519   4.385  13.855  0.3803  0.6397 -1.2646
  551TMC3    C7 8235   1.345   4.534  13.935  0.4057  0.2912  0.1722
  551TMC3    C8 8236   1.568   4.289  13.602  0.3977 -0.0537  0.1067
  551TMC3    O1 8237   1.381   4.473  14.036  0.2651  0.2434 -0.4261
  551TMC3    O2 8238   1.571   4.200  13.520 -0.6731 -0.5902 -0.1651
  552MPD2     C 8239   3.251   1.653  14.049  0.1428  0.4511 -0.0306
  552MPD2    C1 8240   3.180   1.561  14.126 -0.4470  0.0758 -0.4982
  552MPD2    C2 8241   3.245   1.473  14.215  0.2632 -0.0927  0.6347
  552MPD2    C3 8242   3.380   1.478  14.222 -0.3998 -0.1976  0.0093
  552MPD2    C4 8243   3.442   1.562  14.138  0.4918  0.1275  0.0011
  552MPD2    C5 8244   3.384   1.651  14.056 -0.6571  0.6268 -1.1122
  552MPD2     H 8245   3.193   1.394  14.267  0.2782 -1.6138 -1.6336
  552MPD2    H1 8246   3.550   1.569  14.149  0.2460  0.0479  2.3745
  552MPD2    H2 8247   3.207   1.722  13.977 -0.8402  0.7918  0.8818
  552MPD2    H3 8248   3.436   1.730  14.002  0.4338 -0.5745 -1.8135
  552MPD2     N 8249   3.459   1.430  14.330 -0.6725  0.3449 -0.5021
  552MPD2    H5 8250   3.555   1.460  14.327 -0.1171 -1.4122 -0.1699
  552MPD2    N1 8251   3.036   1.560  14.126 -0.1234 -0.2787  0.1561
  552MPD2    H7 8252   2.989   1.498  14.191 -2.9742  0.9209 -0.7628
  553TMC3    C1 8253   2.828   1.567  14.027  0.2354 -0.3223  0.6369
  553TMC3    C2 8254   2.769   1.576  13.906 -0.5030  0.6649 -0.4842
  553TMC3    C3 8255   2.699   1.463  13.859 -0.5341 -0.3631  0.1699
  553TMC3    C4 8256   2.790   1.465  14.115  0.0830  0.4777 -0.0444
  553TMC3    C5 8257   2.714   1.363  14.071 -0.6667  0.1258 -0.1344
  553TMC3    C6 8258   2.680   1.352  13.942  0.2956 -0.2551 -0.0749
  553TMC3     C 8259   2.961   1.626  14.037 -0.0287 -0.4194 -0.3366
  553TMC3     O 8260   2.981   1.725  13.970  0.1191 -0.1682  0.5338
  553TMC3     H 8261   2.786   1.666  13.849  0.8066  0.9519  0.3504
  553TMC3    H1 8262   2.824   1.469  14.217  0.7615  0.0899 -0.2550
  553TMC3    H2 8263   2.663   1.255  13.897  0.4848 -1.0295  1.5378
  553TMC3    C7 8264   2.762   1.237  14.132  0.2489 -0.1858 -0.5303
  553TMC3    C8 8265   2.739   1.433  13.726 -0.5214 -0.0313 -0.2636
  553TMC3    O1 8266   2.687   1.147  14.171 -0.3813 -0.0066 -0.1306
  553TMC3    O2 8267   2.831   1.499  13.676 -0.4123 -0.2176 -0.0305
  554TMC3    C1 8268   0.653   1.245  11.691 -0.1987 -0.5514 -0.0811
  554TMC3    C2 8269   0.572   1.150  11.642 -0.1353  0.8794 -0.1547
  554TMC3    C3 8270   0.541   1.160  11.510  0.1238 -0.6678  0.3302
  554TMC3    C4 8271   0.714   1.341  11.616 -0.4226 -0.1798 -0.2416
  554TMC3    C5 8272   0.681   1.343  11.480  0.0848  0.5020 -0.0052
  554TMC3    C6 8273   0.594   1.254  11.425  0.1718  0.8905 -0.1889
  554TMC3     C 8274   0.707   1.222  11.820 -1.1426 -0.2809  0.0568
  554TMC3     O 8275   0.752   1.310  11.894 -0.4496  0.2352  0.5815
  554TMC3     H 8276   0.512   1.081  11.701  2.1193 -0.4139  0.6272
  554TMC3    H1 8277   0.791   1.406  11.657 -0.2764 -1.0088  0.7875
  554TMC3    H2 8278   0.569   1.268  11.320 -0.8979 -1.1771 -0.2101
  554TMC3    C7 8279   0.737   1.436  11.390  0.0545  0.0759  0.3524
  554TMC3    C8 8280   0.528   1.034  11.432 -0.5580  0.1110 -0.4813
  554TMC3    O1 8281   0.764   1.403  11.275  0.1597  0.5486  0.3204
  554TMC3    O2 8282   0.563   1.046  11.316 -0.2085  0.2713  0.0546
  555TMC3    C1 8283   4.391   0.462  15.372  0.3358  0.5169  0.4324
  555TMC3    C2 8284   4.346   0.556  15.460  0.2759  0.6324  0.3502
  555TMC3    C3 8285   4.378   0.525  15.592 -0.3537 -0.1094  0.0265
  555TMC3    C4 8286   4.465   0.349  15.399  0.5028 -0.0427 -0.1139
  555TMC3    C5 8287   4.482   0.323  15.535 -1.1082 -0.7178 -0.1922
  555TMC3    C6 8288   4.430   0.406  15.633  0.1071  0.6641  0.2189
  555TMC3     C 8289   4.320   0.476  15.248  0.2467  0.2092  0.2438
  555TMC3     O 8290   4.223   0.547  15.247  0.2639 -0.3340 -0.1688
  555TMC3     H 8291   4.295   0.646  15.428 -1.1119 -0.2203  0.1770
  555TMC3    H1 8292   4.474   0.273  15.321 -1.2470  0.0861 -0.4515
  555TMC3    H2 8293   4.445   0.373  15.735  0.2533 -3.3837 -1.1275
  555TMC3    C7 8294   4.518   0.181  15.577  0.9208  0.4529  1.2926
  555TMC3    C8 8295   4.364   0.631  15.697  0.1825  0.3217 -0.2833
  555TMC3    O1 8296   4.476   0.139  15.684 -0.0062 -0.3423 -0.5432
  555TMC3    O2 8297   4.337   0.743  15.657 -0.2715  0.2788 -0.0561
  556MPD2     C 8298   2.433   2.542  10.776 -0.2485  0.0008  0.3426
  556MPD2    C1 8299   2.431   2.420  10.849 -0.4863 -0.0523  0.1900
  556MPD2    C2 8300   2.382   2.306  10.795 -0.2898 -0.3277 -0.0204
  556MPD2    C3 8301   2.337   2.300  10.663  0.5487  0.4952 -0.0969
  556MPD2    C4 8302   2.350   2.422  10.592 -0.4788  0.4046  0.7366
  556MPD2    C5 8303   2.401   2.538  10.647  0.2242 -0.5588 -0.2536
  556MPD2     H 8304   2.364   2.217  10.853 -1.1332 -1.3014 -1.7601
  556MPD2    H1 8305   2.333   2.423  10.485  1.1090 -1.3568  0.4633
  556MPD2    H2 8306   2.473   2.637  10.812 -2.1132  0.6796  0.6019
  556MPD2    H3 8307   2.400   2.628  10.587  0.8856  1.0283  2.0895
  556MPD2     N 8308   2.302   2.173  10.615 -0.2376  1.0113 -0.2877
  556MPD2    H5 8309   2.307   2.090  10.674 -1.6903  0.4878 -0.9080
  556MPD2    N1 8310   2.467   2.412  10.992  0.5009  0.2780  0.5398
  556MPD2    H7 8311   2.458   2.322  11.038  5.0035 -0.2960  0.2742
  557TMC3    C1 8312   2.231   2.011  10.453 -0.5160 -0.3405 -0.5427
  557TMC3    C2 8313   2.211   1.976  10.325 -0.6854 -0.5514 -0.0833
  557TMC3    C3 8314   2.151   1.856  10.292 -0.2110  0.4991  0.4838
  557TMC3    C4 8315   2.199   1.923  10.555 -0.3730  0.2791 -0.8862
  557TMC3    C5 8316   2.145   1.802  10.528  0.0426 -0.2657 -0.2596
  557TMC3    C6 8317   2.123   1.766  10.396 -0.3611 -0.0099  0.5368
  557TMC3     C 8318   2.267   2.149  10.482 -0.6485  0.1038  0.7313
  557TMC3     O 8319   2.258   2.225  10.387 -0.3233 -0.8441 -1.0970
  557TMC3     H 8320   2.228   2.045  10.243 -0.0156 -0.9013 -0.2424
  557TMC3    H1 8321   2.206   1.963  10.655 -1.4946 -0.8886 -0.3470
  557TMC3    H2 8322   2.083   1.667  10.375  1.8600 -0.6416 -0.6642
  557TMC3    C7 8323   2.098   1.716  10.633  0.2076 -0.2751  0.2766
  557TMC3    C8 8324   2.105   1.835  10.157  0.2963 -0.5119  0.3144
  557TMC3    O1 8325   2.041   1.612  10.597 -0.4878 -0.4975 -0.2357
  557TMC3    O2 8326   2.080   1.931  10.087 -0.3373  0.0932 -0.4064
  558TMC3    C1 8327   0.420   4.612  10.694 -0.7345  0.5955 -0.1945
  558TMC3    C2 8328   0.292   4.580  10.741  0.2491  0.6894  0.0769
  558TMC3    C3 8329   0.190   4.590  10.646  0.3087  0.8594  0.8238
  558TMC3    C4 8330   0.438   4.650  10.563  0.7367  1.1583 -0.8396
  558TMC3    C5 8331   0.340   4.634  10.467 -0.1874 -0.8188 -0.3086
  558TMC3    C6 8332   0.212   4.615  10.514 -0.0034  0.2301 -0.5586
  558TMC3     C 8333   0.540   4.583  10.777 -0.1049 -0.0129  0.3739
  558TMC3     O 8334   0.648   4.629  10.738 -0.2326  0.3570 -0.0979
  558TMC3     H 8335   0.270   4.576  10.847 -2.2351 -2.6916 -0.5328
  558TMC3    H1 8336   0.541   4.668  10.535  0.6944  1.3280 -0.8902
  558TMC3    H2 8337   0.127   4.599  10.447 -1.4452  0.9967  1.0883
  558TMC3    C7 8338   0.375   4.608  10.325 -0.1734  0.4707 -0.3017
  558TMC3    C8 8339   0.055   4.558  10.680 -1.0517  0.4849  0.1774
  558TMC3    O1 8340   0.490   4.645  10.287 -0.4435  0.3336  0.2251
  558TMC3    O2 8341   4.699   4.587  10.604 -0.3449  0.2932  0.0585
  559MPD2     C 8342   0.223   0.316  10.621  0.9743  0.4229 -0.3687
  559MPD2    C1 8343   0.180   0.257  10.736 -0.4223  0.1389 -0.0266
  559MPD2    C2 8344   0.274   0.236  10.836 -0.1366  0.4112 -0.3607
  559MPD2    C3 8345   0.411   0.265  10.821  0.2050 -0.7274 -0.6730
  559MPD2    C4 8346   0.448   0.318  10.707 -0.0157 -0.7032  0.1939
  559MPD2    C5 8347   0.356   0.346  10.608 -0.8186  0.5118 -0.1911
  559MPD2     H 8348   0.254   0.174  10.923 -1.1878 -0.4588 -1.2129
  559MPD2    H1 8349   0.553   0.328  10.680 -0.6846  4.1143 -0.5540
  559MPD2    H2 8350   0.154   0.339  10.541 -0.7771  0.7652  1.2337
  559MPD2    H3 8351   0.396   0.368  10.509  1.5973  1.4358  0.9934
  559MPD2     N 8352   0.498   0.218  10.916  1.3539  0.2199 -0.2754
  559MPD2    H5 8353   0.456   0.198  11.007 -0.5632  2.3136 -0.6987
  559MPD2    N1 8354   0.048   0.208  10.730  0.0805 -0.5268  0.4690
  559MPD2    H7 8355   0.000   0.224  10.641 -0.8530  2.8340  1.5747
  560TMC3    C1 8356   0.685   0.134  11.030  0.9619  0.2813  0.2859
  560TMC3    C2 8357   0.595   0.055  11.101  0.5085 -0.1940  0.5206
  560TMC3    C3 8358   0.617   0.039  11.235 -0.1413  1.2470 -0.2351
  560TMC3    C4 8359   0.812   0.163  11.082  0.4552  0.1667 -0.3059
  560TMC3    C5 8360   0.830   0.132  11.214 -0.0944 -0.3510 -0.3668
  560TMC3    C6 8361   0.733   0.079  11.297 -0.1166 -0.7622 -0.2004
  560TMC3     C 8362   0.637   0.202  10.913 -0.2902 -0.0640  0.3050
  560TMC3     O 8363   0.716   0.254  10.832 -0.1758 -0.3554  0.1799
  560TMC3     H 8364   0.504   0.010  11.062  2.2549 -1.8486 -1.6790
  560TMC3    H1 8365   0.883   0.222  11.026  0.3696  1.4976  0.9924
  560TMC3    H2 8366   0.750   0.059  11.402  4.4629  1.1226 -0.5790
  560TMC3    C7 8367   0.965   0.167  11.267  0.2243 -0.2012 -0.0827
  560TMC3    C8 8368   0.505   4.714  11.309 -0.6484 -0.1349 -0.4961
  560TMC3    O1 8369   1.036   0.233  11.194  0.0222 -0.4075 -0.2329
  560TMC3    O2 8370   0.396   4.702  11.260  0.3712 -0.4338  0.0040
  561TMC3    C1 8371   2.785   3.597  11.436 -0.2975  0.1072 -0.3407
  561TMC3    C2 8372   2.677   3.554  11.503  0.6145  0.1803  0.0943
  561TMC3    C3 8373   2.672   3.595  11.634 -0.3399  0.0676 -0.0944
  561TMC3    C4 8374   2.886   3.671  11.493  0.2413 -0.0768 -0.1379
  561TMC3    C5 8375   2.877   3.710  11.623 -0.3139 -0.4427 -0.0270
  561TMC3    C6 8376   2.772   3.663  11.705 -0.2198 -0.0163  0.1340
  561TMC3     C 8377   2.784   3.558  11.301 -0.1826  0.0576 -0.5854
  561TMC3     O 8378   2.727   3.452  11.271 -0.5722  0.0005  0.2555
  561TMC3     H 8379   2.584   3.528  11.453  1.6338 -1.9720 -0.6876
  561TMC3    H1 8380   2.972   3.699  11.432 -0.9298  1.1853 -1.2191
  561TMC3    H2 8381   2.765   3.692  11.809 -0.1869  2.3100 -0.5047
  561TMC3    C7 8382   2.968   3.806  11.682  0.8283  0.3408 -0.8203
  561TMC3    C8 8383   2.549   3.555  11.714  0.2447 -0.4348  0.2382
  561TMC3    O1 8384   2.976   3.797  11.804  0.4830 -0.5030 -0.3126
  561TMC3    O2 8385   2.476   3.469  11.668  0.5906 -0.6599  0.2260
  562TMC3    C1 8386   3.930   0.856  16.462  0.0012 -0.0265  0.5483
  562TMC3    C2 8387   3.862   0.974  16.477 -0.1459 -0.6406 -0.1076
  562TMC3    C3 8388   3.842   1.050  16.367  0.3586 -0.6136  0.2167
  562TMC3    C4 8389   3.971   0.807  16.342  0.6749 -0.0890  0.3091
  562TMC3    C5 8390   3.929   0.874  16.230  0.1880  0.8027  0.6012
  562TMC3    C6 8391   3.870   1.001  16.238  0.1949  0.2721  0.5507
  562TMC3     C 8392   3.959   0.774  16.573 -0.3994 -0.2475 -0.5704
  562TMC3     O 8393   4.019   0.830  16.663  0.2679  0.0680  0.3967
  562TMC3     H 8394   3.831   1.002  16.577  0.0751 -1.6482  0.2324
  562TMC3    H1 8395   4.024   0.712  16.338 -0.6479 -0.8417  0.8182
  562TMC3    H2 8396   3.847   1.055  16.147 -0.2806 -0.3698  0.2847
  562TMC3    C7 8397   3.958   0.826  16.097 -0.2102  0.1970  0.7903
  562TMC3    C8 8398   3.750   1.159  16.386  0.3491 -0.0422 -0.2621
  562TMC3    O1 8399   3.942   0.911  16.011 -0.1475  0.0980 -0.9128
  562TMC3    O2 8400   3.708   1.176  16.502 -0.1749  0.9321 -0.4218
  563MPD2     C 8401   1.559   2.158  15.806 -0.4954 -0.8298  0.5433
  563MPD2    C1 8402   1.619   2.186  15.932 -1.0767 -0.1616 -0.0414
  563MPD2    C2 8403   1.721   2.111  15.977 -0.8845 -0.4459 -0.6258
  563MPD2    C3 8404   1.767   1.999  15.908 -0.1470  0.5393  0.0114
  563MPD2    C4 8405   1.718   1.973  15.784  0.0762 -0.0836  0.9784
  563MPD2    C5 8406   1.618   2.057  15.735 -0.0933 -0.0491  0.0639
  563MPD2     H 8407   1.752   2.142  16.076 -1.2043 -0.4621 -0.5200
  563MPD2    H1 8408   1.739   1.883  15.728 -0.9189 -1.6783  3.1885
  563MPD2    H2 8409   1.462   2.201  15.784  1.0995  1.6155 -1.7297
  563MPD2    H3 8410   1.563   2.037  15.643 -0.0295  1.0689 -0.2173
  563MPD2     N 8411   1.859   1.911  15.976  0.6815 -0.7791  0.0323
  563MPD2    H5 8412   1.886   1.942  16.069  0.0259 -0.9747  0.2824
  563MPD2    N1 8413   1.575   2.281  16.028  0.0807  0.1644  0.3658
  563MPD2    H7 8414   1.626   2.283  16.116  0.5404  1.2843  0.0817
  564TMC3    C1 8415   1.406   2.385  16.158  0.1382 -0.5882  0.6254
  564TMC3    C2 8416   1.271   2.368  16.173 -0.1729 -0.2577  0.0229
  564TMC3    C3 8417   1.222   2.289  16.276 -0.7744  0.8003 -0.5751
  564TMC3    C4 8418   1.490   2.338  16.254 -0.7016  0.2715 -0.2532
  564TMC3    C5 8419   1.434   2.261  16.360  0.0075  0.1369  0.2198
  564TMC3    C6 8420   1.300   2.243  16.373  0.4888 -0.2981  0.2699
  564TMC3     C 8421   1.450   2.350  16.025  0.3634  0.4447  0.3477
  564TMC3     O 8422   1.354   2.337  15.948  0.3426 -0.1191  0.3073
  564TMC3     H 8423   1.202   2.410  16.100  0.6244  0.1165 -0.5168
  564TMC3    H1 8424   1.598   2.350  16.250 -0.6266  0.2033  1.3277
  564TMC3    H2 8425   1.267   2.195  16.463  3.4766 -0.1296  1.4647
  564TMC3    C7 8426   1.490   2.129  16.377  0.4175 -0.0864 -0.4021
  564TMC3    C8 8427   1.145   2.180  16.229 -0.3257 -0.0393 -0.9354
  564TMC3    O1 8428   1.485   2.081  16.489 -0.0730  0.6513 -0.1761
  564TMC3    O2 8429   1.120   2.091  16.308 -0.3613  0.3373  0.1393
  565TMC3    C1 8430   1.773   2.968  10.305  0.5737 -0.2297 -1.0663
  565TMC3    C2 8431   1.782   2.839  10.358  0.6336  0.1845  0.0921
  565TMC3    C3 8432   1.690   2.747  10.314  0.2874 -0.6246  0.4711
  565TMC3    C4 8433   1.672   2.998  10.217  0.0084 -0.0886  0.2270
  565TMC3    C5 8434   1.574   2.909  10.189  0.1419 -0.8918 -0.0339
  565TMC3    C6 8435   1.587   2.781  10.234 -0.3287 -0.1511  0.5620
  565TMC3     C 8436   1.861   3.079  10.338 -0.2877 -0.5216 -0.2914
  565TMC3     O 8437   1.849   3.184  10.276 -0.5398  0.1012 -0.2149
  565TMC3     H 8438   1.871   2.819  10.417  1.2318 -0.8402 -1.1718
  565TMC3    H1 8439   1.659   3.100  10.183  0.9136 -0.7370 -2.0936
  565TMC3    H2 8440   1.516   2.706  10.200 -0.4165 -0.0005  0.4108
  565TMC3    C7 8441   1.475   2.945  10.085  0.1264 -0.3997 -0.1973
  565TMC3    C8 8442   1.689   2.611  10.383  0.5271  0.2241  1.2736
  565TMC3    O1 8443   1.515   3.005   9.986 -0.6151  0.4314 -0.2090
  565TMC3    O2 8444   1.766   2.597  10.476 -0.7845  0.4426 -0.2296
  566MPD2     C 8445   3.807   4.134  14.819  0.4757 -0.5884  0.2100
  566MPD2    C1 8446   3.869   4.227  14.744 -0.8004  0.6483  0.5176
  566MPD2    C2 8447   3.809   4.282  14.632 -0.1975  0.2182 -0.1389
  566MPD2    C3 8448   3.686   4.232  14.596  0.0175 -0.4288 -0.0955
  566MPD2    C4 8449   3.628   4.126  14.667  0.0260  0.2709  0.4929
  566MPD2    C5 8450   3.679   4.093  14.786  0.2125  0.6141 -0.2446
  566MPD2     H 8451   3.863   4.349  14.566 -1.1450  1.4341  0.3037
  566MPD2    H1 8452   3.538   4.077  14.631  0.1869  0.5521 -0.2848
  566MPD2    H2 8453   3.860   4.097  14.906  0.0790  0.2767  0.8220
  566MPD2    H3 8454   3.641   4.015  14.851 -0.3023  1.1034  0.0406
  566MPD2     N 8455   3.624   4.271  14.476  0.2860  0.0805 -0.2366
  566MPD2    H5 8456   3.537   4.219  14.466  0.7076 -0.7166  0.3099
  566MPD2    N1 8457   4.003   4.270  14.783 -0.1189  0.5309 -0.1123
  566MPD2    H7 8458   4.021   4.286  14.882 -0.0609 -2.4942  0.3563
  567TMC3    C1 8459   4.191   4.406  14.739 -0.0848 -0.1217 -0.2872
  567TMC3    C2 8460   4.279   4.431  14.637 -0.1209  0.4026  0.0499
  567TMC3    C3 8461   4.347   4.548  14.631  0.4649  0.1144  0.3146
  567TMC3    C4 8462   4.170   4.493  14.844  0.1339  0.9149  0.1464
  567TMC3    C5 8463   4.236   4.614  14.831  0.4617 -0.1702 -0.2062
  567TMC3    C6 8464   4.324   4.646  14.728 -0.1530  0.5673  0.2964
  567TMC3     C 8465   4.092   4.316  14.691 -0.2246 -0.2595 -0.2096
  567TMC3     O 8466   4.100   4.285  14.575  0.1122 -0.1531  0.2243
  567TMC3     H 8467   4.303   4.365  14.555  0.4243 -0.6669  1.0644
  567TMC3    H1 8468   4.103   4.473  14.927  0.6934 -0.4213  0.2663
  567TMC3    H2 8469   4.366   0.010  14.715 -0.1356  0.3587 -1.2687
  567TMC3    C7 8470   4.244   4.696  14.950 -0.5893 -0.7658  0.3361
  567TMC3    C8 8471   4.370   4.601  14.502  0.2803 -0.0866  0.2140
  567TMC3    O1 8472   4.349   0.019  14.981 -0.0226  0.4643 -0.1362
  567TMC3    O2 8473   4.317   4.549  14.404 -0.4525 -1.1029  0.0166
  568MPD2     C 8474   1.135   0.627  16.081  0.0437 -0.5700  0.1113
  568MPD2    C1 8475   1.161   0.682  16.205 -0.5124 -0.2657  0.3878
  568MPD2    C2 8476   1.149   0.813  16.229 -0.4542 -0.0933 -0.2001
  568MPD2    C3 8477   1.106   0.896  16.121  0.3011  0.4373 -0.6018
  568MPD2    C4 8478   1.076   0.843  15.999  0.3567  0.2862  0.7991
  568MPD2    C5 8479   1.110   0.714  15.978  0.0748 -0.2013  0.2123
  568MPD2     H 8480   1.185   0.863  16.318  0.2188 -1.9162  0.5559
  568MPD2    H1 8481   1.049   0.908  15.916 -1.4619 -0.6421  0.6715
  568MPD2    H2 8482   1.150   0.522  16.059 -0.9780 -0.8737  0.8495
  568MPD2    H3 8483   1.103   0.690  15.873  3.0022  3.9724 -0.9308
  568MPD2     N 8484   1.096   1.033  16.160 -0.1890 -0.2637 -0.1258
  568MPD2    H5 8485   1.125   1.064  16.252  0.7471  0.1257 -0.5537
  568MPD2    N1 8486   1.215   0.599  16.299  0.1327 -0.3606 -0.4789
  568MPD2    H7 8487   1.252   0.510  16.265  1.5400 -0.3505  1.0489
  569TMC3    C1 8488   1.126   1.261  16.120 -0.0476 -0.4687 -0.1709
  569TMC3    C2 8489   1.194   1.267  16.238  0.1000  0.2637 -0.1868
  569TMC3    C3 8490   1.277   1.369  16.259  0.1286  0.2547  0.3310
  569TMC3    C4 8491   1.127   1.366  16.030  0.5361 -0.1350 -0.1110
  569TMC3    C5 8492   1.208   1.474  16.066  0.6938  0.1338  0.3281
  569TMC3    C6 8493   1.289   1.482  16.181  0.0055 -0.2596  0.2510
  569TMC3     C 8494   1.063   1.135  16.076 -0.4860  0.4070 -0.7248
  569TMC3     O 8495   1.012   1.133  15.969  0.3514  0.2007  0.3597
  569TMC3     H 8496   1.182   1.191  16.313  2.2871 -1.2613 -1.3816
  569TMC3    H1 8497   1.068   1.362  15.940  2.9437 -0.0739 -1.7015
  569TMC3    H2 8498   1.369   1.553  16.194  0.2788 -1.0539  3.0610
  569TMC3    C7 8499   1.200   1.579  15.970  0.8681  0.4106 -0.5244
  569TMC3    C8 8500   1.402   1.320  16.322 -0.2758 -0.3743  0.6558
  569TMC3    O1 8501   1.156   1.555  15.861  0.5980 -0.4886 -0.3646
  569TMC3    O2 8502   1.445   1.222  16.264  0.1819 -0.7606 -0.1868
  570TMC3    C1 8503   0.621   4.179  16.541 -0.7760  0.8296 -0.1550
  570TMC3    C2 8504   0.706   4.222  16.441 -0.2878 -0.5656 -0.2235
  570TMC3    C3 8505   0.673   4.347  16.389 -0.5030  0.3184  0.2221
  570TMC3    C4 8506   0.517   4.249  16.593 -0.1966  0.1357  0.5276
  570TMC3    C5 8507   0.494   4.369  16.534 -0.1961 -0.3924  0.4785
  570TMC3    C6 8508   0.566   4.421  16.435 -0.2668  0.2114  0.5052
  570TMC3     C 8509   0.645   4.043  16.585  0.2800 -0.4444 -0.6840
  570TMC3     O 8510   0.710   3.969  16.510 -0.0812 -0.3477 -0.5535
  570TMC3     H 8511   0.778   4.158  16.391  2.5540  1.0653  1.7852
  570TMC3    H1 8512   0.450   4.211  16.669  0.6122 -0.1127  1.1191
  570TMC3    H2 8513   0.554   4.514  16.380  0.2603  0.6649  1.1382
  570TMC3    C7 8514   0.393   4.455  16.601 -0.1117 -0.0951 -0.5979
  570TMC3    C8 8515   0.770   4.407  16.294 -0.1588 -0.1638 -0.2152
  570TMC3    O1 8516   0.374   4.431  16.722  0.3991 -0.5878  0.0669
  570TMC3    O2 8517   0.736   4.517  16.259 -0.8392 -0.0944 -0.1916
  571MPD2     C 8518   3.491   1.382   0.205  0.0065  0.0585  0.7864
  571MPD2    C1 8519   3.418   1.429   0.306 -0.1181 -0.5397 -0.9301
  571MPD2    C2 8520   3.483   1.529   0.378  0.1345 -0.3974  0.6162
  571MPD2    C3 8521   3.607   1.582   0.342  0.2339 -0.9193  0.2985
  571MPD2    C4 8522   3.676   1.527   0.241 -0.1454 -0.2543  0.0083
  571MPD2    C5 8523   3.610   1.435   0.170  0.1364 -0.9693 -0.1623
  571MPD2     H 8524   3.433   1.583   0.458  1.2785  1.1541  0.2856
  571MPD2    H1 8525   3.768   1.566   0.199 -0.2205  0.9189  0.9473
  571MPD2    H2 8526   3.453   1.300   0.145 -0.4990  0.9011 -0.0374
  571MPD2    H3 8527   3.667   1.387   0.091  0.5699  0.5625 -0.7609
  571MPD2     N 8528   3.668   1.684   0.414  0.1188  0.2377  0.2664
  571MPD2    H5 8529   3.755   1.723   0.379  0.5397  1.0243  2.1812
  571MPD2    N1 8530   3.288   1.374   0.335  0.0793  0.3273 -0.8128
  571MPD2    H7 8531   3.256   1.316   0.259 -2.2298  1.0665 -0.4020
  572TMC3    C1 8532   3.715   1.845   0.576  0.5705  0.8969  0.1583
  572TMC3    C2 8533   3.731   1.828   0.713  0.0926 -0.6278  0.1778
  572TMC3    C3 8534   3.786   1.935   0.775  0.1898 -0.0184  0.1476
  572TMC3    C4 8535   3.742   1.957   0.506  0.6320  0.7149  0.1626
  572TMC3    C5 8536   3.787   2.064   0.574 -0.1569  0.2634  0.2545
  572TMC3    C6 8537   3.817   2.055   0.710  0.7314 -0.0030 -0.4214
  572TMC3     C 8538   3.625   1.744   0.531 -0.1581 -0.3758  0.4493
  572TMC3     O 8539   3.535   1.718   0.612  0.5914  0.3709 -0.5920
  572TMC3     H 8540   3.716   1.727   0.750  2.8086 -0.5650  1.5186
  572TMC3    H1 8541   3.710   1.968   0.403  1.3284 -3.1514 -0.4920
  572TMC3    H2 8542   3.841   2.135   0.780  3.2503 -2.5654  1.6058
  572TMC3    C7 8543   3.781   2.189   0.502  0.3339 -0.1320  0.9304
  572TMC3    C8 8544   3.802   1.928   0.922 -0.0240 -0.0200 -0.3322
  572TMC3    O1 8545   3.721   2.190   0.398  0.9677 -0.3784  0.0413
  572TMC3    O2 8546   3.835   2.024   0.980 -0.7736 -0.4220 -0.7910
  573MPD2     C 8547   3.979   1.514   0.859  0.0644 -0.3407 -0.3974
  573MPD2    C1 8548   4.044   1.628   0.907 -0.3944 -0.3608 -0.3517
  573MPD2    C2 8549   4.090   1.728   0.816 -0.0860 -0.2877 -0.1256
  573MPD2    C3 8550   4.073   1.711   0.684  0.4328  0.5835 -0.0424
  573MPD2    C4 8551   4.004   1.605   0.635  0.3093  0.0994 -1.0164
  573MPD2    C5 8552   3.959   1.509   0.725 -0.3342 -0.4785 -0.0482
  573MPD2     H 8553   4.131   1.823   0.848 -2.2296 -0.4629  3.2018
  573MPD2    H1 8554   3.975   1.588   0.532 -3.1554  1.4938 -0.2585
  573MPD2    H2 8555   3.936   1.435   0.918  1.3488 -0.4208  0.4376
  573MPD2    H3 8556   3.919   1.414   0.689 -0.8957  0.3777 -1.7208
  573MPD2     N 8557   4.107   1.816   0.589 -0.2464  0.2170 -0.1857
  573MPD2    H5 8558   4.101   1.787   0.492  1.8153 -1.5347  0.2040
  573MPD2    N1 8559   4.080   1.629   1.043  0.3333 -0.3762 -0.4234
  573MPD2    H7 8560   4.055   1.549   1.100  4.1494 -0.6018  0.9819
  574TMC3    C1 8561   4.197   2.019   0.506 -0.0668 -0.4405 -0.4888
  574TMC3    C2 8562   4.103   2.036   0.415  0.0964  0.5608 -0.5915
  574TMC3    C3 8563   4.109   2.139   0.328 -0.2368 -0.1818 -0.3362
  574TMC3    C4 8564   4.307   2.100   0.510 -0.1841  0.3574 -0.2778
  574TMC3    C5 8565   4.314   2.201   0.416 -0.1969  0.0309 -0.6764
  574TMC3    C6 8566   4.220   2.221   0.322 -0.4141 -0.1402 -0.4815
  574TMC3     C 8567   4.161   1.939   0.622 -0.3305  0.0962  0.2449
  574TMC3     O 8568   4.214   1.972   0.725 -0.0764 -0.1817 -0.4381
  574TMC3     H 8569   4.012   1.978   0.425 -0.2441  1.3690  0.8711
  574TMC3    H1 8570   4.379   2.092   0.591  0.1821  2.2850 -0.4227
  574TMC3    H2 8571   4.245   2.270   0.228  1.2368 -2.6322 -1.3486
  574TMC3    C7 8572   4.438   2.271   0.391 -0.2799  0.2729  0.0688
  574TMC3    C8 8573   4.006   2.149   0.228  0.8385  0.6170 -0.1637
  574TMC3    O1 8574   4.417   2.369   0.324  0.6087  0.5359  0.4277
  574TMC3    O2 8575   3.931   2.054   0.207  0.4121  0.7401 -0.4124
  575TMC3    C1 8576   1.795   2.345  11.161 -0.4921  0.4555 -0.1304
  575TMC3    C2 8577   1.695   2.282  11.229  0.2844 -0.4194 -0.2231
  575TMC3    C3 8578   1.611   2.210  11.150 -0.4033 -0.8734 -0.5097
  575TMC3    C4 8579   1.810   2.335  11.028 -0.2690  0.5071  0.0009
  575TMC3    C5 8580   1.723   2.254  10.956 -0.0923  0.2389  0.3490
  575TMC3    C6 8581   1.627   2.179  11.020  0.3180 -0.7028  0.1765
  575TMC3     C 8582   1.879   2.437  11.232  0.3052 -0.1740  0.0629
  575TMC3     O 8583   1.998   2.449  11.197  0.5694  0.0478  0.6146
  575TMC3     H 8584   1.664   2.301  11.331 -1.8988 -0.3268 -0.9013
  575TMC3    H1 8585   1.885   2.401  10.987  1.6107 -1.6230 -0.0211
  575TMC3    H2 8586   1.544   2.127  10.975  0.0223 -2.4256  2.7361
  575TMC3    C7 8587   1.693   2.300  10.826 -0.3576 -0.7132 -0.0664
  575TMC3    C8 8588   1.507   2.138  11.221  0.3514 -0.1732 -0.2850
  575TMC3    O1 8589   1.749   2.403  10.778  0.1447 -0.5605 -0.0869
  575TMC3    O2 8590   1.502   2.013  11.214  0.1026 -0.4364 -0.0112
  576MPD2     C 8591   1.914   3.916  13.004  0.5900  0.2975 -0.0029
  576MPD2    C1 8592   1.980   4.021  12.944  0.5930  0.0279  0.3710
  576MPD2    C2 8593   1.953   4.141  12.994  0.2797 -0.6296 -0.0754
  576MPD2    C3 8594   1.860   4.170  13.093 -0.6312 -0.3056 -0.3556
  576MPD2    C4 8595   1.792   4.067  13.144 -0.4363  0.1812  0.6878
  576MPD2    C5 8596   1.825   3.943  13.104 -0.0695  0.0969  0.0705
  576MPD2     H 8597   2.012   4.221  12.951  2.0414 -2.0169 -0.2448
  576MPD2    H1 8598   1.715   4.074  13.220 -0.2477  5.3334  0.4380
  576MPD2    H2 8599   1.937   3.814  12.977 -1.0419  0.4902 -2.0842
  576MPD2    H3 8600   1.760   3.863  13.138  1.9843 -2.2342 -1.5239
  576MPD2     N 8601   1.847   4.300  13.141 -0.5433 -0.6164 -0.3388
  576MPD2    H5 8602   1.929   4.357  13.121  0.2651 -1.6433  0.0484
  576MPD2    N1 8603   2.064   4.011  12.834 -0.6999  0.0498  0.9871
  576MPD2    H7 8604   2.097   4.095  12.788  0.6587  0.6295  3.0340
  577TMC3    C1 8605   2.167   3.923  12.645 -0.2407  0.1607 -0.2181
  577TMC3    C2 8606   2.196   3.815  12.567 -0.3329 -0.3447 -0.0999
  577TMC3    C3 8607   2.235   3.830  12.439  0.0662  0.3185  0.1085
  577TMC3    C4 8608   2.185   4.057  12.596  0.3209 -0.0490  0.2499
  577TMC3    C5 8609   2.212   4.066  12.465 -0.2988 -0.2110  0.1289
  577TMC3    C6 8610   2.241   3.958  12.383  0.7752  0.0123  0.8426
  577TMC3     C 8611   2.106   3.895  12.770  0.9635  0.0645  0.3464
  577TMC3     O 8612   2.095   3.776  12.801 -0.4060  0.1431  0.0133
  577TMC3     H 8613   2.190   3.714  12.606  1.2655  0.9035  3.3373
  577TMC3    H1 8614   2.157   4.146  12.652 -2.3002  0.4226 -1.8050
  577TMC3    H2 8615   2.275   3.972  12.281 -2.5587  2.1914  0.0345
  577TMC3    C7 8616   2.251   4.197  12.423 -0.5922 -0.3243 -0.0608
  577TMC3    C8 8617   2.238   3.713  12.354  0.5049 -0.0775  0.2670
  577TMC3    O1 8618   2.268   4.279  12.511  0.2829  0.6733  0.1112
  577TMC3    O2 8619   2.175   3.613  12.396 -0.1710 -0.5345 -0.0331
  578MPD2     C 8620   4.359   0.135   1.013  0.8142  0.3221  0.3275
  578MPD2    C1 8621   4.401   0.003   1.015 -0.2157  0.2039  0.0107
  578MPD2    C2 8622   4.526   4.708   1.063  0.1444 -1.1168  0.7461
  578MPD2    C3 8623   4.612   0.071   1.116  0.5862  0.3191  0.0915
  578MPD2    C4 8624   4.571   0.202   1.108 -0.1747  0.4423  0.2919
  578MPD2    C5 8625   4.441   0.231   1.067  0.2835  0.7048  0.0867
  578MPD2     H 8626   4.572   4.610   1.051  0.4977 -0.8410 -0.0960
  578MPD2    H1 8627   4.636   0.287   1.128  0.5314 -0.5556  2.2234
  578MPD2    H2 8628   4.264   0.165   0.969  0.5924  0.7481  1.0980
  578MPD2    H3 8629   4.415   0.336   1.072  0.9033  0.9769 -2.5572
  578MPD2     N 8630   0.005   0.034   1.167  0.8149  0.5132  0.2273
  578MPD2    H5 8631   0.029   4.670   1.161  0.5715  0.4760 -0.1155
  578MPD2    N1 8632   4.323   4.639   0.953 -0.6911 -0.3042  0.4499
  578MPD2    H7 8633   4.236   4.681   0.922  0.5866  1.3692 -0.8461
  579TMC3    C1 8634   0.210   0.066   1.283 -0.7064  0.3644  0.4053
  579TMC3    C2 8635   0.290   0.146   1.368  0.1935  0.1002  0.2679
  579TMC3    C3 8636   0.420   0.117   1.387  0.8682 -0.7771  0.2481
  579TMC3    C4 8637   0.258   4.686   1.228  0.1376 -0.0811  0.3891
  579TMC3    C5 8638   0.392   4.660   1.252 -0.1825  0.9379 -0.3323
  579TMC3    C6 8639   0.475   0.006   1.327  0.4904 -0.0738  0.3563
  579TMC3     C 8640   0.083   0.120   1.239  0.1921 -0.0671 -0.4482
  579TMC3     O 8641   0.063   0.229   1.291 -0.3318  0.5107  0.4435
  579TMC3     H 8642   0.241   0.238   1.396 -1.0135 -0.8004  1.1497
  579TMC3    H1 8643   0.206   4.633   1.150 -2.6759  1.7477  1.0136
  579TMC3    H2 8644   0.580   4.727   1.351  0.4559 -1.5546 -0.3152
  579TMC3    C7 8645   0.455   4.540   1.190 -0.2360 -0.2454 -0.5824
  579TMC3    C8 8646   0.503   0.228   1.436 -0.7789 -0.2820  0.5036
  579TMC3    O1 8647   0.573   4.529   1.204  0.1246 -0.0915  0.2588
  579TMC3    O2 8648   0.441   0.303   1.507 -0.3257 -0.3949 -0.2053
  580TMC3    C1 8649   4.696   3.652  12.776 -0.7231  0.6326 -0.4134
  580TMC3    C2 8650   0.092   3.672  12.789 -0.4098 -0.3250  0.1141
  580TMC3    C3 8651   0.180   3.571  12.782  0.7511 -0.8414 -0.0587
  580TMC3    C4 8652   4.654   3.525  12.762  0.4947  0.2277 -0.3531
  580TMC3    C5 8653   0.001   3.415  12.768  0.0675 -0.5081 -0.2073
  580TMC3    C6 8654   0.135   3.443  12.760 -0.1764  0.1240 -0.5513
  580TMC3     C 8655   4.647   3.756  12.688 -0.0903 -0.5720 -0.1645
  580TMC3     O 8656   0.007   3.810  12.634  0.0743  0.1232  0.1585
  580TMC3     H 8657   0.133   3.770  12.813  0.1483 -0.6612  0.5578
  580TMC3    H1 8658   4.548   3.507  12.767  0.4631  0.4593 -0.1777
  580TMC3    H2 8659   0.202   3.361  12.736  0.1757  0.0767  0.5675
  580TMC3    C7 8660   4.697   3.281  12.755  0.1211  0.5050  0.6856
  580TMC3    C8 8661   0.278   3.604  12.688  0.6692  0.4327  0.5603
  580TMC3    O1 8662   4.585   3.262  12.706 -0.5767 -0.4607 -0.2389
  580TMC3    O2 8663   0.280   3.536  12.588  0.2373 -0.2725  1.2763
  581MPD2     C 8664   2.187   3.233  14.795 -0.5609  1.0042  0.1593
  581MPD2    C1 8665   2.167   3.249  14.931 -0.2385  0.0848  0.7111
  581MPD2    C2 8666   2.043   3.289  14.970  0.3130 -0.3454  0.4654
  581MPD2    C3 8667   1.948   3.324  14.883  0.1964  0.3274  1.2919
  581MPD2    C4 8668   1.973   3.321  14.747  0.4413 -0.6061 -0.5051
  581MPD2    C5 8669   2.094   3.284  14.701 -0.1145  0.4595 -0.6514
  581MPD2     H 8670   2.015   3.295  15.075  0.9289 -1.5425  0.6998
  581MPD2    H1 8671   1.899   3.348  14.673 -0.4313  1.5303  1.1356
  581MPD2    H2 8672   2.283   3.194  14.761 -0.1643  3.3650 -1.4574
  581MPD2    H3 8673   2.117   3.291  14.595  0.5815 -1.9687 -0.6622
  581MPD2     N 8674   1.823   3.340  14.936 -0.1254  0.6302  0.0298
  581MPD2    H5 8675   1.819   3.336  15.038  1.6251  0.2518  0.0798
  581MPD2    N1 8676   2.273   3.209  15.022 -0.4235 -0.9252 -0.0346
  581MPD2    H7 8677   2.358   3.163  14.992  0.8335 -0.0508  2.2144
  582TMC3    C1 8678   2.322   3.085  15.213  0.3540  0.6450 -0.1462
  582TMC3    C2 8679   2.451   3.109  15.258  0.0744 -0.0483 -0.1054
  582TMC3    C3 8680   2.492   3.017  15.364 -0.0859 -0.0036  0.0059
  582TMC3    C4 8681   2.241   2.996  15.268  0.6579 -1.0379 -0.5262
  582TMC3    C5 8682   2.287   2.921  15.379  0.1643 -0.2523 -0.3049
  582TMC3    C6 8683   2.407   2.929  15.428  0.3606 -0.1978  0.1888
  582TMC3     C 8684   2.249   3.198  15.159 -0.2027  0.2898  0.1769
  582TMC3     O 8685   2.149   3.216  15.226 -0.2321 -0.3518 -0.4345
  582TMC3     H 8686   2.510   3.188  15.212  0.1773 -0.1100 -0.0790
  582TMC3    H1 8687   2.144   2.973  15.224  0.1478 -0.2823  0.2117
  582TMC3    H2 8688   2.426   2.873  15.519  1.6351  0.5579  0.3858
  582TMC3    C7 8689   2.194   2.946  15.485  0.0709  0.3193  0.4815
  582TMC3    C8 8690   2.588   3.078  15.454  0.0429 -0.3865 -0.1361
  582TMC3    O1 8691   2.191   2.865  15.577 -0.0812  0.3665  0.0292
  582TMC3    O2 8692   2.575   3.197  15.475  0.1806  0.0339 -0.7776
  583MPD2     C 8693   2.552   0.263  16.893 -0.0972  0.0283 -0.1818
  583MPD2    C1 8694   2.509   0.373  16.816  1.1417 -0.3397  0.2124
  583MPD2    C2 8695   2.414   0.466  16.866 -0.2730 -0.0371  0.3535
  583MPD2    C3 8696   2.383   0.454  17.003  0.7275  0.0587  0.6113
  583MPD2    C4 8697   2.432   0.348  17.073  0.7348 -0.1119 -0.7099
  583MPD2    C5 8698   2.511   0.254  17.022  0.2616  0.3636  0.4823
  583MPD2     H 8699   2.391   0.551  16.803 -0.4116  0.7476  1.4662
  583MPD2    H1 8700   2.428   0.332  17.180  4.2025 -1.3984 -0.8073
  583MPD2    H2 8701   2.631   0.196  16.860 -0.6212  1.2786 -3.8979
  583MPD2    H3 8702   2.554   0.183  17.091  3.5737  2.5733  0.7109
  583MPD2     N 8703   2.282   0.543  17.048 -0.1155  0.1614  0.4495
  583MPD2    H5 8704   2.251   0.618  16.987 -1.9020 -1.0529 -0.1490
  583MPD2    N1 8705   2.542   0.387  16.679  0.0167  0.5364  0.0033
  583MPD2    H7 8706   2.502   0.469  16.633  0.3718  0.5423 -0.2968
  584TMC3    C1 8707   2.128   0.639  17.217 -0.4166 -0.6868  0.3789
  584TMC3    C2 8708   2.142   0.766  17.166 -0.1527 -0.7041  0.3234
  584TMC3    C3 8709   2.074   0.865  17.228  0.4267  0.0418 -0.0316
  584TMC3    C4 8710   2.051   0.613  17.328  0.5033  0.0095 -0.5424
  584TMC3    C5 8711   1.991   0.727  17.392 -0.1453  0.1591  0.3245
  584TMC3    C6 8712   2.000   0.856  17.346 -0.4490 -0.3857 -0.0483
  584TMC3     C 8713   2.220   0.530  17.174 -0.1143 -0.7660 -0.0021
  584TMC3     O 8714   2.240   0.449  17.265  0.7285 -0.1635 -0.2155
  584TMC3     H 8715   2.212   0.792  17.088  0.6544 -0.7294  1.0334
  584TMC3    H1 8716   2.039   0.514  17.370 -1.0498  1.4599  2.4417
  584TMC3    H2 8717   1.930   0.935  17.372 -1.2986 -1.3340  0.5194
  584TMC3    C7 8718   1.897   0.697  17.497  0.1091  0.2262  0.0345
  584TMC3    C8 8719   2.099   0.997  17.181  0.2396  0.8257  0.1421
  584TMC3    O1 8720   1.927   0.603  17.565  0.5992 -0.1482 -0.7144
  584TMC3    O2 8721   2.095   1.010  17.060 -0.3567  0.7347  0.1662
  585MPD2     C 8722   1.696   4.425   0.544 -0.4630 -1.0803 -0.1213
  585MPD2    C1 8723   1.714   4.421   0.410 -0.0849  1.2226 -0.4547
  585MPD2    C2 8724   1.721   4.301   0.339  0.0249 -0.6443 -0.5831
  585MPD2    C3 8725   1.712   4.186   0.411 -0.7108  0.8650 -0.3167
  585MPD2    C4 8726   1.689   4.185   0.544 -0.1689 -0.4396 -0.4479
  585MPD2    C5 8727   1.689   4.303   0.608 -0.3663 -0.0916  0.0011
  585MPD2     H 8728   1.722   4.300   0.230  0.0751 -1.5493 -0.5712
  585MPD2    H1 8729   1.673   4.090   0.593 -0.5996  0.0487  0.3439
  585MPD2    H2 8730   1.688   4.517   0.600 -0.6961 -0.4112 -1.2632
  585MPD2    H3 8731   1.676   4.295   0.716 -2.0158  0.1260 -0.1793
  585MPD2     N 8732   1.706   4.057   0.352 -0.4067 -0.3150 -0.7081
  585MPD2    H5 8733   1.672   3.982   0.410 -2.6227  1.1566 -0.1147
  585MPD2    N1 8734   1.723   4.543   0.339  0.0354  0.4102  0.0932
  585MPD2    H7 8735   1.708   4.629   0.390  2.2914  0.3572  0.8313
  586TMC3    C1 8736   1.760   3.884   0.208  0.0320 -0.4491 -1.0702
  586TMC3    C2 8737   1.855   3.834   0.123  0.1157 -0.7396 -0.0764
  586TMC3    C3 8738   1.832   3.712   0.073  0.0653 -0.0270  0.1686
  586TMC3    C4 8739   1.652   3.810   0.252  0.1443  0.0344 -0.4371
  586TMC3    C5 8740   1.636   3.688   0.210  0.6009 -0.3166 -1.0908
  586TMC3    C6 8741   1.730   3.636   0.127  0.6137 -0.6758  0.6415
  586TMC3     C 8742   1.762   4.028   0.228  0.6662  1.1496  1.1452
  586TMC3     O 8743   1.827   4.100   0.153 -0.8024 -0.2736 -0.0321
  586TMC3     H 8744   1.949   3.886   0.112 -0.8894  1.0788 -0.1363
  586TMC3    H1 8745   1.576   3.858   0.313 -1.0515  0.3950 -2.2069
  586TMC3    H2 8746   1.718   3.538   0.083 -2.0701  0.7115 -1.6498
  586TMC3    C7 8747   1.508   3.633   0.188 -0.0403  0.5086 -0.0278
  586TMC3    C8 8748   1.935   3.639  17.733 -0.8993 -0.0320  0.2072
  586TMC3    O1 8749   1.506   3.511   0.197 -0.1618  0.8679  0.0576
  586TMC3    O2 8750   1.946   3.523   0.032  0.0876  0.5754  0.0672
  587TMC3    C1 8751   3.853   2.942  16.302  0.5252 -0.7083 -0.7622
  587TMC3    C2 8752   3.906   3.048  16.365 -0.2217 -0.2623  0.1041
  587TMC3    C3 8753   4.042   3.059  16.386  0.5270  0.5072 -0.2413
  587TMC3    C4 8754   3.928   2.838  16.243 -0.1854  0.0236  0.0094
  587TMC3    C5 8755   4.070   2.863  16.251 -0.2626 -0.8949 -0.5316
  587TMC3    C6 8756   4.126   2.964  16.322 -0.2230 -0.3294  0.1928
  587TMC3     C 8757   3.726   2.967  16.238  0.9878  0.0194  0.6963
  587TMC3     O 8758   3.704   3.084  16.207  0.3213 -0.0330  0.2534
  587TMC3     H 8759   3.845   3.132  16.396 -1.3254 -1.0872  0.1528
  587TMC3    H1 8760   3.888   2.753  16.190 -3.1839  2.1606 -1.1451
  587TMC3    H2 8761   4.229   2.972  16.353 -0.0128  2.2502 -1.1194
  587TMC3    C7 8762   4.156   2.752  16.196 -0.1015 -0.5771 -0.1151
  587TMC3    C8 8763   4.102   3.196  16.392 -0.4608  0.2755 -0.3696
  587TMC3    O1 8764   4.108   2.641  16.201 -0.2848 -0.0566  0.3554
  587TMC3    O2 8765   4.212   3.224  16.336  0.5178  1.0123  0.3110
  588TMC3    C1 8766   1.511   0.791   9.964 -0.1254  0.0816  0.1669
  588TMC3    C2 8767   1.500   0.650   9.955  0.1681  0.1643  0.8536
  588TMC3    C3 8768   1.617   0.581   9.972  1.0370  0.0469  0.0112
  588TMC3    C4 8769   1.631   0.856   9.979 -0.4487 -0.1039  0.3190
  588TMC3    C5 8770   1.741   0.777  10.013  0.2355  0.4124  0.4504
  588TMC3    C6 8771   1.740   0.643   9.999  0.0648 -0.4327 -0.6654
  588TMC3     C 8772   1.388   0.866   9.966  0.2584 -0.0218  0.2688
  588TMC3     O 8773   1.289   0.796   9.979  0.5201 -0.0696  0.4522
  588TMC3     H 8774   1.404   0.605   9.933  0.1195  0.1333  1.1316
  588TMC3    H1 8775   1.631   0.963   9.999  0.2113 -0.4445  2.1494
  588TMC3    H2 8776   1.838   0.597   9.997  1.4565  2.5124  0.0587
  588TMC3    C7 8777   1.860   0.854  10.053  0.0810  0.8495  0.5587
  588TMC3    C8 8778   1.601   0.438   9.983  0.3600  0.0665  0.6823
  588TMC3    O1 8779   1.941   0.796  10.128  0.2988 -0.1298 -0.1358
  588TMC3    O2 8780   1.494   0.386   9.950  0.0989 -0.1519  0.0606
  589TMC3    C1 8781   0.500   2.221   1.380  0.4664  0.0954  0.5231
  589TMC3    C2 8782   0.594   2.312   1.360  0.4530 -0.1289 -0.2256
  589TMC3    C3 8783   0.713   2.272   1.308  0.3281 -0.0773 -0.2513
  589TMC3    C4 8784   0.509   2.091   1.344  0.5345  0.9368  0.1183
  589TMC3    C5 8785   0.627   2.054   1.285 -0.8028  0.8047  0.0124
  589TMC3    C6 8786   0.732   2.138   1.277  0.2119 -0.2768 -1.0289
  589TMC3     C 8787   0.362   2.269   1.382 -0.3883  0.4208  0.3215
  589TMC3     O 8788   0.271   2.189   1.371 -0.2612 -0.0498 -0.1234
  589TMC3     H 8789   0.593   2.396   1.428 -1.3437 -0.7097  0.4841
  589TMC3    H1 8790   0.431   2.018   1.358 -0.7194  2.0750 -0.9729
  589TMC3    H2 8791   0.829   2.112   1.236  2.1321  3.3214  1.2818
  589TMC3    C7 8792   0.648   1.921   1.224  0.0356 -0.2226  0.3963
  589TMC3    C8 8793   0.835   2.317   1.384 -0.0249  0.7936 -0.2778
  589TMC3    O1 8794   0.543   1.855   1.221 -0.5895  0.2723  0.2638
  589TMC3    O2 8795   0.827   2.378   1.494  0.4518 -0.5081 -0.1062
  590MPD2     C 8796   0.281   1.922  17.145  0.6633 -0.4943 -0.2303
  590MPD2    C1 8797   0.271   1.860  17.023 -0.1972  0.8486 -0.3782
  590MPD2    C2 8798   0.363   1.886  16.924  0.3074  0.1740  0.3526
  590MPD2    C3 8799   0.462   1.986  16.935 -0.2202 -0.3607  0.0233
  590MPD2    C4 8800   0.474   2.045  17.056 -0.1295 -0.5853  0.1833
  590MPD2    C5 8801   0.383   2.015  17.161 -0.1286 -0.4954 -0.4679
  590MPD2     H 8802   0.349   1.848  16.823  0.2019  2.9484 -0.6877
  590MPD2    H1 8803   0.546   2.122  17.082 -2.3204  1.4292  0.3151
  590MPD2    H2 8804   0.212   1.902  17.226  0.7089 -1.1757 -0.3628
  590MPD2    H3 8805   0.393   2.055  17.261 -2.5399  0.9905 -0.8157
  590MPD2     N 8806   0.547   2.017  16.828 -0.1444 -0.7562  0.4517
  590MPD2    H5 8807   0.549   1.950  16.751  3.6103 -0.2733  0.1244
  590MPD2    N1 8808   0.172   1.763  17.010 -0.0030 -0.0154  0.5747
  590MPD2    H7 8809   0.120   1.739  17.094  1.6796 -2.3440  0.9480
  591TMC3    C1 8810   0.745   2.083  16.709  0.2243 -0.2389 -0.1370
  591TMC3    C2 8811   0.739   1.959  16.657 -0.7476 -0.6106  0.5220
  591TMC3    C3 8812   0.780   1.932  16.528  0.0491  0.3359 -0.0345
  591TMC3    C4 8813   0.777   2.185  16.631  0.2426 -0.7112 -0.2918
  591TMC3    C5 8814   0.828   2.157  16.503  0.2125  0.3949  0.0385
  591TMC3    C6 8815   0.832   2.031  16.448  0.4735 -0.6283 -0.5670
  591TMC3     C 8816   0.654   2.105  16.828 -0.1070  0.1357  0.0003
  591TMC3     O 8817   0.683   2.203  16.897  0.0549  0.5597 -0.4493
  591TMC3     H 8818   0.715   1.871  16.715  1.3555 -2.4490 -1.3870
  591TMC3    H1 8819   0.802   2.280  16.676 -0.2916 -1.2300  1.1185
  591TMC3    H2 8820   0.865   2.023  16.345  0.4504  2.3421 -0.8070
  591TMC3    C7 8821   0.879   2.268  16.422 -0.4868 -0.3398 -0.1632
  591TMC3    C8 8822   0.734   1.805  16.472 -0.1585 -0.0261 -0.2631
  591TMC3    O1 8823   0.964   2.353  16.462  0.3224  0.1548  0.3483
  591TMC3    O2 8824   0.751   1.712  16.544 -0.5337 -0.3090  0.0051
  592MPD2     C 8825   0.555   3.636  11.610  0.1799 -0.7756 -0.6536
  592MPD2    C1 8826   0.573   3.617  11.748  0.2840  0.2645 -0.5397
  592MPD2    C2 8827   0.496   3.522  11.815  0.0053  1.3825  0.4582
  592MPD2    C3 8828   0.413   3.432  11.751 -0.2795  0.1936 -0.3536
  592MPD2    C4 8829   0.394   3.457  11.617  0.3467  0.3140 -0.0193
  592MPD2    C5 8830   0.470   3.550  11.545 -0.9333  0.3006  0.3534
  592MPD2     H 8831   0.505   3.507  11.922  0.0747  0.9334  0.3878
  592MPD2    H1 8832   0.335   3.392  11.553 -1.2792  0.3357  1.4623
  592MPD2    H2 8833   0.619   3.708  11.561 -1.6518  0.7694 -0.7395
  592MPD2    H3 8834   0.466   3.548  11.437 -1.3032 -3.6825  0.4405
  592MPD2     N 8835   0.337   3.333  11.824  0.1892  0.6234  0.0232
  592MPD2    H5 8836   0.339   3.325  11.925  0.0138  2.1487  0.1584
  592MPD2    N1 8837   0.672   3.694  11.817  0.2175 -0.1827  0.5403
  592MPD2    H7 8838   0.738   3.746  11.760  0.5691  1.3906  2.3917
  593TMC3    C1 8839   0.789   3.818  11.982  0.3445  0.1021 -0.3578
  593TMC3    C2 8840   0.772   3.904  12.091  0.2672  0.0309 -0.8128
  593TMC3    C3 8841   0.869   4.004  12.098  0.2579  0.3180 -0.3260
  593TMC3    C4 8842   0.883   3.838  11.885 -1.0392 -0.6079  0.8332
  593TMC3    C5 8843   0.963   3.951  11.886 -0.5850  0.2655 -0.1177
  593TMC3    C6 8844   0.960   4.033  11.992  0.0842 -0.1139 -0.4503
  593TMC3     C 8845   0.689   3.717  11.954  0.4396  0.6083 -0.4293
  593TMC3     O 8846   0.605   3.694  12.040  0.5239  0.0832  0.5662
  593TMC3     H 8847   0.722   3.861  12.177  0.9170  0.2447 -0.3256
  593TMC3    H1 8848   0.899   3.768  11.804  2.3344  0.0619  0.9098
  593TMC3    H2 8849   1.030   4.115  11.998 -0.3133  0.0683  1.6873
  593TMC3    C7 8850   1.098   3.942  11.835  0.2849  0.0772  0.0783
  593TMC3    C8 8851   0.917   4.033  12.228 -0.3045  0.5052 -0.7054
  593TMC3    O1 8852   1.180   3.974  11.921 -0.2727 -0.2229 -0.0682
  593TMC3    O2 8853   0.837   4.056  12.315 -0.2436  0.0743 -0.5018
  594MPD2     C 8854   4.144   1.398  14.400  0.0100  0.6517 -0.4226
  594MPD2    C1 8855   4.035   1.478  14.427 -0.3498 -0.2254 -0.2568
  594MPD2    C2 8856   4.042   1.614  14.413 -0.4013 -0.8125 -0.3922
  594MPD2    C3 8857   4.165   1.679  14.400 -0.0126 -0.2791  0.2799
  594MPD2    C4 8858   4.276   1.598  14.392 -0.0705  0.3613 -0.5509
  594MPD2    C5 8859   4.261   1.463  14.383  0.0806 -0.5250  0.6295
  594MPD2     H 8860   3.956   1.671  14.447 -0.7634 -2.2581  1.1823
  594MPD2    H1 8861   4.374   1.641  14.374 -0.1632  0.7545 -0.1240
  594MPD2    H2 8862   4.154   1.292  14.418  0.5936  0.7925  0.1261
  594MPD2    H3 8863   4.358   1.414  14.383  0.5181  0.3172 -0.8762
  594MPD2     N 8864   4.173   1.817  14.398 -0.2387 -0.6989  0.1127
  594MPD2    H5 8865   4.088   1.871  14.409  0.8949  0.8619  1.1380
  594MPD2    N1 8866   3.908   1.424  14.463 -0.1021  1.0698 -0.5332
  594MPD2    H7 8867   3.830   1.488  14.457  0.7556  2.1320 -0.2213
  595TMC3    C1 8868   4.402   2.208  14.356  0.2259  0.1076  0.1274
  595TMC3    C2 8869   4.346   2.107  14.294  0.1168  0.7443 -0.9046
  595TMC3    C3 8870   4.255   2.036  14.365 -0.0561 -0.3917 -0.0291
  595TMC3    C4 8871   4.372   2.249  14.482  0.3679 -0.4330  0.3905
  595TMC3    C5 8872   4.283   2.173  14.553 -0.0370 -0.0381  0.2574
  595TMC3    C6 8873   4.213   2.072  14.490  0.2348 -0.2057 -0.3651
  595TMC3     C 8874   4.528   2.264  14.309 -0.0253 -0.8217 -0.6166
  595TMC3     O 8875   4.597   2.315  14.397  0.5931  0.0102 -0.4342
  595TMC3     H 8876   4.379   2.064  14.199  1.4747 -2.2972  0.9222
  595TMC3    H1 8877   4.414   2.341  14.520 -0.2159  0.1815 -0.4643
  595TMC3    H2 8878   4.151   2.015  14.558  0.6941 -0.5266 -0.2152
  595TMC3    C7 8879   4.235   2.217  14.689 -0.5122 -0.0138 -0.4497
  595TMC3    C8 8880   4.274   1.894  14.348 -0.1669 -0.1515 -0.1527
  595TMC3    O1 8881   4.116   2.205  14.707 -0.9689 -0.3889 -0.2792
  595TMC3    O2 8882   4.382   1.860  14.311  0.3136 -0.4334 -0.0408
  596MPD2     C 8883   3.418   0.317  16.933  0.3618 -0.7774  0.6390
  596MPD2    C1 8884   3.393   0.422  16.857 -0.8838  0.8926 -0.5705
  596MPD2    C2 8885   3.417   0.410  16.722  0.0527  1.1757  0.2217
  596MPD2    C3 8886   3.475   0.295  16.665  0.7864 -0.0668  0.8260
  596MPD2    C4 8887   3.507   0.190  16.751  0.0831  0.3481  1.0046
  596MPD2    C5 8888   3.477   0.203  16.884  0.8290  0.1491 -0.7446
  596MPD2     H 8889   3.383   0.497  16.667  1.2774  1.7557  0.3899
  596MPD2    H1 8890   3.536   0.094  16.709 -0.1974  0.2314  1.0788
  596MPD2    H2 8891   3.389   0.314  17.038 -0.7206 -1.5388  0.3202
  596MPD2    H3 8892   3.486   0.121  16.955  0.2083 -1.3775 -2.4313
  596MPD2     N 8893   3.506   0.287  16.523 -0.3079  0.5516 -0.5178
  596MPD2    H5 8894   3.543   0.197  16.492  0.2899  0.3619  0.7255
  596MPD2    N1 8895   3.339   0.547  16.901  0.0007 -0.1419  0.4108
  596MPD2    H7 8896   3.332   0.620  16.831  1.7230 -2.0245 -1.6976
  597TMC3    C1 8897   3.206   0.685  17.036  0.1479 -0.3290 -0.3579
  597TMC3    C2 8898   3.283   0.794  17.002  0.0281 -0.9318  0.7058
  597TMC3    C3 8899   3.240   0.919  17.041  0.2817  0.1020  0.2514
  597TMC3    C4 8900   3.090   0.694  17.114 -0.0845  0.0150  0.2604
  597TMC3    C5 8901   3.051   0.822  17.140 -0.4652 -0.3705 -0.5401
  597TMC3    C6 8902   3.120   0.939  17.110  0.6261  0.3454 -0.0107
  597TMC3     C 8903   3.251   0.550  17.005  0.0516 -0.2355 -0.5363
  597TMC3     O 8904   3.212   0.463  17.078  0.2159  0.2348 -0.2184
  597TMC3     H 8905   3.380   0.784  16.953 -0.4579 -1.3164 -0.1752
  597TMC3    H1 8906   3.039   0.603  17.143 -0.9758 -0.0384 -1.5249
  597TMC3    H2 8907   3.091   1.035  17.150 -0.7815  0.3433 -1.0284
  597TMC3    C7 8908   2.912   0.823  17.187 -0.5208  0.1042  0.1197
  597TMC3    C8 8909   3.330   1.036  17.023  0.6788 -0.1654 -0.6238
  597TMC3    O1 8910   2.873   0.715  17.233  0.1178 -0.2276  0.3819
  597TMC3    O2 8911   3.448   1.021  16.995  0.0619 -0.5641  0.2099
  598TMC3    C1 8912   1.257   1.715  15.492 -0.0486 -0.3680  0.4288
  598TMC3    C2 8913   1.138   1.645  15.504  0.1036  0.2091 -0.6441
  598TMC3    C3 8914   1.059   1.648  15.391 -0.4093 -0.3196  0.2310
  598TMC3    C4 8915   1.290   1.795  15.382 -0.3534  0.3444  0.3255
  598TMC3    C5 8916   1.204   1.799  15.273 -0.9807 -0.2010 -0.0025
  598TMC3    C6 8917   1.088   1.721  15.279  1.0613  0.4225  0.1447
  598TMC3     C 8918   1.368   1.662  15.568  0.7769  0.4137  0.5391
  598TMC3     O 8919   1.463   1.735  15.597  0.5295  0.4072  0.7647
  598TMC3     H 8920   1.120   1.576  15.586  0.7385 -0.3051 -0.9395
  598TMC3    H1 8921   1.384   1.849  15.377  0.0290 -0.3317  0.2698
  598TMC3    H2 8922   1.025   1.724  15.191  0.1701 -0.7804  0.7489
  598TMC3    C7 8923   1.240   1.842  15.142 -0.5552  0.0244 -0.3119
  598TMC3    C8 8924   0.947   1.563  15.390  0.2658  0.4175 -1.1995
  598TMC3    O1 8925   1.202   1.776  15.052 -0.0194 -1.1118  0.1253
  598TMC3    O2 8926   0.885   1.552  15.498  0.7447  0.3127  0.1346
  599MPD2     C 8927   1.819   4.134  16.270  0.1744  0.7597  0.1860
  599MPD2    C1 8928   1.779   4.003  16.277  0.1673  1.1619  0.3057
  599MPD2    C2 8929   1.646   3.972  16.316 -0.1319  0.4170 -0.5699
  599MPD2    C3 8930   1.556   4.071  16.347  0.7208 -0.8485  0.0494
  599MPD2    C4 8931   1.598   4.203  16.321 -0.7578  0.2944  0.5795
  599MPD2    C5 8932   1.727   4.236  16.288 -0.9075 -0.4476 -0.5937
  599MPD2     H 8933   1.628   3.869  16.341 -2.1272  0.7411 -0.7172
  599MPD2    H1 8934   1.534   4.290  16.336  1.1678  1.9654 -0.8661
  599MPD2    H2 8935   1.920   4.165  16.247 -0.3782  3.2003  1.0521
  599MPD2    H3 8936   1.755   4.339  16.269  0.9255 -0.8996 -0.3287
  599MPD2     N 8937   1.427   4.047  16.405 -0.0350 -0.3637 -0.6855
  599MPD2    H5 8938   1.378   4.125  16.447  1.6105 -0.1078  0.7639
  599MPD2    N1 8939   1.879   3.907  16.243  0.1303  0.5798  0.4393
  599MPD2    H7 8940   1.977   3.928  16.228  0.4280 -0.7787  0.4419
  600TMC3    C1 8941   1.250   3.914  16.496 -0.2289  1.0295 -0.4161
  600TMC3    C2 8942   1.192   3.793  16.516  0.4074  0.0549  1.0403
  600TMC3    C3 8943   1.070   3.791  16.582  0.3542 -0.4480  0.5177
  600TMC3    C4 8944   1.185   4.030  16.537 -0.3565 -0.0274 -0.0069
  600TMC3    C5 8945   1.057   4.027  16.588 -0.3647  0.2519 -0.2297
  600TMC3    C6 8946   1.001   3.902  16.615  0.3728 -0.0763  0.9614
  600TMC3     C 8947   1.371   3.918  16.421  0.3289  0.4613 -0.6009
  600TMC3     O 8948   1.405   3.806  16.379  0.3229 -0.1286  0.3611
  600TMC3     H 8949   1.238   3.700  16.487  0.4460 -0.0446  1.4119
  600TMC3    H1 8950   1.236   4.126  16.540  0.6977 -0.6836  3.8530
  600TMC3    H2 8951   0.903   3.888  16.660 -0.2027 -1.1206 -0.6110
  600TMC3    C7 8952   1.003   4.141  16.647 -0.0917 -1.1743  0.8460
  600TMC3    C8 8953   1.019   3.659  16.618  0.0359  0.0795 -0.0160
  600TMC3    O1 8954   0.913   4.128  16.729  0.0569 -0.1289 -0.1479
  600TMC3    O2 8955   1.096   3.593  16.687  0.2180  0.5741  0.7240
  601MPD2     C 8956   3.835   2.709   0.486  0.1182 -0.5314  0.3323
  601MPD2    C1 8957   3.735   2.627   0.440  0.1215 -1.3219  0.3830
  601MPD2    C2 8958   3.754   2.489   0.453 -0.1742 -0.0770 -0.0681
  601MPD2    C3 8959   3.851   2.432   0.527 -0.2593  0.6636  0.7097
  601MPD2    C4 8960   3.932   2.518   0.591  0.0459  0.1795 -0.0179
  601MPD2    C5 8961   3.929   2.654   0.563  1.0290  0.0908 -0.0488
  601MPD2     H 8962   3.677   2.426   0.411 -2.6802  2.7019  0.3315
  601MPD2    H1 8963   4.014   2.491   0.657 -0.7924 -2.4579 -0.0401
  601MPD2    H2 8964   3.839   2.816   0.469  0.5139 -0.5276  0.4624
  601MPD2    H3 8965   4.003   2.720   0.606  0.4303  2.0456 -2.0407
  601MPD2     N 8966   3.857   2.296   0.562  0.5584  0.1829 -0.2149
  601MPD2    H5 8967   3.916   2.273   0.641 -0.4494 -0.3898  0.3696
  601MPD2    N1 8968   3.625   2.673   0.363 -0.2898  0.0049 -0.0304
  601MPD2    H7 8969   3.564   2.607   0.317 -0.2269  0.0909 -0.2371
  602TMC3    C1 8970   3.478   2.825   0.251  0.3731  0.0507 -0.3914
  602TMC3    C2 8971   3.432   2.956   0.246  0.2157 -1.0559 -0.6150
  602TMC3    C3 8972   3.347   2.983   0.142 -0.1039  0.5811  0.1045
  602TMC3    C4 8973   3.445   2.724   0.154  0.5436 -0.1265  0.3088
  602TMC3    C5 8974   3.360   2.764   0.054  0.0465  0.0946  0.2810
  602TMC3    C6 8975   3.312   2.896   0.044 -0.9497  0.6157 -0.2536
  602TMC3     C 8976   3.581   2.804   0.350  0.5863  0.2802 -0.0107
  602TMC3     O 8977   3.617   2.903   0.407  0.1631 -0.2704 -0.5522
  602TMC3     H 8978   3.472   3.031   0.314  1.8973 -2.0500 -0.4849
  602TMC3    H1 8979   3.474   2.619   0.148 -0.5353 -0.4853  1.4152
  602TMC3    H2 8980   3.253   2.925  17.693 -2.3915  4.0790  1.9107
  602TMC3    C7 8981   3.335   2.689  17.668  0.0688 -0.7924 -0.0348
  602TMC3    C8 8982   3.306   3.125   0.134 -0.6720  0.1780 -0.6520
  602TMC3    O1 8983   3.422   2.609  17.638  0.6322 -0.3911  0.6820
  602TMC3    O2 8984   3.384   3.213   0.170 -0.3495  0.2180  0.0087
  603TMC3    C1 8985   1.197   3.096  10.987 -0.0706 -0.1361 -0.1253
  603TMC3    C2 8986   1.228   3.056  11.115  0.0268 -0.5762 -0.7475
  603TMC3    C3 8987   1.329   3.135  11.173 -0.3097  0.6444 -0.1153
  603TMC3    C4 8988   1.261   3.193  10.916  0.0096 -0.0500  0.3782
  603TMC3    C5 8989   1.367   3.260  10.971  0.2191 -0.1707 -0.3567
  603TMC3    C6 8990   1.406   3.218  11.096  0.0793 -0.4430 -0.0678
  603TMC3     C 8991   1.105   3.009  10.918  0.4014 -0.2691  0.2723
  603TMC3     O 8992   1.089   2.899  10.969  0.3678 -0.0136  0.2657
  603TMC3     H 8993   1.174   2.989  11.181  1.3336 -0.8707  0.0373
  603TMC3    H1 8994   1.248   3.202  10.808 -0.1047  2.4438  0.6046
  603TMC3    H2 8995   1.483   3.274  11.148 -0.0342 -2.2253  2.0380
  603TMC3    C7 8996   1.437   3.372  10.911  0.4110  0.1199  0.6443
  603TMC3    C8 8997   1.359   3.116  11.312 -0.2875  0.2254 -0.1901
  603TMC3    O1 8998   1.550   3.400  10.955  0.3928  0.3114  0.4477
  603TMC3    O2 8999   1.312   3.020  11.370  0.0969  0.0754  0.0469
  604MPD2     C 9000   2.123   0.922  16.568 -0.3218 -0.8106 -0.1051
  604MPD2    C1 9001   2.079   1.023  16.492  0.2412 -0.3964 -0.2919
  604MPD2    C2 9002   2.123   1.042  16.360  0.2279 -0.1586  0.4290
  604MPD2    C3 9003   2.190   0.936  16.295 -0.8716 -0.4747 -0.0800
  604MPD2    C4 9004   2.209   0.821  16.365 -0.3726  0.2615 -0.1467
  604MPD2    C5 9005   2.187   0.821  16.498 -0.2465 -0.5230 -0.3205
  604MPD2     H 9006   2.099   1.127  16.296  2.9143 -0.2617 -0.7029
  604MPD2    H1 9007   2.260   0.734  16.324 -1.1341 -0.0715 -0.3916
  604MPD2    H2 9008   2.125   0.926  16.676 -1.4640  1.3240 -0.1470
  604MPD2    H3 9009   2.229   0.736  16.550 -1.2870 -0.1040  1.2158
  604MPD2     N 9010   2.228   0.956  16.159 -0.0074  0.0418  0.0976
  604MPD2    H5 9011   2.211   1.049  16.121 -1.1086  0.1868  0.9429
  604MPD2    N1 9012   2.018   1.131  16.559 -0.1316 -0.6156 -0.9834
  604MPD2    H7 9013   2.024   1.131  16.660 -0.0319 -0.2565 -0.9896
  605TMC3    C1 9014   1.928   1.355  16.554  0.1932  0.0445  0.3159
  605TMC3    C2 9015   2.015   1.392  16.652 -0.2178  0.7752  0.1924
  605TMC3    C3 9016   2.014   1.519  16.689 -0.1646 -0.5193 -0.3375
  605TMC3    C4 9017   1.836   1.449  16.502  0.1142 -0.4703  0.2206
  605TMC3    C5 9018   1.831   1.574  16.556  0.0332  0.2559 -0.1758
  605TMC3    C6 9019   1.929   1.617  16.640  0.6347 -0.2463 -0.3639
  605TMC3     C 9020   1.940   1.224  16.491  0.0869  0.1142 -0.4524
  605TMC3     O 9021   1.892   1.203  16.380 -0.0073 -0.0086 -0.0739
  605TMC3     H 9022   2.092   1.324  16.685 -2.0357 -1.2318  0.2755
  605TMC3    H1 9023   1.766   1.411  16.429 -1.4413  0.6454  1.1293
  605TMC3    H2 9024   1.924   1.722  16.664 -2.0471 -0.1421 -1.3254
  605TMC3    C7 9025   1.738   1.667  16.496  0.4138 -0.2020  0.1263
  605TMC3    C8 9026   2.138   1.559  16.755 -0.2784  0.3998 -0.5240
  605TMC3    O1 9027   1.719   1.770  16.557 -0.0017  0.2652  0.5367
  605TMC3    O2 9028   2.234   1.482  16.745  0.0015 -0.6625  0.2176
  606TMC3    C1 9029   3.411   0.791  17.362  0.2876 -0.3135 -0.1353
  606TMC3    C2 9030   3.312   0.755  17.455 -0.5640  0.7293  0.3745
  606TMC3    C3 9031   3.263   0.627  17.464  0.6194  0.0024  0.2474
  606TMC3    C4 9032   3.470   0.695  17.289  0.3294  0.4480  0.5943
  606TMC3    C5 9033   3.424   0.567  17.307 -0.0783 -0.1922  0.0437
  606TMC3    C6 9034   3.317   0.531  17.385 -0.9080 -0.8954 -0.4678
  606TMC3     C 9035   3.479   0.923  17.374 -0.0565 -0.6154  0.3194
  606TMC3     O 9036   3.419   1.020  17.423  0.0560 -0.1038  0.0266
  606TMC3     H 9037   3.277   0.830  17.525  0.3387  2.6429 -1.2137
  606TMC3    H1 9038   3.550   0.717  17.220 -0.0642  0.1762  0.0494
  606TMC3    H2 9039   3.293   0.426  17.394 -0.4656 -0.9113  0.4655
  606TMC3    C7 9040   3.506   0.465  17.246  0.2581  0.4429  0.2254
  606TMC3    C8 9041   3.244   0.582  17.603  0.2357  0.8120 -0.4520
  606TMC3    O1 9042   3.617   0.495  17.205 -0.0133  0.2000 -0.2848
  606TMC3    O2 9043   3.302   0.642  17.695  0.4564 -0.5121 -0.3512
  607MPD2     C 9044   0.657   3.091  11.571  0.8228 -0.1079 -0.0406
  607MPD2    C1 9045   0.677   3.139  11.701 -0.2907 -0.6612  0.0911
  607MPD2    C2 9046   0.638   3.074  11.810  0.2719  0.3653  0.0108
  607MPD2    C3 9047   0.586   2.951  11.795  0.1512 -0.4237 -0.2306
  607MPD2    C4 9048   0.559   2.900  11.670 -0.1044 -0.2368 -0.8394
  607MPD2    C5 9049   0.595   2.972  11.557  0.3118  0.1927 -0.6818
  607MPD2     H 9050   0.656   3.118  11.908  0.1752  0.4976 -0.0314
  607MPD2    H1 9051   0.516   2.802  11.656  0.1950 -0.5146  0.1813
  607MPD2    H2 9052   0.704   3.129  11.482  2.8355 -2.1300  0.1581
  607MPD2    H3 9053   0.560   2.943  11.458  0.8260 -0.8540 -0.5526
  607MPD2     N 9054   0.546   2.887  11.918 -0.2220 -0.3108  0.3198
  607MPD2    H5 9055   0.547   2.939  12.005 -2.2993  3.6885 -2.0333
  607MPD2    N1 9056   0.752   3.254  11.728  0.5204 -0.0594  0.1165
  607MPD2    H7 9057   0.783   3.266  11.823 -0.8117  0.0463  0.5447
  608TMC3    C1 9058   0.870   3.456  11.703  0.7411  0.1974 -0.2146
  608TMC3    C2 9059   0.870   3.452  11.842 -0.0628 -0.0340  0.2007
  608TMC3    C3 9060   0.986   3.485  11.901 -0.4922  0.2834 -0.2149
  608TMC3    C4 9061   0.975   3.488  11.634  0.0065  0.5207  0.2690
  608TMC3    C5 9062   1.088   3.526  11.697  0.6300 -0.7944  0.4192
  608TMC3    C6 9063   1.099   3.519  11.835 -0.2242  0.0818  0.8914
  608TMC3     C 9064   0.784   3.357  11.640  0.5701 -0.0417  0.0554
  608TMC3     O 9065   0.747   3.370  11.522  0.0945  0.1132 -0.3903
  608TMC3     H 9066   0.779   3.437  11.899  0.4064  1.4248  1.3338
  608TMC3    H1 9067   0.970   3.518  11.530 -1.3641  1.7381  0.6799
  608TMC3    H2 9068   1.195   3.548  11.877  1.1873 -1.2973 -1.4320
  608TMC3    C7 9069   1.200   3.546  11.607 -0.1017 -0.4719 -0.1446
  608TMC3    C8 9070   1.016   3.426  12.038 -0.5216  0.4981 -0.8052
  608TMC3    O1 9071   1.187   3.562  11.489 -0.0101  0.4760  0.2706
  608TMC3    O2 9072   1.134   3.413  12.070  0.3805 -0.2715 -0.4124
  609TMC3    C1 9073   3.795   1.546   9.440 -0.3353 -0.5468  0.2852
  609TMC3    C2 9074   3.718   1.463   9.367  0.4326  0.1389  0.1813
  609TMC3    C3 9075   3.769   1.429   9.248 -0.2479  0.5193  0.1283
  609TMC3    C4 9076   3.907   1.615   9.387  0.1142  0.4466 -0.3544
  609TMC3    C5 9077   3.957   1.567   9.274  0.8166 -0.3275  0.1302
  609TMC3    C6 9078   3.888   1.473   9.198  0.1824  0.2288 -0.0849
  609TMC3     C 9079   3.756   1.566   9.579 -0.1212 -0.2813 -0.2166
  609TMC3     O 9080   3.655   1.507   9.616  0.4194 -0.3892 -0.9789
  609TMC3     H 9081   3.620   1.431   9.400  0.4477  0.4356  0.5129
  609TMC3    H1 9082   3.964   1.687   9.445 -0.4500 -0.6047  1.4945
  609TMC3    H2 9083   3.937   1.423   9.116  0.6242  0.7648 -0.1463
  609TMC3    C7 9084   4.098   1.550   9.287  0.1616  0.1974 -0.2387
  609TMC3    C8 9085   3.679   1.372   9.150 -0.0998  0.3379  0.4254
  609TMC3    O1 9086   4.151   1.592   9.385 -0.0676  0.0350 -0.0339
  609TMC3    O2 9087   3.572   1.324   9.188  0.0320 -0.7812  0.0568
  610TMC3    C1 9088   1.129   2.771  12.691 -0.0930 -0.3077  1.0429
  610TMC3    C2 9089   1.159   2.840  12.578  0.3440  0.0859  0.2930
  610TMC3    C3 9090   1.288   2.834  12.530 -0.7147  0.1874 -0.0259
  610TMC3    C4 9091   1.235   2.711  12.758 -0.5323 -0.2315  0.3207
  610TMC3    C5 9092   1.356   2.708  12.702  0.3403  0.1551  0.4141
  610TMC3    C6 9093   1.394   2.774  12.597 -1.0355 -0.4641 -0.8351
  610TMC3     C 9094   1.024   2.829  12.771 -0.2712  0.3568 -0.2121
  610TMC3     O 9095   0.970   2.933  12.732 -0.4780  0.2927  0.3363
  610TMC3     H 9096   1.078   2.889  12.524 -1.0136 -2.6322 -0.1471
  610TMC3    H1 9097   1.222   2.658  12.852 -1.5970  2.9739  1.9697
  610TMC3    H2 9098   1.489   2.747  12.552 -0.0058 -0.5531  1.4025
  610TMC3    C7 9099   1.455   2.626  12.762  0.4209 -0.7000 -0.3106
  610TMC3    C8 9100   1.319   2.936  12.426  0.8928  1.2108 -0.5794
  610TMC3    O1 9101   1.417   2.529  12.826  0.8006  0.2549  0.1180
  610TMC3    O2 9102   1.224   3.012  12.407 -0.2097  0.3184 -0.2830
  611MPD2     C 9103   0.937   3.179   9.920 -0.1043 -0.5163 -0.4412
  611MPD2    C1 9104   0.832   3.252   9.975  0.5449 -0.0165  0.3550
  611MPD2    C2 9105   0.869   3.378  10.030 -0.7036  0.0369 -0.1971
  611MPD2    C3 9106   0.995   3.430  10.035 -0.3894 -0.0530  0.3078
  611MPD2    C4 9107   1.092   3.353   9.983 -0.8234 -0.1518 -0.0769
  611MPD2    C5 9108   1.070   3.227   9.931  0.1139  0.1288 -0.4020
  611MPD2     H 9109   0.794   3.445  10.072 -0.4017 -0.2782  0.8474
  611MPD2    H1 9110   1.194   3.388   9.976 -1.3358  1.2239 -0.6935
  611MPD2    H2 9111   0.915   3.084   9.871 -1.7696 -1.1463  1.5280
  611MPD2    H3 9112   1.159   3.172   9.902  0.2092  0.5547 -0.9197
  611MPD2     N 9113   1.020   3.557  10.092  0.1399  0.3241 -0.2875
  611MPD2    H5 9114   1.117   3.581  10.110  0.3117  0.1483 -0.9652
  611MPD2    N1 9115   0.693   3.204   9.960  0.2698  0.4190 -0.4518
  611MPD2    H7 9116   0.675   3.111   9.921  0.6452 -0.3576  1.2413
  612TMC3    C1 9117   0.996   3.775  10.155 -0.6747 -0.1108 -0.2493
  612TMC3    C2 9118   1.100   3.764  10.249 -0.1352  0.7100 -0.1966
  612TMC3    C3 9119   1.172   3.876  10.284 -0.6488  0.0033  0.3081
  612TMC3    C4 9120   0.966   3.892  10.094  0.0482  0.1840  0.4049
  612TMC3    C5 9121   1.042   4.001  10.129  0.7125  0.3647 -0.5238
  612TMC3    C6 9122   1.147   3.995  10.220  0.0951  0.1103  0.8073
  612TMC3     C 9123   0.926   3.658  10.118  0.8413  0.4312 -1.1608
  612TMC3     O 9124   0.805   3.668  10.098 -0.6250  0.2615  0.5659
  612TMC3     H 9125   1.109   3.673  10.307 -1.8149 -0.0733 -1.1604
  612TMC3    H1 9126   0.876   3.888  10.034 -0.0867 -1.2444  0.7025
  612TMC3    H2 9127   1.215   4.076  10.244  0.2163  0.9246 -2.3766
  612TMC3    C7 9128   1.007   4.136  10.084 -0.5203 -0.3777 -0.7997
  612TMC3    C8 9129   1.282   3.857  10.376 -0.5068 -0.1764  0.8097
  612TMC3    O1 9130   1.077   4.232  10.113 -0.0175  0.6655 -0.4341
  612TMC3    O2 9131   1.371   3.940  10.371  0.1261 -0.5565 -0.0971
  613MPD2     C 9132   4.135   4.697  16.680  0.0161  0.3243 -0.3202
  613MPD2    C1 9133   4.122   0.074  16.598 -0.3629  0.7290 -1.1117
  613MPD2    C2 9134   4.082   0.055  16.468 -0.3342  0.5138  0.3905
  613MPD2    C3 9135   4.055   4.657  16.424  0.1233 -0.2499  0.8536
  613MPD2    C4 9136   4.082   4.549  16.502  0.5865  0.1306  0.0931
  613MPD2    C5 9137   4.113   4.569  16.636  0.1771  0.4071  0.2545
  613MPD2     H 9138   4.058   0.139  16.405 -1.0992  0.3522  0.4647
  613MPD2    H1 9139   4.070   4.451  16.460 -1.4757  0.4932 -0.1391
  613MPD2    H2 9140   4.146   4.717  16.786  0.3417 -0.3425 -0.2336
  613MPD2    H3 9141   4.118   4.484  16.702 -0.4570 -0.3402 -0.6575
  613MPD2     N 9142   4.038   4.625  16.293  0.1633  0.4550 -0.2046
  613MPD2    H5 9143   4.054   4.527  16.269 -0.9784  0.9878 -3.1378
  613MPD2    N1 9144   4.149   0.204  16.646 -0.1252 -0.0901 -0.0660
  613MPD2    H7 9145   4.203   0.217  16.731 -0.2972  0.1935  0.0027
  614TMC3    C1 9146   4.283   0.397  16.618  0.5526  0.1127 -0.2757
  614TMC3    C2 9147   4.402   0.324  16.615  0.4911 -0.7474  0.3627
  614TMC3    C3 9148   4.505   0.387  16.548 -0.2299 -0.0574  0.3179
  614TMC3    C4 9149   4.265   0.527  16.586 -0.0580  1.4608  0.7421
  614TMC3    C5 9150   4.377   0.586  16.532 -0.1324 -0.0624 -0.8824
  614TMC3    C6 9151   4.499   0.523  16.515 -0.2144 -0.1035  0.0049
  614TMC3     C 9152   4.161   0.322  16.576 -0.4008 -0.4302  0.2370
  614TMC3     O 9153   4.116   0.345  16.462  0.1577 -0.4776 -0.2507
  614TMC3     H 9154   4.400   0.216  16.629  0.9542 -0.7017  0.7865
  614TMC3    H1 9155   4.170   0.579  16.575 -1.0621 -0.6646 -0.4291
  614TMC3    H2 9156   4.578   0.585  16.474  0.7357  0.0514  2.0815
  614TMC3    C7 9157   4.346   0.689  16.430  0.0313 -0.1343 -0.2658
  614TMC3    C8 9158   4.558   0.298  16.441  0.4795  0.8889 -0.0874
  614TMC3    O1 9159   4.277   0.781  16.468  0.8556 -0.0931 -0.2298
  614TMC3    O2 9160   4.514   0.184  16.439 -0.5413 -0.7288 -0.0910
  615MPD2     C 9161   4.474   2.087  16.009  0.2276 -0.6132 -0.0478
  615MPD2    C1 9162   4.357   2.067  16.075  0.3664 -0.5309 -0.5242
  615MPD2    C2 9163   4.248   2.142  16.035 -0.4300  0.1515  0.6279
  615MPD2    C3 9164   4.255   2.229  15.926 -0.8328  0.1050 -0.4131
  615MPD2    C4 9165   4.369   2.230  15.849  0.9545  0.7976 -0.1662
  615MPD2    C5 9166   4.478   2.155  15.889 -0.3932  0.4672  0.2911
  615MPD2     H 9167   4.150   2.135  16.082 -0.7925 -2.2753 -0.4684
  615MPD2    H1 9168   4.374   2.295  15.763  0.2548  0.6395 -0.3262
  615MPD2    H2 9169   4.562   2.037  16.049 -0.2193 -0.7301  0.7682
  615MPD2    H3 9170   4.568   2.157  15.828 -1.3967 -2.3063 -1.2478
  615MPD2     N 9171   4.151   2.323  15.883  0.2458 -0.1752 -0.1406
  615MPD2    H5 9172   4.181   2.375  15.801 -0.6592  0.5784  0.0028
  615MPD2    N1 9173   4.342   1.987  16.188 -0.2057 -0.4436  0.2602
  615MPD2    H7 9174   4.254   1.987  16.238 -0.7245 -0.7486 -0.6558
  616TMC3    C1 9175   4.388   1.853  16.367  0.6743  0.1436  0.1392
  616TMC3    C2 9176   4.483   1.815  16.458  0.0738 -0.3572 -0.4753
  616TMC3    C3 9177   4.456   1.712  16.548  0.0046  0.4161 -0.2750
  616TMC3    C4 9178   4.272   1.784  16.350 -0.5473  0.3729 -0.1882
  616TMC3    C5 9179   4.242   1.682  16.437  0.0252 -0.6898 -0.6092
  616TMC3    C6 9180   4.334   1.648  16.532 -0.1872  0.2784 -0.4239
  616TMC3     C 9181   4.444   1.922  16.255 -0.4581 -0.7862  0.7774
  616TMC3     O 9182   4.565   1.915  16.236 -0.0400 -0.6486  0.4094
  616TMC3     H 9183   4.574   1.874  16.463  0.6189 -1.5366  3.4215
  616TMC3    H1 9184   4.200   1.802  16.270  1.1036 -0.0920 -1.7758
  616TMC3    H2 9185   4.305   1.577  16.609 -0.6981  1.1066  0.1389
  616TMC3    C7 9186   4.105   1.642  16.461  0.3579  0.1657  0.8861
  616TMC3    C8 9187   4.478   1.739  16.686 -0.3346  0.1066 -0.2959
  616TMC3    O1 9188   4.086   1.559  16.550  0.2769  0.3011 -0.1867
  616TMC3    O2 9189   4.389   1.702  16.763 -0.3592  0.4109 -0.2032
  617MPD2     C 9190   1.943   4.415  13.956  0.9517 -0.0252  1.2127
  617MPD2    C1 9191   1.932   4.287  14.028  0.2905  0.0625  0.0787
  617MPD2    C2 9192   1.812   4.254  14.086  0.3798  0.0578 -0.3225
  617MPD2    C3 9193   1.706   4.336  14.074 -0.2566  0.3446 -0.0242
  617MPD2    C4 9194   1.715   4.455  14.002  0.4386 -0.7480 -0.0658
  617MPD2    C5 9195   1.834   4.502  13.941  0.2988  0.2284 -0.3128
  617MPD2     H 9196   1.797   4.155  14.128  2.1931 -0.7485 -1.5871
  617MPD2    H1 9197   1.627   4.518  14.004  0.3942 -0.8529  1.5155
  617MPD2    H2 9198   2.037   4.450  13.913  0.3818 -1.3845 -1.1542
  617MPD2    H3 9199   1.843   4.594  13.886 -0.3095  1.0753  0.9946
  617MPD2     N 9200   1.584   4.303  14.134 -0.5193  0.3355  0.1259
  617MPD2    H5 9201   1.510   4.360  14.094 -1.6516 -0.6265  0.8247
  617MPD2    N1 9202   2.047   4.211  14.038  0.0332 -0.2072  0.3318
  617MPD2    H7 9203   2.128   4.243  13.986  0.4458  0.1845  1.2105
  618TMC3    C1 9204   2.182   4.016  14.052 -0.7871 -0.0897  0.6891
  618TMC3    C2 9205   2.174   3.886  14.022  0.4134 -0.2407 -0.4630
  618TMC3    C3 9206   2.289   3.827  13.972 -0.3788  0.0632  0.7210
  618TMC3    C4 9207   2.295   4.088  14.050 -0.0667  0.2989  0.4991
  618TMC3    C5 9208   2.408   4.022  14.014 -0.7056 -0.4937 -0.0907
  618TMC3    C6 9209   2.409   3.892  13.981  0.4888  0.1293 -0.2235
  618TMC3     C 9210   2.061   4.083  14.093 -0.5024 -0.4442  0.2897
  618TMC3     O 9211   1.986   4.012  14.153 -0.4064  0.3855  0.4705
  618TMC3     H 9212   2.083   3.827  14.035 -0.4627  1.0709 -0.6058
  618TMC3    H1 9213   2.305   4.190  14.085  2.5850  0.7235 -1.5025
  618TMC3    H2 9214   2.502   3.847  13.946  0.3529  0.3655 -0.8851
  618TMC3    C7 9215   2.532   4.085  14.052 -0.1551 -0.1699  0.1438
  618TMC3    C8 9216   2.265   3.760  13.847 -0.0994  0.2666  0.5681
  618TMC3    O1 9217   2.529   4.147  14.156 -0.7573 -0.3125  0.8925
  618TMC3    O2 9218   2.155   3.778  13.792  0.1816 -0.0199  1.1228
  619MPD2     C 9219   3.381   0.976  13.718 -0.2623  0.1321 -0.0655
  619MPD2    C1 9220   3.265   1.031  13.662 -0.2520 -0.1280 -0.6590
  619MPD2    C2 9221   3.142   1.012  13.725  0.3188 -0.1101  0.4767
  619MPD2    C3 9222   3.138   0.926  13.836 -0.1425 -0.3624 -0.0967
  619MPD2    C4 9223   3.247   0.858  13.877  0.5105  0.0904  0.5413
  619MPD2    C5 9224   3.366   0.891  13.824  0.5368 -0.2129 -0.4453
  619MPD2     H 9225   3.053   1.064  13.693  1.4100  1.5457  0.1162
  619MPD2    H1 9226   3.237   0.789  13.959  0.8108  0.7425  1.1253
  619MPD2    H2 9227   3.482   1.001  13.688  0.2239 -1.3133  0.3549
  619MPD2    H3 9228   3.457   0.847  13.864  1.0667  0.0451 -1.3799
  619MPD2     N 9229   3.024   0.890  13.915 -0.2933 -0.3433 -0.3786
  619MPD2    H5 9230   3.039   0.831  13.996 -2.7348 -2.0380 -1.1557
  619MPD2    N1 9231   3.271   1.100  13.536  0.0976  0.7028 -0.0257
  619MPD2    H7 9232   3.191   1.114  13.475  0.1836 -0.6291 -0.4383
  620TMC3    C1 9233   3.361   1.212  13.363 -0.2273 -0.0527  0.9751
  620TMC3    C2 9234   3.234   1.189  13.308 -1.0969 -0.3963 -0.5999
  620TMC3    C3 9235   3.173   1.294  13.242 -0.1329  0.1209 -0.5777
  620TMC3    C4 9236   3.431   1.329  13.343  0.4193 -0.0282  0.6426
  620TMC3    C5 9237   3.367   1.425  13.266  0.1107  0.1282  0.4592
  620TMC3    C6 9238   3.243   1.411  13.214  0.8992  0.1673  0.2624
  620TMC3     C 9239   3.390   1.145  13.481 -0.7444  0.0598 -0.4135
  620TMC3     O 9240   3.499   1.159  13.535  0.2283 -0.5428  0.4651
  620TMC3     H 9241   3.187   1.092  13.318  0.8327 -1.6226 -3.5027
  620TMC3    H1 9242   3.531   1.343  13.382  0.4164 -1.6849  1.2409
  620TMC3    H2 9243   3.198   1.491  13.156 -1.1211 -0.4651  0.9723
  620TMC3    C7 9244   3.416   1.556  13.280 -0.1193  0.1082  0.4822
  620TMC3    C8 9245   3.039   1.326  13.295  0.3493 -0.8645  0.3993
  620TMC3    O1 9246   3.534   1.568  13.295  0.1057  0.2909 -0.0316
  620TMC3    O2 9247   3.011   1.443  13.325 -0.7469 -0.6252 -0.2312
  621MPD2     C 9248   3.640   1.574  10.933  0.3835 -0.0545 -0.2832
  621MPD2    C1 9249   3.714   1.529  10.825 -0.6787 -0.5798  0.0052
  621MPD2    C2 9250   3.797   1.622  10.767 -0.4039  0.5225 -0.0991
  621MPD2    C3 9251   3.800   1.755  10.807  0.1774  0.0589  0.1560
  621MPD2    C4 9252   3.715   1.794  10.908  0.4584 -0.0827  0.0804
  621MPD2    C5 9253   3.638   1.706  10.971  0.1482  0.0102  0.0229
  621MPD2     H 9254   3.866   1.606  10.685  0.3738 -2.4597  1.1253
  621MPD2    H1 9255   3.701   1.896  10.942 -0.8524 -0.2520  0.0488
  621MPD2    H2 9256   3.578   1.516  10.999 -0.7948  1.0345 -0.4310
  621MPD2    H3 9257   3.588   1.752  11.056  1.2258  1.3524 -0.0762
  621MPD2     N 9258   3.888   1.845  10.741 -0.1466 -0.3802  0.1003
  621MPD2    H5 9259   3.946   1.808  10.666  1.4828 -0.7437  1.5187
  621MPD2    N1 9260   3.722   1.386  10.783 -0.3867  0.2564  0.9373
  621MPD2    H7 9261   3.775   1.365  10.699 -0.6784  0.4926  0.6923
  622TMC3    C1 9262   3.639   1.164  10.784 -0.5546 -0.3932  0.3138
  622TMC3    C2 9263   3.525   1.094  10.815 -0.3614 -0.4769 -0.2973
  622TMC3    C3 9264   3.486   0.992  10.735  0.4983 -0.2219  0.4720
  622TMC3    C4 9265   3.722   1.128  10.682  0.5411  0.1401 -0.6469
  622TMC3    C5 9266   3.689   1.018  10.610  0.4545  0.1367  0.6376
  622TMC3    C6 9267   3.569   0.945  10.633 -0.2690  0.2184 -0.6914
  622TMC3     C 9268   3.663   1.285  10.856  0.2109  0.6552  0.3275
  622TMC3     O 9269   3.600   1.288  10.962 -0.4840 -0.1011  0.0477
  622TMC3     H 9270   3.453   1.128  10.888  0.4577 -1.4171  0.9656
  622TMC3    H1 9271   3.810   1.187  10.663  0.7454 -0.9594 -3.1139
  622TMC3    H2 9272   3.527   0.869  10.569  0.5462  0.4104 -1.4595
  622TMC3    C7 9273   3.773   0.986  10.498  0.1234  0.9631 -0.0290
  622TMC3    C8 9274   3.358   0.933  10.755 -0.0098 -0.3165  0.5971
  622TMC3    O1 9275   3.889   1.028  10.501 -0.1901 -0.0930 -0.3645
  622TMC3    O2 9276   3.345   0.813  10.727  0.6703 -1.0839  0.0173
  623MPD2     C 9277   2.543   1.849  15.932  0.1668  0.2490 -0.0774
  623MPD2    C1 9278   2.498   1.749  16.014 -0.1233 -0.5049  0.8899
  623MPD2    C2 9279   2.585   1.715  16.119  0.1053  0.2734  0.0596
  623MPD2    C3 9280   2.697   1.795  16.147 -0.6729 -0.2355 -0.4289
  623MPD2    C4 9281   2.733   1.895  16.059  0.1404 -0.0586  0.0229
  623MPD2    C5 9282   2.655   1.922  15.950 -0.1134 -0.4401 -0.2805
  623MPD2     H 9283   2.554   1.640  16.191  2.0672 -1.8569 -1.3248
  623MPD2    H1 9284   2.817   1.962  16.076  0.6746 -0.6632 -0.2547
  623MPD2    H2 9285   2.482   1.875  15.846  1.8893  2.5668 -0.6052
  623MPD2    H3 9286   2.673   1.997  15.875  2.3066 -1.4367 -0.7192
  623MPD2     N 9287   2.760   1.773  16.274  0.1601  0.3813 -0.1292
  623MPD2    H5 9288   2.722   1.697  16.329 -1.0459  0.7433 -0.4742
  623MPD2    N1 9289   2.368   1.690  15.993  0.1296 -0.3882  0.1965
  623MPD2    H7 9290   2.295   1.734  15.937  0.2969  0.2509  0.4791
  624TMC3    C1 9291   2.981   1.857  16.684  0.5503 -0.2996  0.1852
  624TMC3    C2 9292   2.882   1.786  16.751  0.9053  0.0613 -0.4358
  624TMC3    C3 9293   2.777   1.739  16.673 -0.0363 -0.8335 -0.1598
  624TMC3    C4 9294   2.968   1.882  16.547  0.3211  0.4692  0.3159
  624TMC3    C5 9295   2.865   1.833  16.477  0.3411 -0.2177  0.0346
  624TMC3    C6 9296   2.766   1.760  16.539 -0.3514 -0.3832  0.0043
  624TMC3     C 9297   3.104   1.888  16.756  0.3830 -0.5439 -0.0220
  624TMC3     O 9298   3.098   1.866  16.876 -0.4561 -0.0802 -0.1755
  624TMC3     H 9299   2.888   1.756  16.855 -2.5779  1.7290  0.2385
  624TMC3    H1 9300   3.045   1.939  16.496 -0.6451  0.7340 -0.8534
  624TMC3    H2 9301   2.672   1.738  16.491 -0.1565  1.0913 -1.0442
  624TMC3    C7 9302   2.854   1.857  16.335 -0.1518  0.5311 -0.1528
  624TMC3    C8 9303   2.650   1.697  16.743  0.2985 -0.2119 -0.2174
  624TMC3    O1 9304   2.914   1.952  16.289  0.7211  0.1338 -0.2841
  624TMC3    O2 9305   2.604   1.584  16.721 -0.7433 -0.2131 -0.6734
  625MPD2     C 9306   3.178   3.075   0.924 -0.0065 -0.1334  0.4973
  625MPD2    C1 9307   3.173   3.208   0.960  0.6780  0.4140 -0.0685
  625MPD2    C2 9308   3.280   3.260   1.030 -0.3356  0.5148  0.3095
  625MPD2    C3 9309   3.387   3.180   1.068  0.3840 -0.1689 -0.1759
  625MPD2    C4 9310   3.386   3.046   1.027 -0.1714 -0.2699 -0.2942
  625MPD2    C5 9311   3.287   2.999   0.951  0.0568 -0.5019  0.2928
  625MPD2     H 9312   3.290   3.366   1.053 -3.2105  0.7716  0.3407
  625MPD2    H1 9313   3.467   2.977   1.048 -2.0003 -1.6444  2.2761
  625MPD2    H2 9314   3.104   3.032   0.857  0.3747 -1.1676  0.7411
  625MPD2    H3 9315   3.291   2.900   0.907  1.4425  1.0330 -2.9613
  625MPD2     N 9316   3.490   3.235   1.142 -0.2105 -0.2797 -0.2707
  625MPD2    H5 9317   3.474   3.334   1.154  0.1971 -0.2241 -0.1714
  625MPD2    N1 9318   3.064   3.302   0.925  0.1713  0.1296 -0.2575
  625MPD2    H7 9319   3.071   3.396   0.962  2.7393  0.5828 -1.8663
  626TMC3    C1 9320   2.903   3.387   0.768 -0.6782  0.0931 -0.4895
  626TMC3    C2 9321   2.869   3.370   0.638 -0.0722 -0.1221 -0.5516
  626TMC3    C3 9322   2.783   3.467   0.590  1.1283 -0.7151  0.2896
  626TMC3    C4 9323   2.840   3.472   0.861  0.0198 -0.0889  0.9179
  626TMC3    C5 9324   2.761   3.570   0.802  0.1093  1.1190 -0.4088
  626TMC3    C6 9325   2.729   3.570   0.665  0.0021 -0.1496 -0.5602
  626TMC3     C 9326   2.970   3.272   0.824 -0.3664 -0.0324 -0.0698
  626TMC3     O 9327   2.959   3.167   0.756 -0.5814 -0.3986  0.3709
  626TMC3     H 9328   2.919   3.294   0.580  0.4946 -0.6202  0.5920
  626TMC3    H1 9329   2.876   3.479   0.964  1.4006 -2.6681  0.6131
  626TMC3    H2 9330   2.655   3.636   0.623  2.1386  1.5033 -1.7261
  626TMC3    C7 9331   2.717   3.678   0.884 -0.1871 -0.2102 -0.3068
  626TMC3    C8 9332   2.767   3.477   0.442 -0.8041 -0.1699 -0.4589
  626TMC3    O1 9333   2.775   3.699   0.989 -0.0489 -0.0151  0.4829
  626TMC3    O2 9334   2.760   3.587   0.386 -0.4024 -0.5050  0.0134
  627MPD2     C 9335   1.023   3.309  14.689 -0.1758 -0.2990 -0.6524
  627MPD2    C1 9336   1.096   3.219  14.767 -1.0310 -0.2952  0.0812
  627MPD2    C2 9337   1.045   3.093  14.775 -0.2662  0.6590 -0.2659
  627MPD2    C3 9338   0.940   3.048  14.698  0.5614  0.2057  0.1427
  627MPD2    C4 9339   0.877   3.135  14.615  0.1007  0.1732 -0.2941
  627MPD2    C5 9340   0.914   3.262  14.618 -0.6737 -0.0763  0.3381
  627MPD2     H 9341   1.108   3.023  14.829 -0.3324 -0.8860 -2.1648
  627MPD2    H1 9342   0.789   3.114  14.554  0.7879 -0.5778 -1.0384
  627MPD2    H2 9343   1.049   3.413  14.675 -0.6130  0.0905  1.4746
  627MPD2    H3 9344   0.857   3.336  14.563 -1.0111 -0.2124  0.5104
  627MPD2     N 9345   0.890   2.919  14.714  0.3374 -0.4100  0.0306
  627MPD2    H5 9346   0.923   2.865  14.793  0.3235 -0.2443  0.1486
  627MPD2    N1 9347   1.212   3.254  14.837  0.6732 -0.2153 -0.2491
  627MPD2    H7 9348   1.269   3.180  14.875 -1.0024 -1.9435 -1.1290
  628TMC3    C1 9349   1.363   3.388  14.951  0.3150  0.3309 -0.4298
  628TMC3    C2 9350   1.466   3.313  14.914 -0.0804  0.1067 -0.3318
  628TMC3    C3 9351   1.594   3.349  14.963  0.0174 -0.2424  0.0937
  628TMC3    C4 9352   1.371   3.507  15.014 -0.3611 -0.7261 -0.1350
  628TMC3    C5 9353   1.501   3.540  15.057  0.0214 -0.3678  0.2178
  628TMC3    C6 9354   1.616   3.459  15.046  0.0957  0.9209 -0.2925
  628TMC3     C 9355   1.248   3.383  14.869 -0.3879  0.0342  0.2293
  628TMC3     O 9356   1.214   3.489  14.816 -0.3526  0.0434  0.0841
  628TMC3     H 9357   1.453   3.239  14.836  2.6267 -0.9820  0.2437
  628TMC3    H1 9358   1.283   3.562  15.045 -0.1927  0.4436 -1.7494
  628TMC3    H2 9359   1.711   3.511  15.054 -0.9854  2.8041  0.5396
  628TMC3    C7 9360   1.528   3.678  15.076 -0.3356 -0.2951 -0.0204
  628TMC3    C8 9361   1.706   3.323  14.868 -0.3385 -0.3484  0.3099
  628TMC3    O1 9362   1.629   3.709  15.137 -0.1212  0.2076 -0.2109
  628TMC3    O2 9363   1.679   3.284  14.753 -0.6027 -0.2378 -0.0012
  629MPD2     C 9364   4.664   2.081  17.032 -0.2323  0.0040  0.3413
  629MPD2    C1 9365   0.008   2.087  16.918 -0.1481  0.1516  0.0668
  629MPD2    C2 9366   4.716   2.006  16.810 -0.2533  0.7706  0.4256
  629MPD2    C3 9367   4.604   1.920  16.811 -0.2990 -0.7422  0.1527
  629MPD2    C4 9368   4.511   1.927  16.919 -0.1739 -0.1220 -0.4275
  629MPD2    C5 9369   4.543   2.005  17.023  0.5690  0.2050  0.3845
  629MPD2     H 9370   0.054   2.000  16.729 -0.1236  0.7159  0.5452
  629MPD2    H1 9371   4.424   1.866  16.938  0.1088 -0.6197 -0.7303
  629MPD2    H2 9372   4.690   2.122  17.129 -1.2902  0.5359  0.3956
  629MPD2    H3 9373   4.478   2.012  17.109 -1.2346 -0.7632 -0.9040
  629MPD2     N 9374   4.585   1.826  16.704 -0.4428 -0.5789  0.1534
  629MPD2    H5 9375   4.649   1.825  16.626 -1.0868 -1.3146 -0.3715
  629MPD2    N1 9376   0.112   2.177  16.930 -0.5101  0.3495 -0.3015
  629MPD2    H7 9377   0.119   2.233  17.015  0.7658 -1.5158  0.8386
  630TMC3    C1 9378   0.307   2.303  16.896 -0.2152  0.1136 -0.4740
  630TMC3    C2 9379   0.390   2.367  16.806  0.6495  0.1469  0.6566
  630TMC3    C3 9380   0.488   2.451  16.854  0.6241 -0.3912  0.4945
  630TMC3    C4 9381   0.317   2.322  17.033  0.2769  0.0234 -0.5965
  630TMC3    C5 9382   0.426   2.398  17.071 -0.6402 -0.1468  0.1314
  630TMC3    C6 9383   0.511   2.467  16.988  0.6803  0.2093 -0.0657
  630TMC3     C 9384   0.214   2.203  16.841 -1.0802 -0.4384 -0.1306
  630TMC3     O 9385   0.218   2.162  16.725  0.1248 -0.7023  0.1583
  630TMC3     H 9386   0.382   2.335  16.703 -0.9695  0.1102  0.8021
  630TMC3    H1 9387   0.280   2.252  17.107 -1.5891  0.4237 -1.1358
  630TMC3    H2 9388   0.595   2.525  17.022  0.6390 -0.1049  0.5707
  630TMC3    C7 9389   0.430   2.419  17.218 -0.3879 -0.5190  0.9070
  630TMC3    C8 9390   0.580   2.517  16.762 -0.4594 -0.0850  0.2212
  630TMC3    O1 9391   0.330   2.393  17.280 -0.1842  0.4612  0.4568
  630TMC3    O2 9392   0.673   2.581  16.808  0.0986 -0.3419 -0.0157
  631MPD2     C 9393   3.305   2.424  15.428 -0.0660 -0.1534 -0.5988
  631MPD2    C1 9394   3.325   2.557  15.443 -0.3853 -0.2204 -0.8058
  631MPD2    C2 9395   3.439   2.602  15.497  0.0674  0.4514  0.3525
  631MPD2    C3 9396   3.543   2.518  15.529  0.4894  0.0612  0.3247
  631MPD2    C4 9397   3.530   2.375  15.502  0.0750  0.1088 -0.2684
  631MPD2    C5 9398   3.410   2.335  15.446  0.5122  0.1069 -0.3629
  631MPD2     H 9399   3.457   2.708  15.514  1.2919  0.2687  0.1650
  631MPD2    H1 9400   3.592   2.293  15.534  0.4262 -0.1281 -1.5771
  631MPD2    H2 9401   3.210   2.389  15.389  0.3929 -1.2950 -0.6682
  631MPD2    H3 9402   3.390   2.231  15.424  2.8286  0.0239 -2.0176
  631MPD2     N 9403   3.663   2.567  15.577 -0.5194 -1.0092  1.2842
  631MPD2    H5 9404   3.655   2.665  15.604 -0.8858 -0.6359 -0.1882
  631MPD2    N1 9405   3.221   2.648  15.410  0.0359 -0.1102 -0.2131
  631MPD2    H7 9406   3.128   2.613  15.388  0.5539 -0.6590 -1.5673
  632TMC3    C1 9407   3.141   2.839  15.310 -0.2226 -0.1182 -0.6320
  632TMC3    C2 9408   3.013   2.802  15.349  0.3180  0.3460 -0.3201
  632TMC3    C3 9409   2.911   2.809  15.246 -0.8102  0.1652 -0.5294
  632TMC3    C4 9410   3.172   2.851  15.185 -0.2498 -0.0741 -0.5001
  632TMC3    C5 9411   3.074   2.843  15.086  0.2104 -0.4356  0.3769
  632TMC3    C6 9412   2.943   2.830  15.115 -0.2387 -0.1813  0.0124
  632TMC3     C 9413   3.256   2.775  15.372  0.7871  0.3653  0.8364
  632TMC3     O 9414   3.367   2.808  15.336  0.2314  0.0638 -0.2823
  632TMC3     H 9415   2.983   2.785  15.452  0.0698  0.6428 -0.3450
  632TMC3    H1 9416   3.273   2.879  15.156 -0.7697 -0.6354 -2.7933
  632TMC3    H2 9417   2.873   2.791  15.042  0.7742 -0.1467 -0.9711
  632TMC3    C7 9418   3.114   2.746  14.989  0.2544  0.4479  0.1652
  632TMC3    C8 9419   2.773   2.774  15.284 -0.5354  0.6474  0.1139
  632TMC3    O1 9420   3.045   2.746  14.889  0.5933  0.3329 -0.3888
  632TMC3    O2 9421   2.765   2.718  15.391  0.1740 -0.0766 -0.1447
  633MPD2     C 9422   2.704   0.065  17.513 -0.3719 -0.5163  0.3365
  633MPD2    C1 9423   2.832   0.093  17.461 -0.7565  0.7504  0.7015
  633MPD2    C2 9424   2.934   0.011  17.509  0.9554 -0.3259 -0.0940
  633MPD2    C3 9425   2.916   4.630  17.586  0.1437  0.3553 -0.0296
  633MPD2    C4 9426   2.787   4.613  17.639 -0.5998  0.3575  0.0836
  633MPD2    C5 9427   2.688   4.692  17.599  0.8998  0.3188 -0.4004
  633MPD2     H 9428   3.035   0.038  17.480  0.3630  0.3101 -1.5605
  633MPD2    H1 9429   2.759   4.532  17.706 -1.6350  0.5200 -0.1472
  633MPD2    H2 9430   2.613   0.116  17.483 -0.3453 -0.2636  0.6829
  633MPD2    H3 9431   2.586   4.681  17.634  1.0584  0.8985  0.2354
  633MPD2     N 9432   3.019   4.537  17.617  0.5458 -0.3402  0.4528
  633MPD2    H5 9433   2.997   4.457  17.676  1.4534 -1.6643 -0.9931
  633MPD2    N1 9434   2.856   0.186  17.357 -0.5486  0.0026  0.2001
  633MPD2    H7 9435   2.949   0.182  17.317  0.2473  0.0488  2.0714
  634TMC3    C1 9436   2.837   0.337  17.191  0.7169  0.2267 -0.7960
  634TMC3    C2 9437   2.922   0.260  17.108  0.1285  0.4548  0.0693
  634TMC3    C3 9438   2.950   0.317  16.983 -0.3596 -0.6715 -0.2825
  634TMC3    C4 9439   2.781   0.455  17.148 -0.5799 -0.4074 -0.2506
  634TMC3    C5 9440   2.805   0.497  17.019  0.4540 -1.2020  0.5117
  634TMC3    C6 9441   2.899   0.437  16.936 -0.1331 -0.5372 -0.7913
  634TMC3     C 9442   2.765   0.275  17.297 -0.6383  0.2315  0.3282
  634TMC3     O 9443   2.655   0.315  17.338  0.4245 -0.1873  0.3207
  634TMC3     H 9444   2.955   0.163  17.144  0.6207 -0.2490 -2.3070
  634TMC3    H1 9445   2.716   0.509  17.215 -1.0530  0.6246 -1.5345
  634TMC3    H2 9446   2.914   0.477  16.837  1.3095  1.4816  0.2264
  634TMC3    C7 9447   2.728   0.604  16.952 -0.4926 -0.3707  0.7215
  634TMC3    C8 9448   2.997   0.222  16.879  0.3736 -0.0129  0.1507
  634TMC3    O1 9449   2.735   0.599  16.826  0.2855 -0.1705 -0.1993
  634TMC3    O2 9450   2.981   0.101  16.902 -0.1776 -0.2384 -0.0269
  635TMC3    C1 9451   3.105   1.300   0.466 -0.5273  0.4559  0.2892
  635TMC3    C2 9452   3.081   1.198   0.374 -0.7853 -0.2279 -0.0616
  635TMC3    C3 9453   2.981   1.109   0.411  0.6261 -0.5344  0.1419
  635TMC3    C4 9454   3.040   1.313   0.584  0.1956  0.1027 -0.3628
  635TMC3    C5 9455   2.960   1.210   0.627  0.3766 -0.7693  0.1125
  635TMC3    C6 9456   2.928   1.108   0.541  0.4482  0.4364  0.1374
  635TMC3     C 9457   3.227   1.379   0.455  0.1394  0.6604 -0.2048
  635TMC3     O 9458   3.264   1.436   0.561  0.2408 -0.6734 -0.2485
  635TMC3     H 9459   3.121   1.202   0.273 -0.8579  1.4792 -0.0218
  635TMC3    H1 9460   3.039   1.408   0.637 -0.1654 -0.8163  1.2537
  635TMC3    H2 9461   2.852   1.036   0.567  0.2906 -0.3035 -2.3821
  635TMC3    C7 9462   2.869   1.234   0.737  0.1800  0.0799 -0.1482
  635TMC3    C8 9463   2.942   1.012   0.310 -0.2340  0.6635  0.0586
  635TMC3    O1 9464   2.751   1.201   0.731 -0.0587  0.4341 -0.1947
  635TMC3    O2 9465   2.998   1.011   0.200  0.7005  0.3966  0.0166
  636MPD2     C 9466   4.014   0.679  15.840  0.1624 -0.5299 -0.1336
  636MPD2    C1 9467   4.025   0.629  15.970 -0.0327 -0.3278  0.7608
  636MPD2    C2 9468   4.042   0.489  15.990 -0.5153  1.0248  0.2060
  636MPD2    C3 9469   4.048   0.407  15.881 -0.3698  0.1633  0.0804
  636MPD2    C4 9470   4.033   0.467  15.753  0.1176  0.6393  0.6254
  636MPD2    C5 9471   4.033   0.598  15.736 -0.0168  0.5393 -0.3814
  636MPD2     H 9472   4.031   0.439  16.085  2.7349 -1.1321 -0.5518
  636MPD2    H1 9473   4.043   0.417  15.658 -0.6090 -2.6115  2.2675
  636MPD2    H2 9474   4.010   0.787  15.831 -1.0238 -0.4505  1.2434
  636MPD2    H3 9475   4.042   0.637  15.635 -1.5593  1.9505  0.0109
  636MPD2     N 9476   4.066   0.273  15.901  0.4882 -0.3480  0.1650
  636MPD2    H5 9477   4.055   0.235  15.994  1.1868  0.2572  0.4929
  636MPD2    N1 9478   3.996   0.700  16.090 -0.4966 -0.3541 -0.3150
  636MPD2    H7 9479   4.000   0.642  16.173 -0.6550  1.8235  1.2116
  637TMC3    C1 9480   4.114   0.044  15.872 -0.3243  0.4278 -0.2028
  637TMC3    C2 9481   4.022   0.013  15.971  0.6627  0.5754 -0.3423
  637TMC3    C3 9482   4.070   4.670  16.073 -0.3743 -0.4168  0.5469
  637TMC3    C4 9483   4.245   0.017  15.872 -0.4530 -0.0261 -0.0917
  637TMC3    C5 9484   4.292   4.692  15.988  0.0115 -0.2275 -0.3620
  637TMC3    C6 9485   4.202   4.641  16.078  0.5561 -0.1850 -0.8519
  637TMC3     C 9486   4.098   0.176  15.813  0.3302 -0.5879  0.4750
  637TMC3     O 9487   4.119   0.192  15.693 -0.0940 -0.0964 -0.7121
  637TMC3     H 9488   3.927   0.065  15.974  1.7062  2.4821 -0.1076
  637TMC3    H1 9489   4.308   0.043  15.788  0.6509  1.8443  1.2849
  637TMC3    H2 9490   4.234   4.565  16.147  1.3290 -0.7954 -1.8800
  637TMC3    C7 9491   4.427   4.734  16.040  0.5372  0.1416  0.2576
  637TMC3    C8 9492   4.014   4.709  16.194 -0.5373 -0.1398  0.4293
  637TMC3    O1 9493   4.455   4.704  16.154  0.0641  0.1630  0.6606
  637TMC3    O2 9494   3.972   0.087  16.203  0.1116  0.1805 -0.3073
  638MPD2     C 9495   3.917   3.973  15.215 -0.2843  0.3333 -0.3128
  638MPD2    C1 9496   3.875   3.876  15.134  0.6908  0.2870  0.0336
  638MPD2    C2 9497   3.825   3.758  15.193 -0.0563  0.0100  0.4900
  638MPD2    C3 9498   3.818   3.742  15.331 -0.2684 -0.3215  0.2620
  638MPD2    C4 9499   3.855   3.850  15.411  0.2475 -0.1554 -0.5466
  638MPD2    C5 9500   3.898   3.960  15.350  0.1252  0.5518  0.0384
  638MPD2     H 9501   3.789   3.685  15.121 -0.1647 -0.3158  0.8741
  638MPD2    H1 9502   3.851   3.838  15.519 -2.3520  0.3264 -0.5979
  638MPD2    H2 9503   3.965   4.062  15.176 -0.7493 -0.6646 -3.2064
  638MPD2    H3 9504   3.940   4.046  15.400 -1.0453 -0.3595  2.5667
  638MPD2     N 9505   3.779   3.615  15.372  0.8048 -0.3284  0.6575
  638MPD2    H5 9506   3.765   3.544  15.301  2.2225 -0.7204  0.7665
  638MPD2    N1 9507   3.903   3.881  14.996  0.7441  0.0469 -0.0876
  638MPD2    H7 9508   3.983   3.934  14.963 -0.6655  1.8508 -0.6217
  639TMC3    C1 9509   3.745   3.437  15.502  0.3882 -0.2106  0.6096
  639TMC3    C2 9510   3.660   3.384  15.406 -0.1060 -0.4934  0.0485
  639TMC3    C3 9511   3.687   3.259  15.354 -0.0598  0.3371 -0.6903
  639TMC3    C4 9512   3.849   3.356  15.546  0.1450 -0.2274  0.3122
  639TMC3    C5 9513   3.883   3.242  15.483  0.0639 -0.1268 -0.0016
  639TMC3    C6 9514   3.799   3.188  15.390 -0.4160 -0.2722  0.5622
  639TMC3     C 9515   3.762   3.573  15.505 -0.0402  0.3991 -0.3447
  639TMC3     O 9516   3.761   3.634  15.611 -0.1381  0.4077 -0.5106
  639TMC3     H 9517   3.588   3.454  15.365 -0.4275 -1.4783 -1.0399
  639TMC3    H1 9518   3.917   3.403  15.617 -0.9614 -0.5652  1.5860
  639TMC3    H2 9519   3.829   3.095  15.343 -0.1440  0.6916 -1.1664
  639TMC3    C7 9520   4.002   3.174  15.507 -0.6877  0.2605  0.1551
  639TMC3    C8 9521   3.617   3.206  15.247  0.2382  0.6696 -0.9184
  639TMC3    O1 9522   4.049   3.172  15.619  0.2701  0.4552  0.2580
  639TMC3    O2 9523   3.677   3.122  15.184  0.0308 -0.0625  0.2908
  640MPD2     C 9524   4.359   2.780  10.106  0.2179 -0.4989  0.0472
  640MPD2    C1 9525   4.234   2.723  10.118 -0.4288  0.9762 -0.3771
  640MPD2    C2 9526   4.127   2.811  10.143  0.0773  0.5990  0.2541
  640MPD2    C3 9527   4.143   2.950  10.133  0.6777  0.0210  0.4771
  640MPD2    C4 9528   4.263   3.004  10.105  0.4009 -0.8146 -0.1425
  640MPD2    C5 9529   4.373   2.920  10.093  0.3615  0.5129  0.2171
  640MPD2     H 9530   4.029   2.767  10.159  1.5106 -2.0203  1.8774
  640MPD2    H1 9531   4.276   3.111  10.106  0.6857 -0.8567  0.2511
  640MPD2    H2 9532   4.452   2.725  10.099  0.7203  0.4110 -0.5293
  640MPD2    H3 9533   4.470   2.968  10.086  0.2701  0.7150  0.3338
  640MPD2     N 9534   4.042   3.050  10.157 -0.1947 -0.0769  0.0904
  640MPD2    H5 9535   4.063   3.149  10.162  2.0845 -0.4957 -1.3109
  640MPD2    N1 9536   4.223   2.580  10.126 -0.7127 -0.9097  0.2895
  640MPD2    H7 9537   4.311   2.532  10.108 -0.0591  0.9241 -1.4135
  641TMC3    C1 9538   4.120   2.366  10.144  0.3357 -1.0175 -0.9746
  641TMC3    C2 9539   4.213   2.297  10.077 -0.9872 -0.7168 -0.4505
  641TMC3    C3 9540   4.202   2.168  10.062  0.3762  0.0621  0.6547
  641TMC3    C4 9541   4.011   2.306  10.211  0.7024 -0.2803 -0.7097
  641TMC3    C5 9542   4.002   2.173  10.188 -0.0876  0.4137 -0.8322
  641TMC3    C6 9543   4.090   2.104  10.109  0.1110  0.1338 -0.2940
  641TMC3     C 9544   4.113   2.510  10.157 -0.3481 -0.3338 -0.1640
  641TMC3     O 9545   4.003   2.559  10.192  0.0654  0.6562 -0.5388
  641TMC3     H 9546   4.304   2.347  10.045 -1.3644 -1.4103 -2.6647
  641TMC3    H1 9547   3.937   2.354  10.274 -0.0489 -1.4032 -0.7336
  641TMC3    H2 9548   4.077   1.998  10.088  0.3116  0.1906 -0.7092
  641TMC3    C7 9549   3.906   2.095  10.254  0.5213 -0.2342 -1.0129
  641TMC3    C8 9550   4.311   2.092  10.000  0.0736 -0.3045 -0.3890
  641TMC3    O1 9551   3.938   1.978  10.266  0.3652  0.5748  0.2622
  641TMC3    O2 9552   4.278   1.975   9.978  0.0609 -0.5545  0.2523
  642TMC3    C1 9553   0.815   3.686  12.625 -0.0289  0.0028  0.1323
  642TMC3    C2 9554   0.922   3.710  12.542  0.2915 -0.0286 -0.0241
  642TMC3    C3 9555   0.914   3.677  12.412  0.1543  0.7297 -0.1536
  642TMC3    C4 9556   0.706   3.617  12.575 -0.2863 -0.1138 -0.6065
  642TMC3    C5 9557   0.709   3.585  12.441  0.2210  0.0095 -0.0835
  642TMC3    C6 9558   0.806   3.617  12.355  0.4028 -0.2509 -0.0290
  642TMC3     C 9559   0.819   3.748  12.753 -0.8367  0.1679 -0.4825
  642TMC3     O 9560   0.902   3.838  12.766 -0.4051  0.0169  0.0563
  642TMC3     H 9561   1.015   3.748  12.581  0.6318 -2.1541  1.2066
  642TMC3    H1 9562   0.624   3.600  12.644  0.6546  0.0097  0.5654
  642TMC3    H2 9563   0.797   3.576  12.255 -2.1255 -1.2071  0.5819
  642TMC3    C7 9564   0.603   3.501  12.395  0.2808 -0.4955 -0.3603
  642TMC3    C8 9565   1.020   3.692  12.317 -0.1732  0.6998 -0.1372
  642TMC3    O1 9566   0.555   3.503  12.283  0.3681 -0.1755  0.2280
  642TMC3    O2 9567   0.979   3.708  12.205 -0.2262  0.0424 -0.2595
  643TMC3    C1 9568   4.538   2.851   0.662  0.9996 -0.5348 -0.2755
  643TMC3    C2 9569   4.405   2.878   0.681  0.3878 -0.3051 -0.7658
  643TMC3    C3 9570   4.316   2.818   0.597 -0.5592 -0.1158  0.0474
  643TMC3    C4 9571   4.579   2.786   0.553 -0.1568  0.6419  0.0117
  643TMC3    C5 9572   4.495   2.718   0.475  0.7029  0.2016  0.8744
  643TMC3    C6 9573   4.360   2.743   0.493  0.8963 -0.0454  0.9251
  643TMC3     C 9574   4.608   2.974   0.701 -0.0693  0.0714  0.1422
  643TMC3     O 9575   4.550   3.078   0.674  0.2196  0.3810 -0.4462
  643TMC3     H 9576   4.362   2.947   0.753  1.1569  0.2631 -0.8560
  643TMC3    H1 9577   4.685   2.775   0.537 -0.2871 -1.2982  0.5252
  643TMC3    H2 9578   4.287   2.708   0.422  0.2987  1.4414  0.8017
  643TMC3    C7 9579   4.543   2.710   0.342  0.1510  0.4421 -0.0974
  643TMC3    C8 9580   4.231   2.914   0.537 -0.3105 -0.4772  0.2718
  643TMC3    O1 9581   4.622   2.795   0.307  0.0528  0.2992  0.3702
  643TMC3    O2 9582   4.148   2.869   0.459  0.3487 -0.2339  0.3801
  644MPD2     C 9583   4.220   1.904   9.222 -0.2507  0.7143  0.2295
  644MPD2    C1 9584   4.282   2.007   9.292  0.0172 -0.1430  0.1339
  644MPD2    C2 9585   4.199   2.116   9.333  0.5456  0.3656  0.1683
  644MPD2    C3 9586   4.063   2.114   9.316  0.0873 -0.5916 -0.1623
  644MPD2    C4 9587   4.007   1.997   9.258 -0.4442  0.5838  1.0319
  644MPD2    C5 9588   4.087   1.907   9.205 -0.4925 -0.0076  0.0311
  644MPD2     H 9589   4.245   2.203   9.378  1.2207 -0.8851  1.9090
  644MPD2    H1 9590   3.903   1.983   9.231 -0.5112  2.2712  0.3950
  644MPD2    H2 9591   4.277   1.824   9.177  1.5156  0.8595  2.1802
  644MPD2    H3 9592   4.037   1.824   9.156 -0.0651 -0.5382  0.4947
  644MPD2     N 9593   3.991   2.226   9.360 -0.0376 -0.4191  0.3782
  644MPD2    H5 9594   4.049   2.298   9.402  0.8385  0.3649 -2.1897
  644MPD2    N1 9595   4.424   2.008   9.306  0.5028 -0.2524  0.2772
  644MPD2    H7 9596   4.470   1.924   9.272  2.2296  0.1228  1.6639
  645TMC3    C1 9597   3.812   2.343   9.461 -0.2313 -0.0520 -0.3341
  645TMC3    C2 9598   3.876   2.466   9.447  0.6628 -0.8220  0.4331
  645TMC3    C3 9599   3.818   2.563   9.518  0.1114 -0.0768  0.8179
  645TMC3    C4 9600   3.708   2.320   9.547 -0.8344 -0.3226  0.9367
  645TMC3    C5 9601   3.660   2.434   9.615  0.4679  0.5227  0.2399
  645TMC3    C6 9602   3.717   2.559   9.608  0.5926 -0.8410  0.2618
  645TMC3     C 9603   3.855   2.224   9.388 -0.3400  0.1727 -0.0590
  645TMC3     O 9604   3.773   2.136   9.368 -0.8055  0.4234 -0.5544
  645TMC3     H 9605   3.953   2.481   9.372 -1.4913 -0.8774 -1.7791
  645TMC3    H1 9606   3.664   2.223   9.567 -1.2298 -0.7548 -2.0487
  645TMC3    H2 9607   3.682   2.644   9.665  1.4155  0.4780 -1.1899
  645TMC3    C7 9608   3.571   2.408   9.726  0.2864  0.0186  0.7852
  645TMC3    C8 9609   3.884   2.690   9.511 -0.0474  0.1443 -0.3014
  645TMC3    O1 9610   3.517   2.502   9.783  0.1131 -0.0416  0.1491
  645TMC3    O2 9611   3.826   2.791   9.552 -0.6197  0.2025 -0.2276
  646MPD2     C 9612   3.786   2.191  14.689 -0.2089 -0.3377  0.4830
  646MPD2    C1 9613   3.780   2.256  14.812  0.4495 -1.1241  0.1105
  646MPD2    C2 9614   3.685   2.358  14.831 -0.8694  0.3622  0.5074
  646MPD2    C3 9615   3.599   2.389  14.724  0.3393  0.2817 -0.4566
  646MPD2    C4 9616   3.613   2.322  14.598 -0.0915 -0.4716 -0.1642
  646MPD2    C5 9617   3.713   2.228  14.581 -0.1018  0.4227 -0.4336
  646MPD2     H 9618   3.676   2.424  14.917  2.3929  0.9191  0.4252
  646MPD2    H1 9619   3.557   2.343  14.508 -0.0130 -0.8300 -0.2955
  646MPD2    H2 9620   3.853   2.106  14.682 -0.1968 -0.3008  0.1143
  646MPD2    H3 9621   3.724   2.166  14.493 -1.2010 -1.4626  0.7534
  646MPD2     N 9622   3.514   2.501  14.732  0.1476  0.4097 -0.0355
  646MPD2    H5 9623   3.495   2.535  14.826 -2.2590 -2.0675  0.3805
  646MPD2    N1 9624   3.874   2.214  14.909  0.4546  0.1628  0.2629
  646MPD2    H7 9625   3.929   2.130  14.894  2.3680  1.3196  0.8088
  647TMC3    C1 9626   3.991   2.210  15.111 -0.1827  1.3491  0.0541
  647TMC3    C2 9627   3.990   2.243  15.243  0.5306 -0.8984  0.4101
  647TMC3    C3 9628   4.109   2.209  15.309  0.3871  0.7175  0.7250
  647TMC3    C4 9629   4.092   2.149  15.041 -0.5277 -0.6508  0.6796
  647TMC3    C5 9630   4.206   2.125  15.111 -0.4588 -0.1350  0.2304
  647TMC3    C6 9631   4.218   2.166  15.242  0.4566 -0.6199 -0.0859
  647TMC3     C 9632   3.891   2.274  15.033 -0.1346  0.5397 -0.0912
  647TMC3     O 9633   3.842   2.372  15.079  0.1410  0.7762  0.4733
  647TMC3     H 9634   3.894   2.255  15.292  0.4511 -1.3155  0.3568
  647TMC3    H1 9635   4.093   2.122  14.936 -1.8951  0.3216  0.4187
  647TMC3    H2 9636   4.308   2.146  15.298 -0.6933  0.5911  2.2162
  647TMC3    C7 9637   4.288   2.013  15.067  0.0169 -0.9056 -0.2023
  647TMC3    C8 9638   4.100   2.136  15.433  0.3015  0.1581  0.3295
  647TMC3    O1 9639   4.403   2.019  15.116  0.4923 -0.3176  1.0210
  647TMC3    O2 9640   4.186   2.050  15.453 -0.0668  0.5829 -1.0190
  648TMC3    C1 9641   3.465   0.326  16.297 -0.1124 -0.4570 -0.0206
  648TMC3    C2 9642   3.490   0.196  16.268  0.2278  0.0329 -0.0327
  648TMC3    C3 9643   3.467   0.155  16.134 -0.9234 -0.0761 -0.2515
  648TMC3    C4 9644   3.418   0.411  16.195 -0.9442  0.1271 -0.1890
  648TMC3    C5 9645   3.376   0.366  16.073 -0.0804  0.7750  0.0974
  648TMC3    C6 9646   3.403   0.230  16.037 -0.5798 -0.2225  1.0681
  648TMC3     C 9647   3.459   0.380  16.430 -0.0383  0.8840  0.5253
  648TMC3     O 9648   3.418   0.495  16.441 -0.2767 -0.1973 -0.5571
  648TMC3     H 9649   3.563   0.138  16.323  0.6156 -0.5062 -1.1094
  648TMC3    H1 9650   3.400   0.517  16.212  0.1705  0.4154 -0.7964
  648TMC3    H2 9651   3.384   0.195  15.937  0.9423  1.5795  0.1400
  648TMC3    C7 9652   3.270   0.434  16.003  0.5064 -0.8669  0.1218
  648TMC3    C8 9653   3.548   0.046  16.072 -0.4927  0.6527 -0.2224
  648TMC3    O1 9654   3.248   0.386  15.893 -0.5195 -0.3176 -0.0074
  648TMC3    O2 9655   3.585   0.053  15.956 -0.1917  0.3926 -0.1268
  649TMC3    C1 9656   1.620   0.906  13.312  0.0032 -0.0287  0.5921
  649TMC3    C2 9657   1.756   0.933  13.305  0.3249 -0.8450  0.4583
  649TMC3    C3 9658   1.834   0.827  13.342 -0.7679 -0.1132  0.1301
  649TMC3    C4 9659   1.573   0.794  13.383 -0.3016  0.1102 -0.3907
  649TMC3    C5 9660   1.654   0.694  13.419 -0.2444 -0.7770 -0.5369
  649TMC3    C6 9661   1.791   0.711  13.406 -0.1844 -1.1399  0.3909
  649TMC3     C 9662   1.526   0.982  13.236 -0.2215 -0.2762  0.1798
  649TMC3     O 9663   1.553   1.101  13.227 -0.3210 -0.6060 -0.2617
  649TMC3     H 9664   1.796   1.019  13.252 -1.0711 -0.2702  0.3299
  649TMC3    H1 9665   1.468   0.794  13.408  0.1024 -0.7518  1.2793
  649TMC3    H2 9666   1.865   0.638  13.437  0.8948  0.5318  1.7514
  649TMC3    C7 9667   1.607   0.644  13.541 -0.7808  0.0405 -0.6071
  649TMC3    C8 9668   1.977   0.843  13.339 -0.2931 -0.5418  0.7907
  649TMC3    O1 9669   1.485   0.641  13.559  0.2825  0.0108 -0.4546
  649TMC3    O2 9670   2.029   0.789  13.437 -0.2835 -0.4983 -0.4061
  650TMC3    C1 9671   0.115   2.405  13.121  0.2488  0.0455 -0.9671
  650TMC3    C2 9672   0.154   2.495  13.214 -0.6186  0.1784 -0.3208
  650TMC3    C3 9673   0.243   2.597  13.182  0.1101 -0.2047 -0.5730
  650TMC3    C4 9674   0.148   2.426  12.995  0.5092 -0.5235  0.3445
  650TMC3    C5 9675   0.229   2.518  12.955  0.4996 -0.2828  0.8371
  650TMC3    C6 9676   0.295   2.594  13.051 -0.9728  0.4057  0.4203
  650TMC3     C 9677   0.062   2.280  13.172 -0.1409 -0.3104 -0.0551
  650TMC3     O 9678   0.061   2.264  13.296 -0.6522 -0.2691 -0.3182
  650TMC3     H 9679   0.121   2.480  13.316 -1.6474 -1.1471 -0.8458
  650TMC3    H1 9680   0.088   2.369  12.924  0.1403 -0.7879  0.8684
  650TMC3    H2 9681   0.369   2.668  13.020 -1.7956  0.0910 -2.3039
  650TMC3    C7 9682   0.170   2.589  12.848 -0.2489  0.1219 -0.6196
  650TMC3    C8 9683   0.195   2.735  13.203  0.3212 -0.4961 -0.4492
  650TMC3    O1 9684   0.110   2.528  12.763 -0.4487 -0.1531 -0.0278
  650TMC3    O2 9685   0.267   2.820  13.148  0.2377 -0.0585 -0.1760
  651MPD2     C 9686   3.993   4.425  11.297  0.0861 -0.4612  0.0273
  651MPD2    C1 9687   3.924   4.480  11.190 -0.3728 -0.7380 -0.2092
  651MPD2    C2 9688   4.005   4.543  11.095  0.1902  0.4973 -0.0113
  651MPD2    C3 9689   4.136   4.569  11.105  0.0267 -0.9023  0.3073
  651MPD2    C4 9690   4.197   4.517  11.217  0.1474  0.4766 -0.1196
  651MPD2    C5 9691   4.128   4.433  11.306 -0.3125  0.3659  0.0755
  651MPD2     H 9692   3.957   4.593  11.012  0.0844 -0.9146 -0.8099
  651MPD2    H1 9693   4.303   4.528  11.234  0.4445 -3.7201  0.7311
  651MPD2    H2 9694   3.937   4.389  11.382  1.0892  0.5023  1.0907
  651MPD2    H3 9695   4.176   4.383  11.389 -0.7446  3.4721  2.2175
  651MPD2     N 9696   4.209   4.644  11.007 -0.4538  0.1017  0.5404
  651MPD2    H5 9697   4.162   4.663  10.919  0.3145  0.1088  0.1400
  651MPD2    N1 9698   3.789   4.463  11.169 -0.0028 -0.1574 -0.0772
  651MPD2    H7 9699   3.744   4.516  11.095 -0.3439 -0.7993 -0.3265
  652TMC3    C1 9700   4.581   0.110  10.806 -0.4194 -0.4377 -1.0104
  652TMC3    C2 9701   4.521   0.023  10.891 -0.4937  0.5102 -0.1185
  652TMC3    C3 9702   4.390   0.022  10.895 -0.1075  0.0645 -1.0141
  652TMC3    C4 9703   4.501   0.187  10.720  0.0591 -0.1353  0.0016
  652TMC3    C5 9704   4.366   0.179  10.730 -0.5601  0.0661 -0.9346
  652TMC3    C6 9705   4.310   0.086  10.806 -0.1544 -0.4521 -0.4887
  652TMC3     C 9706   4.729   0.127  10.824 -0.2542  0.0527  0.4172
  652TMC3     O 9707   0.045   0.080  10.926  0.4779 -0.5123 -0.2954
  652TMC3     H 9708   4.586   4.704  10.960  1.1052  1.0791 -1.1722
  652TMC3    H1 9709   4.546   0.252  10.645 -0.5951  2.3265  1.7535
  652TMC3    H2 9710   4.204   0.087  10.830  0.1761 -3.7611  1.1799
  652TMC3    C7 9711   4.283   0.270  10.650 -0.2356  0.1789  0.9631
  652TMC3    C8 9712   4.342   4.689  11.017  0.2021 -0.1612 -0.2285
  652TMC3    O1 9713   4.170   0.233  10.628  0.4355  0.6400 -0.2060
  652TMC3    O2 9714   4.425   4.671  11.109  0.7774  0.2032  0.4669
  653MPD2     C 9715   2.292   0.049  17.569  0.6264  0.0839  0.2414
  653MPD2    C1 9716   2.271   0.147  17.479 -0.0389  0.5072 -0.1973
  653MPD2    C2 9717   2.253   0.109  17.348 -0.3910  0.1407 -0.4147
  653MPD2    C3 9718   2.272   4.714  17.306 -0.4600 -0.6190  0.2820
  653MPD2    C4 9719   2.293   4.611  17.402  0.5909  0.2349  0.0846
  653MPD2    C5 9720   2.310   4.647  17.534 -0.5570 -0.2465  0.1985
  653MPD2     H 9721   2.247   0.187  17.272  0.1481  0.0453 -0.5565
  653MPD2    H1 9722   2.310   4.508  17.372  0.0639 -0.3419  1.8009
  653MPD2    H2 9723   2.314   0.075  17.672  0.8635  1.6110 -0.1937
  653MPD2    H3 9724   2.317   4.572  17.613  1.3587  1.3242  1.4978
  653MPD2     N 9725   2.268   4.688  17.164  0.9833  0.3213 -0.0528
  653MPD2    H5 9726   2.235   0.031  17.106 -0.9271  1.1408  2.1029
  653MPD2    N1 9727   2.270   0.282  17.517 -0.3664 -0.1613 -0.2184
  653MPD2    H7 9728   2.279   0.339  17.434 -0.6896 -1.2577 -1.0175
  654TMC3    C1 9729   2.287   4.562  16.962 -0.2857  0.2438  0.4454
  654TMC3    C2 9730   2.182   4.624  16.906 -0.1773  0.6386  0.4169
  654TMC3    C3 9731   2.138   4.577  16.782 -0.4167  0.3192  0.3058
  654TMC3    C4 9732   2.346   4.455  16.904  0.4335  0.3877  0.2983
  654TMC3    C5 9733   2.300   4.415  16.781 -0.9771 -0.7539 -0.0258
  654TMC3    C6 9734   2.204   4.478  16.709 -0.4521 -0.6306 -0.3845
  654TMC3     C 9735   2.309   4.576  17.107  0.1717 -0.7571 -0.2896
  654TMC3     O 9736   2.374   4.486  17.155 -0.2539  0.5056 -0.2306
  654TMC3     H 9737   2.122   4.689  16.967  1.1995  0.8169  1.5854
  654TMC3    H1 9738   2.430   4.406  16.952  0.9841  0.5055 -0.5397
  654TMC3    H2 9739   2.184   4.441  16.609  1.4941 -0.5170 -0.8265
  654TMC3    C7 9740   2.334   4.287  16.730 -0.3589  0.4712  0.0118
  654TMC3    C8 9741   2.022   4.634  16.724 -0.9742 -0.3184  0.0725
  654TMC3    O1 9742   2.266   4.239  16.640  0.5777  0.1235 -0.3096
  654TMC3    O2 9743   1.939   4.685  16.803 -0.1087 -0.0854 -0.2038
  655MPD2     C 9744   3.672   0.589  16.041  0.3371 -0.1993  0.2667
  655MPD2    C1 9745   3.581   0.657  15.961 -0.8469  0.1741 -0.8418
  655MPD2    C2 9746   3.545   0.585  15.849 -0.6269  0.6562  0.0898
  655MPD2    C3 9747   3.607   0.458  15.815  0.0722 -0.5764 -0.2342
  655MPD2    C4 9748   3.702   0.406  15.895  0.3904  0.1426 -0.2078
  655MPD2    C5 9749   3.734   0.471  16.010  0.0465 -0.8599  0.1283
  655MPD2     H 9750   3.473   0.633  15.784 -0.4920  1.0776  0.2560
  655MPD2    H1 9751   3.749   0.311  15.869  1.6703  0.7369 -0.0513
  655MPD2    H2 9752   3.704   0.623  16.139  0.8070 -0.3322  0.1579
  655MPD2    H3 9753   3.806   0.425  16.076 -1.6061  0.0681  2.5650
  655MPD2     N 9754   3.566   0.384  15.697 -0.2469  0.6025 -0.0685
  655MPD2    H5 9755   3.621   0.298  15.695 -0.0172  0.6844  2.4913
  655MPD2    N1 9756   3.509   0.768  16.009 -0.2109  0.5857  0.2710
  655MPD2    H7 9757   3.436   0.799  15.946  1.0350 -0.2444 -1.5937
  656TMC3    C1 9758   3.465   0.956  16.137  0.0225  0.6175  0.0659
  656TMC3    C2 9759   3.405   0.992  16.259  0.8976  0.2171  0.5495
  656TMC3    C3 9760   3.287   1.063  16.250  0.2086 -0.6259  0.5886
  656TMC3    C4 9761   3.427   1.018  16.021  0.4141  0.3160  0.1562
  656TMC3    C5 9762   3.313   1.090  16.022 -0.4899  0.0577  0.1442
  656TMC3    C6 9763   3.239   1.110  16.133  0.3473 -0.2919  0.4411
  656TMC3     C 9764   3.533   0.830  16.129  0.5001 -0.2960  0.3180
  656TMC3     O 9765   3.590   0.783  16.225 -0.2434 -0.4290  0.4204
  656TMC3     H 9766   3.437   0.950  16.353  1.8012 -2.2273 -0.8271
  656TMC3    H1 9767   3.483   0.999  15.930 -2.1090  1.6649 -1.6977
  656TMC3    H2 9768   3.147   1.167  16.130  1.2021  1.1041  0.7481
  656TMC3    C7 9769   3.237   1.093  15.889  0.0307 -0.5010  0.1168
  656TMC3    C8 9770   3.178   1.026  16.331 -0.1799  0.1223  0.6623
  656TMC3    O1 9771   3.313   1.098  15.791 -0.2021  0.1027 -0.2456
  656TMC3    O2 9772   3.069   1.004  16.273  0.4252 -0.5230  0.0790
  657TMC3    C1 9773   2.248   4.358  14.981 -0.2167  0.0878  0.3895
  657TMC3    C2 9774   2.288   4.388  15.108  0.2510 -0.2664  0.0860
  657TMC3    C3 9775   2.253   4.510  15.158 -0.1449 -0.8461 -0.0427
  657TMC3    C4 9776   2.176   4.445  14.907 -0.1277 -0.5473 -0.2082
  657TMC3    C5 9777   2.155   4.571  14.955  0.3434 -0.4775 -0.0904
  657TMC3    C6 9778   2.194   4.608  15.084 -0.0861 -0.2673 -0.0974
  657TMC3     C 9779   2.249   4.219  14.941  0.1691  1.0479  0.3245
  657TMC3     O 9780   2.164   4.183  14.860 -0.8379 -0.5194 -0.5074
  657TMC3     H 9781   2.351   4.325  15.170  0.7871 -0.0384 -0.2300
  657TMC3    H1 9782   2.148   4.404  14.811 -0.0281 -0.4447 -0.2800
  657TMC3    H2 9783   2.208   4.712  15.109 -2.5502 -0.0013  0.1815
  657TMC3    C7 9784   2.074   4.664  14.880 -0.0452 -0.1991  0.5533
  657TMC3    C8 9785   2.265   4.518  15.303  0.0836  0.8638 -0.3763
  657TMC3    O1 9786   2.051   0.043  14.931 -0.6826 -0.1304 -0.5560
  657TMC3    O2 9787   2.337   4.435  15.358 -0.1882 -0.6936 -0.2579
  658MPD2     C 9788   4.038   0.193  15.350  0.4241  0.0208  0.0151
  658MPD2    C1 9789   3.938   0.142  15.274  0.2270  0.4132  0.1848
  658MPD2    C2 9790   3.966   0.061  15.166 -0.7480  0.2859  0.2603
  658MPD2    C3 9791   4.097   0.035  15.134  0.0167 -0.2810 -0.3684
  658MPD2    C4 9792   4.198   0.078  15.217 -0.2075 -0.4665 -0.3254
  658MPD2    C5 9793   4.167   0.158  15.320 -0.1876  0.0015  0.4425
  658MPD2     H 9794   3.899   0.030  15.087  0.0078 -1.3702  0.2616
  658MPD2    H1 9795   4.302   0.046  15.211 -0.0578  0.1218 -0.9624
  658MPD2    H2 9796   4.028   0.254  15.439  1.6921 -0.1922  0.3134
  658MPD2    H3 9797   4.233   0.197  15.397  0.4037 -0.4034  0.1412
  658MPD2     N 9798   4.129   4.692  15.018 -1.0869 -0.1000  0.4588
  658MPD2    H5 9799   4.049   4.647  14.973 -0.6627 -1.3870  0.9796
  658MPD2    N1 9800   3.813   0.182  15.314  0.3355 -0.1038 -0.6245
  658MPD2    H7 9801   3.817   0.250  15.389 -0.4956 -2.1096  1.2132
  659TMC3    C1 9802   3.576   0.213  15.304  1.0333 -0.2257 -0.5051
  659TMC3    C2 9803   3.576   0.273  15.430 -0.4113  0.2602  0.7819
  659TMC3    C3 9804   3.459   0.344  15.476  0.5235 -0.0486 -0.4626
  659TMC3    C4 9805   3.462   0.220  15.228 -0.3522  0.3548 -0.6348
  659TMC3    C5 9806   3.355   0.301  15.270  0.4899 -0.4035  0.8455
  659TMC3    C6 9807   3.350   0.357  15.397  0.0073  0.0014 -0.5845
  659TMC3     C 9808   3.695   0.138  15.259  0.4792  0.1778  0.1378
  659TMC3     O 9809   3.674   0.033  15.200 -0.1923  0.5745 -0.0662
  659TMC3     H 9810   3.660   0.280  15.498 -0.3140  1.2860  0.5590
  659TMC3    H1 9811   3.462   0.162  15.137 -3.0310 -0.2455 -0.2324
  659TMC3    H2 9812   3.269   0.422  15.426 -0.8749  0.7333 -4.7966
  659TMC3    C7 9813   3.222   0.275  15.213 -0.4596 -0.2323  0.0573
  659TMC3    C8 9814   3.474   0.425  15.600  0.7022  0.2764 -0.7386
  659TMC3    O1 9815   3.133   0.359  15.231 -0.1952  0.7336 -0.5149
  659TMC3    O2 9816   3.419   0.530  15.594  0.0362 -0.0747 -0.0845
  660MPD2     C 9817   1.990   3.505  12.985 -0.6388 -0.4713 -0.1516
  660MPD2    C1 9818   1.882   3.509  12.910 -0.4538  0.6948  0.3885
  660MPD2    C2 9819   1.772   3.429  12.941 -0.4506  0.1968 -1.0504
  660MPD2    C3 9820   1.783   3.355  13.059  0.5212 -0.1177 -0.2410
  660MPD2    C4 9821   1.904   3.335  13.122  0.1214 -0.8451 -0.1000
  660MPD2    C5 9822   2.011   3.407  13.074  0.1930  0.0002  0.2301
  660MPD2     H 9823   1.684   3.450  12.882  0.6880  1.3278 -2.3286
  660MPD2    H1 9824   1.908   3.289  13.220  3.5613  0.8295  0.5456
  660MPD2    H2 9825   2.066   3.582  12.969 -1.0344 -0.3050 -1.2421
  660MPD2    H3 9826   2.102   3.418  13.132  1.0215 -2.3231 -0.6519
  660MPD2     N 9827   1.671   3.285  13.118  0.0036  0.1039 -0.2297
  660MPD2    H5 9828   1.698   3.238  13.204 -2.5799  4.3123  2.8965
  660MPD2    N1 9829   1.879   3.612  12.810  0.0702 -0.5628 -0.5809
  660MPD2    H7 9830   1.956   3.678  12.807 -0.9702  0.7415  1.1914
  661TMC3    C1 9831   1.830   3.737  12.622  0.0079  0.1248 -0.7269
  661TMC3    C2 9832   1.849   3.689  12.493  0.8203 -0.1310  0.0987
  661TMC3    C3 9833   1.788   3.757  12.389 -0.6953  0.0409  0.6089
  661TMC3    C4 9834   1.736   3.842  12.635  0.6228 -0.1228  0.2450
  661TMC3    C5 9835   1.689   3.914  12.530  0.1284 -0.7081 -0.3696
  661TMC3    C6 9836   1.723   3.875  12.403 -0.4686 -0.1291 -0.4511
  661TMC3     C 9837   1.791   3.629  12.707 -0.0039 -0.2982 -0.1472
  661TMC3     O 9838   1.686   3.576  12.689  0.1495  0.7238  0.2262
  661TMC3     H 9839   1.903   3.595  12.492  0.7641 -0.1695  1.1470
  661TMC3    H1 9840   1.708   3.873  12.735  0.9210  0.7527  0.0498
  661TMC3    H2 9841   1.692   3.935  12.318 -0.1300  0.7182  0.0211
  661TMC3    C7 9842   1.567   3.981  12.556 -0.1087  0.1523 -0.7624
  661TMC3    C8 9843   1.834   3.722  12.253 -0.2485 -0.7106  1.0708
  661TMC3    O1 9844   1.562   4.030  12.669 -0.0344  0.4190 -0.4838
  661TMC3    O2 9845   1.819   3.807  12.169 -0.1290  0.9066  0.6801
  662MPD2     C 9846   2.225   3.561  17.310 -0.1681 -0.0046 -0.5748
  662MPD2    C1 9847   2.215   3.486  17.427  0.3973 -0.0440 -0.4297
  662MPD2    C2 9848   2.134   3.540  17.529 -0.7260  0.0750 -0.3750
  662MPD2    C3 9849   2.075   3.665  17.526  0.0812  0.5302  0.5055
  662MPD2    C4 9850   2.097   3.736  17.413 -0.2456 -0.6190 -0.3519
  662MPD2    C5 9851   2.171   3.684  17.303  0.1809  0.7784 -0.5209
  662MPD2     H 9852   2.117   3.477  17.616  2.3195 -2.3759 -1.5682
  662MPD2    H1 9853   2.039   3.826  17.405  0.0371 -0.4323 -0.3120
  662MPD2    H2 9854   2.281   3.523  17.225  0.7597  0.6119 -0.2323
  662MPD2    H3 9855   2.175   3.745  17.214  1.2489  0.6818 -0.5443
  662MPD2     N 9856   1.985   3.712  17.629 -0.3630 -0.2129 -0.4728
  662MPD2    H5 9857   1.946   3.805  17.616  2.4142  1.6365  4.6790
  662MPD2    N1 9858   2.276   3.354  17.443 -0.0929  0.2325 -0.3761
  662MPD2    H7 9859   2.274   3.312  17.535  1.5038 -2.1291 -1.4200
  663TMC3    C1 9860   2.342   3.145  17.391  0.8368 -0.1094 -0.0901
  663TMC3    C2 9861   2.343   3.141  17.528  0.0948 -0.2988 -0.6927
  663TMC3    C3 9862   2.284   3.038  17.599  0.2799 -0.3639  0.2151
  663TMC3    C4 9863   2.272   3.049  17.323 -0.4401  0.3215  0.5108
  663TMC3    C5 9864   2.200   2.956  17.390 -0.9604  1.0765 -0.1956
  663TMC3    C6 9865   2.199   2.953  17.528  0.1410 -0.4171 -0.3974
  663TMC3     C 9866   2.325   3.280  17.335  0.5862  0.4983  0.3731
  663TMC3     O 9867   2.321   3.290  17.214  0.4440 -0.2551 -0.1603
  663TMC3     H 9868   2.415   3.198  17.587  0.6971 -1.5647 -0.2092
  663TMC3    H1 9869   2.259   3.054  17.216  2.6812 -3.0371  0.0043
  663TMC3    H2 9870   2.178   2.860  17.579  0.4816  0.6403  1.6669
  663TMC3    C7 9871   2.158   2.850  17.309 -0.0855 -1.3208 -0.1056
  663TMC3    C8 9872   2.229   3.108  17.714 -0.3492 -0.3804 -0.5186
  663TMC3    O1 9873   2.158   2.878  17.189 -0.2856 -0.1962 -0.5280
  663TMC3    O2 9874   2.287   3.207   0.026  0.0290  0.3305 -0.0794
  664MPD2     C 9875   4.380   1.992   0.100  0.6837  0.3138  0.0480
  664MPD2    C1 9876   4.504   2.000   0.160 -0.1071 -0.1542 -0.1764
  664MPD2    C2 9877   4.538   1.920   0.267 -0.4557 -0.0390  0.4188
  664MPD2    C3 9878   4.443   1.835   0.320 -0.4510 -0.0444  0.1024
  664MPD2    C4 9879   4.317   1.813   0.258  0.4546  0.1104 -0.8737
  664MPD2    C5 9880   4.293   1.895   0.150 -0.4234 -0.0945  0.5965
  664MPD2     H 9881   4.635   1.923   0.314 -0.6017  0.3535  0.6951
  664MPD2    H1 9882   4.229   1.763   0.295 -0.1649  1.1449 -0.9458
  664MPD2    H2 9883   4.364   2.057   0.014  1.7705  1.7006  0.8761
  664MPD2    H3 9884   4.193   1.881   0.111 -0.3787 -0.6931  0.6916
  664MPD2     N 9885   4.488   1.755   0.431 -0.1373 -0.6422  0.1055
  664MPD2    H5 9886   4.576   1.783   0.475 -1.0972  1.6040  0.6019
  664MPD2    N1 9887   4.595   2.091   0.097  0.0660  0.0727 -0.0364
  664MPD2    H7 9888   4.567   2.136   0.010  0.8280  1.1593  0.2809
  665TMC3    C1 9889   4.472   1.599   0.607 -0.0807  0.0434  0.4722
  665TMC3    C2 9890   4.390   1.521   0.688  0.0642  0.0097  0.1016
  665TMC3    C3 9891   4.434   1.484   0.811 -0.3444  0.2204 -0.3246
  665TMC3    C4 9892   4.602   1.624   0.645  0.1166 -0.1441  0.6126
  665TMC3    C5 9893   4.639   1.589   0.769  0.0077  0.2404 -0.2286
  665TMC3    C6 9894   4.557   1.516   0.851  0.3861 -0.4351  0.0638
  665TMC3     C 9895   4.418   1.653   0.487 -0.1514 -0.2486  0.3017
  665TMC3     O 9896   4.303   1.614   0.463  0.2457 -0.3342  0.0421
  665TMC3     H 9897   4.285   1.510   0.663 -0.7025  0.0533  3.2696
  665TMC3    H1 9898   4.674   1.678   0.584  0.6569 -1.2171  0.2964
  665TMC3    H2 9899   4.599   1.473   0.941  1.6599  1.3646  0.3410
  665TMC3    C7 9900   0.017   1.651   0.826 -0.2395 -0.4867 -0.0143
  665TMC3    C8 9901   4.360   1.386   0.889  0.1811  0.1045  0.7100
  665TMC3    O1 9902   0.121   1.661   0.758 -0.2801 -0.0711  0.4670
  665TMC3    O2 9903   4.380   1.385   1.010 -0.2779 -0.0101 -0.8456
  666TMC3    C1 9904   3.977   2.064  10.682 -0.7856  0.6361 -0.3575
  666TMC3    C2 9905   4.061   2.010  10.584  0.3284  0.2374  0.2005
  666TMC3    C3 9906   4.121   2.112  10.507 -0.5077  0.4987 -0.3914
  666TMC3    C4 9907   3.943   2.194  10.688 -0.0345  0.6134 -0.6900
  666TMC3    C5 9908   4.000   2.285  10.604 -0.6980 -0.2640  0.4459
  666TMC3    C6 9909   4.094   2.252  10.517  0.4117  0.3473 -0.2874
  666TMC3     C 9910   3.905   1.979  10.780  0.2898 -0.3461 -0.6786
  666TMC3     O 9911   3.874   2.028  10.886 -0.6169  0.5151 -0.5089
  666TMC3     H 9912   4.098   1.909  10.585  0.2357  0.2159  1.6915
  666TMC3    H1 9913   3.871   2.222  10.764  1.3639 -1.5051  1.4242
  666TMC3    H2 9914   4.139   2.316  10.443  1.3192 -1.2867 -1.1460
  666TMC3    C7 9915   3.946   2.419  10.612 -0.0560  0.0651 -0.5091
  666TMC3    C8 9916   4.240   2.078  10.425 -0.2184  0.8336  0.3181
  666TMC3    O1 9917   3.856   2.428  10.689 -0.1082  0.2906  0.7273
  666TMC3    O2 9918   4.312   2.168  10.392  0.2399 -0.4347 -0.2346
  667MPD2     C 9919   1.197   1.600  14.742  0.5742 -0.7337 -0.1895
  667MPD2    C1 9920   1.069   1.641  14.768 -0.0773 -0.5796  0.0793
  667MPD2    C2 9921   0.971   1.548  14.763 -0.1245 -0.8403  0.0338
  667MPD2    C3 9922   0.993   1.417  14.742 -0.8211 -0.1106  0.2646
  667MPD2    C4 9923   1.127   1.369  14.727 -0.5733  0.1083  0.2944
  667MPD2    C5 9924   1.226   1.465  14.727  0.3469 -1.1713 -0.1915
  667MPD2     H 9925   0.875   1.584  14.797 -0.5217 -0.2932 -1.6789
  667MPD2    H1 9926   1.161   1.266  14.719  1.5195  0.8621 -0.4638
  667MPD2    H2 9927   1.289   1.657  14.750  0.0548 -0.0522  0.8929
  667MPD2    H3 9928   1.331   1.441  14.714  0.3744  0.2646 -2.5882
  667MPD2     N 9929   0.894   1.317  14.733  0.6060 -0.2725 -0.0635
  667MPD2    H5 9930   0.918   1.220  14.716 -0.6765 -0.8641  1.5486
  667MPD2    N1 9931   1.034   1.771  14.800 -0.0008  0.2035 -0.6283
  667MPD2    H7 9932   0.936   1.795  14.813  0.9363  2.2030  2.8096
  668TMC3    C1 9933   1.087   2.004  14.825  0.2300 -0.5220 -0.1646
  668TMC3    C2 9934   1.126   2.123  14.762 -0.2207  0.2710  0.6262
  668TMC3    C3 9935   1.091   2.241  14.824 -0.1756 -0.1214 -0.3934
  668TMC3    C4 9936   1.020   2.008  14.939 -0.1397  0.2192 -0.3527
  668TMC3    C5 9937   0.993   2.123  15.000  0.9729 -0.1512 -0.5668
  668TMC3    C6 9938   1.033   2.236  14.941  0.1893 -0.2456  0.1714
  668TMC3     C 9939   1.120   1.878  14.766  0.5634 -0.9134  0.3900
  668TMC3     O 9940   1.199   1.878  14.673 -0.3780  0.5908 -0.9915
  668TMC3     H 9941   1.171   2.121  14.663 -0.8629 -1.8912  0.3803
  668TMC3    H1 9942   1.001   1.915  14.991 -1.4799 -0.0704 -1.3506
  668TMC3    H2 9943   1.017   2.327  14.996  1.6092 -0.7182  1.3614
  668TMC3    C7 9944   1.011   2.134  15.141  0.0247  0.0750 -0.1945
  668TMC3    C8 9945   1.144   2.367  14.784  0.0320  0.4320 -0.3877
  668TMC3    O1 9946   1.089   2.219  15.182  0.6170 -0.1018  0.3127
  668TMC3    O2 9947   1.099   2.466  14.843  0.4573  0.1002  0.4394
  669TMC3    C1 9948   3.611   1.198  14.711 -0.6589  0.4201  0.1120
  669TMC3    C2 9949   3.509   1.245  14.634  0.6955  0.3439 -0.4558
  669TMC3    C3 9950   3.534   1.314  14.515  0.3656  0.2192 -0.9784
  669TMC3    C4 9951   3.741   1.196  14.657 -0.0651 -0.2347  0.0748
  669TMC3    C5 9952   3.763   1.276  14.552 -0.5883  1.0024 -0.2105
  669TMC3    C6 9953   3.665   1.331  14.475 -0.4834  0.0643 -0.3032
  669TMC3     C 9954   3.600   1.193  14.855  0.7051  0.0335  0.7370
  669TMC3     O 9955   3.491   1.220  14.906  0.1539 -0.6635 -0.2312
  669TMC3     H 9956   3.408   1.238  14.672  0.3239  1.2104 -1.2769
  669TMC3    H1 9957   3.831   1.163  14.708 -0.1035 -1.0203 -0.3689
  669TMC3    H2 9958   3.689   1.371  14.377 -0.6242 -0.3366 -0.5020
  669TMC3    C7 9959   3.890   1.294  14.493  0.7162 -0.6742 -0.4575
  669TMC3    C8 9960   3.419   1.358  14.437 -0.8762 -0.0293 -0.3760
  669TMC3    O1 9961   3.961   1.195  14.495 -0.8375  0.0797 -0.4717
  669TMC3    O2 9962   3.306   1.335  14.480 -0.5402  0.1092  0.2109
  670MPD2     C 9963   1.656   3.934  13.734  0.0065  0.2774  0.3440
  670MPD2    C1 9964   1.783   3.915  13.781 -0.5869  0.0943  0.2430
  670MPD2    C2 9965   1.798   3.894  13.918  0.5747 -0.3226 -0.5340
  670MPD2    C3 9966   1.691   3.906  14.000  0.5193  0.0379 -0.5904
  670MPD2    C4 9967   1.563   3.929  13.950  0.1266 -0.1264 -0.0606
  670MPD2    C5 9968   1.554   3.943  13.817  0.3135 -0.2131  0.2657
  670MPD2     H 9969   1.887   3.858  13.968  0.9057 -1.0224 -1.6274
  670MPD2    H1 9970   1.471   3.928  14.008 -0.7463  0.6526 -1.4311
  670MPD2    H2 9971   1.640   3.949  13.627 -1.4313 -2.4288  0.1901
  670MPD2    H3 9972   1.453   3.951  13.779  0.6421  3.2192  0.0901
  670MPD2     N 9973   1.717   3.896  14.142 -0.0931 -0.1075  0.2325
  670MPD2    H5 9974   1.814   3.890  14.169  0.0649 -0.7352 -0.4937
  670MPD2    N1 9975   1.902   3.907  13.701 -0.5284 -0.1532 -0.1784
  670MPD2    H7 9976   1.993   3.902  13.746 -1.4894  0.0577  1.8051
  671TMC3    C1 9977   1.688   3.802  14.350  0.0677 -0.5706 -0.7555
  671TMC3    C2 9978   1.825   3.795  14.361  0.6925  0.0498 -0.1202
  671TMC3    C3 9979   1.879   3.716  14.450  0.0048  0.5799 -0.0499
  671TMC3    C4 9980   1.607   3.724  14.433  0.1297 -0.1394 -0.4009
  671TMC3    C5 9981   1.671   3.626  14.508  0.2621 -0.2230  0.1816
  671TMC3    C6 9982   1.808   3.625  14.519 -0.4300 -0.0346 -0.5426
  671TMC3     C 9983   1.622   3.875  14.238 -0.2782 -0.1840 -0.2887
  671TMC3     O 9984   1.501   3.864  14.234  0.1631 -0.4129  0.5690
  671TMC3     H 9985   1.886   3.877  14.323  1.1384 -0.9465 -1.5704
  671TMC3    H1 9986   1.500   3.728  14.421 -0.0242  0.3365  1.2495
  671TMC3    H2 9987   1.861   3.546  14.571 -1.1642 -0.2539 -0.1304
  671TMC3    C7 9988   1.626   3.500  14.469  0.3646 -0.0456  0.6685
  671TMC3    C8 9989   2.012   3.674  14.401  0.0161 -0.3662  0.1061
  671TMC3    O1 9990   1.717   3.420  14.440 -0.0382  0.6544 -0.3561
  671TMC3    O2 9991   2.019   3.679  14.277  0.2654 -0.1177 -0.4344
  672MPD2     C 9992   2.500   0.091   0.195  0.3603  0.6226  0.3248
  672MPD2    C1 9993   2.563   0.090   0.321  0.9195  1.0721  0.1237
  672MPD2    C2 9994   2.668   0.172   0.349  0.5979 -0.5466 -0.0796
  672MPD2    C3 9995   2.711   0.259   0.256  0.1809 -0.1880  0.1044
  672MPD2    C4 9996   2.652   0.259   0.131 -0.4107  1.4630  0.5132
  672MPD2    C5 9997   2.548   0.181   0.103 -0.0995 -0.6459 -0.4246
  672MPD2     H 9998   2.712   0.172   0.448  0.2834  0.1031  0.0553
  672MPD2    H1 9999   2.692   0.323   0.053 -1.7544 -1.8790 -2.9109
  672MPD2    H210000   2.418   0.024   0.174  3.2145 -2.5771 -0.6285
  672MPD2    H310001   2.508   0.186   0.002  2.0451  1.8352 -1.1681
  672MPD2     N10002   2.814   0.354   0.282 -0.3483  0.4321 -0.4505
  672MPD2    H510003   2.818   0.436   0.221  0.1216  0.1068 -0.8585
  672MPD2    N110004   2.521   0.003   0.429  0.0286  0.0594 -0.0742
  672MPD2    H710005   2.593   4.717   0.498  2.0895  1.4958 -1.7986
  673TMC3    C110006   2.379   4.616   0.570  0.4133  0.3471 -0.3267
  673TMC3    C210007   2.489   4.561   0.622 -1.1243 -0.8970  0.3255
  673TMC3    C310008   2.469   4.481   0.730  0.1462  0.0066 -0.6388
  673TMC3    C410009   2.255   4.607   0.628 -0.0417  0.5508 -0.6261
  673TMC3    C510010   2.242   4.539   0.751 -0.3417 -0.3616 -0.0997
  673TMC3    C610011   2.353   4.476   0.804 -0.3189 -0.2487  0.1852
  673TMC3     C10012   2.392   4.693   0.445 -0.8202  0.2513  0.8756
  673TMC3     O10013   2.290   4.723   0.389  0.9888  0.1461 -0.2639
  673TMC3     H10014   2.584   4.560   0.571 -1.1915 -1.5441  0.2182
  673TMC3    H110015   2.168   4.631   0.569 -1.5137  0.4161  1.4902
  673TMC3    H210016   2.341   4.421   0.897 -0.9826 -1.6756 -0.7458
  673TMC3    C710017   2.107   4.525   0.812 -0.2853  0.0412  0.1094
  673TMC3    C810018   2.550   4.365   0.754 -0.4630  0.0975  0.6370
  673TMC3    O110019   2.089   4.468   0.921  0.1223 -0.1635  0.1108
  673TMC3    O210020   2.491   4.272   0.805 -0.4104 -0.3904  0.5559
  674MPD2     C10021   1.969   4.502  17.158  0.2638  0.9310  0.7506
  674MPD2    C110022   2.001   4.448  17.273  0.9437 -0.1963  0.0172
  674MPD2    C210023   1.953   4.508  17.395 -0.0615 -0.7430  0.8709
  674MPD2    C310024   1.885   4.623  17.395 -0.5322 -0.2776 -0.3541
  674MPD2    C410025   1.852   4.673  17.267  0.3939 -0.0761  0.1334
  674MPD2    C510026   1.892   4.616  17.149  0.1680  0.1120  0.1947
  674MPD2     H10027   1.981   4.471  17.493  1.9566  0.3949  0.7201
  674MPD2    H110028   1.787   0.026  17.264  0.0345 -0.3364  0.5168
  674MPD2    H210029   1.988   4.451  17.064 -2.1021  0.7849  0.3442
  674MPD2    H310030   1.870   4.664  17.054 -2.7980  0.7716  1.2416
  674MPD2     N10031   1.834   4.679  17.511  0.3593  0.7149  0.3578
  674MPD2    H510032   1.866   4.627  17.592  0.7121  0.1164 -0.1715
  674MPD2    N110033   2.076   4.331  17.272 -0.4562  0.2128  0.3134
  674MPD2    H710034   2.101   4.294  17.181 -0.9808 -0.0721  0.2873
  675TMC3    C110035   2.227   4.166  17.371 -0.2246 -0.8582  0.3579
  675TMC3    C210036   2.241   4.060  17.462  0.2993  0.1959 -0.6471
  675TMC3    C310037   2.361   4.001  17.489  0.1201 -0.1909 -0.4790
  675TMC3    C410038   2.344   4.215  17.317  0.1773  0.1970  0.2965
  675TMC3    C510039   2.458   4.148  17.341  0.1904  0.4152  0.4988
  675TMC3    C610040   2.476   4.042  17.425 -0.3006  0.9622 -0.7152
  675TMC3     C10041   2.116   4.263  17.390  0.4092  0.6494 -0.2794
  675TMC3     O10042   2.079   4.262  17.507  0.1978  0.0885 -0.0374
  675TMC3     H10043   2.147   4.031  17.509 -0.0670 -0.1481 -1.5839
  675TMC3    H110044   2.333   4.283  17.233 -1.1408  0.6866  0.8568
  675TMC3    H210045   2.576   4.011  17.452  0.0481  1.2042 -1.6910
  675TMC3    C710046   2.579   4.194  17.280 -0.1291 -0.5100  0.4837
  675TMC3    C810047   2.370   3.890  17.581 -0.0502  0.3385  0.5681
  675TMC3    O110048   2.673   4.117  17.276 -0.1587 -0.0488 -0.3714
  675TMC3    O210049   2.477   3.821  17.589 -0.0831  0.6529  0.6583
  676MPD2     C10050   4.720   3.145  10.957 -0.2528 -0.3506 -0.2995
  676MPD2    C110051   0.016   3.058  11.056 -0.2881  0.8568  0.4116
  676MPD2    C210052   0.093   2.950  11.029 -0.1146  0.4497 -0.3006
  676MPD2    C310053   0.135   2.924  10.899 -0.0189  0.5982  0.4883
  676MPD2    C410054   0.107   3.010  10.799  1.0922  0.6903 -0.1141
  676MPD2    C510055   0.029   3.112  10.829 -0.9081 -0.7501  0.7309
  676MPD2     H10056   0.112   2.873  11.102 -1.8530 -1.8554 -2.2706
  676MPD2    H110057   0.130   2.983  10.697 -0.7552 -0.9490 -0.0852
  676MPD2    H210058   4.670   3.241  10.966 -0.6240 -0.4964 -0.7749
  676MPD2    H310059   0.016   3.182  10.748 -0.9796 -0.2416  1.1787
  676MPD2     N10060   0.199   2.799  10.857 -0.6136  0.6180 -0.8617
  676MPD2    H510061   0.195   2.780  10.757 -1.4001  2.9995 -1.2719
  676MPD2    N110062   4.722   3.089  11.194 -0.0896  0.0594 -0.2904
  676MPD2    H710063   4.728   3.014  11.262 -1.5877  1.3371  1.2679
  677TMC3    C110064   4.591   3.196  11.357  0.1222  0.3610 -0.4744
  677TMC3    C210065   4.523   3.078  11.379  0.2112 -0.2568 -0.1367
  677TMC3    C310066   4.417   3.074  11.461 -0.5114 -0.4076  0.7129
  677TMC3    C410067   4.551   3.310  11.425  0.0986  0.6461  0.8048
  677TMC3    C510068   4.442   3.303  11.503 -0.3905 -0.2780 -0.1433
  677TMC3    C610069   4.375   3.185  11.523  0.2832  0.4490 -0.0946
  677TMC3     C10070   4.664   3.207  11.235  0.4206  0.5141  0.0406
  677TMC3     O10071   4.645   3.310  11.172 -0.1191 -0.2362 -0.1136
  677TMC3     H10072   4.553   2.983  11.336 -0.7575  0.1100 -1.6438
  677TMC3    H110073   4.606   3.403  11.414  0.0302  0.3608 -1.9387
  677TMC3    H210074   4.291   3.174  11.590  1.4996  0.8234  1.5121
  677TMC3    C710075   4.437   3.386  11.626 -0.1084 -0.5257 -0.3263
  677TMC3    C810076   4.311   2.991  11.407 -0.0022 -0.3048 -0.0980
  677TMC3    O110077   4.343   3.367  11.700 -0.5508  0.7135  0.1137
  677TMC3    O210078   4.236   3.034  11.323 -0.1616 -0.1551  0.6500
  678MPD2     C10079   1.326   2.249   1.441  0.1990  0.4665  0.2503
  678MPD2    C110080   1.301   2.242   1.299  0.0488  0.0931  0.2257
  678MPD2    C210081   1.173   2.270   1.257  0.1367 -0.6640  0.0061
  678MPD2    C310082   1.072   2.289   1.347 -0.6208 -0.3647  0.4819
  678MPD2    C410083   1.102   2.277   1.487 -0.2973 -0.0305  0.1963
  678MPD2    C510084   1.229   2.246   1.536  0.1997  0.0003  0.4229
  678MPD2     H10085   1.147   2.269   1.152 -0.8512  0.4947  0.2382
  678MPD2    H110086   1.021   2.279   1.559 -0.3902 -0.9476  0.1180
  678MPD2    H210087   1.429   2.230   1.467 -0.4344 -0.6578  1.9384
  678MPD2    H310088   1.250   2.245   1.642  0.9843  0.7019  0.2755
  678MPD2     N10089   0.942   2.305   1.301 -0.4165 -0.1455  0.1403
  678MPD2    H510090   0.917   2.287   1.205  1.2507 -0.4609 -0.2329
  678MPD2    N110091   1.399   2.216   1.203 -0.2578  0.1608  0.7716
  678MPD2    H710092   1.362   2.194   1.111  1.1187  2.4147 -0.3348
  679TMC3    C110093   1.826   2.175   1.023  0.4102 -0.1533  0.2288
  679TMC3    C210094   1.734   2.140   1.116  0.3163  0.8495  0.4538
  679TMC3    C310095   1.608   2.186   1.101  0.3842 -0.0899 -0.4807
  679TMC3    C410096   1.788   2.241   0.908  0.1126  0.7970 -0.1625
  679TMC3    C510097   1.652   2.268   0.890 -0.0131 -0.8054 -0.3243
  679TMC3    C610098   1.563   2.237   0.982  0.1309  0.0532  0.0987
  679TMC3     C10099   1.961   2.117   1.040  1.0011 -0.7806  0.6106
  679TMC3     O10100   1.944   2.008   1.095  0.1862 -0.0242 -0.4519
  679TMC3     H10101   1.764   2.108   1.215 -0.9960  0.7987  0.8394
  679TMC3    H110102   1.859   2.288   0.841  0.7133 -1.5510 -1.1752
  679TMC3    H210103   1.463   2.278   0.968  0.5647 -0.1907 -3.8117
  679TMC3    C710104   1.616   2.328   0.761  0.2020  0.4435 -0.0605
  679TMC3    C810105   1.537   2.217   1.221  0.6669  0.7520  0.3181
  679TMC3    O110106   1.504   2.369   0.750  0.2853  0.1554 -0.0889
  679TMC3    O210107   1.601   2.252   1.321 -0.1517 -0.3661 -0.0625
  680MPD2     C10108   1.225   1.368  13.936  0.2000  0.0445 -0.6376
  680MPD2    C110109   1.318   1.322  14.026 -0.4273 -0.0634  0.4390
  680MPD2    C210110   1.419   1.412  14.074 -0.0434  0.5096 -0.2178
  680MPD2    C310111   1.431   1.542  14.023 -0.0068  0.5178  0.0909
  680MPD2    C410112   1.327   1.590  13.948  0.4954  0.0894 -0.5935
  680MPD2    C510113   1.226   1.506  13.907 -1.0282 -0.6470 -0.3850
  680MPD2     H10114   1.480   1.367  14.152 -1.4496  1.6592  1.5477
  680MPD2    H110115   1.333   1.692  13.914  2.3379 -0.2125 -1.2051
  680MPD2    H210116   1.152   1.301  13.891 -1.2281  0.8956  0.4100
  680MPD2    H310117   1.144   1.545  13.848  0.8537  1.9481 -1.2532
  680MPD2     N10118   1.531   1.638  14.061  0.5507  0.1815  0.4692
  680MPD2    H510119   1.528   1.730  14.018 -0.6972  0.8364  1.9609
  680MPD2    N110120   1.325   1.193  14.085 -0.3103 -0.0815 -0.6049
  680MPD2    H710121   1.395   1.176  14.156 -0.7730  1.5535  0.2310
  681TMC3    C110122   1.247   0.980  14.157  0.0317 -0.3249  0.1468
  681TMC3    C210123   1.269   1.027  14.284 -0.3736 -0.1192 -0.5724
  681TMC3    C310124   1.308   0.942  14.379 -0.5164  0.1782  0.4355
  681TMC3    C410125   1.303   0.860  14.119 -0.2311 -0.2047 -0.8304
  681TMC3    C510126   1.353   0.779  14.213 -0.3917  0.6318 -0.4457
  681TMC3    C610127   1.344   0.818  14.345 -0.6177  0.3039  0.0116
  681TMC3     C10128   1.246   1.083  14.053  0.0702 -0.6916  0.4280
  681TMC3     O10129   1.172   1.067  13.954 -0.0510  0.0176 -0.5635
  681TMC3     H10130   1.238   1.127  14.311  0.1464 -0.8870  2.8454
  681TMC3    H110131   1.302   0.826  14.016  0.4784 -0.2424 -0.8241
  681TMC3    H210132   1.360   0.748  14.426  0.5297  1.7920  1.0562
  681TMC3    C710133   1.462   0.699  14.182 -0.2198 -0.8016  0.1730
  681TMC3    C810134   1.322   0.991  14.513  0.2502  0.6635 -0.0434
  681TMC3    O110135   1.535   0.676  14.278 -0.3263  0.3323 -0.2919
  681TMC3    O210136   1.248   1.089  14.539  0.2351  0.6232 -0.0143
  682MPD2     C10137   3.953   3.330  11.512 -0.1681  0.2494 -0.1618
  682MPD2    C110138   3.951   3.196  11.490 -0.0610 -1.1459 -0.1008
  682MPD2    C210139   4.003   3.117  11.588  0.1162 -0.0142 -0.6767
  682MPD2    C310140   4.053   3.166  11.707 -0.4357 -0.0245 -0.0256
  682MPD2    C410141   4.045   3.301  11.728 -0.1993  0.3720 -0.5947
  682MPD2    C510142   4.000   3.382  11.627  0.0342 -0.3841 -0.1257
  682MPD2     H10143   4.009   3.010  11.567  1.2442  0.0965 -0.9214
  682MPD2    H110144   4.083   3.334  11.824 -2.3164  0.1905  0.2963
  682MPD2    H210145   3.926   3.404  11.438  0.2421  0.1630 -0.3988
  682MPD2    H310146   4.010   3.489  11.633  0.5068 -0.3372 -1.7616
  682MPD2     N10147   4.108   3.088  11.806  0.4610 -0.2266  0.0094
  682MPD2    H510148   4.151   3.140  11.882  0.7832 -0.7149  0.1588
  682MPD2    N110149   3.896   3.134  11.376 -0.3754 -0.2239  0.6272
  682MPD2    H710150   3.899   3.033  11.382 -0.6933 -0.1262  2.3702
  683TMC3    C110151   4.229   2.930  12.148  0.2950 -0.0265  0.5462
  683TMC3    C210152   4.303   2.813  12.149  0.7534 -0.0386  0.4802
  683TMC3    C310153   4.316   2.747  12.034  0.3405  0.6149 -0.2805
  683TMC3    C410154   4.168   2.983  12.034 -0.4528 -0.1299  0.1923
  683TMC3    C510155   4.177   2.901  11.925  0.1032 -0.6266 -0.0084
  683TMC3    C610156   4.260   2.794  11.920 -0.0575 -0.6203  0.6804
  683TMC3     C10157   4.239   3.021  12.265 -0.3831  0.2187 -0.1888
  683TMC3     O10158   4.301   2.983  12.365  0.2680  0.6989  0.3015
  683TMC3     H10159   4.347   2.773  12.240  0.7974 -1.4096 -0.1525
  683TMC3    H110160   4.110   3.074  12.024  3.0444  2.0968  0.3945
  683TMC3    H210161   4.284   2.752  11.823  0.2947  0.5587  0.2541
  683TMC3    C710162   4.133   2.955  11.798 -0.0195 -0.6045  0.5004
  683TMC3    C810163   4.378   2.617  12.039  0.0326  0.4637  0.6051
  683TMC3    O110164   4.117   2.872  11.712 -0.5496 -0.2970 -0.3396
  683TMC3    O210165   4.460   2.605  12.130 -0.3578  0.3835 -0.3421
  684MPD2     C10166   2.129   2.000  16.580 -0.0654 -0.5674 -0.2609
  684MPD2    C110167   2.135   2.026  16.443  0.4276 -0.4836 -0.3649
  684MPD2    C210168   2.166   2.150  16.398  0.0163 -0.1792 -1.2771
  684MPD2    C310169   2.193   2.256  16.482 -0.5859  0.6689 -0.2501
  684MPD2    C410170   2.191   2.228  16.620  0.4820  0.1507  0.4833
  684MPD2    C510171   2.151   2.106  16.667 -0.0537 -0.3281 -0.3684
  684MPD2     H10172   2.169   2.164  16.291  0.8060  0.5174 -1.1701
  684MPD2    H110173   2.200   2.296  16.705  1.1680 -0.3571  0.8186
  684MPD2    H210174   2.131   1.900  16.622 -0.1756 -0.3810  0.1896
  684MPD2    H310175   2.161   2.080  16.771  0.4089 -0.0938 -0.3522
  684MPD2     N10176   2.244   2.382  16.443  0.3507 -0.3252 -0.0241
  684MPD2    H510177   2.260   2.447  16.519 -1.6638 -2.2992  2.0811
  684MPD2    N110178   2.109   1.934  16.338  0.1258  0.5787 -0.0828
  684MPD2    H710179   2.080   1.964  16.246 -2.2891  0.1581  0.5264
  685TMC3    C110180   2.070   1.713  16.248  0.0823 -0.3189 -0.1307
  685TMC3    C210181   1.993   1.780  16.160  0.3752  0.6068 -0.1210
  685TMC3    C310182   2.009   1.750  16.028 -0.4950 -0.7679 -0.1215
  685TMC3    C410183   2.150   1.611  16.215 -0.1257 -0.6340 -0.0160
  685TMC3    C510184   2.175   1.589  16.080  0.5780 -0.2678  0.1190
  685TMC3    C610185   2.106   1.656  15.986 -0.2135 -0.9021 -0.3336
  685TMC3     C10186   2.106   1.794  16.360  1.0890  0.1410  0.0157
  685TMC3     O10187   2.141   1.733  16.458 -0.3959 -0.1819  0.5731
  685TMC3     H10188   1.916   1.840  16.208 -0.3110 -1.1223  0.9305
  685TMC3    H110189   2.209   1.562  16.292 -0.5149  0.2640  0.8443
  685TMC3    H210190   2.121   1.636  15.880 -2.9686 -1.0967 -0.6820
  685TMC3    C710191   2.324   1.586  16.066  0.8838 -0.7471 -0.3827
  685TMC3    C810192   1.909   1.789  15.934  0.2097 -0.0657  0.3780
  685TMC3    O110193   2.387   1.508  16.132  0.0068 -0.2501  0.0193
  685TMC3    O210194   1.904   1.737  15.821  0.7769 -0.6439  0.0218
  686MPD2     C10195   3.177   2.546  15.875 -0.2659 -0.5302  0.1662
  686MPD2    C110196   3.264   2.465  15.950 -0.2524 -0.2066 -0.5636
  686MPD2    C210197   3.393   2.511  15.978 -0.2192  0.3264  0.7521
  686MPD2    C310198   3.434   2.629  15.908 -0.0354  0.2488  0.5109
  686MPD2    C410199   3.346   2.698  15.823 -0.1781 -0.4463 -0.6076
  686MPD2    C510200   3.212   2.663  15.816  0.2481  0.4084  0.4962
  686MPD2     H10201   3.467   2.457  16.037  1.1204  2.1720  0.7700
  686MPD2    H110202   3.381   2.785  15.769  0.3869  0.1016  0.6385
  686MPD2    H210203   3.074   2.514  15.866 -0.7766  0.5087  2.2521
  686MPD2    H310204   3.145   2.711  15.746  1.0661  1.3936  0.3861
  686MPD2     N10205   3.572   2.674  15.908 -0.0383  0.2048 -0.4972
  686MPD2    H510206   3.591   2.766  15.871  2.2238  0.0036  0.2073
  686MPD2    N110207   3.222   2.336  15.987  0.7285  0.0180  0.1596
  686MPD2    H710208   3.134   2.300  15.951  2.0865  0.4041 -3.5123
  687TMC3    C110209   3.796   2.631  15.931 -0.3067  0.3214 -0.0595
  687TMC3    C210210   3.785   2.641  15.792 -0.1626  0.0224  0.3958
  687TMC3    C310211   3.856   2.551  15.712 -0.1159  0.7143  0.1493
  687TMC3    C410212   3.890   2.544  15.976  0.0065 -0.5023 -0.2309
  687TMC3    C510213   3.961   2.461  15.897 -0.2727  0.2096  0.9572
  687TMC3    C610214   3.950   2.474  15.765 -0.4186  0.1410 -0.5408
  687TMC3     C10215   3.671   2.620  15.992 -0.7150  0.3570 -0.0030
  687TMC3     O10216   3.669   2.553  16.096 -0.0070 -0.1654 -0.4634
  687TMC3     H10217   3.731   2.723  15.745 -0.5482 -0.0884  0.6384
  687TMC3    H110218   3.914   2.540  16.081 -1.1737  0.4067  0.0817
  687TMC3    H210219   4.001   2.409  15.696  1.0937  1.0777 -0.3090
  687TMC3    C710220   4.035   2.349  15.951  0.6613  0.9932 -0.1073
  687TMC3    C810221   3.787   2.503  15.587  0.3291 -0.3883 -0.0284
  687TMC3    O110222   3.990   2.299  16.054 -0.1775 -0.5269 -0.4429
  687TMC3    O210223   3.831   2.408  15.525  0.2567 -0.1998 -0.3458
  688MPD2     C10224   2.539   1.078  17.436 -0.1710 -0.0440  0.2318
  688MPD2    C110225   2.573   0.947  17.440  0.0652 -0.2356  0.2493
  688MPD2    C210226   2.679   0.898  17.367  0.0366 -0.2581 -0.7796
  688MPD2    C310227   2.759   0.980  17.289 -0.4608 -0.0444 -0.3598
  688MPD2    C410228   2.724   1.113  17.288 -0.2358  0.2436 -0.1983
  688MPD2    C510229   2.619   1.157  17.358  0.0264  0.0125 -0.2083
  688MPD2     H10230   2.702   0.793  17.369 -1.0582 -0.5030 -1.1409
  688MPD2    H110231   2.765   1.187  17.221 -0.8121 -1.3110 -2.2581
  688MPD2    H210232   2.446   1.113  17.481  0.5148  1.2388  0.6575
  688MPD2    H310233   2.592   1.262  17.355 -0.1980 -0.0000  1.5074
  688MPD2     N10234   2.857   0.946  17.199 -0.2152 -0.6793 -0.3600
  688MPD2    H510235   2.900   1.027  17.155 -0.9750 -0.9505 -1.6118
  688MPD2    N110236   2.496   0.864  17.523  0.1139  0.2790 -0.7709
  688MPD2    H710237   2.423   0.917  17.570 -0.5610 -1.7474  0.4689
  689TMC3    C110238   2.388   0.670  17.603 -0.0980  0.0004 -0.1862
  689TMC3    C210239   2.311   0.741  17.687 -0.1414 -0.6829  0.0998
  689TMC3    C310240   2.212   0.670   0.011  0.1382 -0.0295  0.0732
  689TMC3    C410241   2.363   0.541  17.576 -0.3038  0.5693 -0.2684
  689TMC3    C510242   2.258   0.476  17.639 -0.6555  0.7704 -0.5629
  689TMC3    C610243   2.176   0.540  17.727 -0.8997 -0.2359 -0.1716
  689TMC3     C10244   2.495   0.725  17.520 -0.4445  0.8262  0.8005
  689TMC3     O10245   2.567   0.653  17.454  0.3937  0.2030  0.4295
  689TMC3     H10246   2.323   0.846  17.709 -1.8636  0.1826 -3.0684
  689TMC3    H110247   2.425   0.493  17.502  0.7155  0.5833  0.5652
  689TMC3    H210248   2.097   0.487   0.043 -1.4605 -0.5409 -1.3426
  689TMC3    C710249   2.247   0.333  17.636  0.0773 -0.3817  0.5413
  689TMC3    C810250   2.172   0.727   0.135  0.4280  0.7984 -0.1698
  689TMC3    O110251   2.234   0.279   0.009  0.0728 -0.9442  0.5705
  689TMC3    O210252   2.246   0.806   0.195  0.5284 -0.2302 -0.3929
  690MPD2     C10253   0.487   2.678  15.860  0.0153  0.2345 -0.4246
  690MPD2    C110254   0.456   2.658  15.724  0.0919 -0.1363 -0.2608
  690MPD2    C210255   0.552   2.664  15.631 -0.7265 -0.8586 -0.1277
  690MPD2    C310256   0.671   2.720  15.663 -0.3167  0.9585  0.4298
  690MPD2    C410257   0.706   2.745  15.795  0.0106  0.8327 -0.2441
  690MPD2    C510258   0.614   2.718  15.897  0.4382  0.2244  0.8198
  690MPD2     H10259   0.527   2.642  15.528  1.7596 -0.0560 -0.8925
  690MPD2    H110260   0.793   2.803  15.822  0.6757  0.7099 -2.1984
  690MPD2    H210261   0.412   2.665  15.937 -1.9552  0.0328 -2.3484
  690MPD2    H310262   0.628   2.745  16.001 -0.4472 -0.2612  1.0665
  690MPD2     N10263   0.764   2.759  15.565 -0.1856 -0.9440 -0.4668
  690MPD2    H510264   0.735   2.755  15.467 -0.4592 -1.0321 -0.3839
  690MPD2    N110265   0.334   2.596  15.688  0.7594 -0.2588  0.0742
  690MPD2    H710266   0.339   2.537  15.605 -0.4780 -0.2274 -0.0250
  691TMC3    C110267   0.142   2.475  15.703 -0.0802  0.4199  0.4093
  691TMC3    C210268   0.007   2.508  15.705 -0.2287  1.0980  0.5284
  691TMC3    C310269   4.654   2.405  15.666 -0.8082 -1.2566 -0.1540
  691TMC3    C410270   0.201   2.355  15.665  0.0854 -0.1726 -0.8786
  691TMC3    C510271   0.112   2.260  15.636  0.7526  0.2520 -0.1936
  691TMC3    C610272   4.709   2.281  15.636 -0.2218  0.8823  0.7121
  691TMC3     C10273   0.229   2.572  15.765 -0.4930  0.2614 -0.6727
  691TMC3     O10274   0.200   2.610  15.880  0.7634  0.9233 -0.3306
  691TMC3     H10275   4.716   2.608  15.738 -1.5504  0.4727  1.4063
  691TMC3    H110276   0.305   2.328  15.678  0.8113  2.8538 -0.5723
  691TMC3    H210277   4.634   2.211  15.600 -2.0036  2.6100  1.0624
  691TMC3    C710278   0.156   2.127  15.672 -0.2627 -0.3841  0.7771
  691TMC3    C810279   4.523   2.437  15.615 -0.1070 -0.1855 -0.1364
  691TMC3    O110280   0.270   2.114  15.712  0.3560 -0.4094  0.1738
  691TMC3    O210281   4.468   2.358  15.539 -0.7106  0.7052 -0.4802
  692TMC3    C110282   1.987   3.692  16.216  0.0599 -0.0737  0.2303
  692TMC3    C210283   2.075   3.728  16.312 -0.3742  0.1713 -0.8719
  692TMC3    C310284   2.206   3.674  16.309  0.2183  0.0364 -0.3550
  692TMC3    C410285   2.019   3.615  16.111 -0.1993 -0.6207 -0.4100
  692TMC3    C510286   2.150   3.573  16.107 -0.5882  0.4387 -0.0325
  692TMC3    C610287   2.241   3.603  16.205 -0.8352 -0.0478  0.0364
  692TMC3     C10288   1.860   3.765  16.225 -0.8833 -0.5369  0.2750
  692TMC3     O10289   1.755   3.701  16.205  0.6846 -0.4083  0.5826
  692TMC3     H10290   2.027   3.774  16.398  0.2937 -0.9828  0.1239
  692TMC3    H110291   1.962   3.604  16.020 -1.9454 -0.9068  0.7107
  692TMC3    H210292   2.338   3.555  16.201  0.2452  2.0092  1.8711
  692TMC3    C710293   2.192   3.494  15.996 -0.0274 -0.3543  1.0083
  692TMC3    C810294   2.245   3.608  16.431 -0.5442  0.3745  0.3088
  692TMC3    O110295   2.159   3.526  15.884 -0.6937 -0.6385 -0.1016
  692TMC3    O210296   2.320   3.509  16.424 -1.0016  0.3533 -0.0957
  693MPD2     C10297   1.334   1.831  10.850  0.3767  0.5215  0.6038
  693MPD2    C110298   1.278   1.711  10.815  0.1149  0.6586  0.3428
  693MPD2    C210299   1.347   1.598  10.852 -0.4032 -0.0779 -0.4531
  693MPD2    C310300   1.465   1.604  10.919  0.0470  0.6238  0.4687
  693MPD2    C410301   1.518   1.724  10.950 -0.0493 -0.0352  0.0780
  693MPD2    C510302   1.452   1.837  10.915  0.0387 -0.8106  0.0204
  693MPD2     H10303   1.309   1.501  10.820  2.0868 -0.7221 -1.4718
  693MPD2    H110304   1.615   1.733  10.998  0.0172  2.2556 -0.4894
  693MPD2    H210305   1.291   1.929  10.832 -1.7445 -0.1805  1.8134
  693MPD2    H310306   1.496   1.936  10.927 -0.1540 -0.4068 -2.4373
  693MPD2     N10307   1.532   1.488  10.965  0.2339  0.1523 -0.1533
  693MPD2    H510308   1.609   1.501  11.030  0.8127 -0.1308 -0.7892
  693MPD2    N110309   1.153   1.726  10.747 -0.5625  0.4700  0.6845
  693MPD2    H710310   1.131   1.821  10.720 -0.8573  0.5450  1.1886
  694TMC3    C110311   0.935   1.648  10.696 -0.7831 -0.3787 -0.7752
  694TMC3    C210312   0.884   1.538  10.635  0.5696 -0.5834  0.8193
  694TMC3    C310313   0.746   1.522  10.650  0.0597  0.8570  0.0355
  694TMC3    C410314   0.870   1.737  10.772 -0.6415 -0.2348  0.0465
  694TMC3    C510315   0.742   1.711  10.802  0.3990 -0.0629  0.1304
  694TMC3    C610316   0.678   1.600  10.743  0.5760  0.4044 -0.2981
  694TMC3     C10317   1.072   1.616  10.728 -0.2037  0.1726  0.3953
  694TMC3     O10318   1.097   1.492  10.736  0.3548  0.4162 -0.0924
  694TMC3     H10319   0.938   1.473  10.567 -1.0683 -0.4562 -0.5782
  694TMC3    H110320   0.924   1.814  10.824 -2.1131  0.6021  0.3393
  694TMC3    H210321   0.572   1.580  10.753  0.4483  0.2475 -1.9941
  694TMC3    C710322   0.716   1.707  10.945 -0.1268 -0.0259 -0.2750
  694TMC3    C810323   0.696   1.384  10.662  0.7387 -0.5486 -0.0035
  694TMC3    O110324   0.641   1.618  10.982 -0.2605  0.4353  0.0397
  694TMC3    O210325   0.577   1.357  10.672  0.0519  0.2287  0.0765
  695MPD2     C10326   2.201   3.216  13.464  0.4970 -0.3017  0.0677
  695MPD2    C110327   2.180   3.235  13.597  0.6197  0.6605  0.6679
  695MPD2    C210328   2.050   3.231  13.648 -0.9853  0.3389  0.5200
  695MPD2    C310329   1.945   3.208  13.564 -0.1233  0.5732 -0.9654
  695MPD2    C410330   1.972   3.171  13.436  0.1533 -0.2347  0.8170
  695MPD2    C510331   2.099   3.165  13.386 -0.4731 -0.2746  0.6584
  695MPD2     H10332   2.033   3.238  13.755 -2.6018 -0.9112  0.3473
  695MPD2    H110333   1.899   3.137  13.364  1.3683  0.8313 -0.9384
  695MPD2    H210334   2.297   3.219  13.413  0.6919 -0.3376  0.4328
  695MPD2    H310335   2.120   3.129  13.286  0.4395 -1.1079  1.1491
  695MPD2     N10336   1.821   3.232  13.620  0.5873 -0.6173  0.2522
  695MPD2    H510337   1.818   3.254  13.719  1.4814 -1.8187  0.5495
  695MPD2    N110338   2.282   3.261  13.692  0.7871 -0.0924  0.2515
  695MPD2    H710339   2.259   3.293  13.785 -1.5440 -0.9882 -0.0062
  696TMC3    C110340   1.596   3.284  13.643 -0.7567  0.1339 -1.0497
  696TMC3    C210341   1.605   3.245  13.779 -0.3780  0.0145  0.0667
  696TMC3    C310342   1.505   3.292  13.865  0.1445 -0.1467  0.2242
  696TMC3    C410343   1.506   3.381  13.607  0.6008  0.4510 -0.2229
  696TMC3    C510344   1.418   3.423  13.699  0.2717  0.1111 -0.2582
  696TMC3    C610345   1.406   3.381  13.829  0.4392  0.6953  0.0529
  696TMC3     C10346   1.706   3.252  13.551  0.5724  0.4214 -0.9977
  696TMC3     O10347   1.687   3.264  13.430 -0.7046 -0.6760 -0.2434
  696TMC3     H10348   1.685   3.178  13.809 -0.6909 -0.7487 -0.8223
  696TMC3    H110349   1.510   3.422  13.507 -1.1319  2.4315  0.5096
  696TMC3    H210350   1.319   3.409  13.889 -1.4268 -3.5651 -0.7049
  696TMC3    C710351   1.324   3.528  13.655 -1.3555  0.5683  0.0937
  696TMC3    C810352   1.510   3.263  14.009 -0.0928  0.3716  0.3529
  696TMC3    O110353   1.296   3.537  13.534  0.0876 -0.2110  0.2769
  696TMC3    O210354   1.616   3.251  14.062  0.0132 -0.3902  0.2749
  697MPD2     C10355   0.806   0.661  15.756 -0.0007 -0.4036  0.6377
  697MPD2    C110356   0.896   0.612  15.668 -0.1069  0.8679  0.3797
  697MPD2    C210357   0.934   0.684  15.559 -0.5912 -0.9397  0.3162
  697MPD2    C310358   0.876   0.807  15.538 -0.2048  0.3384  0.5529
  697MPD2    C410359   0.796   0.858  15.634  0.1975  0.5038  0.5334
  697MPD2    C510360   0.743   0.781  15.741  0.1557  0.3382 -0.0581
  697MPD2     H10361   1.009   0.642  15.493 -1.8886  0.8116 -2.2678
  697MPD2    H110362   0.765   0.962  15.623  0.5236  0.5272 -0.1634
  697MPD2    H210363   0.767   0.607  15.842 -0.4051  0.6694  1.1386
  697MPD2    H310364   0.671   0.822  15.811 -1.1250 -1.3512 -0.3925
  697MPD2     N10365   0.938   0.883  15.435  0.0497  0.1300  0.1092
  697MPD2    H510366   1.009   0.835  15.381  0.8871  2.0479 -0.4926
  697MPD2    N110367   0.965   0.490  15.692  0.3266  0.3338 -0.4321
  697MPD2    H710368   1.012   0.447  15.613 -0.0145 -0.1475 -0.3761
  698TMC3    C110369   1.016   1.067  15.319  0.4697  0.1449 -0.1299
  698TMC3    C210370   1.100   1.168  15.358 -0.1780  1.0221  0.5698
  698TMC3    C310371   1.224   1.171  15.302  0.2121 -0.2947 -0.1853
  698TMC3    C410372   1.036   0.997  15.200  0.0890 -0.0240 -0.0940
  698TMC3    C510373   1.155   1.022  15.139 -0.2190  0.6049 -0.2657
  698TMC3    C610374   1.247   1.111  15.183  0.0411  0.0752 -0.0981
  698TMC3     C10375   0.922   1.019  15.416 -0.3892  0.2528 -0.4803
  698TMC3     O10376   0.849   1.102  15.465  0.2750 -0.3472  0.0755
  698TMC3     H10377   1.077   1.212  15.455 -3.5924 -2.3385  1.3012
  698TMC3    H110378   0.962   0.926  15.165  1.1017 -1.0326 -0.1960
  698TMC3    H210379   1.340   1.110  15.126  0.3588 -1.1780  0.4305
  698TMC3    C710380   1.167   0.955  15.010  0.4794 -0.1979  0.2931
  698TMC3    C810381   1.299   1.290  15.329 -0.2819 -0.3004 -0.0577
  698TMC3    O110382   1.064   0.959  14.942  0.1757 -1.0045  0.1959
  698TMC3    O210383   1.235   1.379  15.383 -0.2150  0.5546  0.5910
  699TMC3    C110384   1.452   3.219  13.171  0.2746 -0.0444 -0.2165
  699TMC3    C210385   1.499   3.122  13.258  0.7332 -0.0037 -0.0824
  699TMC3    C310386   1.411   3.060  13.341  0.3278 -0.2176  0.3053
  699TMC3    C410387   1.322   3.245  13.160 -0.0001  0.1973  0.1675
  699TMC3    C510388   1.235   3.187  13.249 -0.4484 -0.0910 -0.0580
  699TMC3    C610389   1.273   3.089  13.334  0.0836 -0.4677 -0.6946
  699TMC3     C10390   1.542   3.283  13.074 -0.4080  0.1987 -0.3651
  699TMC3     O10391   1.491   3.350  12.985  0.2077  0.2608 -0.0356
  699TMC3     H10392   1.605   3.107  13.275  1.0596  1.0589 -1.2019
  699TMC3    H110393   1.288   3.329  13.101 -0.5716 -1.9722 -2.5782
  699TMC3    H210394   1.201   3.044  13.403 -0.3513 -0.3890 -1.0946
  699TMC3    C710395   1.108   3.251  13.280  0.1260  0.1369  0.0384
  699TMC3    C810396   1.458   3.010  13.470  0.0586  0.8178  0.4009
  699TMC3    O110397   1.079   3.254  13.397 -0.3030  0.1388  0.6600
  699TMC3    O210398   1.387   3.022  13.569 -0.0027 -0.2348  0.2833
  700TMC3    C110399   0.605   0.956  17.241 -0.2352 -0.5296 -0.7009
  700TMC3    C210400   0.688   0.855  17.193 -0.8966 -0.7143 -0.2939
  700TMC3    C310401   0.792   0.814  17.267 -0.0937 -0.6738  0.1267
  700TMC3    C410402   0.626   1.011  17.362  0.1592 -0.1355  0.7570
  700TMC3    C510403   0.743   0.972  17.421 -0.0457 -0.1841  0.1931
  700TMC3    C610404   0.823   0.873  17.386 -0.3697 -0.6866 -0.2437
  700TMC3     C10405   0.567   1.054  17.144 -0.0529 -0.1056  1.1276
  700TMC3     O10406   0.445   1.076  17.141 -0.2698  0.1507  0.0996
  700TMC3     H10407   0.673   0.813  17.094 -0.9148 -1.5359  0.0557
  700TMC3    H110408   0.560   1.093  17.387  0.7969  0.9860 -1.2224
  700TMC3    H210409   0.913   0.860  17.444 -0.9351  0.3114  0.8573
  700TMC3    C710410   0.822   1.087  17.483  0.0366  0.2016 -0.0370
  700TMC3    C810411   0.889   0.722  17.196 -0.4340  0.3391 -0.1705
  700TMC3    O110412   0.918   1.069  17.552  0.1083  0.6287  0.2427
  700TMC3    O210413   0.862   0.687  17.084 -0.0735  0.0153  0.3227
  701TMC3    C110414   0.364   4.658  16.056 -0.2475  0.1249 -0.0034
  701TMC3    C210415   0.322   4.674  15.925  0.3059 -0.2402 -0.4283
  701TMC3    C310416   0.287   0.066  15.884 -0.5682  0.3334 -0.4078
  701TMC3    C410417   0.387   0.032  16.140  0.3334 -0.4859 -0.7094
  701TMC3    C510418   0.360   0.155  16.093  0.3455  0.6978  0.4815
  701TMC3    C610419   0.308   0.177  15.964 -0.1169  0.0924  0.2625
  701TMC3     C10420   0.364   4.524  16.115  0.3124  0.0846 -0.1169
  701TMC3     O10421   0.353   4.515  16.238  0.5060 -0.6503 -0.1309
  701TMC3     H10422   0.306   4.583  15.868 -1.0274 -0.6579  0.6232
  701TMC3    H110423   0.408   0.014  16.245 -1.4585 -0.3887 -0.3386
  701TMC3    H210424   0.259   0.270  15.937 -1.0767 -0.7616 -0.9262
  701TMC3    C710425   0.373   0.276  16.178  0.1512 -0.0350 -0.0672
  701TMC3    C810426   0.290   0.098  15.740  0.2616 -0.4400  0.1616
  701TMC3    O110427   0.334   0.380  16.128 -0.3078  0.2324 -0.1664
  701TMC3    O210428   0.276   0.214  15.712  0.5215  0.0284 -0.1290
  702MPD2     C10429   0.279   2.442  10.223 -0.0134 -0.6397 -0.2382
  702MPD2    C110430   0.277   2.551  10.312  0.5505  1.1990  0.3174
  702MPD2    C210431   0.287   2.682  10.262 -0.4698 -0.0052  0.2154
  702MPD2    C310432   0.298   2.697  10.123 -0.4217 -0.3835  0.2178
  702MPD2    C410433   0.299   2.587  10.035  0.6761  0.1362 -0.7682
  702MPD2    C510434   0.291   2.463  10.088  0.5749 -0.4424 -0.6445
  702MPD2     H10435   0.287   2.769  10.327  1.0721  1.6852 -2.0884
  702MPD2    H110436   0.297   2.598   9.927 -1.4041  0.5124 -0.6911
  702MPD2    H210437   0.262   2.340  10.257 -1.3170 -0.1649  0.5277
  702MPD2    H310438   0.289   2.384  10.013 -1.3355 -0.6066 -0.4373
  702MPD2     N10439   0.317   2.826  10.080  0.0092  0.4233  0.2428
  702MPD2    H510440   0.302   2.899  10.150  2.2978 -0.4123  1.5818
  702MPD2    N110441   0.272   2.538  10.454 -0.0384 -0.5652  0.5940
  702MPD2    H710442   0.258   2.621  10.510 -1.4096 -0.1711 -0.3262
  703TMC3    C110443   0.332   3.017   9.946  0.2919  0.0108 -0.4476
  703TMC3    C210444   0.222   3.078   9.999  0.0769 -0.4275  0.5562
  703TMC3    C310445   0.225   3.210  10.004  0.0211  0.0700  0.0349
  703TMC3    C410446   0.453   3.076   9.942  0.5734 -0.0172  0.6291
  703TMC3    C510447   0.455   3.206   9.982 -0.0607 -0.0500  0.9419
  703TMC3    C610448   0.342   3.279  10.002 -0.6270  0.1419  0.0021
  703TMC3     C10449   0.341   2.868   9.954 -0.6929  0.5824  0.4864
  703TMC3     O10450   0.393   2.807   9.864 -0.0265  0.3784 -0.3746
  703TMC3     H10451   0.129   3.027  10.022 -0.4168  0.5689  0.7926
  703TMC3    H110452   0.539   3.010   9.945  0.0067 -0.6431  3.7608
  703TMC3    H210453   0.343   3.386  10.021 -1.1320  0.3960 -1.4102
  703TMC3    C710454   0.579   3.278   9.993  0.1360 -0.4744  0.5610
  703TMC3    C810455   0.110   3.291  10.051 -0.1784  0.2266  0.0902
  703TMC3    O110456   0.568   3.382  10.057 -0.0849  0.0289 -0.3262
  703TMC3    O210457   0.112   3.409  10.019  0.3159  0.5855 -0.0908
  704TMC3    C110458   2.454   0.449  12.562 -0.1948  0.5008 -0.4729
  704TMC3    C210459   2.537   0.435  12.449  1.0782 -0.0902 -0.3609
  704TMC3    C310460   2.645   0.351  12.457 -0.3868 -0.2521  0.7593
  704TMC3    C410461   2.471   0.372  12.669  0.8332 -0.0564 -0.1784
  704TMC3    C510462   2.586   0.304  12.674  0.0752  0.5007 -0.3437
  704TMC3    C610463   2.677   0.289  12.577  0.2015 -0.1006 -0.3163
  704TMC3     C10464   2.333   0.519  12.547 -0.3336 -0.4571 -0.2659
  704TMC3     O10465   2.277   0.552  12.649 -0.1850  0.2157 -0.1256
  704TMC3     H10466   2.516   0.479  12.353 -1.1688  1.8818  1.0340
  704TMC3    H110467   2.411   0.380  12.759  0.4681  0.8139 -0.4937
  704TMC3    H210468   2.765   0.231  12.598  0.4719 -0.4155 -2.2953
  704TMC3    C710469   2.620   0.243  12.805 -0.0647 -0.2543 -0.4285
  704TMC3    C810470   2.723   0.320  12.341  0.2105 -0.4041  0.3042
  704TMC3    O110471   2.534   0.185  12.872 -0.4693  0.0740 -0.3281
  704TMC3    O210472   2.722   0.400  12.251  0.6083  0.0715 -0.0453
  705MPD2     C10473   2.452   3.124  16.814 -0.7938 -0.0530  1.0393
  705MPD2    C110474   2.382   3.128  16.694  0.0945  0.2075 -0.3277
  705MPD2    C210475   2.244   3.113  16.694  0.1704  0.0419 -0.6178
  705MPD2    C310476   2.167   3.104  16.813 -0.4670 -0.0777  0.3628
  705MPD2    C410477   2.241   3.110  16.931 -0.5536  0.1016 -0.6163
  705MPD2    C510478   2.381   3.104  16.930 -0.0779 -0.1183 -0.0535
  705MPD2     H10479   2.198   3.101  16.597 -0.8928 -0.8722  0.0010
  705MPD2    H110480   2.195   3.101  17.029  3.1217 -0.6863  1.0524
  705MPD2    H210481   2.559   3.138  16.817 -0.9908  1.6236  0.2210
  705MPD2    H310482   2.434   3.115  17.024 -0.4198  3.6574 -0.3148
  705MPD2     N10483   2.024   3.080  16.821  0.2628 -0.5420 -0.2885
  705MPD2    H510484   1.990   3.088  16.917  4.3368  3.3202  0.8619
  705MPD2    N110485   2.443   3.157  16.570 -0.5901 -0.0922  0.1835
  705MPD2    H710486   2.380   3.140  16.492 -0.5348  0.2154  0.0707
  706TMC3    C110487   2.637   3.226  16.202 -0.3771  0.6771 -0.4337
  706TMC3    C210488   2.660   3.359  16.176 -0.7081 -0.7447 -1.0951
  706TMC3    C310489   2.646   3.446  16.280 -0.4220 -0.5982  0.0442
  706TMC3    C410490   2.584   3.178  16.314 -0.0274  0.4367 -0.2275
  706TMC3    C510491   2.569   3.269  16.415 -0.6264 -0.2935 -0.3706
  706TMC3    C610492   2.608   3.401  16.405 -0.3421  0.5213  0.4205
  706TMC3     C10493   2.684   3.127  16.110 -0.7437 -0.3814 -0.4350
  706TMC3     O10494   2.706   3.016  16.154  0.2492  0.2333  0.2424
  706TMC3     H10495   2.697   3.398  16.082  2.7819 -0.8205  0.2395
  706TMC3    H110496   2.579   3.070  16.320  2.0306  0.3875  0.7777
  706TMC3    H210497   2.576   3.469  16.483 -0.5167  0.0347  0.7718
  706TMC3    C710498   2.565   3.213  16.548 -0.5513  0.2366 -0.7154
  706TMC3    C810499   2.619   3.586  16.240 -0.2418 -0.3567  0.2398
  706TMC3    O110500   2.626   3.281  16.634  0.6034 -0.2121 -0.2270
  706TMC3    O210501   2.568   3.603  16.127 -0.2456 -0.0436 -0.1528
  707TMC3    C110502   3.352   1.361   1.693  0.5613 -0.4929 -0.6956
  707TMC3    C210503   3.383   1.229   1.664  0.1752  0.4798  0.0782
  707TMC3    C310504   3.276   1.143   1.695 -0.1610 -0.0039  0.2408
  707TMC3    C410505   3.241   1.409   1.754  0.4998 -0.0422 -0.6612
  707TMC3    C510506   3.139   1.315   1.765  0.1417 -0.0825 -0.1161
  707TMC3    C610507   3.155   1.184   1.738  0.3526 -0.0619  0.3763
  707TMC3     C10508   3.465   1.450   1.671  0.4974 -0.1182  1.2067
  707TMC3     O10509   3.529   1.422   1.573 -0.8528  1.1189  0.2144
  707TMC3     H10510   3.480   1.199   1.624  0.4154  0.4846  0.6652
  707TMC3    H110511   3.224   1.516   1.749 -1.6627 -0.3475  0.0096
  707TMC3    H210512   3.087   1.107   1.774  0.1507  0.3807  0.9441
  707TMC3    C710513   3.004   1.355   1.806  0.3754  0.3058 -0.5951
  707TMC3    C810514   3.295   1.006   1.649  1.0697 -0.1870  0.2928
  707TMC3    O110515   2.925   1.263   1.839 -0.3704 -0.0665 -0.2653
  707TMC3    O210516   3.195   0.936   1.649  0.5353 -0.4720  0.1896
  708MPD2     C10517   0.043   1.356  13.401 -0.0328  0.2237  0.6746
  708MPD2    C110518   4.687   1.371  13.504 -0.5888  1.2213  0.7515
  708MPD2    C210519   0.003   1.379  13.633 -0.5597 -0.3674  1.0759
  708MPD2    C310520   0.142   1.363  13.654 -0.1022 -0.1768  0.2723
  708MPD2    C410521   0.228   1.339  13.554 -0.5289 -0.6005 -0.3270
  708MPD2    C510522   0.181   1.340  13.428  0.4603 -0.3344  0.5102
  708MPD2     H10523   4.666   1.383  13.714 -1.4530  0.1666  0.2668
  708MPD2    H110524   0.335   1.318  13.557 -0.5202 -0.5156 -0.0391
  708MPD2    H210525   0.011   1.362  13.298 -2.4377  5.2846  1.7032
  708MPD2    H310526   0.247   1.319  13.345 -1.2287  0.4260 -1.0118
  708MPD2     N10527   0.180   1.354  13.787  0.5224 -0.2182  0.5721
  708MPD2    H510528   0.109   1.377  13.856  0.4290 -0.3433  0.5184
  708MPD2    N110529   4.550   1.384  13.472  0.5149 -0.0904 -1.0215
  708MPD2    H710530   4.519   1.387  13.375  0.2634 -2.2198 -1.0262
  709TMC3    C110531   4.317   1.425  13.524 -0.6445  0.5025  0.5990
  709TMC3    C210532   4.286   1.326  13.437  0.3259 -0.1380 -0.0371
  709TMC3    C310533   4.169   1.251  13.460  0.3208 -0.2364  0.9363
  709TMC3    C410534   4.240   1.452  13.636 -0.5060 -0.2870 -0.0339
  709TMC3    C510535   4.132   1.366  13.661  0.7129 -0.4363 -0.0863
  709TMC3    C610536   4.095   1.269  13.573 -0.0621 -0.3050 -0.1046
  709TMC3     C10537   4.458   1.422  13.566 -0.0069  0.2840  0.2688
  709TMC3     O10538   4.465   1.460  13.681 -0.0750  0.1488 -0.1643
  709TMC3     H10539   4.355   1.291  13.361 -0.8193 -0.8992 -0.7288
  709TMC3    H110540   4.263   1.532  13.706 -0.6242  0.2795 -0.6473
  709TMC3    H210541   4.010   1.203  13.583 -0.5208  0.4645  1.0345
  709TMC3    C710542   4.144   1.324  13.803  0.2236 -0.3111  0.7827
  709TMC3    C810543   4.098   1.200  13.341 -0.2709 -0.0486 -0.4446
  709TMC3    O110544   4.064   1.237  13.839  0.3826  0.3481  0.2416
  709TMC3    O210545   3.984   1.156  13.360  0.0454  0.1467  0.7421
  710TMC3    C110546   1.234   2.910   0.342 -0.5170  0.5782  0.1861
  710TMC3    C210547   1.334   3.002   0.312 -0.5152 -0.4301 -0.1931
  710TMC3    C310548   1.455   2.951   0.275  0.6289 -0.0210  0.6165
  710TMC3    C410549   1.258   2.775   0.330  0.5684 -0.8094 -0.5326
  710TMC3    C510550   1.382   2.731   0.277 -0.1161  0.0385  0.3580
  710TMC3    C610551   1.479   2.827   0.248 -0.7924  0.0667 -0.0563
  710TMC3     C10552   1.108   2.955   0.400 -0.3967 -0.9763 -0.0947
  710TMC3     O10553   1.035   2.858   0.434  0.0107  0.3050 -0.1099
  710TMC3     H10554   1.324   3.110   0.313  0.5000 -0.3327 -0.1461
  710TMC3    H110555   1.189   2.699   0.363  0.4321  1.3143  4.0239
  710TMC3    H210556   1.581   2.795   0.226 -0.3396  1.5122 -0.0488
  710TMC3    C710557   1.424   2.604   0.332  0.3822  0.2592  0.4981
  710TMC3    C810558   1.562   3.054   0.270 -0.2517  0.0387 -0.8579
  710TMC3    O110559   1.355   2.552   0.418 -0.6020 -0.0303 -0.1705
  710TMC3    O210560   1.546   3.162   0.325  0.3126  0.1757  1.1412
  711TMC3    C110561   1.119   4.440  15.593 -0.5116  0.7179  0.3925
  711TMC3    C210562   1.149   4.390  15.713 -0.0292 -0.4100  0.0565
  711TMC3    C310563   1.274   4.422  15.762  0.5274  0.1627 -0.0418
  711TMC3    C410564   1.205   4.512  15.523  0.0267  0.0919 -0.4617
  711TMC3    C510565   1.331   4.547  15.571  0.6556  0.0012  0.4510
  711TMC3    C610566   1.357   4.512  15.698 -0.0568 -0.3930 -0.5894
  711TMC3     C10567   1.010   4.379  15.511 -0.5807  0.6051  0.2111
  711TMC3     O10568   1.033   4.370  15.392  0.5069  0.2158  0.3169
  711TMC3     H10569   1.086   4.324  15.771 -0.2967 -0.1952  0.0082
  711TMC3    H110570   1.188   4.533  15.418 -1.0781  0.5358 -0.2032
  711TMC3    H210571   1.449   4.560  15.730 -0.7678 -0.0134  0.8918
  711TMC3    C710572   1.430   4.471  15.502  0.1655 -0.2522  0.9786
  711TMC3    C810573   1.341   4.318  15.837  0.5378  0.0146 -0.0317
  711TMC3    O110574   1.540   4.454  15.552  0.5034  0.0061  0.1320
  711TMC3    O210575   1.275   4.228  15.892 -0.2543  0.2942 -0.3283
  712MPD2     C10576   2.993   0.037  13.975  0.0625  0.0112  0.9079
  712MPD2    C110577   2.868   0.070  13.933  0.3991  0.2523  0.6072
  712MPD2    C210578   2.823   0.202  13.947 -0.4686  0.7577 -0.8793
  712MPD2    C310579   2.899   0.299  14.010  0.2921  0.1815 -0.3556
  712MPD2    C410580   3.026   0.261  14.044  0.1169 -0.2936 -0.2995
  712MPD2    C510581   3.072   0.134  14.027  0.9888  0.0486 -0.7733
  712MPD2     H10582   2.717   0.219  13.933 -1.1128 -1.1352  1.5412
  712MPD2    H110583   3.085   0.328  14.105 -0.0226  0.5380 -1.0812
  712MPD2    H210584   3.041   4.675  13.958  0.5010  0.1539  1.3729
  712MPD2    H310585   3.174   0.114  14.056  0.7078 -1.7753 -1.0738
  712MPD2     N10586   2.859   0.432  14.035 -0.4694  0.2061  0.1173
  712MPD2    H510587   2.919   0.494  14.088 -1.9905  1.4367  0.4084
  712MPD2    N110588   2.779   4.711  13.876  0.2864 -0.2054  0.2682
  712MPD2    H710589   2.702   0.012  13.821  1.0693 -1.1508 -1.4233
  713TMC3    C110590   2.718   0.640  14.002  0.4656 -0.0337  0.2625
  713TMC3    C210591   2.825   0.723  13.986  0.4856 -0.0392 -0.1496
  713TMC3    C310592   2.800   0.856  13.963  0.4981  0.2968  0.3557
  713TMC3    C410593   2.589   0.700  13.999  0.4575  0.2630  0.4084
  713TMC3    C510594   2.564   0.830  13.968  0.8559  0.6312  0.2766
  713TMC3    C610595   2.671   0.912  13.945 -0.2029 -0.0026 -0.1431
  713TMC3     C10596   2.737   0.490  13.989 -0.1253  0.7413 -0.0178
  713TMC3     O10597   2.637   0.425  13.975  0.1664  0.0666 -0.3755
  713TMC3     H10598   2.925   0.682  13.984  0.3951 -0.3688  2.7103
  713TMC3    H110599   2.504   0.635  14.017  0.5088  0.1134  0.1144
  713TMC3    H210600   2.659   1.018  13.922 -0.7997 -0.0364  0.0231
  713TMC3    C710601   2.438   0.896  13.993 -0.0133  0.3219 -0.8739
  713TMC3    C810602   2.900   0.932  13.896  0.2608 -0.1311 -0.4031
  713TMC3    O110603   2.339   0.836  13.962 -0.5375 -0.2254  0.3097
  713TMC3    O210604   2.866   1.024  13.824 -0.3578 -0.0769 -0.2577
  714MPD2     C10605   4.665   3.838   1.464  0.5225 -0.6376  0.6487
  714MPD2    C110606   4.727   3.952   1.420  0.5269 -0.6164  0.1142
  714MPD2    C210607   4.647   4.057   1.377  0.0714 -0.4162 -0.4533
  714MPD2    C310608   4.508   4.039   1.373  0.6940  0.0581  0.3049
  714MPD2    C410609   4.451   3.920   1.418  1.0007 -0.1180  0.3192
  714MPD2    C510610   4.531   3.823   1.464  0.4411 -0.9709  0.1285
  714MPD2     H10611   4.691   4.151   1.344  1.8541 -0.5108  1.6548
  714MPD2    H110612   4.347   3.890   1.406  0.4201  0.6041  3.4321
  714MPD2    H210613   4.725   3.749   1.482  1.5027  0.1246  1.1360
  714MPD2    H310614   4.482   3.736   1.506 -0.6262  0.1300  1.1693
  714MPD2     N10615   4.418   4.142   1.325 -0.4932 -0.0297 -0.4155
  714MPD2    H510616   4.467   4.221   1.285  0.8573  0.0608  1.3884
  714MPD2    N110617   0.139   3.955   1.417  0.5058 -0.1739  0.2708
  714MPD2    H710618   0.183   3.864   1.423  0.0018 -0.4462 -0.2330
  715TMC3    C110619   0.347   4.046   1.373  0.0547  0.1027  0.4211
  715TMC3    C210620   0.378   3.928   1.306 -0.5461  0.6290  0.2082
  715TMC3    C310621   0.510   3.912   1.272 -0.6558 -0.6655 -0.1211
  715TMC3    C410622   0.443   4.147   1.398 -0.0521  0.0869 -0.0102
  715TMC3    C510623   0.574   4.119   1.363  0.0488  0.1194 -0.4107
  715TMC3    C610624   0.608   4.005   1.302 -0.4947  0.2619 -0.0368
  715TMC3     C10625   0.211   4.071   1.398  0.4418  0.4448 -0.4351
  715TMC3     O10626   0.180   4.187   1.399  0.0277 -0.5123 -0.2383
  715TMC3     H10627   0.303   3.871   1.252  1.3837 -0.7211 -1.0359
  715TMC3    H110628   0.416   4.246   1.434  1.3410 -0.0547  1.4159
  715TMC3    H210629   0.713   3.989   1.284 -0.5031 -1.1972  1.2535
  715TMC3    C710630   0.686   4.198   1.403  0.2401  0.3574 -0.3084
  715TMC3    C810631   0.553   3.773   1.256  0.2126 -0.1484  0.1807
  715TMC3    O110632   0.780   4.206   1.327  0.0608  0.1888 -0.3270
  715TMC3    O210633   0.463   3.688   1.269 -0.4929  0.3948  0.3038
  716MPD2     C10634   4.669   2.211   9.977  0.2087 -1.0058 -0.6088
  716MPD2    C110635   4.560   2.127   9.967  0.2186  0.2319  0.0906
  716MPD2    C210636   4.582   2.000   9.907 -1.0810  0.0927  0.6959
  716MPD2    C310637   4.705   1.961   9.858 -0.2820 -0.2063  0.1329
  716MPD2    C410638   0.080   2.046   9.873 -0.0705  0.7182  0.8526
  716MPD2    C510639   0.061   2.160   9.949 -0.1578  0.6041  0.1686
  716MPD2     H10640   4.503   1.926   9.910 -0.8720 -0.2116 -1.3906
  716MPD2    H110641   0.178   2.029   9.830 -0.0830  3.3287 -0.1725
  716MPD2    H210642   4.657   2.310  10.021 -0.1227 -0.4902 -1.8549
  716MPD2    H310643   0.148   2.224   9.952  0.2344  0.0832 -0.0537
  716MPD2     N10644   4.719   1.828   9.809 -0.2976 -0.1820 -0.4236
  716MPD2    H510645   4.636   1.771   9.798 -0.3408  0.0435 -1.2502
  716MPD2    N110646   4.432   2.164  10.013 -0.1806 -0.2485 -0.0586
  716MPD2    H710647   4.423   2.261  10.042 -0.2109 -0.6025  1.0906
  717TMC3    C110648   0.090   1.646   9.705  0.1342  0.5014  0.1673
  717TMC3    C210649   4.720   1.636   9.629 -0.1619 -0.0809 -0.0508
  717TMC3    C310650   4.691   1.519   9.566 -0.0370  0.1874 -0.1301
  717TMC3    C410651   0.177   1.545   9.713 -0.1909  0.4799  0.1250
  717TMC3    C510652   0.136   1.419   9.666  0.9636 -0.3273  0.1085
  717TMC3    C610653   0.025   1.403   9.587  0.3278 -0.5135  0.2459
  717TMC3     C10654   0.106   1.772   9.767  0.2400 -0.5298  0.8020
  717TMC3     O10655   0.215   1.798   9.816 -0.7966  0.7261 -0.8332
  717TMC3     H10656   4.669   1.727   9.601  0.9286 -0.0447 -1.9341
  717TMC3    H110657   0.260   1.556   9.783 -0.4216  1.6589  0.2178
  717TMC3    H210658   4.715   1.311   9.550  0.1818 -0.2280 -0.2910
  717TMC3    C710659   0.229   1.310   9.688 -0.3871 -0.3857 -0.2564
  717TMC3    C810660   4.582   1.529   9.474  0.4067  0.1177  0.3396
  717TMC3    O110661   0.304   1.312   9.785  0.0451  0.3104 -0.0588
  717TMC3    O210662   4.508   1.625   9.492  0.0827 -0.2548  0.3673
  718MPD2     C10663   4.573   0.550  12.769 -0.5088 -0.9129  0.3624
  718MPD2    C110664   4.493   0.552  12.653 -0.1079 -0.3696 -0.3036
  718MPD2    C210665   4.376   0.477  12.651 -0.2673 -0.9268  0.8052
  718MPD2    C310666   4.332   0.404  12.763  0.4098 -0.3876  0.9403
  718MPD2    C410667   4.408   0.412  12.882  0.0890  0.0423 -0.1690
  718MPD2    C510668   4.525   0.490  12.883  0.4417  0.2514  0.1156
  718MPD2     H10669   4.318   0.471  12.560  1.3221  0.9258 -0.3211
  718MPD2    H110670   4.388   0.354  12.972  0.9367 -0.9505 -0.6166
  718MPD2    H210671   4.665   0.606  12.773 -1.9019  1.2919  1.5036
  718MPD2    H310672   4.584   0.491  12.974  2.2878 -2.9061 -1.0723
  718MPD2     N10673   4.207   0.342  12.761  0.0175 -0.3365 -0.3379
  718MPD2    H510674   4.162   0.349  12.670 -1.1616 -0.4669  0.2315
  718MPD2    N110675   4.542   0.642  12.552  0.1381  0.3681  0.3012
  718MPD2    H710676   4.629   0.692  12.565  1.4975 -2.0679  0.6855
  719TMC3    C110677   4.493   0.780  12.364 -0.5284 -0.0987  0.2524
  719TMC3    C210678   4.411   0.783  12.250 -0.2518 -0.0527  0.1696
  719TMC3    C310679   4.364   0.903  12.209 -0.5104 -0.4474 -0.3375
  719TMC3    C410680   4.527   0.887  12.433  0.3070 -0.2322 -0.4466
  719TMC3    C510681   4.490   1.007  12.379  0.1101 -0.2052  0.4655
  719TMC3    C610682   4.415   1.018  12.266  0.2344 -0.1247  0.0727
  719TMC3     C10683   4.476   0.651  12.431  0.0903  0.1604  0.2622
  719TMC3     O10684   4.380   0.590  12.389 -0.3693  0.1912 -0.9279
  719TMC3     H10685   4.395   0.693  12.192 -2.1972  1.5579 -1.7677
  719TMC3    H110686   4.593   0.885  12.519 -2.5011 -1.7460  1.6550
  719TMC3    H210687   4.374   1.114  12.235  1.2197  0.3450  0.2442
  719TMC3    C710688   4.572   1.120  12.417  0.4295  0.4423 -0.1526
  719TMC3    C810689   4.221   0.896  12.211  0.4255 -0.2718 -0.1893
  719TMC3    O110690   4.599   1.197  12.325 -0.2023 -0.7876 -0.6277
  719TMC3    O210691   4.159   1.003  12.202 -0.3535 -0.6590 -0.7279
  720MPD2     C10692   2.472   1.739  14.126 -0.1346 -0.0547  0.1377
  720MPD2    C110693   2.518   1.856  14.066 -0.3584 -0.3090  0.2071
  720MPD2    C210694   2.643   1.899  14.110 -0.8449  0.0898 -0.4153
  720MPD2    C310695   2.707   1.839  14.220  0.4908 -0.2808 -0.2919
  720MPD2    C410696   2.658   1.726  14.277 -0.5486 -0.4549  0.5887
  720MPD2    C510697   2.545   1.666  14.222 -0.4292  0.1245 -0.3163
  720MPD2     H10698   2.692   1.978  14.055  0.6196  0.2723  1.1568
  720MPD2    H110699   2.704   1.674  14.360 -0.1039 -1.4676 -0.2882
  720MPD2    H210700   2.385   1.690  14.084 -0.5482  0.8666 -0.0821
  720MPD2    H310701   2.502   1.574  14.261  0.6746 -0.1411  0.2692
  720MPD2     N10702   2.826   1.899  14.275 -0.0349 -0.0028 -0.1564
  720MPD2    H510703   2.873   1.977  14.231 -0.2509  1.5873  2.4460
  720MPD2    N110704   2.447   1.920  13.959  0.0703  0.6360  0.4586
  720MPD2    H710705   2.486   2.000  13.911 -0.1244 -0.8704 -2.2353
  721TMC3    C110706   2.983   1.961  14.439  0.2485 -0.2474 -0.0814
  721TMC3    C210707   2.986   2.004  14.567  0.0654 -0.6167 -0.2841
  721TMC3    C310708   3.039   2.123  14.604  0.7033 -0.2554 -0.0188
  721TMC3    C410709   3.043   2.032  14.337 -0.0421  0.1755 -1.0722
  721TMC3    C510710   3.117   2.139  14.380  0.5992  0.3940  0.5585
  721TMC3    C610711   3.107   2.192  14.503  0.4023  0.4275 -0.3835
  721TMC3     C10712   2.878   1.869  14.401  0.1941 -0.0912  0.0501
  721TMC3     O10713   2.832   1.802  14.494  0.3169 -0.1589  0.0043
  721TMC3     H10714   2.950   1.939  14.646  2.5201 -0.6282  0.8086
  721TMC3    H110715   3.061   1.982  14.242  1.7792  0.6484 -0.9753
  721TMC3    H210716   3.182   2.263  14.535  0.1480  1.1280 -1.3252
  721TMC3    C710717   3.246   2.159  14.332  0.3347 -0.1517 -0.2903
  721TMC3    C810718   3.111   2.140  14.727 -0.4732  0.0992 -0.6345
  721TMC3    O110719   3.279   2.276  14.346  0.2124  0.3089  0.1628
  721TMC3    O210720   3.177   2.044  14.765  1.0661  0.4010 -0.1594
  722MPD2     C10721   1.364   0.943  13.647  0.0929 -0.5392 -0.1834
  722MPD2    C110722   1.384   1.075  13.608  0.8986  0.1602  0.2843
  722MPD2    C210723   1.296   1.124  13.512 -0.5276 -0.1281 -0.4523
  722MPD2    C310724   1.199   1.049  13.457  0.7973 -0.5185  0.0224
  722MPD2    C410725   1.178   0.910  13.496 -0.4846 -0.3875 -0.0539
  722MPD2    C510726   1.265   0.862  13.587  0.1354  0.5626  0.2453
  722MPD2     H10727   1.305   1.229  13.486 -0.0113  0.4083  1.9000
  722MPD2    H110728   1.102   0.853  13.444 -0.3866  2.5196 -3.3996
  722MPD2    H210729   1.430   0.890  13.715 -0.1190 -2.0563 -1.1481
  722MPD2    H310730   1.244   0.760  13.618 -2.2858  1.0976  0.3761
  722MPD2     N10731   1.111   1.108  13.363 -0.3902  0.4971  0.2076
  722MPD2    H510732   1.129   1.207  13.348 -1.2029  0.8164  1.2730
  722MPD2    N110733   1.471   1.156  13.667  0.4370 -0.3011 -0.4385
  722MPD2    H710734   1.465   1.246  13.621  0.4432 -0.2980 -0.4333
  723TMC3    C110735   0.949   1.135  13.192  0.2907  0.1584  0.6919
  723TMC3    C210736   0.889   1.083  13.081  0.1322 -0.1310  0.5822
  723TMC3    C310737   0.838   1.168  12.988 -0.8876 -0.2305  0.2092
  723TMC3    C410738   0.947   1.270  13.216 -0.7910  0.2909 -0.1662
  723TMC3    C510739   0.882   1.350  13.127 -0.2081 -0.5385 -0.2943
  723TMC3    C610740   0.819   1.301  13.010  0.2040 -0.6569 -0.6109
  723TMC3     C10741   1.026   1.037  13.274  0.1470  0.1639 -0.2501
  723TMC3     O10742   1.004   0.915  13.256 -0.5236 -0.5041 -0.0760
  723TMC3     H10743   0.878   0.975  13.075  0.0609 -0.1278  0.6643
  723TMC3    H110744   1.002   1.315  13.298 -1.1239 -0.8181  0.6644
  723TMC3    H210745   0.749   1.354  12.946  0.1739 -0.0847 -0.1036
  723TMC3    C710746   0.864   1.489  13.160  0.5529  0.2244  0.0900
  723TMC3    C810747   0.778   1.106  12.867  0.2666  0.4464  0.1357
  723TMC3    O110748   0.926   1.524  13.262 -0.0019 -0.0569  0.6104
  723TMC3    O210749   0.707   1.175  12.802 -0.3693  0.2413  0.1659
  724TMC3    C110750   1.738   3.365  10.613 -0.6238 -0.5039  0.1301
  724TMC3    C210751   1.741   3.434  10.496 -0.1046 -0.3298  0.8566
  724TMC3    C310752   1.832   3.535  10.490 -0.6411 -0.3093  0.1584
  724TMC3    C410753   1.823   3.383  10.719  0.7532  1.0782  0.7283
  724TMC3    C510754   1.918   3.481  10.709 -0.5706 -0.5427  0.3452
  724TMC3    C610755   1.914   3.565  10.601 -0.3206  0.7539 -0.6727
  724TMC3     C10756   1.633   3.267  10.637  0.2120 -0.8407  0.0781
  724TMC3     O10757   1.655   3.188  10.729  0.1537  0.2190 -0.4164
  724TMC3     H10758   1.708   3.386  10.405  1.9711 -1.0161  0.4574
  724TMC3    H110759   1.806   3.325  10.808 -1.0814  0.6850  0.1154
  724TMC3    H210760   1.988   3.643  10.586  0.7053 -0.2361 -0.7291
  724TMC3    C710761   1.984   3.535  10.823  0.5489  0.5850 -0.1430
  724TMC3    C810762   1.816   3.627  10.381 -1.0214  0.3465  0.4282
  724TMC3    O110763   2.065   3.622  10.801 -1.1428 -0.3623 -0.8648
  724TMC3    O210764   1.727   3.609  10.300 -0.2451 -0.0396 -0.6142
  725TMC3    C110765   3.456   2.169  13.134  0.1709  0.8863  0.2772
  725TMC3    C210766   3.332   2.236  13.129  0.6590  0.4127 -0.5595
  725TMC3    C310767   3.227   2.183  13.056  0.2458 -0.0220 -0.1440
  725TMC3    C410768   3.484   2.066  13.050  0.0598  0.4256  0.1401
  725TMC3    C510769   3.372   2.004  12.996 -0.5210  0.1532 -0.2044
  725TMC3    C610770   3.253   2.065  12.990  0.5515 -0.3491 -0.0355
  725TMC3     C10771   3.563   2.248  13.198 -0.2226 -0.4892 -0.6657
  725TMC3     O10772   3.534   2.308  13.304 -0.1889 -1.0344  0.4771
  725TMC3     H10773   3.316   2.321  13.194 -0.1081  0.4908 -0.8481
  725TMC3    H110774   3.582   2.021  13.047 -0.5530 -0.8471 -1.0992
  725TMC3    H210775   3.180   2.010  12.932  0.6079 -2.0800  1.5393
  725TMC3    C710776   3.382   1.864  12.941 -0.0131 -0.5680  0.1269
  725TMC3    C810777   3.099   2.255  13.042 -0.7701 -0.6598 -0.0133
  725TMC3    O110778   3.282   1.818  12.889 -0.2530 -0.1384 -0.1904
  725TMC3    O210779   2.997   2.184  13.025 -0.3545 -0.1500  0.3390
  726MPD2     C10780   1.568   4.509  10.904  0.4850  0.7872 -0.4199
  726MPD2    C110781   1.469   4.506  10.808  0.5373 -1.0245  0.2484
  726MPD2    C210782   1.360   4.427  10.827 -0.2484 -0.2796  0.0850
  726MPD2    C310783   1.348   4.350  10.942 -0.1432 -0.3800 -0.0938
  726MPD2    C410784   1.452   4.349  11.033  0.0383 -0.3542  0.3654
  726MPD2    C510785   1.560   4.427  11.010  0.2903 -0.0557 -0.1959
  726MPD2     H10786   1.275   4.433  10.760  1.3499  0.7056 -1.8481
  726MPD2    H110787   1.456   4.273  11.109  0.5128 -0.3631  0.3322
  726MPD2    H210788   1.661   4.566  10.901  1.3100 -0.5358  0.2306
  726MPD2    H310789   1.639   4.437  11.083  0.5590  0.8507 -0.6048
  726MPD2     N10790   1.229   4.274  10.973  0.7552  0.2234 -0.3548
  726MPD2    H510791   1.230   4.219  11.058 -0.2669  0.5885 -0.1095
  726MPD2    N110792   1.460   4.593  10.696 -0.1361  0.2088  0.0744
  726MPD2    H710793   1.380   4.598  10.635  2.1799  0.0657 -3.0100
  727TMC3    C110794   1.515   0.021  10.548 -0.3654 -0.3604 -0.5861
  727TMC3    C210795   1.552   0.155  10.547  1.2122 -1.1462 -0.2361
  727TMC3    C310796   1.525   0.225  10.438  0.8656 -0.2858  0.2974
  727TMC3    C410797   1.443   4.697  10.449 -0.5970  0.5282 -0.1330
  727TMC3    C510798   1.404   0.048  10.347 -0.5920  0.6380  0.5539
  727TMC3    C610799   1.442   0.177  10.338 -0.6529  0.8170 -0.7987
  727TMC3     C10800   1.558   4.674  10.655 -0.8527  0.6716 -0.3482
  727TMC3     O10801   1.655   4.704  10.719  0.2795 -0.0650  0.0600
  727TMC3     H10802   1.611   0.195  10.628  0.5983 -1.4719  0.3711
  727TMC3    H110803   1.417   4.593  10.458 -0.2459  0.3078 -1.6740
  727TMC3    H210804   1.436   0.223  10.240  0.8896  1.8441 -0.3936
  727TMC3    C710805   1.359   4.716  10.229  0.1428  0.8464  0.9556
  727TMC3    C810806   1.579   0.358  10.432 -1.0549  0.4367  0.5364
  727TMC3    O110807   1.389   4.598  10.225 -0.4159  0.1379 -0.2072
  727TMC3    O210808   1.686   0.375  10.491  0.0926  0.5698  0.9031
  728TMC3    C110809   0.959   2.850  15.460 -0.0794 -0.4447  0.0520
  728TMC3    C210810   1.080   2.916  15.476 -0.1778 -0.6573 -0.1489
  728TMC3    C310811   1.124   2.983  15.372  0.1752 -0.6520  0.0305
  728TMC3    C410812   0.892   2.857  15.334 -0.0012 -0.4904  1.1156
  728TMC3    C510813   0.945   2.931  15.236 -0.2661 -0.8757 -0.2724
  728TMC3    C610814   1.060   3.000  15.250  0.0893 -0.0245  0.4839
  728TMC3     C10815   0.891   2.810  15.580 -0.4967  0.2410  0.5859
  728TMC3     O10816   0.957   2.841  15.678  0.3353 -0.2138  0.2535
  728TMC3     H10817   1.136   2.905  15.568  0.4528 -0.2004 -0.4754
  728TMC3    H110818   0.791   2.820  15.318  0.0408  0.1985 -0.7903
  728TMC3    H210819   1.119   3.053  15.175  1.2285  1.9350  2.7437
  728TMC3    C710820   0.858   2.962  15.124 -0.1785 -0.2368 -0.2313
  728TMC3    C810821   1.240   3.063  15.400 -0.1315 -0.2227 -0.9432
  728TMC3    O110822   0.802   2.869  15.065  0.1546 -0.0353  0.2761
  728TMC3    O210823   1.260   3.096  15.521 -0.0962  0.8619  0.3034
  729MPD2     C10824   3.011   4.115  16.978  0.2067  0.0898 -0.1219
  729MPD2    C110825   3.132   4.186  17.004 -0.1759  0.6628 -0.1642
  729MPD2    C210826   3.164   4.213  17.135  0.0592  0.0792 -0.4269
  729MPD2    C310827   3.096   4.144  17.236 -0.7330  0.0262  0.0074
  729MPD2    C410828   2.982   4.078  17.208 -0.0418  0.2200  0.2339
  729MPD2    C510829   2.940   4.069  17.083 -1.0426 -0.4792  0.2741
  729MPD2     H10830   3.245   4.278  17.167  0.8828 -0.1881 -1.9452
  729MPD2    H110831   2.915   4.033  17.280 -1.5988  1.0620 -0.7016
  729MPD2    H210832   2.974   4.110  16.876 -3.2264 -0.5562  1.1417
  729MPD2    H310833   2.847   4.016  17.065 -0.1880 -1.7472 -0.3738
  729MPD2     N10834   3.146   4.149  17.367 -0.0630 -0.3820  0.5237
  729MPD2    H510835   3.093   4.111  17.444 -0.6301  0.2765  0.4487
  729MPD2    N110836   3.220   4.247  16.917  0.0108  1.3325 -0.0276
  729MPD2    H710837   3.301   4.298  16.951  0.2626 -0.1576  1.5592
  730TMC3    C110838   3.312   4.257  17.504  0.2033  0.2915  0.3202
  730TMC3    C210839   3.441   4.310  17.497 -0.1580 -1.2666 -0.2545
  730TMC3    C310840   3.465   4.434  17.540 -0.1260  0.4739  0.2150
  730TMC3    C410841   3.214   4.328  17.561 -0.0015 -0.5888 -0.5049
  730TMC3    C510842   3.236   4.447  17.613 -0.5926  0.3970  0.0373
  730TMC3    C610843   3.361   4.505  17.601 -0.6092 -0.4532 -1.0909
  730TMC3     C10844   3.280   4.164  17.392 -0.3014 -0.8057  0.0141
  730TMC3     O10845   3.375   4.146  17.318  0.4844 -0.0371  0.8344
  730TMC3     H10846   3.513   4.260  17.433 -0.3521 -2.5914  0.5597
  730TMC3    H110847   3.113   4.290  17.556 -0.2314  0.1301 -1.4760
  730TMC3    H210848   3.368   4.600  17.653  0.9047 -1.9914  1.4762
  730TMC3    C710849   3.145   4.539  17.558  0.0491  0.1714 -0.3148
  730TMC3    C810850   3.553   4.507  17.449 -0.8004 -0.1276  0.0903
  730TMC3    O110851   3.196   4.619  17.478  0.2406  0.1329  0.2816
  730TMC3    O210852   3.652   4.451  17.406  0.0929 -0.7968  0.5859
  731MPD2     C10853   2.048   1.571  12.440  0.0681 -0.2510 -0.6162
  731MPD2    C110854   2.177   1.527  12.406  0.3174  0.4466  0.2649
  731MPD2    C210855   2.251   1.460  12.501  0.3312 -0.6912  0.3997
  731MPD2    C310856   2.204   1.457  12.631 -0.8010 -0.7319 -1.5062
  731MPD2    C410857   2.084   1.512  12.668 -0.6644 -0.1629 -0.6194
  731MPD2    C510858   2.008   1.563  12.569 -0.6615  0.5190  0.0771
  731MPD2     H10859   2.349   1.420  12.475 -0.7957 -1.5298 -2.5972
  731MPD2    H110860   2.041   1.509  12.767 -2.0085 -0.6289 -1.2292
  731MPD2    H210861   1.987   1.624  12.367 -1.4279 -0.0874  0.7254
  731MPD2    H310862   1.906   1.598  12.587 -0.3776  2.3586 -1.8897
  731MPD2     N10863   2.281   1.389  12.724 -0.5882  0.2939  0.6844
  731MPD2    H510864   2.366   1.347  12.687 -0.7945 -0.4056  1.0040
  731MPD2    N110865   2.219   1.544  12.267  0.1533 -0.6749 -0.4115
  731MPD2    H710866   2.159   1.589  12.198 -0.5735  0.2531  0.8085
  732TMC3    C110867   2.352   1.491  12.070 -0.0350 -0.1743  0.0383
  732TMC3    C210868   2.236   1.505  11.997 -0.0280  0.3554  0.9135
  732TMC3    C310869   2.251   1.526  11.861  0.2895  0.1639  0.0930
  732TMC3    C410870   2.478   1.500  12.016 -0.1057 -0.1542 -0.2818
  732TMC3    C510871   2.486   1.537  11.886  0.2500 -0.2039 -0.2517
  732TMC3    C610872   2.376   1.547  11.812 -0.1385 -0.2389  0.1187
  732TMC3     C10873   2.342   1.490  12.216 -0.0892  0.4066  0.0979
  732TMC3     O10874   2.447   1.457  12.268 -0.3352 -0.3153  0.7130
  732TMC3     H10875   2.140   1.479  12.041 -1.5736  3.8978 -0.3896
  732TMC3    H110876   2.571   1.483  12.069 -0.7150  0.6387  1.0514
  732TMC3    H210877   2.377   1.554  11.703 -1.3300  0.6671  0.1663
  732TMC3    C710878   2.612   1.502  11.813 -0.6777  0.8558  0.0942
  732TMC3    C810879   2.135   1.523  11.771  0.5243 -0.7679  0.1092
  732TMC3    O110880   2.595   1.500  11.692  0.6941 -0.0524  0.0159
  732TMC3    O210881   2.153   1.505  11.650 -0.2241 -0.1275  0.3692
  733TMC3    C110882   3.772   0.206  12.835  0.0399 -0.1184 -0.0312
  733TMC3    C210883   3.903   0.196  12.880  0.6305  0.5472 -0.4871
  733TMC3    C310884   3.996   0.277  12.812 -0.4366 -0.5329 -0.4138
  733TMC3    C410885   3.739   0.264  12.714  0.0822  0.5863 -0.1304
  733TMC3    C510886   3.830   0.349  12.656 -0.2522 -0.2184 -0.2607
  733TMC3    C610887   3.962   0.345  12.697 -0.3148  0.3243 -0.2832
  733TMC3     C10888   3.659   0.206  12.929  0.0695  0.2406  1.1361
  733TMC3     O10889   3.548   0.212  12.881 -0.4111 -0.0785  0.2025
  733TMC3     H10890   3.922   0.134  12.967  0.9259  0.4741 -0.6019
  733TMC3    H110891   3.634   0.264  12.687 -0.1578  0.3465  0.7875
  733TMC3    H210892   4.023   0.427  12.660  1.0066 -0.8611 -0.7494
  733TMC3    C710893   3.783   0.455  12.576 -1.2557 -0.6372  0.3833
  733TMC3    C810894   4.134   0.284  12.861 -0.5315  0.6453 -0.2755
  733TMC3    O110895   3.669   0.502  12.583 -0.9267 -0.6101  0.2986
  733TMC3    O210896   4.164   0.254  12.976 -0.4487 -0.6085  0.6507
  734MPD2     C10897   0.910   3.107  12.435  0.2008  0.5540  0.0199
  734MPD2    C110898   0.814   3.089  12.332  0.1182 -0.4107  0.1614
  734MPD2    C210899   0.814   3.172  12.219  0.1546 -0.4247 -0.3027
  734MPD2    C310900   0.918   3.272  12.207  0.0465  0.3656 -0.3760
  734MPD2    C410901   1.015   3.292  12.305  0.3908 -0.6799 -0.6150
  734MPD2    C510902   0.994   3.215  12.416  0.8929  0.6453  0.0146
  734MPD2     H10903   0.752   3.157  12.132  1.2418 -2.3875 -0.7558
  734MPD2    H110904   1.096   3.362  12.288  0.8368 -0.7143  1.4118
  734MPD2    H210905   0.929   3.042  12.519  0.7257  0.0963 -0.4473
  734MPD2    H310906   1.064   3.238  12.496 -0.4438  2.1823  0.7344
  734MPD2     N10907   0.912   3.348  12.089  1.0240  0.0075  0.1472
  734MPD2    H510908   0.819   3.356  12.050  0.6992 -0.6885  0.7678
  734MPD2    N110909   0.708   2.997  12.358 -0.2932 -0.2479 -0.2170
  734MPD2    H710910   0.719   2.934  12.437 -2.4211  1.2845  1.2806
  735TMC3    C110911   0.579   2.823  12.264 -0.0012  0.5101 -0.2381
  735TMC3    C210912   0.504   2.796  12.156 -0.3148  0.0211  0.1116
  735TMC3    C310913   0.543   2.702  12.069 -0.9366 -0.6212  0.1919
  735TMC3    C410914   0.682   2.740  12.298  1.3936 -0.5033 -0.1990
  735TMC3    C510915   0.713   2.635  12.220 -0.3975  1.1262  0.0648
  735TMC3    C610916   0.655   2.623  12.096  0.4179 -0.0284  0.2057
  735TMC3     C10917   0.611   2.960  12.267 -0.9113 -0.6790 -0.3983
  735TMC3     O10918   0.572   3.026  12.172  0.1731  0.1597 -0.4514
  735TMC3     H10919   0.414   2.856  12.146  0.7131  1.0405 -3.0630
  735TMC3    H110920   0.749   2.758  12.382 -0.0314 -1.0168  1.0618
  735TMC3    H210921   0.698   2.551  12.028 -3.2722 -1.7723 -0.3082
  735TMC3    C710922   0.855   2.598  12.206 -0.1959  0.6403  0.4714
  735TMC3    C810923   0.541   2.748  11.931  0.4580 -0.1479  0.2306
  735TMC3    O110924   0.917   2.613  12.102  0.2779  0.0694  0.6725
  735TMC3    O210925   0.577   2.666  11.849  0.4690 -0.0531 -0.0147
  736MPD2     C10926   1.065   2.442  12.456 -0.0258 -0.1426 -0.1134
  736MPD2    C110927   1.041   2.531  12.352 -0.5227 -0.2707 -0.1721
  736MPD2    C210928   1.146   2.588  12.279 -0.2487  1.2488  0.5837
  736MPD2    C310929   1.279   2.564  12.318 -0.0563 -0.1169 -0.0544
  736MPD2    C410930   1.304   2.482  12.428  0.2612  1.2208 -0.4018
  736MPD2    C510931   1.199   2.429  12.498 -0.6349 -0.2820  0.3308
  736MPD2     H10932   1.113   2.652  12.198 -1.8873  0.9989  1.0698
  736MPD2    H110933   1.401   2.457  12.468  0.4853  1.9858 -0.4588
  736MPD2    H210934   0.984   2.382  12.498 -1.1243  0.4339 -1.3739
  736MPD2    H310935   1.222   2.357  12.575 -0.8031  0.1746  0.8076
  736MPD2     N10936   1.393   2.625  12.245  0.2319  1.1540  0.2776
  736MPD2    H510937   1.486   2.608  12.283  0.0662  2.0100  1.0833
  736MPD2    N110938   0.900   2.554  12.321  0.0704 -0.5647  0.3108
  736MPD2    H710939   0.834   2.524  12.391 -1.2298  3.2875  0.7405
  737TMC3    C110940   1.526   2.739  12.097 -0.2941  0.2277 -0.0830
  737TMC3    C210941   1.531   2.842  12.006  0.0164  0.2187  0.0810
  737TMC3    C310942   1.647   2.856  11.937  0.3064 -0.0168  0.1270
  737TMC3    C410943   1.614   2.639  12.092 -0.1989  0.0113 -0.1619
  737TMC3    C510944   1.713   2.637  12.000  0.2682  0.2428 -0.2139
  737TMC3    C610945   1.738   2.748  11.921  0.2631 -0.0616  0.1337
  737TMC3     C10946   1.391   2.716  12.146 -0.6995 -0.6542  0.1217
  737TMC3     O10947   1.296   2.784  12.107  0.0482  0.3957 -0.1065
  737TMC3     H10948   1.454   2.919  12.008 -0.0530  0.0865  2.8941
  737TMC3    H110949   1.599   2.543  12.139  1.4454  0.2117  0.8029
  737TMC3    H210950   1.821   2.759  11.852  0.5580 -2.1558  0.1436
  737TMC3    C710951   1.793   2.515  11.987  0.0947  0.1477  0.3562
  737TMC3    C810952   1.687   2.975  11.855  0.0811  0.5943  0.8419
  737TMC3    O110953   1.746   2.413  12.037  0.1936  0.0463 -0.4641
  737TMC3    O210954   1.805   3.006  11.861 -0.5999 -0.4345  0.0439
  738MPD2     C10955   1.451   1.509  15.224  0.8326  0.9637  0.5727
  738MPD2    C110956   1.513   1.390  15.262 -0.6394  0.1244 -0.1571
  738MPD2    C210957   1.647   1.381  15.231  0.5230 -0.6568 -0.6620
  738MPD2    C310958   1.720   1.482  15.173 -0.0776 -0.4116  0.4269
  738MPD2    C410959   1.649   1.592  15.126 -0.3462  0.0950 -0.5565
  738MPD2    C510960   1.518   1.605  15.153 -0.0737 -0.1440  0.2831
  738MPD2     H10961   1.700   1.288  15.247 -0.1569 -1.1187 -1.1158
  738MPD2    H110962   1.711   1.671  15.084 -0.6005  0.7142  0.2315
  738MPD2    H210963   1.343   1.517  15.222  0.8478  0.7108 -0.9659
  738MPD2    H310964   1.459   1.687  15.114  0.9727  0.7397  0.5216
  738MPD2     N10965   1.856   1.468  15.143  0.0456 -0.7103  0.7643
  738MPD2    H510966   1.889   1.536  15.075  0.5828 -0.5833  1.1491
  738MPD2    N110967   1.429   1.283  15.297  0.8793  0.3161 -0.1725
  738MPD2    H710968   1.468   1.190  15.287 -0.6853 -0.3210 -0.2615
  739TMC3    C110969   2.081   1.433  15.162  0.3438  0.0646  0.6788
  739TMC3    C210970   2.099   1.445  15.027 -1.0170 -0.3007 -0.0441
  739TMC3    C310971   2.211   1.513  14.982 -0.2433 -0.0186 -0.9162
  739TMC3    C410972   2.176   1.464  15.253  0.8922 -0.4113 -0.7505
  739TMC3    C510973   2.291   1.530  15.208  0.9479 -0.4784 -0.1263
  739TMC3    C610974   2.302   1.562  15.077  0.3169  0.2437  0.5172
  739TMC3     C10975   1.950   1.401  15.219  0.4801  0.1621 -0.4741
  739TMC3     O10976   1.931   1.361  15.330 -0.2293  0.1799 -0.6216
  739TMC3     H10977   2.037   1.390  14.958 -1.7244 -0.8627  1.0412
  739TMC3    H110978   2.147   1.459  15.358  1.8939 -1.8331 -0.5280
  739TMC3    H210979   2.389   1.618  15.042 -0.2389 -0.3421 -1.7446
  739TMC3    C710980   2.392   1.568  15.308  0.5244 -0.7345  0.3140
  739TMC3    C810981   2.222   1.542  14.835  0.4865 -0.8383 -0.4938
  739TMC3    O110982   2.363   1.572  15.426  0.3926 -0.1303 -0.0769
  739TMC3    O210983   2.137   1.485  14.767  0.3704 -0.7544 -1.1122
  740TMC3    C110984   2.635   2.745  14.459 -0.5230 -0.5635 -0.5927
  740TMC3    C210985   2.651   2.679  14.574 -0.0709  0.0122 -0.3131
  740TMC3    C310986   2.740   2.571  14.575  0.0923  0.3620 -0.6683
  740TMC3    C410987   2.689   2.693  14.346  0.3517 -0.7714  0.1194
  740TMC3    C510988   2.771   2.585  14.346 -0.0354  0.0872  0.5566
  740TMC3    C610989   2.804   2.528  14.463 -0.7336 -1.0814 -0.2662
  740TMC3     C10990   2.514   2.837  14.435  1.1033 -0.1891  0.1665
  740TMC3     O10991   2.507   2.915  14.343 -0.0320 -0.4487 -0.3743
  740TMC3     H10992   2.628   2.723  14.671 -0.7538  0.7565 -0.8077
  740TMC3    H110993   2.648   2.751  14.264  2.6577  0.7220  0.0109
  740TMC3    H210994   2.861   2.437  14.474 -0.7855 -1.0999 -0.1471
  740TMC3    C710995   2.774   2.487  14.237  0.1852  0.0859 -0.3135
  740TMC3    C810996   2.781   2.509  14.700  0.9751  0.9879 -0.0399
  740TMC3    O110997   2.821   2.374  14.259  0.2876 -0.1204 -0.1348
  740TMC3    O210998   2.889   2.442  14.702 -0.3661  0.4932 -0.3940
  741TMC3    C110999   1.912   2.094  14.454  0.1348 -0.1831 -0.0885
  741TMC3    C211000   1.809   2.001  14.436  0.2749 -0.3766  0.9486
  741TMC3    C311001   1.795   1.905  14.532  0.0389  0.0062 -0.2248
  741TMC3    C411002   2.005   2.088  14.555 -0.4315  0.5252 -0.0297
  741TMC3    C511003   1.982   1.989  14.643  0.0669  0.1276 -0.3728
  741TMC3    C611004   1.877   1.899  14.634  0.6089 -0.0600 -0.2126
  741TMC3     C11005   1.952   2.187  14.352  0.1929 -0.6644 -0.2312
  741TMC3     O11006   2.070   2.202  14.329 -0.5150  0.0238  0.0859
  741TMC3     H11007   1.756   1.995  14.342 -1.0415  0.5679  1.6265
  741TMC3    H111008   2.089   2.156  14.553 -1.8110  2.2685  1.8808
  741TMC3    H211009   1.854   1.836  14.720  1.3568  0.5277  0.4204
  741TMC3    C711010   2.062   1.987  14.762  0.2596  0.7178 -0.4053
  741TMC3    C811011   1.673   1.825  14.526 -0.0911 -0.6387  0.3684
  741TMC3    O111012   2.072   1.882  14.821 -0.2637  0.5558  0.6116
  741TMC3    O211013   1.582   1.873  14.465  0.5162  0.0680 -0.0113
  742TMC3    C111014   1.700   0.633  15.666  0.2672  0.2566  0.6441
  742TMC3    C211015   1.615   0.560  15.575 -0.4927  0.6615 -0.0516
  742TMC3    C311016   1.673   0.466  15.494  0.5878 -0.7333  0.6374
  742TMC3    C411017   1.836   0.599  15.688 -0.3174  0.0961  0.5368
  742TMC3    C511018   1.876   0.497  15.611 -0.3359 -0.6016  0.7242
  742TMC3    C611019   1.802   0.427  15.516  0.0992 -0.5861  0.4918
  742TMC3     C11020   1.639   0.734  15.747  0.3011  0.1450 -0.7063
  742TMC3     O11021   1.514   0.720  15.759 -0.0074 -0.3787 -0.6009
  742TMC3     H11022   1.522   0.606  15.545 -0.8917  0.1548  0.4249
  742TMC3    H111023   1.899   0.660  15.753 -2.0477  0.7051  1.6318
  742TMC3    H211024   1.847   0.341  15.469  1.1118  0.4313 -0.3860
  742TMC3    C711025   2.016   0.475  15.611  1.0959  0.5575  0.4865
  742TMC3    C811026   1.610   0.419  15.374  0.8148 -0.2488  0.5693
  742TMC3    O111027   2.058   0.415  15.514  0.0473  0.0362 -0.3657
  742TMC3    O211028   1.681   0.355  15.298 -1.0792  0.0365  0.2193
  743MPD2     C11029   4.280   1.042   1.990  0.0857 -0.4181  0.0693
  743MPD2    C111030   4.321   1.055   1.860 -0.7994 -0.6259  0.1487
  743MPD2    C211031   4.403   1.165   1.833  0.0290 -0.2194  0.0799
  743MPD2    C311032   4.454   1.250   1.936  0.5076  0.0663 -0.8449
  743MPD2    C411033   4.418   1.228   2.067  0.4768 -0.8720  0.2869
  743MPD2    C511034   4.325   1.127   2.092  1.1007 -0.0932 -0.3041
  743MPD2     H11035   4.424   1.196   1.732  0.8839  2.7631  1.1606
  743MPD2    H111036   4.458   1.288   2.148  0.7639 -1.3154  0.4736
  743MPD2    H211037   4.215   0.962   2.024 -0.8414 -0.8717 -2.7826
  743MPD2    H311038   4.290   1.121   2.195  0.4747 -0.1228 -0.5219
  743MPD2     N11039   4.556   1.337   1.904 -0.3525  0.1788 -0.2562
  743MPD2    H511040   4.568   1.345   1.803  0.5475 -2.2794 -0.3447
  743MPD2    N111041   4.282   0.966   1.760 -0.2147 -0.7684  0.4835
  743MPD2    H711042   4.209   0.897   1.771 -0.9986 -0.3650 -2.2460
  744TMC3    C111043   4.239   0.906   1.540 -0.6208 -0.0711  0.3429
  744TMC3    C211044   4.110   0.879   1.576 -0.6423  0.0785 -0.5913
  744TMC3    C311045   4.027   0.831   1.476 -0.9580  0.5036 -0.4965
  744TMC3    C411046   4.282   0.902   1.409  0.8285 -0.6022 -0.3588
  744TMC3    C511047   4.186   0.882   1.313 -0.8505  0.2249 -0.6261
  744TMC3    C611048   4.062   0.830   1.341 -0.3929 -0.4517  0.6390
  744TMC3     C11049   4.333   0.972   1.633  0.0993 -0.2182  0.4551
  744TMC3     O11050   4.436   1.024   1.586  0.4501 -0.5218 -0.4449
  744TMC3     H11051   4.071   0.899   1.675 -2.6256 -0.1052 -1.3428
  744TMC3    H111052   4.381   0.935   1.380  0.8346  0.2186  0.5945
  744TMC3    H211053   3.975   0.830   1.277 -0.9205 -0.7029  1.3545
  744TMC3    C711054   4.193   0.981   1.205 -0.0827  0.0809  0.6901
  744TMC3    C811055   3.890   0.816   1.519  0.7437  0.5313  0.0344
  744TMC3    O111056   4.286   1.061   1.202  0.2716  0.7176  1.4071
  744TMC3    O211057   3.860   0.860   1.632 -0.2043 -0.0972 -0.3587
  745TMC3    C111058   2.698   4.509  13.797  0.0625 -0.7593  0.5983
  745TMC3    C211059   2.627   4.424  13.877 -0.2154 -0.0791 -0.9655
  745TMC3    C311060   2.504   4.390  13.824 -0.4713 -0.0187 -0.0093
  745TMC3    C411061   2.659   4.560  13.684 -0.0241  0.4143  0.1146
  745TMC3    C511062   2.541   4.513  13.627 -0.1751  0.5238 -0.0652
  745TMC3    C611063   2.461   4.432  13.700 -0.7355  0.0060  1.0597
  745TMC3     C11064   2.802   4.576  13.873  0.3549 -0.6838  0.6694
  745TMC3     O11065   2.883   4.503  13.930  0.2644 -0.2408  0.3263
  745TMC3     H11066   2.660   4.390  13.975 -0.9895  1.2850 -0.2301
  745TMC3    H111067   2.720   4.639  13.641  0.4730  0.2171  0.4672
  745TMC3    H211068   2.360   4.409  13.667 -0.0149 -2.0966  0.3331
  745TMC3    C711069   2.484   4.578  13.506 -0.3465 -0.1092 -0.1860
  745TMC3    C811070   2.405   4.411  13.922 -0.0632  0.4217  0.7674
  745TMC3    O111071   2.363   4.568  13.488 -0.1820  0.2200  0.4308
  745TMC3    O211072   2.291   4.372  13.905  0.9683  0.1283 -0.2199
  746TMC3    C111073   0.260   2.572  10.865 -0.1970  0.1402 -0.2211
  746TMC3    C211074   0.254   2.560  10.730 -0.3844  0.1208 -0.4109
  746TMC3    C311075   0.240   2.438  10.669  0.1195 -0.6101  0.4430
  746TMC3    C411076   0.251   2.456  10.943 -0.3572  0.4732 -0.7186
  746TMC3    C511077   0.235   2.336  10.878  0.3672 -0.0564  0.8965
  746TMC3    C611078   0.213   2.332  10.743 -0.0443 -0.4817  0.2285
  746TMC3     C11079   0.250   2.702  10.933 -0.6227  0.3010 -0.2992
  746TMC3     O11080   0.265   2.696  11.057  0.3313 -0.5862 -0.0943
  746TMC3     H11081   0.286   2.650  10.678 -1.0758  0.0042 -1.0417
  746TMC3    H111082   0.266   2.470  11.049  0.0540  0.5069 -0.7801
  746TMC3    H211083   0.192   2.236  10.696  0.0351 -1.5042  2.2830
  746TMC3    C711084   0.151   2.246  10.952 -0.2118 -0.4432 -0.8656
  746TMC3    C811085   0.254   2.420  10.523  0.3129 -0.0433 -0.1551
  746TMC3    O111086   0.062   2.192  10.891 -0.5849 -0.2430 -0.5691
  746TMC3    O211087   0.252   2.304  10.486  0.8781  0.0385 -0.1830
  747TMC3    C111088   2.514   2.496  11.214  0.1752 -0.1641 -0.6035
  747TMC3    C211089   2.419   2.418  11.263  0.6225 -0.1530  1.1477
  747TMC3    C311090   2.376   2.432  11.400 -0.5791 -1.4088  0.2190
  747TMC3    C411091   2.545   2.605  11.286 -0.2892  0.3062  0.2331
  747TMC3    C511092   2.498   2.624  11.419 -0.1485 -0.6580 -0.2335
  747TMC3    C611093   2.417   2.538  11.481  0.1862  0.3854 -0.9681
  747TMC3     C11094   2.503   2.521  11.068  0.6447  0.3665 -1.0941
  747TMC3     O11095   2.540   2.633  11.030  0.2881  0.7305  0.5734
  747TMC3     H11096   2.372   2.336  11.211  1.1588  0.0178  0.3985
  747TMC3    H111097   2.601   2.689  11.245 -0.1520 -0.3742 -0.9770
  747TMC3    H211098   2.406   2.532  11.589  0.2259  0.5788 -0.9528
  747TMC3    C711099   2.525   2.747  11.490 -0.2955  0.1161 -0.4735
  747TMC3    C811100   2.260   2.360  11.440 -0.2955  0.1058  0.0728
  747TMC3    O111101   2.482   2.749  11.602 -0.4613  0.5170  0.0209
  747TMC3    O211102   2.250   2.244  11.405 -1.0075 -0.0866  0.2974
  748MPD2     C11103   3.299   3.354   1.552  0.0176  0.0836  0.2292
  748MPD2    C111104   3.310   3.216   1.528 -0.3173 -0.7975 -0.8709
  748MPD2    C211105   3.430   3.157   1.566  0.3172 -0.2766 -0.9901
  748MPD2    C311106   3.537   3.232   1.618 -0.4658  0.2871 -0.1029
  748MPD2    C411107   3.511   3.367   1.632  0.0046 -0.2110  0.1225
  748MPD2    C511108   3.396   3.425   1.619 -0.3231 -0.0477 -0.1396
  748MPD2     H11109   3.443   3.050   1.556  0.5214 -0.3478  0.0998
  748MPD2    H111110   3.582   3.425   1.689  2.4555 -2.4100 -0.6891
  748MPD2    H211111   3.208   3.406   1.526  0.3394  0.3278 -0.4148
  748MPD2    H311112   3.378   3.528   1.648  1.7961  0.1918  0.2971
  748MPD2     N11113   3.661   3.166   1.633  0.2017  0.1201 -0.4832
  748MPD2    H511114   3.665   3.069   1.604 -0.2340 -0.1614  0.4196
  748MPD2    N111115   3.209   3.138   1.454  0.2280 -0.4761  0.5999
  748MPD2    H711116   3.121   3.187   1.438 -0.5212 -1.9349  0.1949
  749TMC3    C111117   3.892   3.143   1.642 -0.0547  0.2120  0.3538
  749TMC3    C211118   3.866   3.008   1.613  0.3778 -0.3841  0.7667
  749TMC3    C311119   3.983   2.945   1.566  0.0215  0.0541  0.4666
  749TMC3    C411120   4.014   3.205   1.611 -0.1985  0.7149  0.9329
  749TMC3    C511121   4.114   3.137   1.550 -0.0704 -0.2793 -0.0548
  749TMC3    C611122   4.101   3.004   1.530  0.7156  0.4980  0.2506
  749TMC3     C11123   3.778   3.228   1.667  0.7025  0.4158 -0.5957
  749TMC3     O11124   3.799   3.350   1.682  0.3884 -0.3016  0.9571
  749TMC3     H11125   3.782   2.945   1.637  0.6117 -0.8592  0.3317
  749TMC3    H111126   4.006   3.313   1.620 -0.0054  0.9573 -1.9418
  749TMC3    H211127   4.175   2.945   1.476  2.0872  0.9040  1.6767
  749TMC3    C711128   4.209   3.220   1.474  0.0571 -0.5305 -1.1856
  749TMC3    C811129   3.952   2.823   1.509  0.1175  0.5574 -0.6564
  749TMC3    O111130   4.179   3.341   1.462  0.0607  0.0392  0.1816
  749TMC3    O211131   3.850   2.818   1.442  0.0953  0.1590 -0.0299
  750MPD2     C11132   0.366   4.311  11.711 -0.8669 -0.6205  0.2205
  750MPD2    C111133   0.253   4.246  11.730 -0.0207 -0.5560 -0.0163
  750MPD2    C211134   0.175   4.199  11.627  0.6113  0.0208 -0.1060
  750MPD2    C311135   0.227   4.189  11.500  0.2346  0.0394 -0.1453
  750MPD2    C411136   0.350   4.251  11.486 -0.8455  0.1842  0.0198
  750MPD2    C511137   0.420   4.311  11.583 -0.2251 -0.6592  0.1189
  750MPD2     H11138   0.076   4.158  11.646  0.7831 -0.0440  0.6404
  750MPD2    H111139   0.400   4.258  11.390  1.3191  2.2155  1.3149
  750MPD2    H211140   0.419   4.365  11.789 -0.1757 -0.4061 -0.3974
  750MPD2    H311141   0.516   4.359  11.566 -0.4388  0.3114  1.6155
  750MPD2     N11142   0.165   4.151  11.378  0.7489  0.0643  0.2018
  750MPD2    H511143   0.224   4.154  11.296 -0.1468  1.0146 -0.4091
  750MPD2    N111144   0.201   4.261  11.859  0.6613 -0.7271 -0.1783
  750MPD2    H711145   0.246   4.321  11.928 -0.5707  1.2448 -1.0989
  751TMC3    C111146   0.004   4.032  11.247  0.1168  0.0605  0.3416
  751TMC3    C211147   4.642   3.934  11.258  0.4091  0.6613 -0.0525
  751TMC3    C311148   4.576   3.908  11.146 -0.9079  0.3727  0.1507
  751TMC3    C411149   0.059   4.075  11.128 -0.2802  0.2557  0.0699
  751TMC3    C511150   4.723   4.034  11.014  1.1801 -0.1908  0.7943
  751TMC3    C611151   4.600   3.967  11.026 -0.4475  1.0237  0.3821
  751TMC3     C11152   0.044   4.092  11.374 -0.2543  0.2037 -0.1625
  751TMC3     O11153   4.705   4.065  11.463  0.2702 -0.1958 -0.6204
  751TMC3     H11154   4.609   3.883  11.348  0.7295 -1.6962 -1.2847
  751TMC3    H111155   0.151   4.131  11.114  1.1555 -1.9747  0.6327
  751TMC3    H211156   4.555   3.927  10.936 -0.1268  3.9289 -1.0760
  751TMC3    C711157   0.064   4.024  10.892  0.2715  0.4479  0.0262
  751TMC3    C811158   4.518   3.775  11.125  0.7739  0.2626 -1.0182
  751TMC3    O111159   0.185   4.054  10.907  0.2689  0.1782 -0.7246
  751TMC3    O211160   4.531   3.740  11.009 -0.5830  0.1415 -0.7680
  752TMC3    C111161   3.932   4.417  17.548 -0.4205 -0.0975 -0.2802
  752TMC3    C211162   3.877   4.312  17.610  0.3690 -0.6163  0.4949
  752TMC3    C311163   3.797   4.340  17.720  0.3661  0.1286  0.3713
  752TMC3    C411164   3.893   4.550  17.582  0.5143 -0.2855 -0.2601
  752TMC3    C511165   3.805   4.567  17.678 -0.3805 -0.3442 -0.6881
  752TMC3    C611166   3.753   4.467   0.018  1.3141  0.1799  0.8806
  752TMC3     C11167   3.991   4.409  17.418 -0.6153  0.0449  0.1518
  752TMC3     O11168   4.115   4.411  17.418 -0.6606 -0.4557 -0.1916
  752TMC3     H11169   3.905   4.209  17.587  0.0516 -1.0398  2.0400
  752TMC3    H111170   3.930   4.636  17.527 -0.7961  0.7419  0.4753
  752TMC3    H211171   3.711   4.494   0.115  0.5921  1.8844  0.0946
  752TMC3    C711172   3.750   4.700  17.698  0.5497 -0.3799  0.3788
  752TMC3    C811173   3.713   4.229   0.031  0.6699 -0.2511 -0.6286
  752TMC3    O111174   3.644   4.710   0.019  0.4796  0.6380  0.7758
  752TMC3    O211175   3.771   4.121   0.030  0.2494  0.2186  0.2839
  753TMC3    C111176   0.708   0.127  13.431 -0.0230  0.4278 -0.0989
  753TMC3    C211177   0.792   0.087  13.538 -0.4212 -0.0062 -0.3924
  753TMC3    C311178   0.786   4.685  13.566 -0.5066  1.0962 -0.2627
  753TMC3    C411179   0.633   0.031  13.366  0.1275  0.2630  0.0423
  753TMC3    C511180   0.646   4.632  13.382 -0.2069 -0.1016 -0.5548
  753TMC3    C611181   0.708   4.592  13.498  0.0068 -0.0803  0.0015
  753TMC3     C11182   0.700   0.264  13.383  0.7991  0.0461 -0.1072
  753TMC3     O11183   0.658   0.281  13.273 -0.2885  0.2905  0.0642
  753TMC3     H11184   0.857   0.161  13.584 -0.7156 -1.6465  2.6522
  753TMC3    H111185   0.575   0.067  13.282 -1.6474 -0.7101  0.8405
  753TMC3    H211186   0.723   4.486  13.516 -1.7482 -0.0011  1.8972
  753TMC3    C711187   0.544   4.547  13.321 -0.7809 -0.2304 -0.5524
  753TMC3    C811188   0.844   4.632  13.693  0.0167 -0.2515 -0.1487
  753TMC3    O111189   0.510   4.577  13.207 -0.5228  0.5440 -0.0829
  753TMC3    O211190   0.813   4.520  13.719 -0.4504 -0.2047  0.7910
  754MPD2     C11191   4.374   3.425  13.517  0.4696  1.2349 -0.6066
  754MPD2    C111192   4.433   3.301  13.510  0.3097 -0.2802  1.0580
  754MPD2    C211193   4.344   3.198  13.520 -0.7911  0.8623 -0.1835
  754MPD2    C311194   4.206   3.208  13.541 -0.1374 -0.0770 -0.3497
  754MPD2    C411195   4.160   3.337  13.547 -0.2786  0.7184 -0.4255
  754MPD2    C511196   4.238   3.443  13.528  0.1858  0.0957 -0.0567
  754MPD2     H11197   4.382   3.096  13.516 -1.0539  0.7044  1.4920
  754MPD2    H111198   4.054   3.356  13.559 -0.2804  1.2704 -1.3515
  754MPD2    H211199   4.438   3.512  13.503 -0.6660  1.9005 -1.6336
  754MPD2    H311200   4.193   3.541  13.526 -0.3537 -0.2043 -2.0849
  754MPD2     N11201   4.107   3.115  13.552  0.5411 -0.4511  0.3394
  754MPD2    H511202   4.014   3.147  13.577  1.2168  0.7788  1.2563
  754MPD2    N111203   4.575   3.288  13.509 -0.5252  0.1513 -0.6974
  754MPD2    H711204   4.632   3.368  13.483  0.4398  0.3294  2.0108
  755MPD2     C11205   3.379   3.313  13.905  0.1328 -1.0098 -0.4021
  755MPD2    C111206   3.353   3.230  13.801  0.3039 -0.1617 -0.1795
  755MPD2    C211207   3.447   3.129  13.774 -0.4134  0.4137 -0.0414
  755MPD2    C311208   3.568   3.121  13.840  0.1878 -0.1185 -0.1698
  755MPD2    C411209   3.589   3.211  13.945  0.0366 -0.3200 -0.6745
  755MPD2    C511210   3.494   3.303  13.980  0.2788  0.3719  0.3104
  755MPD2     H11211   3.428   3.076  13.681 -0.3931  2.9222 -1.4862
  755MPD2    H111212   3.687   3.203  13.990  0.6690 -2.2360 -2.3522
  755MPD2    H211213   3.319   3.400  13.929  2.0618  0.8928 -2.4224
  755MPD2    H311214   3.503   3.373  14.062 -0.8669  0.1479  0.6202
  755MPD2     N11215   3.685   3.053  13.792  0.8627  0.1466  0.1491
  755MPD2    H511216   3.773   3.053  13.843  1.1497 -1.3405 -0.3376
  755MPD2    N111217   3.232   3.229  13.725 -1.1699  0.5017 -0.2656
  755MPD2    H711218   3.217   3.152  13.661 -0.2967  1.2143 -1.3428
  756MPD2     C11219   0.420   4.501  10.053  0.1905 -0.4566 -0.3776
  756MPD2    C111220   0.315   4.468  10.137  0.0865  0.0715 -0.0593
  756MPD2    C211221   0.245   4.349  10.107  0.0517 -0.3000 -0.4807
  756MPD2    C311222   0.253   4.284   9.984  0.3527  0.2953 -0.3913
  756MPD2    C411223   0.342   4.331   9.894 -0.8030  0.1001 -0.2396
  756MPD2    C511224   0.420   4.443   9.925  0.6211  0.2519  0.1317
  756MPD2     H11225   0.161   4.318  10.168  0.2699 -2.9983 -1.5349
  756MPD2    H111226   0.346   4.286   9.795 -1.0344  2.4091 -1.3012
  756MPD2    H211227   0.493   4.581  10.057 -0.8734  0.4339  1.2995
  756MPD2    H311228   0.500   4.462   9.856  1.1487  1.1374  0.9938
  756MPD2     N11229   0.167   4.175   9.975  0.5414  0.3393  0.0355
  756MPD2    H511230   0.115   4.148  10.058  1.6820  2.6399  1.4898
  756MPD2    N111231   0.296   4.512  10.266 -0.0974 -0.2918  0.1970
  756MPD2    H711232   0.214   4.474  10.312 -2.5186  1.1640 -3.0181
  757MPD2     C11233   4.634   3.138   9.689 -0.4479  0.4024 -0.4734
  757MPD2    C111234   4.531   3.204   9.741  0.7353  0.2033 -0.0223
  757MPD2    C211235   4.550   3.338   9.775 -0.0779  0.2725  0.3331
  757MPD2    C311236   4.676   3.400   9.760 -0.3136 -0.7573 -0.0077
  757MPD2    C411237   0.050   3.327   9.726  0.2369 -0.0511  1.0860
  757MPD2    C511238   0.022   3.198   9.680 -0.1073  0.0089  0.1692
  757MPD2     H11239   4.470   3.402   9.812  0.6414  0.9311  0.7410
  757MPD2    H111240   0.152   3.362   9.727  0.2890 -0.1882  0.4985
  757MPD2    H211241   4.628   3.036   9.651 -1.3080 -0.9668  3.3901
  757MPD2    H311242   0.101   3.141   9.632 -1.4090 -0.9287 -0.8705
  757MPD2     N11243   4.686   3.541   9.778 -0.3208  0.3940 -0.1468
  757MPD2    H511244   4.611   3.589   9.826  0.6281 -0.5839  2.3139
  757MPD2    N111245   4.405   3.140   9.746 -0.2642 -0.5000 -0.2193
  757MPD2    H711246   4.395   3.054   9.692 -0.8248 -0.2448 -0.5150
  758MPD2     C11247   4.504   3.575  15.789 -1.0388  0.3028 -1.1584
  758MPD2    C111248   4.512   3.471  15.868 -0.0789 -0.4051 -0.2922
  758MPD2    C211249   4.462   3.495  15.998 -0.2905  0.1691 -0.3630
  758MPD2    C311250   4.418   3.618  16.048  0.2239 -0.1524  0.2536
  758MPD2    C411251   4.419   3.723  15.956 -0.1263  0.1434  0.0362
  758MPD2    C511252   4.463   3.699  15.831 -0.1165  0.1780  0.1199
  758MPD2     H11253   4.457   3.412  16.068 -0.0735 -1.2977 -2.0821
  758MPD2    H111254   4.373   3.815  15.992 -0.7636 -0.4009  0.6224
  758MPD2    H211255   4.547   3.568  15.690 -0.4292  3.1890 -1.0952
  758MPD2    H311256   4.478   3.786  15.768  1.5264  1.0611  1.7174
  758MPD2     N11257   4.374   3.644  16.179 -0.1529 -0.6457  0.5638
  758MPD2    H511258   4.351   3.740  16.202  0.1880 -0.3901 -0.1625
  758MPD2    N111259   4.579   3.353  15.827 -0.3389 -0.0457  0.0619
  758MPD2    H711260   4.631   3.355  15.740 -1.3847  0.4572 -0.5517
  759MPD2     C11261   2.637   1.700  10.524 -0.2990  0.0089  0.7936
  759MPD2    C111262   2.731   1.631  10.600 -0.1599  0.6077  0.0174
  759MPD2    C211263   2.847   1.587  10.543  0.1227  1.1217 -0.4388
  759MPD2    C311264   2.892   1.635  10.417  0.2440 -0.2393 -0.0817
  759MPD2    C411265   2.801   1.714  10.350  0.8170  0.8531  0.1578
  759MPD2    C511266   2.672   1.736  10.398  0.3250  0.3454 -0.0612
  759MPD2     H11267   2.915   1.536  10.611  0.1880 -1.1246 -2.2007
  759MPD2    H111268   2.837   1.757  10.258 -0.0466  1.0071 -0.1077
  759MPD2    H211269   2.539   1.731  10.557 -0.0310  0.7414  0.9013
  759MPD2    H311270   2.598   1.785  10.336  0.3209 -0.7245 -0.8991
  759MPD2     N11271   3.022   1.596  10.385  0.1922  0.4726  0.4454
  759MPD2    H511272   3.069   1.532  10.449 -0.4655 -0.6327 -0.1750
  759MPD2    N111273   2.710   1.601  10.738 -0.4278  0.3755  0.8831
  759MPD2    H711274   2.784   1.540  10.771  0.0428  0.9911  0.9474
  760MPD2     C11275   3.023   3.329  12.136 -0.1022  0.0730 -0.6180
  760MPD2    C111276   3.079   3.423  12.215  0.2050  1.1640 -0.2317
  760MPD2    C211277   3.042   3.421  12.347 -0.3743 -0.0466 -0.3072
  760MPD2    C311278   2.961   3.323  12.402  0.1443 -0.4043  0.0859
  760MPD2    C411279   2.910   3.228  12.321  0.5550 -0.9413 -0.2402
  760MPD2    C511280   2.930   3.240  12.189 -0.7991 -0.1972  0.5067
  760MPD2     H11281   3.092   3.488  12.415  1.1634 -0.8947 -0.5967
  760MPD2    H111282   2.865   3.134  12.351 -0.2503 -0.2008  0.8825
  760MPD2    H211283   3.041   3.314  12.030  1.9163  1.3101 -0.4544
  760MPD2    H311284   2.889   3.156  12.134  1.2193 -0.0376 -1.2751
  760MPD2     N11285   2.955   3.293  12.540 -0.0464 -0.1304 -0.0382
  760MPD2    H511286   2.933   3.199  12.570 -0.4549 -0.1023 -0.2499
  760MPD2    N111287   3.174   3.515  12.170  0.1178  0.5736 -0.9128
  760MPD2    H711288   3.205   3.583  12.239  0.7136 -1.4686  0.8557
  761MPD2     C11289   4.232   3.368  11.236  0.7131  0.0463  0.3012
  761MPD2    C111290   4.313   3.395  11.126  0.5348 -0.4924 -0.1549
  761MPD2    C211291   4.389   3.507  11.123 -0.0255  0.8516 -0.0848
  761MPD2    C311292   4.377   3.600  11.220 -0.3197 -0.0603 -0.4334
  761MPD2    C411293   4.286   3.574  11.317 -0.0420 -0.1615  0.0107
  761MPD2    C511294   4.214   3.465  11.330 -0.1090  0.3271  0.6384
  761MPD2     H11295   4.459   3.530  11.044  0.2106 -2.5653 -0.8631
  761MPD2    H111296   4.273   3.656  11.387 -0.6022  1.5560 -2.1093
  761MPD2    H211297   4.181   3.274  11.251  0.5247 -0.2197 -1.9410
  761MPD2    H311298   4.152   3.451  11.418 -1.2030  1.3117  0.0085
  761MPD2     N11299   4.454   3.719  11.228 -0.2483  0.1329  0.3339
  761MPD2    H511300   4.457   3.767  11.317  0.7245  0.4564  0.1195
  761MPD2    N111301   4.313   3.298  11.023  0.4455  0.0568  0.1793
  761MPD2    H711302   4.251   3.219  11.037  0.5233  0.0084  0.2542
  762MPD2     C11303   4.398   3.399  10.281  0.7439  0.1612 -0.0915
  762MPD2    C111304   4.434   3.274  10.321 -1.0094  0.0418  0.2504
  762MPD2    C211305   4.544   3.211  10.256  0.2261  0.3366 -0.0997
  762MPD2    C311306   4.626   3.277  10.168 -0.0932  0.1520 -0.8853
  762MPD2    C411307   4.593   3.407  10.138  0.6787 -0.5521  0.7001
  762MPD2    C511308   4.473   3.463  10.186  0.4450  0.2203 -0.2336
  762MPD2     H11309   4.574   3.113  10.289  2.9301  1.0865 -0.3252
  762MPD2    H111310   4.634   3.449  10.047 -0.7672 -1.9556 -0.5835
  762MPD2    H211311   4.302   3.435  10.316  0.3810  1.7731 -2.7059
  762MPD2    H311312   4.435   3.554  10.142  2.5571  0.3484 -1.7680
  762MPD2     N11313   0.018   3.217  10.122 -0.0364  0.7634 -0.4294
  762MPD2    H511314   0.041   3.120  10.140  1.3391  1.4333  1.4955
  762MPD2    N111315   4.356   3.218  10.429  0.3584  0.1429  0.1001
  762MPD2    H711316   4.284   3.283  10.460  2.0087  0.6520  2.9506
  763MPD2     C11317   2.015   3.242  16.276 -0.0535 -0.5545  0.7965
  763MPD2    C111318   1.888   3.299  16.270  0.3345 -0.1510  0.2584
  763MPD2    C211319   1.840   3.392  16.365 -0.1831  0.0553 -0.8596
  763MPD2    C311320   1.919   3.416  16.474  0.4146  0.3076 -0.4034
  763MPD2    C411321   2.041   3.356  16.488  0.6856 -0.5434  0.6984
  763MPD2    C511322   2.095   3.275  16.391  0.0102 -0.2729  0.3433
  763MPD2     H11323   1.744   3.435  16.340  0.0308  0.5736 -0.8010
  763MPD2    H111324   2.094   3.364  16.583  1.9951  1.7521 -0.2175
  763MPD2    H211325   2.047   3.170  16.201  0.8392  0.7041 -0.0286
  763MPD2    H311326   2.199   3.245  16.401 -0.1870 -1.2045 -0.4126
  763MPD2     N11327   1.877   3.505  16.580 -0.2392 -0.3268 -0.3114
  763MPD2    H511328   1.930   3.517  16.665 -3.1178  2.2315  1.1389
  763MPD2    N111329   1.800   3.275  16.160  0.4969 -0.0768  0.1261
  763MPD2    H711330   1.725   3.342  16.149 -1.9940 -2.5768  1.6727
  764MPD2     C11331   4.268   0.594  17.698 -0.0238  0.0978 -0.2226
  764MPD2    C111332   4.282   0.453  17.691  1.1055  0.1719  0.6671
  764MPD2    C211333   4.192   0.368   0.020  0.3188 -0.0771  0.1528
  764MPD2    C311334   4.095   0.427   0.096 -0.2301 -0.0988  0.6984
  764MPD2    C411335   4.079   0.564   0.102  1.1849  0.0958  0.8857
  764MPD2    C511336   4.166   0.647   0.038  0.1802  0.0439 -0.7976
  764MPD2     H11337   4.198   0.262  17.732 -0.0766  0.3012 -1.6524
  764MPD2    H111338   4.001   0.605   0.165  1.1432  0.5275  0.5541
  764MPD2    H211339   4.327   0.661  17.636  0.8450  0.8116  1.3624
  764MPD2    H311340   4.142   0.753   0.032  0.2784  0.0716 -0.6928
  764MPD2     N11341   4.014   0.351   0.178 -1.0888  0.1308 -0.6567
  764MPD2    H511342   3.946   0.397   0.237 -2.5574 -0.9480 -1.5118
  764MPD2    N111343   4.386   0.406  17.616  0.3986  0.0825  0.5814
  764MPD2    H711344   4.387   0.305  17.607 -1.0286 -0.0830  2.3015
  765MPD2     C11345   4.103   2.730  15.625  0.0155  0.3791 -0.1501
  765MPD2    C111346   4.192   2.774  15.720 -0.3537 -0.3173  0.1349
  765MPD2    C211347   4.316   2.705  15.737 -0.0788 -0.4292  0.3679
  765MPD2    C311348   4.345   2.600  15.655 -0.1971  0.3459  1.0985
  765MPD2    C411349   4.258   2.559  15.554  0.6558 -0.5486  0.4157
  765MPD2    C511350   4.140   2.613  15.555  0.1709 -0.0321 -1.0046
  765MPD2     H11351   4.382   2.731  15.819 -0.1285 -0.0330  0.2864
  765MPD2    H111352   4.282   2.477  15.487 -1.5637 -0.7916 -0.0877
  765MPD2    H211353   4.022   2.796  15.595  0.5555  1.8248  1.6054
  765MPD2    H311354   4.067   2.573  15.486 -1.3477  1.1316 -0.0678
  765MPD2     N11355   4.476   2.547  15.671 -0.2737 -0.4990  0.2714
  765MPD2    H511356   4.526   2.599  15.743  1.1694 -1.1001 -0.3030
  765MPD2    N111357   4.159   2.892  15.790  0.2668 -0.4655 -0.5307
  765MPD2    H711358   4.061   2.918  15.793  0.4628  0.2024 -0.0575
  766MPD2     C11359   3.527   3.177  15.751 -0.3822  0.2583 -0.2822
  766MPD2    C111360   3.639   3.102  15.757  0.2864  0.0540  0.2068
  766MPD2    C211361   3.667   3.017  15.648  0.3238 -0.0908 -0.8492
  766MPD2    C311362   3.583   2.998  15.545 -0.1674  0.2757 -0.0627
  766MPD2    C411363   3.459   3.063  15.546  0.3582  0.4265  0.7263
  766MPD2    C511364   3.442   3.154  15.649  0.3160  0.1979  0.8155
  766MPD2     H11365   3.762   2.964  15.645 -0.6412 -1.8035 -0.7706
  766MPD2    H111366   3.383   3.054  15.469  2.5792  0.1743 -1.4476
  766MPD2    H211367   3.507   3.253  15.825 -0.2458 -1.6047  1.6726
  766MPD2    H311368   3.355   3.218  15.646 -0.3733 -0.8044 -0.4872
  766MPD2     N11369   3.597   2.902  15.440  0.3471 -0.2282  0.2440
  766MPD2    H511370   3.516   2.881  15.382  1.1727 -1.3808 -0.4898
  766MPD2    N111371   3.729   3.114  15.867 -0.0695 -0.4911  0.2240
  766MPD2    H711372   3.711   3.178  15.943 -0.7972  0.2574 -0.5791
  767MPD2     C11373   3.250   3.244  15.176  0.0431 -0.8907  0.3717
  767MPD2    C111374   3.385   3.213  15.147  0.7636 -0.5292 -1.0759
  767MPD2    C211375   3.404   3.127  15.041 -0.5786  0.2665  0.2899
  767MPD2    C311376   3.300   3.090  14.948  0.1049  0.2101 -0.1678
  767MPD2    C411377   3.172   3.124  14.982  0.3686  0.2551 -0.0847
  767MPD2    C511378   3.152   3.203  15.092 -0.2483  0.4889 -0.3655
  767MPD2     H11379   3.494   3.071  15.021  0.0332  0.9349  1.1588
  767MPD2    H111380   3.087   3.084  14.929  1.6901 -0.7306 -1.4780
  767MPD2    H211381   3.217   3.307  15.258  0.5551  0.8038 -0.7344
  767MPD2    H311382   3.049   3.226  15.114  0.1292  2.0927 -0.3232
  767MPD2     N11383   3.327   3.001  14.840  0.0317 -0.3343  0.1027
  767MPD2    H511384   3.421   2.963  14.849 -0.1498 -0.7485  0.2639
  767MPD2    N111385   3.491   3.262  15.235 -0.9084 -0.1092  0.4469
  767MPD2    H711386   3.468   3.336  15.301 -0.1176  1.0628 -0.5707
  768MPD2     C11387   4.525   1.963  10.780  0.3466 -0.2106  0.0495
  768MPD2    C111388   4.513   1.914  10.912  0.2352 -0.7563 -0.4313
  768MPD2    C211389   4.630   1.875  10.979 -0.8124 -0.7994 -0.4009
  768MPD2    C311390   0.024   1.872  10.912 -0.4050  0.6236 -0.0341
  768MPD2    C411391   0.036   1.926  10.785  0.4665 -0.0878  1.0356
  768MPD2    C511392   4.652   1.967  10.722  0.2104  0.7631  0.0001
  768MPD2     H11393   4.613   1.835  11.079  2.0904  1.7923  1.1398
  768MPD2    H111394   0.126   1.927  10.726  0.6674 -0.0593  1.3388
  768MPD2    H211395   4.441   1.998  10.720  0.6237 -0.8212 -0.6999
  768MPD2    H311396   4.666   2.001  10.620 -0.6162  3.4564  0.7965
  768MPD2     N11397   0.145   1.833  10.970  0.1560 -0.7262 -0.1473
  768MPD2    H511398   0.228   1.832  10.911  1.3620 -1.4037  1.5597
  768MPD2    N111399   4.392   1.914  10.985 -0.3839 -0.2020  0.1664
  768MPD2    H711400   4.398   1.893  11.084  1.1295  2.2825  0.6112
  769MPD2     C11401   0.360   4.709  15.248 -0.3707  0.0181  0.1473
  769MPD2    C111402   0.322   4.595  15.317  0.2662 -0.2239 -0.3550
  769MPD2    C211403   0.287   4.607  15.452  0.0678  1.1835 -0.4794
  769MPD2    C311404   0.307   4.724  15.519 -1.1492 -0.1793 -0.2000
  769MPD2    C411405   0.334   0.103  15.445 -0.2772 -0.1202  0.6644
  769MPD2    C511406   0.361   0.090  15.313  0.1122 -0.5060  0.6659
  769MPD2     H11407   0.246   4.517  15.497 -0.1726  0.2856 -2.5095
  769MPD2    H111408   0.327   0.197  15.500 -0.4621  0.4696 -0.3725
  769MPD2    H211409   0.387   4.711  15.143 -1.2282  4.3941  0.0024
  769MPD2    H311410   0.381   0.183  15.261 -0.0031 -1.6118 -1.3157
  769MPD2     N11411   0.297   4.724  15.661 -0.1179  0.2798  0.8960
  769MPD2    H511412   0.303   4.629  15.698  0.8206  0.5040  1.3315
  769MPD2    N111413   0.288   4.480  15.240 -0.0062  0.2458  0.4201
  769MPD2    H711414   0.293   4.493  15.139 -3.8564 -3.1301 -0.1883
  770MPD2     C11415   0.367   3.381  15.150 -0.0883 -0.0890  0.2218
  770MPD2    C111416   0.254   3.416  15.073 -0.0296  0.5988  0.2349
  770MPD2    C211417   0.218   3.554  15.065 -0.1766  0.7382  0.3038
  770MPD2    C311418   0.296   3.649  15.131  0.0267  0.0743  0.2561
  770MPD2    C411419   0.397   3.603  15.215 -0.3002  0.0041  0.2297
  770MPD2    C511420   0.439   3.472  15.220 -0.0687 -0.0904  0.0122
  770MPD2     H11421   0.135   3.589  15.004 -3.4749 -1.6989  3.4436
  770MPD2    H111422   0.455   3.675  15.271 -0.9362  0.8413 -0.1748
  770MPD2    H211423   0.396   3.276  15.156  0.2993  0.0109  0.1246
  770MPD2    H311424   0.528   3.445  15.276  1.0252  0.1487 -1.6117
  770MPD2     N11425   0.253   3.786  15.130 -0.0777 -0.6834 -0.2601
  770MPD2    H511426   0.165   3.803  15.081 -2.0334 -0.6393  3.3214
  770MPD2    N111427   0.180   3.316  15.003  0.3130 -0.3503 -0.4379
  770MPD2    H711428   0.213   3.221  15.016 -0.9749 -0.6287  0.8818
  771MPD2     C11429   1.300   2.238  14.119  0.1678 -0.5833 -0.0833
  771MPD2    C111430   1.246   2.361  14.074 -0.1592  0.3695  1.0923
  771MPD2    C211431   1.150   2.359  13.973 -0.6215  0.3153  0.2285
  771MPD2    C311432   1.098   2.240  13.926 -0.0964  0.2414 -0.2449
  771MPD2    C411433   1.151   2.122  13.970 -0.1619 -1.0066  0.4571
  771MPD2    C511434   1.255   2.122  14.062 -0.5017 -0.5706 -1.0575
  771MPD2     H11435   1.109   2.452  13.933 -0.7447  0.7772  1.4250
  771MPD2    H111436   1.117   2.026  13.932  0.6570 -2.6334  3.8583
  771MPD2    H211437   1.385   2.234  14.186  1.5577  0.5658 -1.7430
  771MPD2    H311438   1.285   2.023  14.091 -0.9317 -0.4064 -0.0593
  771MPD2     N11439   0.990   2.245  13.831  0.3572 -0.5377  0.2381
  771MPD2    H511440   0.959   2.338  13.805  1.1630 -0.5132 -0.6689
  771MPD2    N111441   1.283   2.487  14.134  0.0175  0.1950  0.1815
  771MPD2    H711442   1.226   2.568  14.111 -1.2278  0.1770  3.1910
  772MPD2     C11443   0.959   3.042  13.996 -0.4159  0.0868  0.3891
  772MPD2    C111444   0.974   2.934  14.079  0.6273 -0.3742 -0.4986
  772MPD2    C211445   0.866   2.876  14.147  0.1519 -0.4007  0.4402
  772MPD2    C311446   0.742   2.917  14.108 -0.4401 -0.1191 -0.2370
  772MPD2    C411447   0.725   3.020  14.022  0.4886  0.6956  0.4086
  772MPD2    C511448   0.830   3.091  13.969  0.3613 -0.2642  0.0116
  772MPD2     H11449   0.886   2.791  14.211 -0.2784 -0.5914  0.3184
  772MPD2    H111450   0.626   3.043  13.983 -0.3193  0.4676  2.3329
  772MPD2    H211451   1.039   3.090  13.940  1.0648 -2.5736  0.2004
  772MPD2    H311452   0.825   3.181  13.908 -0.6975 -0.0623  0.4042
  772MPD2     N11453   0.621   2.873  14.167  0.0343 -0.0364  0.3859
  772MPD2    H511454   0.544   2.933  14.142  1.8144  1.2765 -1.8692
  772MPD2    N111455   1.094   2.878  14.125 -0.5201 -0.1800 -0.6536
  772MPD2    H711456   1.089   2.813  14.203  0.2041  1.9185  1.1299
  773MPD2     C11457   0.378   3.445   0.671  0.6285  0.1146  0.7578
  773MPD2    C111458   0.278   3.376   0.595 -0.8558  0.9625  1.0425
  773MPD2    C211459   0.281   3.239   0.594 -0.0642 -0.4778  0.3859
  773MPD2    C311460   0.384   3.168   0.664 -0.1685  0.2908 -0.0962
  773MPD2    C411461   0.458   3.241   0.754  0.7637  0.0163  1.0092
  773MPD2    C511462   0.454   3.376   0.764  0.8392 -0.7423 -0.5544
  773MPD2     H11463   0.217   3.177   0.531  0.4333 -1.6731  1.0624
  773MPD2    H111464   0.523   3.187   0.822 -1.0000 -0.5543  2.2297
  773MPD2    H211465   0.372   3.553   0.672  2.1223  0.2058  0.0407
  773MPD2    H311466   0.511   3.428   0.840  1.1600 -2.2379  0.2343
  773MPD2     N11467   0.389   3.027   0.665 -0.0786  0.0248  0.6280
  773MPD2    H511468   0.316   2.993   0.602 -0.4242 -1.9826  2.1219
  773MPD2    N111469   0.182   3.441   0.509 -0.8969 -0.1006 -0.0311
  773MPD2    H711470   0.105   3.388   0.470 -0.2079 -2.6504  2.0523
  774MPD2     C11471   4.075   2.474  13.755 -0.0269 -1.0715 -1.0711
  774MPD2    C111472   4.068   2.584  13.839 -0.3121 -0.5499 -0.9246
  774MPD2    C211473   4.170   2.674  13.844 -0.7324  0.0012 -0.3869
  774MPD2    C311474   4.271   2.666  13.753 -0.4008  0.1731 -1.5009
  774MPD2    C411475   4.282   2.564  13.666  0.4438 -0.5067  0.6900
  774MPD2    C511476   4.180   2.470  13.664  0.2921  0.5878  0.1552
  774MPD2     H11477   4.172   2.756  13.916 -0.4455  1.2478 -1.8011
  774MPD2    H111478   4.354   2.542  13.588 -1.5548 -2.3707 -0.6135
  774MPD2    H211479   3.998   2.397  13.748  0.2733 -1.4591 -0.1407
  774MPD2    H311480   4.169   2.398  13.584  1.1802  1.7673 -1.0333
  774MPD2     N11481   4.361   2.768  13.764  0.2889 -0.1404 -0.0371
  774MPD2    H511482   4.354   2.827  13.846 -1.1403 -2.6691  1.6578
  774MPD2    N111483   3.954   2.590  13.925 -1.0149 -0.1301 -0.5398
  774MPD2    H711484   3.900   2.504  13.919  0.7305 -1.0806 -2.8554
  775MPD2     C11485   1.125   4.318  16.244  0.1899 -0.1557  0.4351
  775MPD2    C111486   1.015   4.395  16.234 -0.0713  1.1999  0.2075
  775MPD2    C211487   1.034   4.520  16.183  0.4251  0.1501  0.1430
  775MPD2    C311488   1.156   4.558  16.135 -0.4433 -0.3810 -0.1144
  775MPD2    C411489   1.263   4.471  16.143  0.2625 -0.1071  0.4184
  775MPD2    C511490   1.247   4.352  16.197  0.3501 -0.4145 -0.3804
  775MPD2     H11491   0.950   4.588  16.190 -0.5340 -1.0179  0.1565
  775MPD2    H111492   1.362   4.494  16.105 -0.1923 -0.1660 -0.7966
  775MPD2    H211493   1.116   4.213  16.270 -1.9798 -0.1091 -0.1514
  775MPD2    H311494   1.327   4.279  16.198  0.9528  0.2633  0.9851
  775MPD2     N11495   1.175   4.688  16.085 -0.3545  0.2252 -0.8289
  775MPD2    H511496   1.272   4.711  16.064  0.8960 -3.3120  1.1542
  775MPD2    N111497   0.895   4.345  16.291 -0.1424 -0.5366 -0.0945
  775MPD2    H711498   0.903   4.258  16.343 -0.1418  1.0427  2.4901
  776MPD2     C11499   4.321   4.590  11.801 -0.2896 -0.4103  0.1426
  776MPD2    C111500   4.447   4.632  11.836 -0.0601  0.6441 -0.1486
  776MPD2    C211501   4.518   4.718  11.753  0.3699  0.8801  0.0048
  776MPD2    C311502   4.466   0.041  11.638 -0.5089  0.2271 -0.3112
  776MPD2    C411503   4.336   0.002  11.609 -0.7158  0.2398  0.7247
  776MPD2    C511504   4.267   4.642  11.690  0.0103 -0.5362 -1.0035
  776MPD2     H11505   4.614   0.015  11.792  1.4395 -0.1742 -1.7761
  776MPD2    H111506   4.299   0.052  11.520 -2.2514 -1.2169  0.5279
  776MPD2    H211507   4.254   4.519  11.849 -0.8314  0.1222  0.1719
  776MPD2    H311508   4.171   4.605  11.654 -0.2846  0.1495 -0.9285
  776MPD2     N11509   4.538   0.122  11.543 -0.2502 -0.0624  0.3769
  776MPD2    H511510   4.483   0.156  11.465  2.9243  0.6133 -1.5809
  776MPD2    N111511   4.498   4.573  11.955  0.4928  0.5206 -0.1980
  776MPD2    H711512   4.446   4.495  11.995  1.3989  0.4683  0.8533
  777MPD2     C11513   0.211   1.992   1.147  0.5153 -0.7132  0.2075
  777MPD2    C111514   0.086   1.966   1.188 -0.2487  0.6693  0.7085
  777MPD2    C211515   0.006   1.874   1.116 -0.8349 -0.2345  0.1407
  777MPD2    C311516   0.059   1.810   1.007 -0.6081  1.0607  0.3018
  777MPD2    C411517   0.183   1.842   0.967  0.0171  0.2009  0.2821
  777MPD2    C511518   0.255   1.941   1.028  0.0667  0.4922  0.0026
  777MPD2     H11519   4.647   1.825   1.139 -0.4746 -1.3023 -0.6442
  777MPD2    H111520   0.238   1.805   0.882 -0.4457 -0.9269  0.4699
  777MPD2    H211521   0.284   2.053   1.200  0.5872 -0.2010 -0.4776
  777MPD2    H311522   0.356   1.955   0.993 -0.0017  0.4671 -0.2096
  777MPD2     N11523   4.715   1.702   0.947  0.2270  0.0668 -0.0893
  777MPD2    H511524   4.630   1.682   0.998  0.6548 -0.0835  0.5675
  777MPD2    N111525   0.036   2.035   1.298  0.8347  0.0969 -0.3550
  777MPD2    H711526   0.107   2.091   1.344  1.4079 -0.9617  0.0593
  778MPD2     C11527   1.286   2.598  14.668  0.1576 -0.6259 -0.4505
  778MPD2    C111528   1.334   2.471  14.674 -0.3440 -0.0772 -0.7784
  778MPD2    C211529   1.466   2.450  14.636 -0.1293 -0.2298 -0.1905
  778MPD2    C311530   1.546   2.551  14.584 -0.2370  0.0029 -0.9610
  778MPD2    C411531   1.491   2.677  14.601  0.1703  0.0903 -0.6255
  778MPD2    C511532   1.371   2.704  14.651 -1.0275  0.0341  0.1625
  778MPD2     H11533   1.513   2.352  14.634  1.7039  0.5920  1.6740
  778MPD2    H111534   1.556   2.763  14.591 -0.5836  0.8690  1.1795
  778MPD2    H211535   1.184   2.630  14.684  0.1485 -0.3358 -1.0622
  778MPD2    H311536   1.336   2.806  14.644  1.7380  0.8660 -1.2400
  778MPD2     N11537   1.679   2.527  14.550  0.5838  0.2917  0.1553
  778MPD2    H511538   1.708   2.430  14.559 -0.8902 -0.1655 -0.0167
  778MPD2    N111539   1.262   2.356  14.716 -0.1520 -0.0594 -0.4090
  778MPD2    H711540   1.307   2.266  14.704 -1.0868 -0.7214  0.9829
  779MPD2     C11541   0.738   0.948  13.956  0.5761 -0.2623  0.6973
  779MPD2    C111542   0.830   0.953  14.049  0.1455 -0.4831 -0.6993
  779MPD2    C211543   0.880   1.078  14.093  0.2321  0.9629 -0.3244
  779MPD2    C311544   0.836   1.193  14.036  0.6077 -0.0922  0.7121
  779MPD2    C411545   0.751   1.181  13.930 -0.1251  0.7271 -0.1160
  779MPD2    C511546   0.699   1.064  13.897  0.2055 -0.2280  0.2997
  779MPD2     H11547   0.947   1.084  14.178 -0.3489  0.5338  0.1709
  779MPD2    H111548   0.713   1.266  13.874 -2.5827  0.0206  0.4984
  779MPD2    H211549   0.708   0.852  13.915 -0.8208  0.1601  0.7408
  779MPD2    H311550   0.626   1.059  13.816  0.5173 -0.7491  0.0498
  779MPD2     N11551   0.895   1.320  14.071  0.4599  0.2673  0.4604
  779MPD2    H511552   0.976   1.336  14.131  0.6531  2.9208 -0.5065
  779MPD2    N111553   0.873   0.829  14.106  0.3087  0.4888  0.1836
  779MPD2    H711554   0.852   0.744  14.054  0.0193  0.4034  0.4455
  780MPD2     C11555   0.423   0.851   0.932 -0.1361  0.8807  1.1106
  780MPD2    C111556   0.394   0.779   0.827  0.6037  0.7566 -0.2258
  780MPD2    C211557   0.439   0.818   0.708 -0.9581  0.4076 -0.2611
  780MPD2    C311558   0.528   0.926   0.687  0.1981 -0.9902 -0.6684
  780MPD2    C411559   0.570   0.999   0.799 -0.8743 -0.2052  0.4667
  780MPD2    C511560   0.509   0.961   0.918  0.6698 -0.5019  0.2121
  780MPD2     H11561   0.417   0.758   0.620  0.4736 -1.0670  0.3889
  780MPD2    H111562   0.606   1.101   0.800 -1.6982  0.0782  2.1329
  780MPD2    H211563   0.378   0.830   1.028 -1.9964  2.5201  0.5935
  780MPD2    H311564   0.539   1.028   0.997  0.2834  0.5061 -0.5006
  780MPD2     N11565   0.573   0.957   0.558  0.0033  0.1238 -0.5563
  780MPD2    H511566   0.519   0.925   0.478 -0.6500 -0.7611  0.2238
  780MPD2    N111567   0.314   0.668   0.835  0.0937  0.0326 -0.5687
  780MPD2    H711568   0.261   0.628   0.758  0.6678 -0.1406 -0.8688
  781MPD2     C11569   1.974   2.842  12.227  0.0464 -0.2013 -0.3467
  781MPD2    C111570   2.080   2.831  12.313 -0.3001 -0.1712  0.2312
  781MPD2    C211571   2.193   2.924  12.300 -0.5150 -0.6470  0.0349
  781MPD2    C311572   2.189   3.017  12.206  0.1264 -0.5153  0.1300
  781MPD2    C411573   2.088   3.018  12.111  1.0165  0.3393  0.4342
  781MPD2    C511574   1.985   2.935  12.126  0.2138 -0.2362 -0.1050
  781MPD2     H11575   2.280   2.913  12.364 -0.4984  1.8734  0.4493
  781MPD2    H111576   2.083   3.097  12.036  2.5886  0.0705  0.0395
  781MPD2    H211577   1.880   2.788  12.231  1.5476 -2.7549  0.3625
  781MPD2    H311578   1.906   2.941  12.053  1.2671  0.7092 -1.1665
  781MPD2     N11579   2.301   3.100  12.181 -0.3596  0.4653  0.6940
  781MPD2    H511580   2.297   3.147  12.091 -2.4980  1.1057  1.1344
  781MPD2    N111581   2.075   2.740  12.419  0.3075 -0.0290  0.3780
  781MPD2    H711582   2.157   2.741  12.479  0.3744 -0.0563  0.2869
  782MPD2     C11583   0.383   4.254  10.453  0.2163 -0.1654 -0.4437
  782MPD2    C111584   0.516   4.267  10.427 -0.3458  1.0529 -0.3338
  782MPD2    C211585   0.611   4.271  10.527  0.0091 -0.5564  1.0491
  782MPD2    C311586   0.570   4.248  10.653 -0.1169 -0.2497  0.5437
  782MPD2    C411587   0.437   4.243  10.675  0.6531 -0.5131 -0.0514
  782MPD2    C511588   0.343   4.250  10.577 -0.3594 -0.1094 -1.3701
  782MPD2     H11589   0.719   4.269  10.516  0.2675  3.4792  2.7403
  782MPD2    H111590   0.399   4.217  10.773  1.2571  0.0765  0.3378
  782MPD2    H211591   0.307   4.265  10.376  2.4380  1.6489 -2.3849
  782MPD2    H311592   0.237   4.249  10.600 -0.6578  2.6148 -2.6188
  782MPD2     N11593   0.670   4.227  10.751 -0.3928 -0.2958  0.1509
  782MPD2    H511594   0.758   4.273  10.730  0.0185 -0.9700  0.4084
  782MPD2    N111595   0.559   4.257  10.290  0.9552  0.1721  0.5552
  782MPD2    H711596   0.495   4.249  10.212 -0.2233  1.6202  1.3843
  783MPD2     C11597   4.692   3.898  10.562  0.3212 -0.1755  0.1784
  783MPD2    C111598   0.045   3.949  10.657  0.1155 -0.3842 -0.4046
  783MPD2    C211599   0.179   3.944  10.623  0.0271 -0.5263  0.9087
  783MPD2    C311600   0.218   3.895  10.501  0.5876 -0.2343  0.7528
  783MPD2    C411601   0.130   3.850  10.411 -0.6086  0.4913  0.0696
  783MPD2    C511602   4.732   3.844  10.441 -0.0630 -0.0712  1.0980
  783MPD2     H11603   0.246   3.987  10.698 -1.2802  2.6145  0.2973
  783MPD2    H111604   0.154   3.812  10.312 -1.0182 -0.8883  0.4945
  783MPD2    H211605   4.586   3.894  10.586  0.6029  0.8629  1.6234
  783MPD2    H311606   4.666   3.812  10.361 -0.2173  0.8380  0.8507
  783MPD2     N11607   0.361   3.904  10.467 -0.2454  0.1955  0.3258
  783MPD2    H511608   0.418   3.940  10.543 -0.3310  1.4419 -0.2074
  783MPD2    N111609   4.726   3.985  10.781  0.6061 -0.4182  0.0608
  783MPD2    H711610   4.625   3.978  10.777  0.6559 -1.3131  0.3675
  784MPD2     C11611   2.996   4.143   0.874  0.7293  0.2816  0.6704
  784MPD2    C111612   3.018   4.268   0.840 -0.3297  0.2273 -0.8798
  784MPD2    C211613   2.918   4.335   0.780  0.7900 -0.7322  0.7986
  784MPD2    C311614   2.786   4.295   0.784  0.5185  0.1363 -0.1025
  784MPD2    C411615   2.766   4.162   0.823 -0.2446 -0.5472 -0.2376
  784MPD2    C511616   2.874   4.085   0.864 -0.2445 -1.1544  0.0170
  784MPD2     H11617   2.939   4.435   0.742 -0.7988 -0.2418  1.2137
  784MPD2    H111618   2.669   4.116   0.809  0.4808 -2.1877  0.1244
  784MPD2    H211619   3.073   4.084   0.922  1.3825 -1.0192 -1.9446
  784MPD2    H311620   2.860   3.983   0.897 -1.0519 -1.4340 -1.2269
  784MPD2     N11621   2.684   4.385   0.737 -0.0015  0.6656 -0.0692
  784MPD2    H511622   2.709   4.481   0.714 -2.2751  0.5597 -2.9431
  784MPD2    N111623   3.139   4.336   0.861  0.0488 -0.0087  0.1544
  784MPD2    H711624   3.148   4.429   0.822  0.3624  0.5015  1.4353
  785MPD2     C11625   3.772   2.486  11.497 -0.2777 -0.4899  0.9397
  785MPD2    C111626   3.630   2.490  11.496  0.5826 -0.7677 -0.5979
  785MPD2    C211627   3.558   2.383  11.456 -0.0497  0.2622  0.3325
  785MPD2    C311628   3.615   2.274  11.403 -1.0587 -0.3519 -0.8804
  785MPD2    C411629   3.749   2.278  11.382 -0.0714 -0.5067 -0.1678
  785MPD2    C511630   3.829   2.377  11.433  0.4915  0.8367  0.6879
  785MPD2     H11631   3.450   2.377  11.451  0.0506  0.5711 -2.0351
  785MPD2    H111632   3.798   2.198  11.328  1.5995 -2.0313  3.6028
  785MPD2    H211633   3.839   2.568  11.520  0.3065 -0.1072 -2.0136
  785MPD2    H311634   3.935   2.375  11.414  0.5388  0.9763  0.9442
  785MPD2     N11635   3.522   2.175  11.356  0.3595 -0.2269  0.3190
  785MPD2    H511636   3.425   2.203  11.368  0.2805 -0.8163  1.0211
  785MPD2    N111637   3.564   2.609  11.532 -0.1435 -0.4649 -0.4977
  785MPD2    H711638   3.619   2.694  11.527  0.2895 -0.8504 -2.0733
  786MPD2     C11639   1.250   0.383  15.026 -0.2858  0.5644 -0.7166
  786MPD2    C111640   1.384   0.353  15.026 -0.0054  0.0674 -0.1963
  786MPD2    C211641   1.458   0.392  15.132 -0.2116  0.0646  0.5228
  786MPD2    C311642   1.405   0.442  15.247  0.0365 -0.2920 -0.3834
  786MPD2    C411643   1.268   0.461  15.253  0.1921  0.7088 -0.0320
  786MPD2    C511644   1.195   0.435  15.141  0.0321  0.2020 -0.2380
  786MPD2     H11645   1.565   0.379  15.123 -0.2316 -0.4158  0.9798
  786MPD2    H111646   1.218   0.499  15.341 -0.8660  1.3878 -0.9394
  786MPD2    H211647   1.174   0.347  14.958  0.2247 -0.5714 -0.6817
  786MPD2    H311648   1.088   0.457  15.147  0.1258  0.7829 -0.7851
  786MPD2     N11649   1.480   0.466  15.364 -0.0299 -0.5610 -0.4981
  786MPD2    H511650   1.427   0.499  15.444 -1.2127  0.6665 -1.7986
  786MPD2    N111651   1.446   0.283  14.925 -0.0436  0.7285  0.3565
  786MPD2    H711652   1.541   0.255  14.945 -0.6481 -0.9730  0.7912
  787MPD2     C11653   1.841   4.580  15.131 -0.2343 -0.1094 -0.4285
  787MPD2    C111654   1.783   4.522  15.024 -0.6097 -0.1299 -0.2679
  787MPD2    C211655   1.782   4.379  15.014  0.3076  0.3053 -0.2221
  787MPD2    C311656   1.847   4.295  15.106 -0.0573  0.3437  0.1995
  787MPD2    C411657   1.893   4.355  15.221  0.4247 -0.2686 -0.1269
  787MPD2    C511658   1.891   4.499  15.227  0.0663 -0.2370 -0.3397
  787MPD2     H11659   1.733   4.336  14.927 -1.0908 -2.0889  1.7224
  787MPD2    H111660   1.929   4.313  15.314 -1.0947  0.4103  0.7635
  787MPD2    H211661   1.845   4.686  15.153 -2.6737  0.0718 -0.8654
  787MPD2    H311662   1.947   4.543  15.309 -0.2118 -0.1005 -0.2251
  787MPD2     N11663   1.863   4.160  15.079 -0.0495  0.4885  0.1331
  787MPD2    H511664   1.852   4.126  14.984  1.6939  0.8296 -0.1840
  787MPD2    N111665   1.720   4.609  14.931 -0.3149 -0.4068 -0.0268
  787MPD2    H711666   1.729   4.707  14.959  0.6003  0.3954 -3.1367
  788MPD2     C11667   3.539   3.862   1.367  0.4075 -0.2250 -0.1953
  788MPD2    C111668   3.534   3.758   1.279  0.1815 -0.3089  0.0443
  788MPD2    C211669   3.471   3.779   1.158 -0.3667  0.0741 -0.0977
  788MPD2    C311670   3.407   3.897   1.133  0.1358 -0.4626  0.4893
  788MPD2    C411671   3.406   3.995   1.229  0.2757 -0.1060  0.6092
  788MPD2    C511672   3.473   3.978   1.341  0.4790 -0.0570  0.0940
  788MPD2     H11673   3.461   3.691   1.095 -2.5482  1.1331 -1.2386
  788MPD2    H111674   3.353   4.088   1.214  2.7284  1.8138  4.0357
  788MPD2    H211675   3.591   3.835   1.458  2.8044  0.1716 -1.4381
  788MPD2    H311676   3.495   4.061   1.407  1.5472  0.9392 -1.5564
  788MPD2     N11677   3.338   3.918   1.016  0.1112  0.1401 -0.1493
  788MPD2    H511678   3.314   4.014   0.994 -1.8282 -0.1197  0.8376
  788MPD2    N111679   3.586   3.631   1.296  0.2127  0.1382  0.0051
  788MPD2    H711680   3.573   3.570   1.216 -1.3480  1.1503 -0.5020
  789MPD2     C11681   4.056   3.478  16.321 -0.1533  1.0323 -0.8282
  789MPD2    C111682   4.006   3.416  16.433  0.2551  0.4353 -0.0138
  789MPD2    C211683   3.935   3.488  16.523  0.7825  0.4926 -1.1939
  789MPD2    C311684   3.903   3.620  16.497 -0.3688  0.3583 -0.0117
  789MPD2    C411685   3.942   3.675  16.377 -0.0220  0.3016 -0.3615
  789MPD2    C511686   4.027   3.607  16.301  0.3930 -0.5693  0.1108
  789MPD2     H11687   3.891   3.445  16.613  1.0077  2.7748 -0.0152
  789MPD2    H111688   3.926   3.780  16.358  0.3955 -0.0313 -2.5660
  789MPD2    H211689   4.120   3.432  16.247  1.1425 -0.7393  1.3671
  789MPD2    H311690   4.080   3.652  16.218  0.3301  2.4672  1.7319
  789MPD2     N11691   3.836   3.703  16.588 -0.1724 -0.2435 -0.1071
  789MPD2    H511692   3.812   3.795  16.553  2.1673  0.6623  0.6511
  789MPD2    N111693   4.014   3.278  16.451  0.0029  1.0345 -0.5569
  789MPD2    H711694   3.948   3.236  16.516  2.8201 -2.7543 -0.0997
  790MPD2     C11695   0.503   4.618  13.952  0.1778  0.0529 -0.8720
  790MPD2    C111696   0.410   4.519  13.927 -0.9346  0.4432 -0.1903
  790MPD2    C211697   0.313   4.531  13.824 -0.1231 -0.6607 -0.2465
  790MPD2    C311698   0.318   4.634  13.738  0.1099  0.1726 -0.8414
  790MPD2    C411699   0.412   0.002  13.757 -0.9616  0.3585 -0.1649
  790MPD2    C511700   0.498   4.729  13.862 -0.1659  0.0926 -0.6864
  790MPD2     H11701   0.251   4.443  13.824  1.1146 -1.5260  1.7382
  790MPD2    H111702   0.429   0.083  13.687  0.9431 -0.8322 -1.0394
  790MPD2    H211703   0.586   4.611  14.022  1.1718 -0.9052 -2.1613
  790MPD2    H311704   0.572   0.074  13.871 -0.4783  0.6127 -2.6807
  790MPD2     N11705   0.224   4.642  13.630  0.7215 -0.6205  0.2206
  790MPD2    H511706   0.154   4.568  13.627 -1.2788  1.2928 -0.0728
  790MPD2    N111707   0.427   4.402  14.006  0.2275 -0.1618  0.1525
  790MPD2    H711708   0.454   4.403  14.104  1.2066  2.1240 -0.1309
  791MPD2     C11709   4.244   0.030  13.220 -0.6925 -0.1346  0.5007
  791MPD2    C111710   4.308   4.660  13.292  0.7158 -0.5735  0.3292
  791MPD2    C211711   4.233   4.549  13.335 -0.4985 -0.6642 -0.0382
  791MPD2    C311712   4.094   4.548  13.330  0.7251 -0.0784  0.7947
  791MPD2    C411713   4.034   4.650  13.261  0.3973  0.1020 -0.1131
  791MPD2    C511714   4.106   0.017  13.203  0.0160  0.1683  0.3903
  791MPD2     H11715   4.286   4.461  13.367  0.8978 -0.0262 -0.6245
  791MPD2    H111716   3.929   4.653  13.232 -0.3567  0.2885  2.6212
  791MPD2    H211717   4.288   0.116  13.170  0.0586 -0.6078  0.3470
  791MPD2    H311718   4.050   0.091  13.148  0.3443  0.1476  0.0206
  791MPD2     N11719   4.018   4.433  13.370  0.0104 -0.0239 -0.2330
  791MPD2    H511720   4.072   4.366  13.422  0.5023  1.5965  1.3477
  791MPD2    N111721   4.449   4.663  13.288  0.3254  0.3416  0.3953
  791MPD2    H711722   4.494   4.722  13.219 -1.1806 -0.8077 -1.5545
  792MPD2     C11723   0.496   4.710  11.677  0.1193  0.6828 -0.3255
  792MPD2    C111724   0.447   4.691  11.554  0.2240 -0.4417  0.2531
  792MPD2    C211725   0.319   4.646  11.540  0.3893 -0.0737 -0.3543
  792MPD2    C311726   0.241   4.619  11.653 -0.6237  0.1785 -0.2373
  792MPD2    C411727   0.295   4.634  11.777  0.2064 -0.2115 -0.0923
  792MPD2    C511728   0.424   4.690  11.788  0.0179  0.3471  0.3841
  792MPD2     H11729   0.275   4.650  11.440  1.2264  1.9607 -0.6354
  792MPD2    H111730   0.238   4.623  11.868  2.8948  2.3881  1.9169
  792MPD2    H211731   0.597   0.014  11.687 -0.4997  2.3100 -0.2280
  792MPD2    H311732   0.470   4.701  11.886  2.0902 -2.4409 -0.2722
  792MPD2     N11733   0.107   4.591  11.650  0.0710  0.0333  0.0368
  792MPD2    H511734   0.057   4.581  11.738 -3.2788  0.6219 -1.8042
  792MPD2    N111735   0.535   4.719  11.445  0.1602  0.8624  0.6121
  792MPD2    H711736   0.629   0.013  11.471 -0.8616  2.4162  2.5906
  793MPD2     C11737   4.572   4.372  10.782  0.5253  0.7107  0.3248
  793MPD2    C111738   4.670   4.438  10.860 -0.4070 -0.2368  0.7989
  793MPD2    C211739   4.668   4.430  10.998  0.0616 -0.0326 -0.9849
  793MPD2    C311740   4.566   4.362  11.063  0.3284 -0.1803 -0.4219
  793MPD2    C411741   4.463   4.306  10.989  0.1864 -0.2910 -0.5702
  793MPD2    C511742   4.459   4.323  10.850  0.0220 -0.7395 -0.0881
  793MPD2     H11743   0.010   4.468  11.064 -1.3190  0.6888  0.2054
  793MPD2    H111744   4.373   4.277  11.042  0.8828  0.1761  0.8514
  793MPD2    H211745   4.575   4.370  10.673  1.8471  1.5098  0.3445
  793MPD2    H311746   4.372   4.289  10.796 -0.5614 -0.1492  0.4785
  793MPD2     N11747   4.574   4.357  11.204  0.6267 -0.3856  0.2348
  793MPD2    H511748   4.653   4.401  11.250 -1.3548  2.8445  0.5331
  793MPD2    N111749   0.047   4.500  10.808  0.0927  0.0256 -0.1356
  793MPD2    H711750   0.115   4.515  10.881  2.4800 -0.5418 -2.2594
  794MPD2     C11751   4.709   4.088   0.019  0.4279 -0.0068 -0.4034
  794MPD2    C111752   4.715   3.981  17.671 -0.0369 -0.2011  0.5595
  794MPD2    C211753   4.693   3.988  17.538  0.5257 -0.2275 -0.0621
  794MPD2    C311754   4.660   4.107  17.481 -0.5019  0.0242 -0.0485
  794MPD2    C411755   4.635   4.217  17.563 -0.4668  0.5399  0.1183
  794MPD2    C511756   4.671   4.202  17.697 -0.1151  0.5012  0.1714
  794MPD2     H11757   4.716   3.898  17.482 -1.0484  0.1346 -1.3017
  794MPD2    H111758   4.593   4.310  17.527  2.6969  2.3220  0.9717
  794MPD2    H211759   4.725   4.089   0.126  0.7054 -0.5254 -0.4377
  794MPD2    H311760   4.672   4.294   0.019 -1.9262 -0.5389  1.8454
  794MPD2     N11761   4.643   4.124  17.337 -0.2861  0.2212 -0.3453
  794MPD2    H511762   4.611   4.218  17.316  0.5095  0.3859 -0.7928
  794MPD2    N111763   0.011   3.854  17.723 -1.3659 -0.6351  0.3274
  794MPD2    H711764   4.732   3.767  17.674 -0.0532 -0.8698  0.4117
  795MPD2     C11765   2.157   1.292  14.169  0.0536 -0.6632 -0.2177
  795MPD2    C111766   2.127   1.204  14.065 -0.2898 -0.9584  0.2354
  795MPD2    C211767   2.223   1.113  14.025 -0.5750 -0.1308 -0.3064
  795MPD2    C311768   2.347   1.109  14.089  0.2606 -0.4632  0.1055
  795MPD2    C411769   2.374   1.202  14.187  0.2317  0.0068 -0.4551
  795MPD2    C511770   2.279   1.293  14.221 -0.2337  0.1757  0.7830
  795MPD2     H11771   2.206   1.047  13.940 -1.5334 -0.7886  0.4006
  795MPD2    H111772   2.470   1.200  14.237 -0.3461 -4.0094  0.5496
  795MPD2    H211773   2.081   1.363  14.200  1.6559  0.5256  1.0252
  795MPD2    H311774   2.300   1.370  14.295  0.6039 -0.4169  1.1574
  795MPD2     N11775   2.457   1.015  14.058  0.0447 -0.3915 -0.1560
  795MPD2    H511776   2.548   1.031  14.099  0.0941 -1.0339 -0.0263
  795MPD2    N111777   2.015   1.220  13.982  0.1782 -0.8801  0.0017
  795MPD2    H711778   1.986   1.151  13.914 -1.4182 -0.8368  0.6578
  796MPD2     C11779   2.387   3.063  15.799 -0.4216 -0.2167 -0.1947
  796MPD2    C111780   2.344   3.036  15.933 -0.2012  0.1027  0.9425
  796MPD2    C211781   2.293   3.140  16.011  0.4011  0.2334 -0.2977
  796MPD2    C311782   2.273   3.271  15.956  0.3322 -0.0581  0.0842
  796MPD2    C411783   2.290   3.289  15.822  0.4847 -0.3898 -0.0409
  796MPD2    C511784   2.345   3.186  15.751 -0.0414  0.1994  0.4453
  796MPD2     H11785   2.257   3.116  16.110  1.5192 -0.4744 -0.0638
  796MPD2    H111786   2.276   3.385  15.773  0.6077 -0.8738 -1.0308
  796MPD2    H211787   2.440   2.998  15.730 -0.1845  0.4885 -0.6647
  796MPD2    H311788   2.364   3.192  15.644 -2.9730  0.0804 -0.1079
  796MPD2     N11789   2.238   3.378  16.041  0.6280 -0.5861  0.3902
  796MPD2    H511790   2.237   3.356  16.140 -2.6735 -1.5501  0.1544
  796MPD2    N111791   2.365   2.904  15.983  0.1164 -0.6508 -0.1545
  796MPD2    H711792   2.443   2.856  15.940  0.9162  0.8991 -0.4520
  797MPD2     C11793   3.233   2.611  17.392  0.2699 -0.0592 -0.3020
  797MPD2    C111794   3.163   2.691  17.484 -0.0611  0.4880 -0.2571
  797MPD2    C211795   3.042   2.746  17.447  0.3150 -0.2687  0.0464
  797MPD2    C311796   3.003   2.744  17.311 -0.2478  0.9395  0.1381
  797MPD2    C411797   3.071   2.660  17.232  0.5040 -0.9523 -0.1674
  797MPD2    C511798   3.179   2.585  17.262 -0.6423  0.0209  0.7308
  797MPD2     H11799   2.993   2.815  17.514  2.7395  0.5462  0.9485
  797MPD2    H111800   3.041   2.643  17.129  2.3628  0.7633 -0.9826
  797MPD2    H211801   3.334   2.574  17.402 -0.1880 -0.9026  1.1483
  797MPD2    H311802   3.229   2.526  17.186  0.6279  0.8814  0.8954
  797MPD2     N11803   2.892   2.808  17.249  0.2881  0.1422 -0.7996
  797MPD2    H511804   2.875   2.793  17.150  0.4209 -2.3502 -0.4395
  797MPD2    N111805   3.211   2.719  17.617  0.6045  0.0992  0.3160
  797MPD2    H711806   3.160   2.777  17.683 -0.9166 -1.2470  0.3314
  798MPD2     C11807   3.097   3.403  17.497 -0.2754 -0.1961  0.0068
  798MPD2    C111808   3.032   3.282  17.504 -0.5310 -0.2938 -0.2783
  798MPD2    C211809   3.074   3.190  17.599  0.1358  0.5261  0.2343
  798MPD2    C311810   3.165   3.228  17.692 -0.6257  0.0086 -0.1213
  798MPD2    C411811   3.214   3.358  17.698  0.1024 -0.3316  0.1416
  798MPD2    C511812   3.183   3.439  17.593  0.0983  0.5092  0.1395
  798MPD2     H11813   3.034   3.089  17.595  2.5205 -0.2935 -2.7633
  798MPD2    H111814   3.281   3.391   0.041  0.6160 -0.1682 -0.3598
  798MPD2    H211815   3.072   3.470  17.416  0.6040  1.4075  1.0687
  798MPD2    H311816   3.219   3.541  17.596  0.0368  0.5568 -0.6224
  798MPD2     N11817   3.208   3.127   0.040 -0.2612  0.6104 -0.2600
  798MPD2    H511818   3.158   3.039   0.036  0.1915  0.3345  0.2000
  798MPD2    N111819   2.935   3.243  17.406  0.7060 -0.2040 -0.2884
  798MPD2    H711820   2.901   3.150  17.424 -1.0997  0.2474 -1.4023
  799MPD2     C11821   1.542   3.969  15.017  0.1017  0.2970 -0.0036
  799MPD2    C111822   1.464   3.882  14.942 -0.4594  0.0464  0.2699
  799MPD2    C211823   1.386   3.938  14.839 -0.8342  0.0583 -0.2244
  799MPD2    C311824   1.399   4.068  14.796  0.2087 -0.7961 -0.1565
  799MPD2    C411825   1.478   4.156  14.871 -0.5977 -0.5300  0.2099
  799MPD2    C511826   1.537   4.104  14.990 -0.0742 -0.3598 -0.4665
  799MPD2     H11827   1.315   3.878  14.783 -2.6304  2.7380 -0.7951
  799MPD2    H111828   1.494   4.261  14.849 -0.6389 -0.0347  2.4883
  799MPD2    H211829   1.598   3.938  15.105 -0.3479  0.3777  0.3094
  799MPD2    H311830   1.577   4.186  15.049  0.6075 -0.6320 -0.5572
  799MPD2     N11831   1.349   4.114  14.672  0.0347  0.1418  0.2310
  799MPD2    H511832   1.371   4.209  14.644 -1.2336 -0.2115 -1.9099
  799MPD2    N111833   1.455   3.745  14.984  0.2266  0.0696  0.1016
  799MPD2    H711834   1.381   3.690  14.942  2.0037 -0.7143 -2.0191
  800MPD2     C11835   2.252   4.685  14.327  0.1858  0.9828 -0.5598
  800MPD2    C111836   2.391   4.702  14.310  0.5277  0.0995 -0.1059
  800MPD2    C211837   2.453   4.626  14.213  0.3668 -0.4778  0.6152
  800MPD2    C311838   2.375   4.539  14.129 -0.7592  0.8892 -0.0611
  800MPD2    C411839   2.244   4.514  14.168 -0.3833 -0.3038 -0.5363
  800MPD2    C511840   2.183   4.582  14.266  0.0168  0.1009 -0.1609
  800MPD2     H11841   2.559   4.632  14.189 -0.3177 -0.9274 -2.6417
  800MPD2    H111842   2.189   4.456  14.095  0.1904 -0.8844 -0.5086
  800MPD2    H211843   2.205   0.011  14.405  0.1425 -0.8863  0.8715
  800MPD2    H311844   2.075   4.571  14.276  0.3688 -1.3616  2.1637
  800MPD2     N11845   2.456   4.481  14.027  0.4428 -0.1538 -0.2498
  800MPD2    H511846   2.550   4.521  14.024  0.6299 -0.6308 -0.6273
  800MPD2    N111847   2.454   0.064  14.385  0.5625 -0.0908 -0.0178
  800MPD2    H711848   2.398   0.118  14.450  0.5985 -1.0308  0.7880
  801MPD2     C11849   2.344   0.808  14.327  0.0451 -0.3494 -0.1588
  801MPD2    C111850   2.412   0.773  14.442  0.0292  0.4224 -0.0106
  801MPD2    C211851   2.378   0.824  14.565  0.1241  0.1885  0.9150
  801MPD2    C311852   2.271   0.906  14.572  0.7262  0.5347 -0.1385
  801MPD2    C411853   2.214   0.955  14.457  0.1694  0.4145 -0.0899
  801MPD2    C511854   2.239   0.904  14.334  0.0704  0.5402  0.1937
  801MPD2     H11855   2.433   0.785  14.649 -2.1796  2.2564  3.3810
  801MPD2    H111856   2.129   1.018  14.477 -2.1871 -2.1127 -2.1960
  801MPD2    H211857   2.380   0.771  14.232  2.3085  2.2950 -0.3349
  801MPD2    H311858   2.198   0.936  14.239  0.6539  0.5591 -0.0544
  801MPD2     N11859   2.211   0.942  14.699 -0.5810 -0.3953 -0.4270
  801MPD2    H511860   2.127   0.998  14.692 -0.6679 -0.5035 -0.2618
  801MPD2    N111861   2.510   0.674  14.450 -0.2454 -0.2218 -0.0034
  801MPD2    H711862   2.569   0.674  14.533  1.3390  0.9954 -1.1432
  802MPD2     C11863   1.553   1.854   0.910  0.1760 -0.8914  0.2806
  802MPD2    C111864   1.474   1.834   0.803  0.2557 -0.2372  0.4335
  802MPD2    C211865   1.520   1.755   0.700  0.1515 -0.3128 -0.0509
  802MPD2    C311866   1.647   1.701   0.703  0.7673  0.1098 -0.2206
  802MPD2    C411867   1.736   1.731   0.812 -0.3373  0.7208  1.0794
  802MPD2    C511868   1.674   1.795   0.917  0.6135 -0.1756  0.1732
  802MPD2     H11869   1.453   1.725   0.619  1.7928 -0.3523 -1.3956
  802MPD2    H111870   1.834   1.685   0.821  0.7340  2.4957 -1.3317
  802MPD2    H211871   1.510   1.902   0.997 -0.8901 -0.2609 -0.5958
  802MPD2    H311872   1.733   1.821   1.004  2.9530 -2.8800 -0.5917
  802MPD2     N11873   1.689   1.617   0.598  0.3059  0.2274 -0.0426
  802MPD2    H511874   1.612   1.589   0.539 -0.3401  1.8761  0.0174
  802MPD2    N111875   1.338   1.874   0.801 -0.3103 -0.5738 -0.2649
  802MPD2    H711876   1.287   1.854   0.715  0.6408 -1.4456 -0.6342
  803MPD2     C11877   2.551   3.898  12.467  0.4137 -0.1659  0.5620
  803MPD2    C111878   2.563   4.033  12.467  0.6547  0.5550  0.3493
  803MPD2    C211879   2.582   4.093  12.590 -0.0167 -0.0017 -0.6008
  803MPD2    C311880   2.595   4.023  12.713  0.7385 -0.1991  0.4671
  803MPD2    C411881   2.568   3.890  12.700  0.0481  0.6416 -0.1825
  803MPD2    C511882   2.549   3.826  12.581  0.5403 -0.2073  0.7742
  803MPD2     H11883   2.593   4.201  12.587  1.3553 -0.0931  1.2680
  803MPD2    H111884   2.578   3.829  12.790 -1.3599  0.1507 -0.3646
  803MPD2    H211885   2.538   3.840  12.376  2.2251  0.2577  0.0356
  803MPD2    H311886   2.542   3.718  12.581 -3.1221  0.0411  1.8063
  803MPD2     N11887   2.625   4.072  12.842  0.2521 -0.0770  0.0637
  803MPD2    H511888   2.627   3.996  12.910  0.8750  0.5778  0.7621
  803MPD2    N111889   2.573   4.114  12.345 -0.1643 -0.1463  0.1961
  803MPD2    H711890   2.599   4.211  12.353  2.1519 -0.6453 -1.1588
  804MPD2     C11891   2.212   1.272  17.110 -0.2576  0.1401 -0.7218
  804MPD2    C111892   2.211   1.218  17.238  0.5296  0.2185  0.2023
  804MPD2    C211893   2.288   1.280  17.332 -0.0462  0.8640 -0.2498
  804MPD2    C311894   2.354   1.395  17.302  0.0094 -0.6911  0.1484
  804MPD2    C411895   2.348   1.448  17.178  1.2499  0.2495  0.0464
  804MPD2    C511896   2.270   1.390  17.084  1.2046  0.2355  0.2459
  804MPD2     H11897   2.291   1.240  17.432 -0.0444 -1.2235 -1.0842
  804MPD2    H111898   2.417   1.524  17.142  2.1942  0.0665  1.4660
  804MPD2    H211899   2.162   1.217  17.031 -0.6646  0.5578 -0.7574
  804MPD2    H311900   2.284   1.427  16.982 -3.7762 -1.3922 -1.0058
  804MPD2     N11901   2.436   1.463  17.399  0.1447  0.0516 -0.2986
  804MPD2    H511902   2.456   1.423  17.490 -0.0970  1.9577  0.5988
  804MPD2    N111903   2.145   1.094  17.269  0.2163  0.2755  0.1408
  804MPD2    H711904   2.148   1.060  17.365 -1.1109  1.3099  0.5533
  805MPD2     C11905   1.541   4.129  15.930 -0.1155 -0.2072  1.0689
  805MPD2    C111906   1.575   4.243  15.870 -0.9238 -0.2261  0.3384
  805MPD2    C211907   1.707   4.271  15.856  0.1951 -0.1334 -0.0606
  805MPD2    C311908   1.810   4.187  15.906  0.1471  0.6429 -0.1335
  805MPD2    C411909   1.773   4.064  15.959 -0.1865  0.2086 -0.2120
  805MPD2    C511910   1.636   4.047  15.968 -0.0950 -0.1528  0.3053
  805MPD2     H11911   1.743   4.354  15.798 -2.0784  0.3777 -0.7235
  805MPD2    H111912   1.846   3.997  16.002 -0.1246  0.8426  0.6741
  805MPD2    H211913   1.438   4.096  15.935 -0.4033  0.5408  0.1509
  805MPD2    H311914   1.595   3.954  16.008 -0.2704 -0.6560 -1.0296
  805MPD2     N11915   1.943   4.239  15.892  0.7620 -0.1729 -0.0245
  805MPD2    H511916   1.947   4.335  15.861 -0.4829 -0.0428  0.2385
  805MPD2    N111917   1.476   4.335  15.822 -0.1747  0.6317 -0.0968
  805MPD2    H711918   1.513   4.417  15.774  1.9362 -0.7359 -0.8371
  806MPD2     C11919   2.211   3.632   0.265  0.0184  0.3002 -0.3847
  806MPD2    C111920   2.169   3.760   0.272 -0.4825 -0.0066 -0.0003
  806MPD2    C211921   2.196   3.848   0.170  0.2854  0.8489  0.5236
  806MPD2    C311922   2.270   3.811   0.057  0.2564 -0.2323 -0.3810
  806MPD2    C411923   2.325   3.681   0.058  0.5853 -0.0888 -0.9579
  806MPD2    C511924   2.287   3.591   0.156 -0.0835 -0.0479  0.1757
  806MPD2     H11925   2.150   3.946   0.167 -0.8225  0.2232 -2.7738
  806MPD2    H111926   2.393   3.636  17.723 -0.7809 -0.9076 -1.7344
  806MPD2    H211927   2.181   3.554   0.334  0.8658 -2.1958 -2.8316
  806MPD2    H311928   2.327   3.492   0.140 -1.0450 -0.3290 -0.5172
  806MPD2     N11929   2.278   3.902  17.683  0.2000  0.3877 -0.1914
  806MPD2    H511930   2.239   3.995  17.694  0.1150  0.1687  1.2962
  806MPD2    N111931   2.088   3.795   0.385 -0.0706 -0.2241 -0.1336
  806MPD2    H711932   2.071   3.725   0.456  1.0252 -0.9623 -0.5968
  807MPD2     C11933   1.544   3.542   0.875 -0.3596 -0.3153  0.1080
  807MPD2    C111934   1.585   3.666   0.921 -0.3480 -0.7717 -0.8320
  807MPD2    C211935   1.521   3.715   1.035 -0.2233 -0.8434 -0.0026
  807MPD2    C311936   1.429   3.641   1.102 -0.8840  0.7300  0.1342
  807MPD2    C411937   1.382   3.523   1.046  0.9755  0.5975  0.2836
  807MPD2    C511938   1.445   3.464   0.935 -0.2373 -0.0025 -0.0862
  807MPD2     H11939   1.550   3.810   1.079 -2.0668  0.8468 -2.4331
  807MPD2    H111940   1.310   3.462   1.099  0.1881 -0.2158 -1.7071
  807MPD2    H211941   1.584   3.493   0.788  1.1949 -1.4205  1.4434
  807MPD2    H311942   1.431   3.358   0.916  2.6509 -0.1635 -1.3285
  807MPD2     N11943   1.369   3.704   1.205 -0.3528 -0.3493  0.2214
  807MPD2    H511944   1.375   3.805   1.217  0.4348 -0.0551 -2.6434
  807MPD2    N111945   1.693   3.745   0.865 -0.4082 -0.8650 -0.1016
  807MPD2    H711946   1.708   3.830   0.919  1.5241 -2.6169  2.0889
  808MPD2     C11947   2.454   0.116  10.722  0.3359 -0.2162 -0.1420
  808MPD2    C111948   2.427   0.121  10.590  0.0072 -0.6198  0.0634
  808MPD2    C211949   2.457   0.242  10.521 -0.0488 -0.5451 -0.4615
  808MPD2    C311950   2.504   0.356  10.579  0.6215 -0.3526 -0.2138
  808MPD2    C411951   2.540   0.340  10.711  0.5759 -0.7098 -0.2499
  808MPD2    C511952   2.512   0.225  10.784  0.0354  0.0807  0.1927
  808MPD2     H11953   2.424   0.242  10.417 -0.6217  0.1138 -0.2796
  808MPD2    H111954   2.578   0.425  10.766 -1.2366 -1.6955  2.4961
  808MPD2    H211955   2.427   0.032  10.784  1.1063  1.3371  2.2910
  808MPD2    H311956   2.546   0.221  10.887 -3.0642  0.3627  1.2240
  808MPD2     N11957   2.525   0.483  10.521  0.3944 -0.4352  0.9904
  808MPD2    H511958   2.546   0.566  10.574 -1.4386  2.1669 -2.3250
  808MPD2    N111959   2.394   0.005  10.520  0.1674  0.3685 -0.9847
  808MPD2    H711960   2.398   0.012  10.419  0.5216 -0.4209 -1.0208
  809MPD2     C11961   2.842   1.140   9.710  0.1644 -0.0999  0.6579
  809MPD2    C111962   2.883   1.023   9.772 -1.0036  0.2647 -0.3139
  809MPD2    C211963   2.812   0.962   9.877 -0.0450 -0.0939 -0.1934
  809MPD2    C311964   2.700   1.019   9.927  0.5548 -0.1207  0.2877
  809MPD2    C411965   2.678   1.150   9.885  0.7051  0.2459 -0.7184
  809MPD2    C511966   2.744   1.208   9.776 -0.5119  0.2613 -0.2610
  809MPD2     H11967   2.855   0.874   9.924  0.6992  0.2471 -0.2291
  809MPD2    H111968   2.600   1.208   9.934 -0.0481 -0.7556 -0.7449
  809MPD2    H211969   2.911   1.190   9.643 -1.2649 -0.2116 -0.9251
  809MPD2    H311970   2.710   1.307   9.747 -0.6501 -0.5430 -2.7720
  809MPD2     N11971   2.628   0.957  10.034  0.6989  0.3624 -0.5774
  809MPD2    H511972   2.557   1.010  10.083  0.8358  0.7642 -0.8129
  809MPD2    N111973   3.005   0.957   9.740  0.4999  0.4105 -0.0613
  809MPD2    H711974   3.043   0.884   9.800  1.4845 -0.6983 -2.0110
  810MPD2     C11975   2.247   0.452  10.941 -0.5500 -0.5119 -0.4027
  810MPD2    C111976   2.186   0.438  10.824  0.7075  0.0141  0.4058
  810MPD2    C211977   2.171   0.542  10.736 -0.4966  0.1584  0.4954
  810MPD2    C311978   2.207   0.667  10.779 -0.0277 -0.0538  0.3868
  810MPD2    C411979   2.267   0.685  10.896  0.2489  0.9916 -0.0359
  810MPD2    C511980   2.292   0.577  10.980 -0.2158  0.5339 -0.5717
  810MPD2     H11981   2.106   0.525  10.651  0.9869 -0.0327 -0.6081
  810MPD2    H111982   2.305   0.780  10.931 -1.0717  1.2716  0.6804
  810MPD2    H211983   2.258   0.361  11.000  1.0068  0.6891  1.1584
  810MPD2    H311984   2.344   0.589  11.075  0.4791  0.5345 -0.9522
  810MPD2     N11985   2.184   0.782  10.701 -0.5688  0.4239 -0.3201
  810MPD2    H511986   2.196   0.875  10.740 -0.7219  0.2196  0.2198
  810MPD2    N111987   2.149   0.317  10.771  0.0298 -0.2365  0.3248
  810MPD2    H711988   2.120   0.324  10.674 -1.1221  2.0813  0.8277
  811MPD2     C11989   1.711   4.712  10.163  0.1003 -0.3929  0.3827
  811MPD2    C111990   1.785   0.067  10.239  0.3304  0.5058  0.2675
  811MPD2    C211991   1.776   0.200  10.207  0.2952 -0.8285  0.0269
  811MPD2    C311992   1.701   0.242  10.101  0.0349  0.1105 -0.3761
  811MPD2    C411993   1.634   0.149  10.027  0.0667 -0.6116  0.0449
  811MPD2    C511994   1.646   0.022  10.052 -0.5188  0.1511 -0.5968
  811MPD2     H11995   1.827   0.280  10.261 -1.5825  0.0430  0.5094
  811MPD2    H111996   1.587   0.187   9.937 -1.3973 -1.0859  0.6114
  811MPD2    H211997   1.711   4.606  10.184 -1.0414  0.0749  2.6729
  811MPD2    H311998   1.599   4.694   9.977 -1.4320  0.1477 -0.0251
  811MPD2     N11999   1.699   0.376  10.059  0.0494  0.2675 -0.1855
  811MPD2    H512000   1.752   0.438  10.120  1.5062 -0.7763 -0.3737
  811MPD2    N112001   1.869   0.020  10.339  0.5079 -0.2805 -0.2172
  811MPD2    H712002   1.853   4.659  10.369 -0.2597 -0.0446  0.1156
  812MPD2     C12003   1.048   4.484  12.135 -0.3190  0.0378  0.0934
  812MPD2    C112004   0.975   4.592  12.181 -0.4591  0.1484 -0.2249
  812MPD2    C212005   0.898   4.588  12.294 -0.0367  0.4172 -0.5432
  812MPD2    C312006   0.890   4.474  12.368 -0.2837 -0.2244 -0.3522
  812MPD2    C412007   0.964   4.366  12.328  0.2275  0.0058  0.4826
  812MPD2    C512008   1.048   4.376  12.217  0.1950  0.5500  0.7967
  812MPD2     H12009   0.854   4.678  12.336 -0.5982  0.3627 -1.0183
  812MPD2    H112010   0.970   4.276  12.388  1.4289 -0.3058 -0.0931
  812MPD2    H212011   1.111   4.479  12.047 -0.8531  0.3424 -0.3119
  812MPD2    H312012   1.105   4.287  12.192 -1.1764  0.3274 -1.5230
  812MPD2     N12013   0.818   4.477  12.487  0.0884 -0.0623  0.1099
  812MPD2    H512014   0.778   4.565  12.520  0.9608  1.2600 -2.3824
  812MPD2    N112015   0.994   4.714  12.105  0.9844 -0.3371  0.0431
  812MPD2    H712016   1.065   4.703  12.033  2.6068  1.0256  1.4435
  813MPD2     C12017   3.896   1.789  12.631  0.2137  0.3363  0.0773
  813MPD2    C112018   4.026   1.826  12.674 -0.8386 -0.1420  0.0936
  813MPD2    C212019   4.032   1.886  12.798  0.3124  0.3021 -0.6394
  813MPD2    C312020   3.924   1.906  12.882 -0.2747  0.4617 -0.4205
  813MPD2    C412021   3.792   1.887  12.826  0.1304  0.4840  0.5054
  813MPD2    C512022   3.779   1.822  12.701  0.1786  0.1165  1.0948
  813MPD2     H12023   4.130   1.910  12.836  0.2845 -0.6901  0.0402
  813MPD2    H112024   3.701   1.915  12.878  0.3062  1.5723  0.2090
  813MPD2    H212025   3.879   1.727  12.544 -0.6724  3.1316 -1.7415
  813MPD2    H312026   3.683   1.800  12.656 -0.5451  0.5671  2.4073
  813MPD2     N12027   3.946   1.941  13.017  0.0701 -0.1711  0.7918
  813MPD2    H512028   4.045   1.957  13.031  0.6437 -1.3609 -2.0810
  813MPD2    N112029   4.133   1.782  12.601 -0.4727 -0.0553 -0.3599
  813MPD2    H712030   4.116   1.714  12.527  2.9722 -1.5117  0.1850
  814MPD2     C12031   0.312   3.080  12.470 -0.2416 -0.0466 -0.2281
  814MPD2    C112032   0.333   3.157  12.360 -0.5000 -0.5876 -0.5775
  814MPD2    C212033   0.413   3.265  12.371  0.5185  0.2400  0.1947
  814MPD2    C312034   0.481   3.301  12.484 -0.0782 -0.0016  0.0852
  814MPD2    C412035   0.464   3.220  12.595 -0.3058 -0.7731  0.2545
  814MPD2    C512036   0.379   3.114  12.586  0.1887 -0.6476 -0.4072
  814MPD2     H12037   0.424   3.328  12.283  0.3317  1.9943  1.4196
  814MPD2    H112038   0.512   3.242  12.689  0.8145 -0.7375 -0.3170
  814MPD2    H212039   0.238   3.002  12.484 -2.0537  1.8963  1.0205
  814MPD2    H312040   0.355   3.046  12.667 -1.0122 -1.2063 -1.2342
  814MPD2     N12041   0.579   3.406  12.487  0.0276  0.2677 -0.4695
  814MPD2    H512042   0.625   3.429  12.575 -0.0952  1.1766 -0.6524
  814MPD2    N112043   0.277   3.142  12.233 -0.3585  0.0785 -0.0803
  814MPD2    H712044   0.284   3.213  12.160  0.4063  0.5729  0.4734
  815MPD2     C12045   1.126   1.152  12.374  0.0056  0.2534 -0.2380
  815MPD2    C112046   1.093   1.179  12.240 -0.1670 -0.7752  0.3567
  815MPD2    C212047   0.996   1.275  12.224 -0.2773 -0.6655  0.3280
  815MPD2    C312048   0.918   1.316  12.332 -0.6352  0.8880 -0.5031
  815MPD2    C412049   0.954   1.281  12.463 -0.1283  0.9114  0.1484
  815MPD2    C512050   1.066   1.211  12.477  0.3479  0.6025 -0.0000
  815MPD2     H12051   0.957   1.301  12.126 -1.4601 -0.9255  0.7355
  815MPD2    H112052   0.902   1.317  12.551 -0.6782  0.5715 -0.0392
  815MPD2    H212053   1.211   1.087  12.390 -0.7777 -0.7352 -0.0544
  815MPD2    H312054   1.092   1.191  12.580 -2.4374 -1.9060  0.2346
  815MPD2     N12055   0.810   1.390  12.293  0.3198 -0.5237  0.1902
  815MPD2    H512056   0.795   1.397  12.193 -1.2310  0.9180  0.5132
  815MPD2    N112057   1.154   1.101  12.136  0.4256 -0.5079 -0.1883
  815MPD2    H712058   1.188   1.012  12.168  0.3225 -0.8204 -0.9333
  816MPD2     C12059   1.235   0.646  17.306  0.2586  0.6415  0.0208
  816MPD2    C112060   1.126   0.644  17.216  0.4790  0.0609 -0.5660
  816MPD2    C212061   1.150   0.603  17.081  0.2237  0.1306  0.5114
  816MPD2    C312062   1.274   0.569  17.040  0.6094 -0.3974  0.0911
  816MPD2    C412063   1.383   0.569  17.131  0.1676  0.0267  0.2623
  816MPD2    C512064   1.356   0.605  17.257  0.0552  0.0273  0.2469
  816MPD2     H12065   1.072   0.596  17.006  0.8629  3.2113 -0.4022
  816MPD2    H112066   1.482   0.533  17.107 -0.0495  0.2193 -0.9081
  816MPD2    H212067   1.219   0.689  17.405  1.9683  1.6761 -0.1589
  816MPD2    H312068   1.444   0.607  17.320  0.2968 -0.4959 -0.0813
  816MPD2     N12069   1.295   0.541  16.902  0.0635  0.2045 -0.3454
  816MPD2    H512070   1.208   0.538  16.850  0.6495  1.9566 -1.3910
  816MPD2    N112071   1.004   0.699  17.266  0.6045  0.5427 -0.3908
  816MPD2    H712072   1.008   0.729  17.363  0.3323 -1.1587  0.1405
  817MPD2     C12073   0.560   2.334   9.878  1.2518  0.8418 -0.4555
  817MPD2    C112074   0.534   2.201   9.882  0.8868 -0.0942  0.6217
  817MPD2    C212075   0.437   2.153   9.795 -0.6921  0.2931  0.2548
  817MPD2    C312076   0.361   2.235   9.709  0.8891  0.6232 -0.9403
  817MPD2    C412077   0.392   2.369   9.716  0.1912  0.0683  0.3580
  817MPD2    C512078   0.486   2.411   9.795 -0.4874  0.9031  0.4795
  817MPD2     H12079   0.433   2.046   9.782 -1.3191  0.6053 -2.0682
  817MPD2    H112080   0.326   2.437   9.664  1.7035  0.6879 -0.7552
  817MPD2    H212081   0.639   2.374   9.941 -0.5616  3.7096 -0.0372
  817MPD2    H312082   0.510   2.516   9.780  1.1515  0.4288 -0.1848
  817MPD2     N12083   0.275   2.171   9.617  0.2934  0.4375 -0.4216
  817MPD2    H512084   0.284   2.070   9.611 -0.6026  0.3933 -1.0772
  817MPD2    N112085   0.603   2.110   9.973  0.3484 -0.4492  0.0617
  817MPD2    H712086   0.576   2.012   9.963  1.2819 -0.7087  0.0987
  818MPD2     C12087   4.018   2.916  10.611  0.1020  0.1384 -0.4443
  818MPD2    C112088   3.926   2.845  10.681 -0.0025  0.0638 -0.2489
  818MPD2    C212089   3.916   2.716  10.643 -0.3975 -0.3520  0.5121
  818MPD2    C312090   3.991   2.655  10.543  0.0749 -0.1918  0.2788
  818MPD2    C412091   4.077   2.739  10.475  0.5023 -0.1090  0.3302
  818MPD2    C512092   4.089   2.869  10.510  0.9386 -0.4135 -0.0666
  818MPD2     H12093   3.842   2.662  10.701  0.1070 -2.6833 -1.0072
  818MPD2    H112094   4.143   2.707  10.395  0.0775 -0.3234  0.0678
  818MPD2    H212095   4.026   3.021  10.638  4.3345  0.6275 -3.6062
  818MPD2    H312096   4.144   2.938  10.447 -1.4171  1.8973  0.3964
  818MPD2     N12097   4.006   2.514  10.529 -0.2476  0.2779  0.1412
  818MPD2    H512098   4.088   2.478  10.482 -0.6051 -1.8172  1.1231
  818MPD2    N112099   3.851   2.895  10.791  0.0101 -0.6048 -0.6945
  818MPD2    H712100   3.799   2.824  10.842 -0.4334  1.2135  1.3882
  819MPD2     C12101   2.400   4.238  15.633  0.1297  0.4889  0.0842
  819MPD2    C112102   2.382   4.103  15.668 -0.1793 -0.4025  0.7306
  819MPD2    C212103   2.476   4.045  15.749 -0.0308 -0.4051  0.8783
  819MPD2    C312104   2.590   4.119  15.788  0.4125 -0.1378 -0.0242
  819MPD2    C412105   2.607   4.249  15.747  0.6414  0.7525  0.1495
  819MPD2    C512106   2.516   4.311  15.668  0.5314 -0.4260  0.5775
  819MPD2     H12107   2.466   3.944  15.788  0.6087 -1.0319 -0.5497
  819MPD2    H112108   2.696   4.306  15.773  1.1741  0.3024 -0.6813
  819MPD2    H212109   2.323   4.290  15.577  0.9064  1.8456  0.2939
  819MPD2    H312110   2.535   4.412  15.635  0.4156 -0.3335  0.7922
  819MPD2     N12111   2.673   4.052  15.879 -0.6780 -0.0176 -0.2215
  819MPD2    H512112   2.646   3.956  15.896 -0.6746 -0.2900 -1.7928
  819MPD2    N112113   2.261   4.044  15.625  0.1794  0.3271  0.3082
  819MPD2    H712114   2.206   4.089  15.553  0.2875 -1.8740 -1.1377
  820MPD2     C12115   1.317   4.155  15.320  0.8221 -0.7448 -0.1560
  820MPD2    C112116   1.402   4.242  15.393 -0.1152 -0.4121 -0.0835
  820MPD2    C212117   1.516   4.182  15.445 -0.5552  0.6467 -0.2250
  820MPD2    C312118   1.547   4.047  15.419  0.1468  0.4771  0.2918
  820MPD2    C412119   1.460   3.965  15.353  0.4656  0.1993 -0.2417
  820MPD2    C512120   1.348   4.022  15.296  0.1785 -0.1571  0.4368
  820MPD2     H12121   1.586   4.235  15.508  0.6675 -1.2521  0.0090
  820MPD2    H112122   1.483   3.860  15.346 -0.2483  0.0210  0.1180
  820MPD2    H212123   1.231   4.202  15.273 -0.1618 -0.4421  1.9766
  820MPD2    H312124   1.286   3.953  15.239  0.0425 -1.2468  1.8883
  820MPD2     N12125   1.658   3.982  15.476 -0.0773 -0.1545  0.7737
  820MPD2    H512126   1.673   3.884  15.454 -3.1230  0.1858 -2.7999
  820MPD2    N112127   1.360   4.380  15.416 -0.2273  0.1418  0.1000
  820MPD2    H712128   1.265   4.406  15.395  0.0835  0.8795 -0.3629
  821MPD2     C12129   2.420   0.041  13.296 -0.3316  0.1029 -0.6299
  821MPD2    C112130   2.533   0.042  13.367 -0.4535 -0.1265  0.8820
  821MPD2    C212131   2.626   0.138  13.354  0.0558 -0.5120  0.2155
  821MPD2    C312132   2.612   0.229  13.251 -0.5828  0.3716  0.0504
  821MPD2    C412133   2.494   0.232  13.184  1.2619  0.4214 -0.4663
  821MPD2    C512134   2.392   0.140  13.206 -0.5418 -0.3131  0.1008
  821MPD2     H12135   2.718   0.135  13.412  0.9341  0.1574 -1.1290
  821MPD2    H112136   2.482   0.302  13.102  0.6110 -0.5430 -1.1943
  821MPD2    H212137   2.349   4.693  13.297  0.8676 -0.9196  0.2609
  821MPD2    H312138   2.309   0.129  13.137 -1.6394  0.3854  1.3001
  821MPD2     N12139   2.709   0.324  13.220 -0.3842  0.5896  0.1985
  821MPD2    H512140   2.694   0.382  13.138  1.2836  0.7273 -0.0027
  821MPD2    N112141   2.570   4.671  13.457 -0.1607 -0.1316 -0.3881
  821MPD2    H712142   2.662   4.688  13.495  0.9485 -2.1833 -2.1792
  822MPD2     C12143   3.024   0.584  15.916  0.8666 -0.2181  0.3608
  822MPD2    C112144   3.095   0.617  16.030 -0.1923  0.6858  0.2235
  822MPD2    C212145   3.030   0.715  16.107 -0.2232 -0.2379  0.2271
  822MPD2    C312146   2.911   0.774  16.071 -0.4071  0.6650 -0.6557
  822MPD2    C412147   2.848   0.736  15.957 -0.4939 -0.7851  0.1654
  822MPD2    C512148   2.908   0.643  15.880 -0.1184 -0.3420 -0.6832
  822MPD2     H12149   3.087   0.747  16.193 -0.5225 -0.0084  0.3410
  822MPD2    H112150   2.755   0.781  15.924  0.4007  0.7458 -0.2643
  822MPD2    H212151   3.061   0.515  15.841  1.3453  1.2813 -0.7837
  822MPD2    H312152   2.850   0.626  15.790  1.0043  0.9963 -1.6653
  822MPD2     N12153   2.855   0.865  16.159 -0.5960  0.4026 -0.3688
  822MPD2    H512154   2.914   0.910  16.228  2.1605  0.7113 -2.9403
  822MPD2    N112155   3.219   0.550  16.062 -0.1252  0.3202 -0.4845
  822MPD2    H712156   3.271   0.579  16.145 -0.1097  1.6691 -0.9651
  823MPD2     C12157   2.396   1.001  16.925  0.0222  0.1143  0.4708
  823MPD2    C112158   2.466   0.938  16.825 -0.1627  0.2554 -0.0606
  823MPD2    C212159   2.546   0.827  16.854  0.3409  0.3529  0.7177
  823MPD2    C312160   2.555   0.778  16.985 -0.5151  0.0282  0.8065
  823MPD2    C412161   2.489   0.848  17.083 -0.1404 -0.1290  0.5522
  823MPD2    C512162   2.406   0.958  17.054 -0.6482  0.4661  0.0782
  823MPD2     H12163   2.600   0.777  16.775  0.9739  1.1140  0.6733
  823MPD2    H112164   2.496   0.807  17.183 -1.1108 -1.3077  0.1446
  823MPD2    H212165   2.349   1.095  16.902  1.1360  0.8333  1.1533
  823MPD2    H312166   2.355   1.021  17.126  0.5712  1.8183 -0.2328
  823MPD2     N12167   2.657   0.684  17.031 -0.0047  0.4032 -0.1329
  823MPD2    H512168   2.673   0.679  17.132  1.7822 -2.1492 -0.5428
  823MPD2    N112169   2.472   0.990  16.694  0.1036  0.2612  0.7783
  823MPD2    H712170   2.429   1.080  16.672 -0.8586 -0.1466  0.9732
  824MPD2     C12171   3.679   4.510  16.282  0.5588  0.8981 -0.6919
  824MPD2    C112172   3.664   4.583  16.163 -0.3193  0.3444  0.3346
  824MPD2    C212173   3.739   4.546  16.050 -0.4166  0.4749 -0.2914
  824MPD2    C312174   3.819   4.435  16.062 -0.5091 -0.5087 -0.0882
  824MPD2    C412175   3.834   4.370  16.185 -0.5448  0.0333  0.5490
  824MPD2    C512176   3.764   4.403  16.295 -0.3810  0.1428 -0.7886
  824MPD2     H12177   3.717   4.583  15.950  1.6737  1.1299 -0.5002
  824MPD2    H112178   3.899   4.284  16.198  0.1340  0.3232 -0.9721
  824MPD2    H212179   3.621   4.533  16.370  0.1886  1.7680 -1.1635
  824MPD2    H312180   3.786   4.357  16.391  1.4003 -1.8067 -2.1106
  824MPD2     N12181   3.885   4.394  15.944 -0.5754 -0.1591  0.0199
  824MPD2    H512182   3.891   4.452  15.861  0.4944  0.4590  0.5366
  824MPD2    N112183   3.577   4.690  16.169  0.4163  0.1851  0.0126
  824MPD2    H712184   3.524   4.698  16.255 -0.3981 -0.5440 -0.4156
  825MPD2     C12185   4.577   4.442  15.403  0.3259  0.2311  0.4525
  825MPD2    C112186   4.481   4.499  15.483 -0.4845  0.0808  0.5276
  825MPD2    C212187   4.495   4.630  15.519 -0.4149 -0.2745 -0.4203
  825MPD2    C312188   4.598   4.707  15.468 -0.4161 -0.1512 -0.6604
  825MPD2    C412189   4.693   4.650  15.387 -0.0296  1.4921  0.5495
  825MPD2    C512190   4.687   4.517  15.367  0.6707 -0.2433 -0.0243
  825MPD2     H12191   4.414   4.672  15.579 -0.0361  1.4321 -1.1053
  825MPD2    H112192   0.039   4.707  15.342  1.1439 -1.3384 -0.9335
  825MPD2    H212193   4.558   4.338  15.377 -0.6887 -0.0954  2.5309
  825MPD2    H312194   0.029   4.467  15.309  1.0493  0.9742 -0.5657
  825MPD2     N12195   4.600   0.116  15.485  0.3440 -0.8007  0.2425
  825MPD2    H512196   4.661   0.176  15.431 -0.5241  0.5860  0.7840
  825MPD2    N112197   4.377   4.415  15.532 -0.1883  0.0152 -0.6151
  825MPD2    H712198   4.389   4.318  15.503 -0.6656 -0.0071 -0.7379
  826MPD2     C12199   3.612   3.802  13.971 -0.3528  0.3387  0.0242
  826MPD2    C112200   3.640   3.921  13.907  0.2734 -0.4473  0.2238
  826MPD2    C212201   3.561   4.032  13.936  0.4774 -0.0025  0.1212
  826MPD2    C312202   3.462   4.027  14.035  0.1464  0.0840 -0.0210
  826MPD2    C412203   3.429   3.909  14.098 -0.3157 -0.1739 -0.2022
  826MPD2    C512204   3.505   3.797  14.061  0.2566  0.1236  0.7526
  826MPD2     H12205   3.576   4.126  13.885 -0.7428  0.0150 -0.2042
  826MPD2    H112206   3.359   3.899  14.180 -0.7297 -3.3548 -0.9249
  826MPD2    H212207   3.667   3.710  13.956  1.3896  1.4002 -0.0703
  826MPD2    H312208   3.484   3.695  14.091  2.5445 -0.6307 -0.1993
  826MPD2     N12209   3.390   4.142  14.077  0.4574 -0.3002  0.1321
  826MPD2    H512210   3.324   4.125  14.153  4.1562 -3.3271  2.6326
  826MPD2    N112211   3.753   3.927  13.822 -0.5592 -0.3216  0.1710
  826MPD2    H712212   3.805   3.840  13.810 -0.3210 -0.1258 -0.2426
  827MPD2     C12213   0.033   0.963  10.345 -0.4382 -0.7909  0.7262
  827MPD2    C112214   0.036   0.841  10.401 -0.2014  0.3340 -0.3347
  827MPD2    C212215   4.672   0.754  10.362 -0.7333  0.2032 -0.1376
  827MPD2    C312216   4.574   0.789  10.272 -0.3268  0.2362 -0.0914
  827MPD2    C412217   4.577   0.916  10.214 -1.1431  0.1460  0.0263
  827MPD2    C512218   4.672   1.005  10.254 -0.4819 -0.9232  0.5345
  827MPD2     H12219   4.674   0.660  10.416 -0.1154 -0.4978 -1.3608
  827MPD2    H112220   4.511   0.951  10.135 -1.0899  0.6846  0.2159
  827MPD2    H212221   0.110   1.032  10.376 -0.6928 -0.1954  0.0453
  827MPD2    H312222   4.669   1.107  10.218  2.9919 -0.6509  1.0050
  827MPD2     N12223   4.496   0.682  10.223 -0.8984 -0.1403 -0.2657
  827MPD2    H512224   4.501   0.596  10.277 -0.7883 -1.8380 -2.9447
  827MPD2    N112225   0.129   0.813  10.505  0.8680 -0.3465 -0.3091
  827MPD2    H712226   0.212   0.872  10.500 -0.7052  1.8773 -0.4172
  828MPD2     C12227   3.063   0.441  12.504  0.6593  0.5862  0.4070
  828MPD2    C112228   3.003   0.553  12.462  0.3032 -0.6269  0.1105
  828MPD2    C212229   3.042   0.612  12.338  0.3249  0.0699 -0.1492
  828MPD2    C312230   3.146   0.551  12.266  0.5586 -0.2685 -0.3615
  828MPD2    C412231   3.216   0.445  12.325 -1.1594  0.6580  0.3089
  828MPD2    C512232   3.169   0.385  12.446 -0.0769  1.1363 -0.1296
  828MPD2     H12233   2.990   0.699  12.300 -0.1384  0.1587  0.6799
  828MPD2    H112234   3.302   0.394  12.283 -1.6499 -0.0358  0.1463
  828MPD2    H212235   3.033   0.385  12.592 -1.8837  1.4598  0.0916
  828MPD2    H312236   3.220   0.298  12.485 -0.2549  1.0515 -0.0885
  828MPD2     N12237   3.174   0.588  12.129 -0.0444  0.1163  0.2196
  828MPD2    H512238   3.254   0.544  12.086  0.2389 -0.6044  1.4821
  828MPD2    N112239   2.889   0.618  12.512  0.3397  0.2842  0.7303
  828MPD2    H712240   2.847   0.688  12.452 -2.9775 -1.6222  0.8380
  829MPD2     C12241   2.343   1.102  12.085  0.1086 -0.0057  0.1584
  829MPD2    C112242   2.271   1.111  12.199  0.1034 -0.3014 -0.3674
  829MPD2    C212243   2.327   1.054  12.311 -0.1202 -0.0547 -0.4522
  829MPD2    C312244   2.449   0.984  12.308 -0.1345 -0.1685  0.5623
  829MPD2    C412245   2.520   0.980  12.189  1.0038 -0.3550  0.6986
  829MPD2    C512246   2.460   1.035  12.083 -0.3779 -0.5503 -0.1254
  829MPD2     H12247   2.275   1.041  12.405  1.4306 -1.9660  0.1635
  829MPD2    H112248   2.617   0.933  12.189  2.1419  1.9762  2.8113
  829MPD2    H212249   2.304   1.119  11.985 -0.5702  1.5468  0.6795
  829MPD2    H312250   2.503   1.025  11.985 -1.6012  0.5888 -0.7769
  829MPD2     N12251   2.514   0.926  12.425 -0.1123 -0.2988  0.0889
  829MPD2    H512252   2.602   0.878  12.410 -0.5944 -0.9567 -0.6708
  829MPD2    N112253   2.142   1.169  12.187  0.2780  0.3173  0.0530
  829MPD2    H712254   2.125   1.202  12.093  1.7711 -0.7234 -0.5762
  830MPD2     C12255   2.987   3.398  15.875  0.2604  0.4052 -0.0307
  830MPD2    C112256   2.967   3.525  15.823  0.7685 -0.0491 -0.0069
  830MPD2    C212257   2.977   3.547  15.683  0.1408  0.1974 -0.7991
  830MPD2    C312258   3.030   3.444  15.605 -0.3230 -1.1104  0.2009
  830MPD2    C412259   3.071   3.326  15.665  0.0698  0.0979  0.2819
  830MPD2    C512260   3.037   3.299  15.796  0.7288  0.0438 -0.2749
  830MPD2     H12261   2.958   3.646  15.642 -3.4954 -0.1833 -0.0091
  830MPD2    H112262   3.107   3.247  15.601 -2.9142 -0.7987 -0.3118
  830MPD2    H212263   2.966   3.367  15.977 -1.2918 -1.3003 -0.8579
  830MPD2    H312264   3.052   3.209  15.854 -1.1195  0.8716  1.4985
  830MPD2     N12265   3.045   3.468  15.465  0.0488 -0.0658 -0.4230
  830MPD2    H512266   3.118   3.419  15.414  1.6662  0.7820  1.0856
  830MPD2    N112267   2.934   3.637  15.897  0.0631  0.3830 -0.1545
  830MPD2    H712268   2.941   3.722  15.842  0.4552  0.3968 -0.0802
  831MPD2     C12269   3.124   0.981  16.693  0.8782  0.3341  0.0005
  831MPD2    C112270   3.118   0.956  16.555 -0.8669  0.7389  0.0389
  831MPD2    C212271   3.012   0.873  16.506 -0.0795 -0.1853  0.0569
  831MPD2    C312272   2.926   0.814  16.596 -0.1448 -0.6455  0.3650
  831MPD2    C412273   2.928   0.850  16.733 -0.0564 -0.3789  0.7943
  831MPD2    C512274   3.024   0.936  16.776  0.1126 -0.0931  0.1181
  831MPD2     H12275   2.999   0.847  16.402  0.9909 -1.7071  0.3019
  831MPD2    H112276   2.854   0.807  16.800  0.3481 -2.4640 -0.0944
  831MPD2    H212277   3.200   1.045  16.737  0.2664  3.0855 -2.9266
  831MPD2    H312278   3.006   0.980  16.874  0.7666 -1.2767  0.7740
  831MPD2     N12279   2.840   0.712  16.552 -0.6253 -0.0937 -0.6253
  831MPD2    H512280   2.762   0.700  16.615 -1.3820 -0.1465 -1.5818
  831MPD2    N112281   3.209   1.013  16.464  0.1242 -0.1975  0.2603
  831MPD2    H712282   3.296   1.048  16.500 -0.3256  2.7707 -1.5481
  832MPD2     C12283   1.686   1.505  17.540  0.4804  0.0864 -0.9221
  832MPD2    C112284   1.677   1.630  17.488 -0.3698 -0.7467 -0.1822
  832MPD2    C212285   1.621   1.664  17.363 -0.4125  0.2442  0.8561
  832MPD2    C312286   1.558   1.559  17.292  0.2126 -1.0434  0.1861
  832MPD2    C412287   1.556   1.435  17.351  0.4446 -0.0041  0.5488
  832MPD2    C512288   1.631   1.405  17.462 -0.3560  0.3574  0.2771
  832MPD2     H12289   1.621   1.764  17.323  0.7074  1.1468  3.1144
  832MPD2    H112290   1.504   1.358  17.295 -2.9951  1.7752  1.2962
  832MPD2    H212291   1.739   1.483  17.632 -0.3428  0.9390 -0.2409
  832MPD2    H312292   1.626   1.303  17.498 -1.1751 -0.1859 -1.3477
  832MPD2     N12293   1.475   1.577  17.181  0.2259 -0.1330 -0.7741
  832MPD2    H512294   1.442   1.487  17.146  0.7787 -0.5401 -0.2510
  832MPD2    N112295   1.751   1.722  17.559  0.1205  0.3989 -0.3188
  832MPD2    H712296   1.773   1.683  17.650  2.8045  2.0748 -0.2373
  833MPD2     C12297   3.733   2.952  13.280  0.0960 -0.9670  0.0872
  833MPD2    C112298   3.725   3.086  13.302 -0.4989 -0.3733 -1.2336
  833MPD2    C212299   3.833   3.166  13.277  0.0306  0.0796 -1.1302
  833MPD2    C312300   3.946   3.119  13.216 -0.0783 -0.1869 -0.0052
  833MPD2    C412301   3.949   2.987  13.187  0.0499 -0.5416 -0.3320
  833MPD2    C512302   3.845   2.906  13.211  1.1981  0.1779  0.5523
  833MPD2     H12303   3.829   3.272  13.300  1.2762  0.1817 -1.3597
  833MPD2    H112304   4.036   2.936  13.146  1.6707  1.0588  1.0809
  833MPD2    H212305   3.649   2.888  13.305 -0.4421  0.2630  1.4465
  833MPD2    H312306   3.849   2.799  13.194  0.9751  0.1833  0.4632
  833MPD2     N12307   4.045   3.216  13.188 -0.3212 -0.0377 -0.3422
  833MPD2    H512308   4.020   3.310  13.217  1.1915  0.4205 -0.5482
  833MPD2    N112309   3.607   3.147  13.361 -0.0581  0.3019  0.1411
  833MPD2    H712310   3.618   3.242  13.398  0.6412  0.8853 -1.5822
  834MPD2     C12311   4.256   3.390  12.253 -0.0339 -0.1454  0.0729
  834MPD2    C112312   4.235   3.270  12.313 -0.7917 -0.4106 -0.0578
  834MPD2    C212313   4.216   3.263  12.448  0.3834 -0.2713  0.5864
  834MPD2    C312314   4.222   3.381  12.521 -1.2494 -0.0737 -0.3459
  834MPD2    C412315   4.244   3.498  12.459  1.0799 -0.8042  0.6155
  834MPD2    C512316   4.261   3.502  12.324  0.2831  0.3574  0.8178
  834MPD2     H12317   4.208   3.168  12.499  2.1596  0.7469  2.7451
  834MPD2    H112318   4.238   3.589  12.518  0.8440  0.5198 -1.4350
  834MPD2    H212319   4.268   3.400  12.145 -1.4012  1.5385  0.0733
  834MPD2    H312320   4.274   3.600  12.280  3.7892  0.5249  2.1929
  834MPD2     N12321   4.211   3.373  12.662 -0.1491  0.3404  0.2650
  834MPD2    H512322   4.175   3.282  12.689 -0.7530  0.6727  0.5980
  834MPD2    N112323   4.233   3.156  12.225  0.5107  0.4547 -0.3858
  834MPD2    H712324   4.226   3.176  12.126 -0.2724 -0.8779 -0.5994
  835MPD2     C12325   3.902   0.760  11.107  0.5159  0.1224  0.0440
  835MPD2    C112326   3.796   0.801  11.185  0.6292 -0.3965  0.0435
  835MPD2    C212327   3.820   0.835  11.318 -0.0415  0.6020 -0.0179
  835MPD2    C312328   3.953   0.828  11.369 -1.1996  0.6113  0.3167
  835MPD2    C412329   4.056   0.776  11.287 -0.8288 -0.3151  0.4882
  835MPD2    C512330   4.025   0.745  11.156 -0.4349  0.6499 -0.7521
  835MPD2     H12331   3.737   0.868  11.379 -0.9056  1.9828 -1.9430
  835MPD2    H112332   4.160   0.759  11.312 -0.0823 -0.2570 -2.5001
  835MPD2    H212333   3.896   0.738  11.001 -0.7776  2.1732 -0.3054
  835MPD2    H312334   4.101   0.698  11.096  0.3735  0.7180  0.2227
  835MPD2     N12335   3.984   0.869  11.503  0.0991 -0.6554  0.1384
  835MPD2    H512336   4.074   0.844  11.542  0.2998  0.7751  0.5633
  835MPD2    N112337   3.667   0.812  11.137 -0.2718  0.6536  0.3186
  835MPD2    H712338   3.601   0.851  11.203  0.7288 -2.0776  2.9226
  836MPD2     C12339   3.386   1.112  11.669  0.0704 -0.1853  0.1087
  836MPD2    C112340   3.429   1.100  11.800 -0.0325  0.2737  0.7343
  836MPD2    C212341   3.340   1.093  11.907 -0.0010  0.0006 -0.0795
  836MPD2    C312342   3.210   1.109  11.873 -0.8758  0.1055  0.1962
  836MPD2    C412343   3.159   1.127  11.745  0.0910 -0.0415  0.1153
  836MPD2    C512344   3.249   1.127  11.639  0.7412 -0.7901 -0.4771
  836MPD2     H12345   3.380   1.060  12.002  0.8984 -0.6333 -0.6866
  836MPD2    H112346   3.053   1.139  11.726  0.3646  0.1858 -1.3340
  836MPD2    H212347   3.465   1.119  11.594  0.5054  0.7867  0.6714
  836MPD2    H312348   3.220   1.157  11.539 -0.1626  0.5641  0.1873
  836MPD2     N12349   3.108   1.082  11.969 -0.0710 -0.3510 -0.2131
  836MPD2    H512350   3.015   1.054  11.940  0.1443 -1.2604 -0.0450
  836MPD2    N112351   3.565   1.061  11.808 -0.6243  0.0915 -0.1204
  836MPD2    H712352   3.628   1.060  11.728 -0.0886  0.4362  0.2916
  837MPD2     C12353   2.016   1.105  10.130  0.1643 -0.8681  0.5077
  837MPD2    C112354   1.898   1.097  10.063  0.1158 -0.2062 -0.3605
  837MPD2    C212355   1.818   1.211  10.055 -0.1896 -0.5688  0.4714
  837MPD2    C312356   1.844   1.321  10.131  0.2494  0.2800  0.6577
  837MPD2    C412357   1.953   1.326  10.213  1.0811 -0.3888 -0.7534
  837MPD2    C512358   2.044   1.219  10.201  0.4618 -0.3231 -0.7407
  837MPD2     H12359   1.724   1.218  10.001 -0.0092 -2.6052 -0.1336
  837MPD2    H112360   1.980   1.414  10.270 -3.0084  0.2040  0.2777
  837MPD2    H212361   2.095   1.030  10.132  0.3611 -0.6526  0.8186
  837MPD2    H312362   2.142   1.222  10.246 -0.3588  1.7572  0.9302
  837MPD2     N12363   1.755   1.436  10.121 -0.1369  0.6080 -0.2834
  837MPD2    H512364   1.668   1.421  10.071 -0.9175 -2.2006  1.9535
  837MPD2    N112365   1.852   0.977  10.000 -0.0509 -0.7959 -0.3450
  837MPD2    H712366   1.782   0.994   9.928  0.3740  1.3848 -0.2424
  838MPD2     C12367   0.534   3.983  12.465 -0.2613  0.7214  0.6328
  838MPD2    C112368   0.445   3.901  12.406 -0.7612  0.1017 -0.4595
  838MPD2    C212369   0.391   3.805  12.487 -0.4775 -0.2268 -0.2107
  838MPD2    C312370   0.404   3.805  12.627 -0.9046  0.3926  0.1366
  838MPD2    C412371   0.491   3.899  12.680  0.4320 -0.1860 -0.1217
  838MPD2    C512372   0.569   3.969  12.594  0.0998  0.0098 -0.1256
  838MPD2     H12373   0.324   3.728  12.450  0.0229 -1.4222  1.3938
  838MPD2    H112374   0.527   3.906  12.782 -3.8687 -0.0080  1.3928
  838MPD2    H212375   0.595   4.042  12.398  0.2396  0.7013  1.0716
  838MPD2    H312376   0.650   4.027  12.636 -0.1885 -0.1057  0.5909
  838MPD2     N12377   0.340   3.725  12.720 -0.1151  0.2925  0.4138
  838MPD2    H512378   0.334   3.751  12.817  0.7557  2.1098 -0.0260
  838MPD2    N112379   0.426   3.898  12.267  0.0676 -0.1489  0.0021
  838MPD2    H712380   0.388   3.813  12.226 -0.7732 -0.2542  1.0167
  839MPD2     C12381   4.521   3.500  11.886  0.2912 -0.2737 -0.6327
  839MPD2    C112382   4.598   3.514  11.773  0.3752  0.1690 -0.3771
  839MPD2    C212383   4.720   3.579  11.788 -0.8177 -0.0206 -0.0835
  839MPD2    C312384   0.012   3.639  11.910 -0.6537  0.8928 -0.5837
  839MPD2    C412385   4.675   3.622  12.024  0.2478  1.2089 -0.5545
  839MPD2    C512386   4.565   3.542  12.009  1.0115 -0.1861  0.4657
  839MPD2     H12387   0.050   3.593  11.702  2.0783  1.4652  2.3493
  839MPD2    H112388   4.701   3.660  12.122 -0.7939 -0.4933  0.3873
  839MPD2    H212389   4.433   3.438  11.884 -0.7109  1.0918  1.0854
  839MPD2    H312390   4.505   3.506  12.091 -3.2776  1.5621 -1.9163
  839MPD2     N12391   0.122   3.722  11.928 -0.1393 -0.3333  0.0974
  839MPD2    H512392   0.134   3.767  12.018  1.3257  2.1381 -1.3355
  839MPD2    N112393   4.562   3.443  11.651  0.4625  0.0500  0.2962
  839MPD2    H712394   4.632   3.438  11.577 -1.8893  0.5826 -1.9701
  840MPD2     C12395   0.821   0.889  10.715 -0.0250 -0.0969 -0.6534
  840MPD2    C112396   0.706   0.953  10.688  0.0034  0.1331  0.0324
  840MPD2    C212397   0.700   1.090  10.657 -0.7660  0.8396 -0.3634
  840MPD2    C312398   0.814   1.166  10.679 -0.0556  0.7129 -0.1635
  840MPD2    C412399   0.927   1.104  10.714 -0.0459  0.6623  0.2441
  840MPD2    C512400   0.930   0.967  10.730  0.5616 -0.1629  0.0237
  840MPD2     H12401   0.604   1.129  10.623 -0.5402  2.3315  0.7015
  840MPD2    H112402   1.017   1.158  10.741  1.0880 -3.6099  5.1218
  840MPD2    H212403   0.850   0.786  10.734  3.2320  1.0064  0.4161
  840MPD2    H312404   1.022   0.921  10.763  0.6764  0.9903  1.3250
  840MPD2     N12405   0.810   1.306  10.660 -0.4790 -0.4670  0.0334
  840MPD2    H512406   0.900   1.351  10.671 -0.1620 -1.2294  0.5492
  840MPD2    N112407   0.587   0.882  10.693 -0.0031  0.4021  0.1268
  840MPD2    H712408   0.501   0.934  10.678  0.5216  0.7783 -1.5476
  841MPD2     C12409   4.548   1.399  14.638 -0.2109 -0.9040 -0.2537
  841MPD2    C112410   4.574   1.264  14.645 -0.4563  1.1875 -0.5973
  841MPD2    C212411   4.705   1.219  14.668  0.9155 -0.5476  0.4622
  841MPD2    C312412   0.077   1.311  14.676 -0.4595  0.0193 -0.3582
  841MPD2    C412413   0.046   1.444  14.673  0.1309  0.1705  0.6444
  841MPD2    C512414   4.647   1.483  14.660  0.2062 -0.1307  0.8165
  841MPD2     H12415   4.732   1.116  14.686 -1.6770 -1.0730  1.3539
  841MPD2    H112416   0.120   1.523  14.682 -1.8013  2.0388  0.0458
  841MPD2    H212417   4.450   1.436  14.609 -0.4471 -1.7632 -0.5618
  841MPD2    H312418   4.625   1.588  14.677 -0.1280 -0.2013  0.8266
  841MPD2     N12419   0.211   1.262  14.693 -0.8062 -0.5332 -0.3993
  841MPD2    H512420   0.210   1.161  14.697 -0.5297 -0.4897  0.7259
  841MPD2    N112421   4.476   1.166  14.632 -0.1297  0.1066  0.0520
  841MPD2    H712422   4.498   1.067  14.635 -2.0362 -0.3169  0.1152
  842MPD2     C12423   0.696   2.505  17.465  0.1359 -0.1390 -1.0018
  842MPD2    C112424   0.575   2.493  17.409 -0.1702 -0.4780 -0.0052
  842MPD2    C212425   0.470   2.526  17.494 -0.5771  0.5985 -0.2627
  842MPD2    C312426   0.483   2.517  17.625  0.0077  0.1763  0.0746
  842MPD2    C412427   0.607   2.520  17.683 -0.4812  1.1018  0.3453
  842MPD2    C512428   0.714   2.517  17.600 -0.1357 -0.5285 -0.5484
  842MPD2     H12429   0.369   2.522  17.455 -1.1666  1.0669  1.2283
  842MPD2    H112430   0.630   2.517   0.054  2.7462  1.4539 -0.3448
  842MPD2    H212431   0.785   2.517  17.405  0.7133  1.1555  0.1020
  842MPD2    H312432   0.810   2.531  17.650 -1.0362  0.4620  0.9093
  842MPD2     N12433   0.366   2.513  17.701 -0.1784 -0.4620 -0.0079
  842MPD2    H512434   0.276   2.521  17.654 -0.5102 -1.9441  0.3641
  842MPD2    N112435   0.553   2.464  17.268  0.4122  0.2662  0.2347
  842MPD2    H712436   0.637   2.462  17.211 -1.2845  1.2258 -2.3262
  843MPD2     C12437   3.411   1.983   0.730 -0.2021 -0.3558  0.2550
  843MPD2    C112438   3.387   2.041   0.608 -0.3321 -0.0966 -0.2538
  843MPD2    C212439   3.414   2.178   0.602 -0.1524  0.1588 -0.2464
  843MPD2    C312440   3.466   2.250   0.710  0.2115  0.4884  0.2634
  843MPD2    C412441   3.490   2.183   0.825 -0.1211 -0.0703  0.9234
  843MPD2    C512442   3.459   2.052   0.836  0.2049 -0.0239  0.0981
  843MPD2     H12443   3.387   2.230   0.512  0.0036 -2.4287 -1.7936
  843MPD2    H112444   3.519   2.237   0.914  0.8152  0.2956  0.4000
  843MPD2    H212445   3.393   1.877   0.742 -0.4360 -0.3794 -0.3061
  843MPD2    H312446   3.480   2.002   0.930  1.5807  1.0166  0.3433
  843MPD2     N12447   3.476   2.394   0.716  0.7648 -0.3796  0.1665
  843MPD2    H512448   3.521   2.423   0.803 -2.4379  0.9704  1.3540
  843MPD2    N112449   3.337   1.964   0.504  0.6985  0.1400  0.1970
  843MPD2    H712450   3.331   1.863   0.519 -3.2815  0.4959  1.0334
  844MPD2     C12451   1.550   1.175  16.530 -0.5608  0.0035 -0.6002
  844MPD2    C112452   1.516   1.308  16.542 -0.0393 -0.6051 -0.1422
  844MPD2    C212453   1.554   1.374  16.656  0.3833  0.3939  0.4640
  844MPD2    C312454   1.641   1.323  16.754  0.0044 -0.0209  0.2129
  844MPD2    C412455   1.693   1.197  16.728  0.4695 -0.4943 -0.1501
  844MPD2    C512456   1.644   1.121  16.618 -0.0827 -0.8477  0.1043
  844MPD2     H12457   1.517   1.476  16.666  1.6629  0.7857  1.2558
  844MPD2    H112458   1.765   1.152  16.795 -0.2049 -1.6540 -0.2096
  844MPD2    H212459   1.520   1.105  16.453 -0.9091  1.1024 -1.4640
  844MPD2    H312460   1.676   1.018  16.610 -1.1853 -1.3298  1.8783
  844MPD2     N12461   1.686   1.400  16.862  0.4534 -0.1740  0.2000
  844MPD2    H512462   1.658   1.498  16.857 -0.0262 -0.2981  0.3918
  844MPD2    N112463   1.436   1.366  16.445 -0.1830  0.0741  0.3155
  844MPD2    H712464   1.385   1.449  16.471  0.3881  0.1054  1.3321
  845MPD2     C12465   1.798   2.326  17.028  0.2361 -0.1112  0.0993
  845MPD2    C112466   1.761   2.272  17.151 -0.2081 -0.3798  0.1704
  845MPD2    C212467   1.780   2.139  17.177  0.6310  0.1958 -0.5948
  845MPD2    C312468   1.832   2.062  17.075 -0.6744 -0.0997  0.0800
  845MPD2    C412469   1.874   2.114  16.956 -0.1439  0.1889  0.6160
  845MPD2    C512470   1.855   2.250  16.929  0.0063 -0.4460 -0.6216
  845MPD2     H12471   1.750   2.087  17.267  1.6073 -0.7010 -0.7922
  845MPD2    H112472   1.936   2.068  16.880 -1.5277  0.6593 -0.8027
  845MPD2    H212473   1.792   2.432  17.003  3.0794  0.4609  1.8873
  845MPD2    H312474   1.874   2.292  16.831  3.5607 -0.0286  0.2463
  845MPD2     N12475   1.837   1.923  17.104  0.1300  0.0190  0.7233
  845MPD2    H512476   1.805   1.897  17.196  2.1915 -1.9036  0.9131
  845MPD2    N112477   1.706   2.361  17.247  0.2637  0.1606  0.6231
  845MPD2    H712478   1.672   2.449  17.209 -0.9491  0.3436  2.1744
  846MPD2     C12479   2.593   2.316  13.789 -0.6030 -0.2356  0.0718
  846MPD2    C112480   2.625   2.450  13.782  0.0460 -0.1022 -0.0378
  846MPD2    C212481   2.658   2.515  13.898 -0.4205 -0.0056  0.1112
  846MPD2    C312482   2.675   2.452  14.017  0.5256  0.0625 -1.1472
  846MPD2    C412483   2.665   2.318  14.020  0.2241  1.0188  0.2133
  846MPD2    C512484   2.615   2.249  13.910 -0.0753  0.0140 -0.0386
  846MPD2     H12485   2.685   2.619  13.883  0.9894 -0.3295  0.3560
  846MPD2    H112486   2.665   2.265  14.114  4.1077  0.6323 -0.0208
  846MPD2    H212487   2.550   2.251  13.714 -1.3820  0.2057  0.1410
  846MPD2    H312488   2.579   2.147  13.920  0.0616  0.1368  1.5946
  846MPD2     N12489   2.713   2.539  14.122  0.4693  0.0718  0.1146
  846MPD2    H512490   2.702   2.639  14.107 -2.4416 -0.4533 -1.1125
  846MPD2    N112491   2.653   2.506  13.655  0.4241 -0.1615 -0.2372
  846MPD2    H712492   2.692   2.598  13.641  1.5596 -0.5758  0.2176
  847MPD2     C12493   2.992   3.607  14.871 -0.1010  0.2547  0.0121
  847MPD2    C112494   3.019   3.741  14.853 -0.5436 -0.0802 -0.8553
  847MPD2    C212495   3.139   3.789  14.893 -0.8300  0.1715  0.3220
  847MPD2    C312496   3.218   3.714  14.982 -0.0675  0.2902 -0.4260
  847MPD2    C412497   3.189   3.577  15.009  0.3850  0.4734 -0.4353
  847MPD2    C512498   3.073   3.535  14.951 -0.4785 -0.3559 -0.0867
  847MPD2     H12499   3.162   3.894  14.878  0.7400 -0.3744 -1.0177
  847MPD2    H112500   3.249   3.509  15.069  0.3151  2.3303  1.7038
  847MPD2    H212501   2.912   3.565  14.811  0.0295 -1.9833  1.3794
  847MPD2    H312502   3.034   3.435  14.966 -1.7700 -0.1118 -1.8002
  847MPD2     N12503   3.327   3.778  15.043 -0.2307 -0.1226 -0.1960
  847MPD2    H512504   3.337   3.876  15.018 -0.1622 -0.4581 -1.4556
  847MPD2    N112505   2.937   3.835  14.772  0.2494 -0.3794 -0.0560
  847MPD2    H712506   2.974   3.930  14.767  1.8086 -0.9353  0.8658
  848MPD2     C12507   1.044   2.208  16.910 -0.6113 -0.0570 -0.3736
  848MPD2    C112508   1.145   2.164  16.837 -0.6758 -0.7397 -0.4407
  848MPD2    C212509   1.211   2.249  16.752 -0.1179  0.5851 -0.2940
  848MPD2    C312510   1.157   2.378  16.740 -0.5297 -0.1337 -0.4357
  848MPD2    C412511   1.045   2.416  16.819  0.4855 -0.3568  0.0818
  848MPD2    C512512   0.990   2.328  16.902  0.7402 -0.7949 -0.5087
  848MPD2     H12513   1.298   2.216  16.696  0.2769  1.2716 -0.0845
  848MPD2    H112514   1.003   2.516  16.811  0.9949 -0.0268  1.5285
  848MPD2    H212515   0.998   2.134  16.975  2.7233  0.1404  2.1994
  848MPD2    H312516   0.898   2.352  16.955  1.2510 -2.6176  1.1954
  848MPD2     N12517   1.210   2.482  16.665  0.2536  0.2605 -0.2339
  848MPD2    H512518   1.157   2.568  16.658  0.8644  0.7240  0.8510
  848MPD2    N112519   1.187   2.031  16.848  0.4315  0.7022  0.8228
  848MPD2    H712520   1.265   2.004  16.788  0.8030  2.7427  0.3750
  849MPD2     C12521   4.241   1.243  14.071 -0.3756 -0.5529 -0.0576
  849MPD2    C112522   4.323   1.295  13.972  0.0234 -0.4486  0.4549
  849MPD2    C212523   4.456   1.298  13.986  0.0275 -0.4210  0.8820
  849MPD2    C312524   4.519   1.236  14.091 -0.6082  0.6924  0.1167
  849MPD2    C412525   4.438   1.197  14.198 -0.1492  0.1004  0.2821
  849MPD2    C512526   4.299   1.200  14.187 -0.4404  0.8313 -0.1408
  849MPD2     H12527   4.514   1.344  13.907 -3.6702  0.7462 -1.1479
  849MPD2    H112528   4.483   1.157  14.289  2.5516 -0.0329 -1.1086
  849MPD2    H212529   4.134   1.240  14.056 -0.6357  0.0959  1.7409
  849MPD2    H312530   4.240   1.158  14.268  0.0828  0.3216 -0.0225
  849MPD2     N12531   4.659   1.237  14.082  0.6680  0.4596 -0.3287
  849MPD2    H512532   4.704   1.299  14.016  3.5844 -1.9120 -0.5677
  849MPD2    N112533   4.270   1.351  13.852 -0.3555 -0.5089  0.4223
  849MPD2    H712534   4.334   1.395  13.788 -1.0074 -1.6447 -1.0144
  850MPD2     C12535   2.896   4.677  14.981  0.1097 -0.3723  0.3346
  850MPD2    C112536   2.876   0.035  15.078 -0.7127 -0.5029 -0.2712
  850MPD2    C212537   2.975   0.116  15.120 -0.1125  0.2156 -0.2439
  850MPD2    C312538   3.108   0.095  15.085  0.0715  0.2051 -0.3646
  850MPD2    C412539   3.133   4.721  14.993  0.1876 -0.1178 -0.6377
  850MPD2    C512540   3.023   4.652  14.939  0.8196  0.1864 -0.1247
  850MPD2     H12541   2.957   0.201  15.185 -0.4698 -1.7827  2.2582
  850MPD2    H112542   3.235   4.686  14.980  0.7749  0.8360  1.3053
  850MPD2    H212543   2.810   4.617  14.955 -0.4281  1.0651 -1.1627
  850MPD2    H312544   3.042   4.578  14.863  1.1335  1.4643 -1.2963
  850MPD2     N12545   3.220   0.162  15.137 -0.7884  0.0381  0.4109
  850MPD2    H512546   3.311   0.117  15.129  0.3029  2.2054  0.4156
  850MPD2    N112547   2.747   0.040  15.128  0.2912 -0.0423  0.4083
  850MPD2    H712548   2.682   4.701  15.101 -2.4972  2.1883  0.9636
  851MPD2     C12549   3.072   4.408  15.584 -1.1173 -0.0572  0.1277
  851MPD2    C112550   2.955   4.368  15.521  0.5953 -0.0504  0.5565
  851MPD2    C212551   2.932   4.246  15.464 -0.0793 -0.5857  0.1529
  851MPD2    C312552   3.041   4.169  15.452 -0.2512  0.6294 -0.2303
  851MPD2    C412553   3.155   4.205  15.516  0.1524  0.5336 -0.8775
  851MPD2    C512554   3.169   4.315  15.586 -0.7749  0.3058  0.3134
  851MPD2     H12555   2.837   4.213  15.423  0.4674  0.7220 -2.1611
  851MPD2    H112556   3.242   4.141  15.526 -1.9390 -1.9308  1.6455
  851MPD2    H212557   3.079   4.500  15.640  0.7181 -1.0807  1.5773
  851MPD2    H312558   3.258   4.334  15.645 -1.5516 -0.6838  1.7929
  851MPD2     N12559   3.034   4.042  15.385 -0.5494  0.2623  0.1095
  851MPD2    H512560   2.948   4.032  15.331 -1.7164  1.5978  1.7014
  851MPD2    N112561   2.851   4.464  15.530 -0.6405  0.1617  0.3370
  851MPD2    H712562   2.862   4.543  15.593  0.4598  2.2242 -2.4381
  852MPD2     C12563   3.111   2.158  10.684  0.8855 -0.0938  0.4909
  852MPD2    C112564   3.147   2.243  10.790  0.6293 -0.0978 -0.1856
  852MPD2    C212565   3.142   2.380  10.774  0.2168 -1.0924  0.7175
  852MPD2    C312566   3.118   2.441  10.650 -0.2663 -0.3752  0.7175
  852MPD2    C412567   3.085   2.358  10.539  0.1310  0.5011  0.4398
  852MPD2    C512568   3.081   2.215  10.563  0.3305  0.4934 -0.0818
  852MPD2     H12569   3.169   2.439  10.861  1.7303 -0.3335 -0.2702
  852MPD2    H112570   3.058   2.399  10.443 -0.8708  2.3994  1.5386
  852MPD2    H212571   3.084   2.054  10.695  0.0093  0.3067  2.0895
  852MPD2    H312572   3.038   2.148  10.490  0.7798  0.9621 -0.7877
  852MPD2     N12573   3.130   2.585  10.632 -0.2996 -0.4078  0.4762
  852MPD2    H512574   3.157   2.632  10.718 -1.0636  1.5123 -0.3388
  852MPD2    N112575   3.180   2.186  10.916 -0.2123  0.0440  0.3416
  852MPD2    H712576   3.173   2.250  10.995 -0.4823  0.7081 -0.2225
  853MPD2     C12577   0.145   2.254  12.176  0.0502  0.4207  0.1858
  853MPD2    C112578   0.098   2.385  12.178  0.7935 -0.2417 -0.3273
  853MPD2    C212579   0.128   2.470  12.080  0.6411 -0.1615 -0.4230
  853MPD2    C312580   0.194   2.419  11.965  0.1863 -0.1174  0.1630
  853MPD2    C412581   0.228   2.287  11.958 -0.0559  0.0070 -0.1309
  853MPD2    C512582   0.217   2.208  12.066 -0.3277 -0.8917  0.4331
  853MPD2     H12583   0.085   2.570  12.083  1.7799  0.2312  2.9321
  853MPD2    H112584   0.254   2.256  11.858  0.8824 -1.5382  0.5833
  853MPD2    H212585   0.113   2.182  12.250  2.4476  1.6492  2.4194
  853MPD2    H312586   0.246   2.105  12.056  0.8886 -0.3220 -1.8731
  853MPD2     N12587   0.218   2.494  11.853  0.4294 -0.2271 -0.3430
  853MPD2    H512588   0.263   2.446  11.776  1.1324  1.3451 -0.9058
  853MPD2    N112589   0.007   2.432  12.282 -0.2009  0.3327  0.1362
  853MPD2    H712590   4.731   2.533  12.285 -1.4786  0.1689  1.2151
  854MPD2     C12591   1.809   2.690  12.836  0.3538  0.4855  1.4027
  854MPD2    C112592   1.695   2.617  12.830  0.2341 -0.5859 -0.6242
  854MPD2    C212593   1.699   2.488  12.857 -0.2002  0.0456  0.3137
  854MPD2    C312594   1.807   2.435  12.916  0.2192 -0.0107  0.4887
  854MPD2    C412595   1.905   2.518  12.968 -0.0698 -0.8089  0.0234
  854MPD2    C512596   1.911   2.647  12.918  0.0844 -0.0695  0.3301
  854MPD2     H12597   1.616   2.424  12.829  0.2645 -0.6430  0.5173
  854MPD2    H112598   1.990   2.482  13.024 -0.4469  0.3285  1.3376
  854MPD2    H212599   1.810   2.796  12.814 -1.3413 -0.2396 -2.1265
  854MPD2    H312600   1.993   2.717  12.929 -0.5741  0.7156  0.2989
  854MPD2     N12601   1.815   2.298  12.946 -0.2393 -0.4158 -0.0336
  854MPD2    H512602   1.891   2.272  13.008  0.6779  1.6978 -0.2784
  854MPD2    N112603   1.582   2.685  12.772  0.2233  0.1337 -0.7662
  854MPD2    H712604   1.591   2.780  12.737 -2.2953  1.0359  1.0883
  855MPD2     C12605   1.933   2.176  13.764 -0.0859 -0.1759  0.7759
  855MPD2    C112606   1.898   2.044  13.740 -0.1597  0.3089 -0.9151
  855MPD2    C212607   1.874   2.000  13.613 -0.6924  0.4812 -0.3609
  855MPD2    C312608   1.875   2.101  13.510 -0.2742 -0.1221  0.2529
  855MPD2    C412609   1.897   2.233  13.537  0.8031  0.2152  0.3491
  855MPD2    C512610   1.927   2.272  13.665 -0.0664  0.0273 -0.8687
  855MPD2     H12611   1.845   1.897  13.598  1.7867 -0.1281 -0.8795
  855MPD2    H112612   1.881   2.302  13.455 -1.0302 -1.3482 -0.6304
  855MPD2    H212613   1.963   2.209  13.863 -1.9309  1.6877  0.7021
  855MPD2    H312614   1.926   2.376  13.698 -2.0012  1.0295 -4.0610
  855MPD2     N12615   1.825   2.068  13.380 -0.0193  0.3887  0.3521
  855MPD2    H512616   1.806   2.153  13.328 -1.7301 -0.0422  0.2878
  855MPD2    N112617   1.878   1.954  13.851 -0.1712 -0.5632  0.2958
  855MPD2    H712618   1.822   1.869  13.843 -0.2340 -0.6320  1.5757
  856MPD2     C12619   4.038   2.689  14.672 -0.0709 -0.4585 -0.7959
  856MPD2    C112620   4.030   2.813  14.612 -0.8438  0.4972 -0.1403
  856MPD2    C212621   3.921   2.840  14.534  0.0365  0.6486 -0.1735
  856MPD2    C312622   3.825   2.735  14.521  0.2787  0.3690  0.2784
  856MPD2    C412623   3.843   2.616  14.580 -0.0443  0.3655  0.0141
  856MPD2    C512624   3.948   2.593  14.654  0.3214  0.2158  0.0170
  856MPD2     H12625   3.916   2.936  14.483  1.1346 -0.1539 -1.7930
  856MPD2    H112626   3.780   2.530  14.560 -1.0491  0.3343  3.3776
  856MPD2    H212627   4.130   2.656  14.718  1.1839  0.8962 -2.3357
  856MPD2    H312628   3.973   2.491  14.678 -0.5868  0.3888  1.6801
  856MPD2     N12629   3.703   2.756  14.454 -0.4968 -0.2174  0.0652
  856MPD2    H512630   3.645   2.674  14.446  0.5365 -0.8652 -0.8416
  856MPD2    N112631   4.128   2.916  14.628 -0.2755  0.3124 -0.1277
  856MPD2    H712632   4.128   2.997  14.567 -2.8311  0.7195  0.4183
  857MPD2     C12633   0.688   0.701  12.578  0.0016  0.2789  0.4189
  857MPD2    C112634   0.788   0.668  12.671 -0.2443  0.5594 -0.0025
  857MPD2    C212635   0.834   0.766  12.750 -0.5699 -0.6366 -0.7613
  857MPD2    C312636   0.783   0.895  12.741  0.7360 -0.1014 -0.4219
  857MPD2    C412637   0.690   0.924  12.645  0.3539 -0.0025 -0.6262
  857MPD2    C512638   0.641   0.825  12.561 -0.0523  0.2577 -0.4594
  857MPD2     H12639   0.904   0.741  12.830  1.8174 -0.3144 -2.7742
  857MPD2    H112640   0.649   1.024  12.636  0.3420  0.0753  0.3153
  857MPD2    H212641   0.630   0.624  12.528 -0.9163  1.0698  0.2740
  857MPD2    H312642   0.576   0.851  12.479  0.7391  0.5008 -1.0031
  857MPD2     N12643   0.827   0.979  12.845 -0.0309  0.0833  0.2645
  857MPD2    H512644   0.902   0.935  12.899  1.5075  1.0751 -1.0810
  857MPD2    N112645   0.831   0.532  12.676 -0.3049  0.2904 -0.1305
  857MPD2    H712646   0.783   0.476  12.606  1.4203 -2.2323  0.7224
  858MPD2     C12647   1.325   4.119  17.027  0.5694 -0.5032 -0.2205
  858MPD2    C112648   1.396   4.096  16.910  0.5124 -0.1969 -0.4318
  858MPD2    C212649   1.377   4.179  16.804  1.1076 -0.4110 -0.3596
  858MPD2    C312650   1.319   4.300  16.821 -0.1746  0.1970  0.0708
  858MPD2    C412651   1.247   4.323  16.939  0.6498 -0.6849 -0.0318
  858MPD2    C512652   1.256   4.233  17.038 -0.1328  0.3554 -0.6114
  858MPD2     H12653   1.421   4.168  16.706  1.0952  1.0564 -0.5193
  858MPD2    H112654   1.186   4.411  16.957  0.0234 -0.5243 -2.9119
  858MPD2    H212655   1.333   4.053  17.114  0.7748 -0.2356 -0.0356
  858MPD2    H312656   1.216   4.262  17.134 -1.1593  0.4673 -1.0800
  858MPD2     N12657   1.321   4.406  16.728  0.2957 -0.2572 -0.4476
  858MPD2    H512658   1.288   4.498  16.755  0.6922  0.0992 -1.1679
  858MPD2    N112659   1.474   3.976  16.904 -0.0135 -0.2712  0.0904
  858MPD2    H712660   1.487   3.929  16.993  3.0162  0.8226  0.2208
  859MPD2     C12661   4.591   0.788  15.146  0.1015  0.6876 -0.9467
  859MPD2    C112662   4.655   0.854  15.247 -0.7122 -0.1673 -0.3511
  859MPD2    C212663   0.010   0.781  15.325 -0.1968 -0.3546 -0.8218
  859MPD2    C312664   0.041   0.645  15.287 -0.0552  0.1697 -0.1730
  859MPD2    C412665   4.720   0.588  15.176  0.4804 -0.3800  0.1502
  859MPD2    C512666   4.627   0.662  15.110  0.2703  0.3058  0.2250
  859MPD2     H12667   0.055   0.829  15.411 -2.4396  1.3490 -0.6093
  859MPD2    H112668   0.012   0.488  15.143  1.6638 -0.9492  2.8448
  859MPD2    H212669   4.518   0.842  15.087 -0.2956  2.1437  0.8876
  859MPD2    H312670   4.577   0.627  15.020  0.0868  0.5611  0.2299
  859MPD2     N12671   0.157   0.581  15.333 -0.2931 -0.6191  0.0549
  859MPD2    H512672   0.184   0.496  15.284  1.9110 -0.1864  0.5413
  859MPD2    N112673   4.617   0.991  15.260  0.0150  0.6828  0.2696
  859MPD2    H712674   4.553   1.031  15.192 -1.5035 -1.8779  0.1864
  860MPD2     C12675   1.857   1.490  11.663 -0.3303 -0.7148 -0.3334
  860MPD2    C112676   1.890   1.539  11.790 -0.2999 -0.4646 -1.1296
  860MPD2    C212677   1.791   1.580  11.871  0.0869 -0.2478 -0.0511
  860MPD2    C312678   1.657   1.572  11.838 -0.0619  0.2590 -0.2203
  860MPD2    C412679   1.626   1.525  11.717  0.1455  0.6280  0.3918
  860MPD2    C512680   1.727   1.484  11.630  0.2635  0.3531 -0.1582
  860MPD2     H12681   1.809   1.626  11.967 -2.5828  2.3152 -0.7713
  860MPD2    H112682   1.524   1.526  11.682  0.5894  0.9419 -0.9197
  860MPD2    H212683   1.936   1.452  11.599  0.6993 -1.6505  1.4952
  860MPD2    H312684   1.694   1.440  11.537 -0.4222  0.2453  0.1375
  860MPD2     N12685   1.561   1.624  11.932 -0.2859  0.6677  0.2847
  860MPD2    H512686   1.598   1.658  12.020  0.2183 -1.1771  0.7914
  860MPD2    N112687   2.020   1.555  11.834  0.8534 -0.2536  0.5022
  860MPD2    H712688   2.032   1.580  11.931 -0.7663  1.0833  0.3636
  861MPD2     C12689   2.084   0.348  11.448  0.1912  0.3654  0.1525
  861MPD2    C112690   1.945   0.315  11.477  0.3480  0.1293  0.4689
  861MPD2    C212691   1.849   0.341  11.386 -0.0137 -0.2355 -0.0598
  861MPD2    C312692   1.877   0.398  11.263  0.6423  0.6560 -0.7373
  861MPD2    C412693   2.006   0.447  11.236 -0.1920 -0.3915  0.1600
  861MPD2    C512694   2.111   0.406  11.324 -0.2779 -0.6631 -0.1765
  861MPD2     H12695   1.749   0.315  11.418 -0.3899 -1.0274 -1.8249
  861MPD2    H112696   2.034   0.513  11.154 -0.7132 -0.0441  0.2645
  861MPD2    H212697   2.168   0.327  11.514  1.4258  2.0446 -0.8941
  861MPD2    H312698   2.212   0.436  11.298 -0.0466 -1.7317 -0.4876
  861MPD2     N12699   1.768   0.427  11.172  0.0666 -0.4947  0.4084
  861MPD2    H512700   1.783   0.493  11.097  0.2347 -0.4897  0.4460
  861MPD2    N112701   1.911   0.252  11.595  0.2095 -0.0694 -0.3129
  861MPD2    H712702   1.811   0.238  11.603  0.3882 -0.7133  0.7220
  862MPD2     C12703   1.207   0.392  10.594 -0.6404 -0.2412  0.3531
  862MPD2    C112704   1.309   0.415  10.683  0.0336 -0.0590  0.2542
  862MPD2    C212705   1.322   0.317  10.779 -0.3752  0.3143 -0.6612
  862MPD2    C312706   1.247   0.202  10.782  0.0028  0.3727  0.1817
  862MPD2    C412707   1.141   0.186  10.701  0.0190 -0.2122 -0.2803
  862MPD2    C512708   1.123   0.280  10.609 -0.0920  0.3264  1.2406
  862MPD2     H12709   1.401   0.315  10.852 -0.6071  1.3741 -0.3842
  862MPD2    H112710   1.076   0.100  10.713  2.6361 -1.8588  1.8003
  862MPD2    H212711   1.194   0.463  10.513  1.4344 -0.1093  0.1459
  862MPD2    H312712   1.036   0.271  10.545  0.2743  2.8521  0.3954
  862MPD2     N12713   1.260   0.097  10.880 -0.2821 -0.2530 -0.6137
  862MPD2    H512714   1.183   0.030  10.877 -0.1816 -0.3493 -0.9921
  862MPD2    N112715   1.403   0.525  10.673 -0.2512 -0.6742 -0.3699
  862MPD2    H712716   1.410   0.565  10.580  0.5236  1.3208  0.5466
  863MPD2     C12717   4.425   3.061  16.668  0.3821  0.1683 -0.0777
  863MPD2    C112718   4.445   3.175  16.740 -0.0724  0.4030 -0.1524
  863MPD2    C212719   4.513   3.173  16.864  0.6762  1.0208 -0.5066
  863MPD2    C312720   4.579   3.060  16.899 -0.3938 -0.3679  0.2300
  863MPD2    C412721   4.568   2.950  16.817 -0.2225 -0.3127  0.7545
  863MPD2    C512722   4.495   2.951  16.699 -0.3306  0.2042  0.9066
  863MPD2     H12723   4.519   3.268  16.914  0.2689  1.1756 -0.7446
  863MPD2    H112724   4.619   2.859  16.847  0.7775  0.0942  0.2782
  863MPD2    H212725   4.363   3.065  16.579  1.6684 -0.1975 -0.9871
  863MPD2    H312726   4.513   2.859  16.645 -1.2103 -1.0523  2.7522
  863MPD2     N12727   4.651   3.056  17.026 -0.0746 -0.2453 -0.3607
  863MPD2    H512728   4.667   3.136  17.085  0.0106 -0.8429  0.4188
  863MPD2    N112729   4.385   3.292  16.686  0.0680  0.9133  0.2505
  863MPD2    H712730   4.350   3.288  16.591 -2.1074 -2.2465  1.1878
  864MPD2     C12731   0.275   4.335  17.632 -0.7032  0.6348 -0.1057
  864MPD2    C112732   0.315   4.269  17.514  0.6079 -0.0934 -0.2386
  864MPD2    C212733   0.373   4.349  17.412 -0.0751 -0.5051  0.1136
  864MPD2    C312734   0.378   4.485  17.429 -0.1020  0.4475 -0.1836
  864MPD2    C412735   0.329   4.550  17.541  0.7485  0.2160  0.3068
  864MPD2    C512736   0.272   4.471  17.642  0.0838  0.4214  0.5088
  864MPD2     H12737   0.403   4.297  17.322 -3.1517 -0.5798 -0.8774
  864MPD2    H112738   0.323   4.657  17.556  0.1752  0.0996  0.8995
  864MPD2    H212739   0.247   4.274  17.717  0.3791 -1.1936 -1.0755
  864MPD2    H312740   0.233   4.520  17.730  0.2577 -0.0553  0.8458
  864MPD2     N12741   0.423   4.571  17.327 -0.1165  0.0762  0.4373
  864MPD2    H512742   0.410   4.671  17.337 -2.1146 -0.3705  2.2730
  864MPD2    N112743   0.283   4.135  17.490  1.2589 -0.0247  0.5078
  864MPD2    H712744   0.243   4.083  17.567 -0.6712 -0.1509 -0.5979
  865MPD2     C12745   0.202   0.001  16.450  0.2549  0.4102  0.5465
  865MPD2    C112746   0.256   4.662  16.552 -0.3697  0.7188 -0.5111
  865MPD2    C212747   0.239   4.698  16.681 -0.4535  0.1923 -0.1657
  865MPD2    C312748   0.181   0.084  16.712  0.7805  0.6213 -0.0373
  865MPD2    C412749   0.123   0.162  16.611 -0.4139  0.3230 -0.4570
  865MPD2    C512750   0.133   0.113  16.475  0.3560  0.4870 -0.2628
  865MPD2     H12751   0.274   4.621  16.750  0.2040 -0.5425 -1.3127
  865MPD2    H112752   0.066   0.252  16.633  2.0474  1.3021  1.8682
  865MPD2    H212753   0.204   4.700  16.348  2.5397 -1.6919  1.3114
  865MPD2    H312754   0.097   0.174  16.393 -0.0628 -0.0795 -0.4970
  865MPD2     N12755   0.175   0.140  16.844 -0.1785  0.1216 -0.3205
  865MPD2    H512756   0.107   0.214  16.843 -1.0570 -0.6837  0.4301
  865MPD2    N112757   0.337   4.555  16.520 -0.5175 -0.6407  0.3689
  865MPD2    H712758   0.348   4.537  16.420  2.9590  2.4799  0.1765
  866MPD2     C12759   2.296   0.443  11.876 -0.3298  0.4036 -0.9511
  866MPD2    C112760   2.295   0.488  11.742 -0.1807 -0.3345  0.4585
  866MPD2    C212761   2.171   0.542  11.703  0.6005  0.1901 -0.6809
  866MPD2    C312762   2.058   0.537  11.782  0.4860  0.3413 -0.1893
  866MPD2    C412763   2.066   0.489  11.911  0.0113 -0.1200 -0.7923
  866MPD2    C512764   2.183   0.443  11.952  1.2846 -0.3506  0.1461
  866MPD2     H12765   2.168   0.578  11.600 -1.6387 -0.6635 -0.8970
  866MPD2    H112766   1.973   0.464  11.960  0.4665  0.3273  0.3051
  866MPD2    H212767   2.379   0.389  11.919 -3.4359 -2.4791  1.4603
  866MPD2    H312768   2.189   0.402  12.053 -0.9512 -0.1185  0.3694
  866MPD2     N12769   1.929   0.579  11.735  0.2049  0.2195  0.2465
  866MPD2    H512770   1.849   0.581  11.798  1.2668  1.1108  1.5640
  866MPD2    N112771   2.413   0.480  11.664 -0.3278 -0.4037  0.1887
  866MPD2    H712772   2.488   0.430  11.712  0.8241 -0.4940 -1.6868
  867MPD2     C12773   4.473   4.594  16.770 -0.4924 -0.5588 -0.0286
  867MPD2    C112774   4.448   4.554  16.898 -0.1527  0.0331  0.2382
  867MPD2    C212775   4.452   4.645  17.001  0.6569 -0.5068 -0.1671
  867MPD2    C312776   4.507   0.040  16.972 -0.6013  0.2804  0.0808
  867MPD2    C412777   4.546   0.073  16.843  0.2987 -0.1003  0.1968
  867MPD2    C512778   4.520   4.718  16.745  0.1590 -0.2618  0.3297
  867MPD2     H12779   4.428   4.622  17.104  0.8036  0.3580  0.0617
  867MPD2    H112780   4.598   0.166  16.826  0.1401  0.0306  0.4377
  867MPD2    H212781   4.469   4.520  16.691  1.1955 -0.0961 -0.5486
  867MPD2    H312782   4.547   0.004  16.642  0.0627  0.1737  0.3883
  867MPD2     N12783   4.526   0.146  17.070 -0.1313  0.1343  0.0152
  867MPD2    H512784   4.576   0.228  17.036 -0.7319  2.0062  3.6326
  867MPD2    N112785   4.424   4.419  16.918  0.3498 -0.6247  0.4208
  867MPD2    H712786   4.439   4.354  16.843  0.5930  0.9382 -0.8853
  868MPD2     C12787   0.813   3.251  13.080  0.1006 -0.3056 -0.1190
  868MPD2    C112788   0.887   3.290  13.189  0.3025 -0.2908 -0.6162
  868MPD2    C212789   0.823   3.337  13.303 -0.3910  0.4841 -0.4865
  868MPD2    C312790   0.688   3.358  13.309 -0.2125  0.2148 -0.5533
  868MPD2    C412791   0.616   3.331  13.195  0.2131 -0.3233 -0.5061
  868MPD2    C512792   0.670   3.267  13.079 -0.4470 -0.8313 -0.0017
  868MPD2     H12793   0.877   3.375  13.389 -0.0630 -0.6778 -0.1909
  868MPD2    H112794   0.513   3.363  13.182  0.3114  0.0190 -0.4485
  868MPD2    H212795   0.863   3.205  12.996  0.2237 -1.8242  0.7915
  868MPD2    H312796   0.613   3.247  12.989 -1.8621  1.9578  0.2683
  868MPD2     N12797   0.633   3.416  13.425  0.2935 -0.4984  0.0350
  868MPD2    H512798   0.705   3.441  13.491  0.7469  1.9986 -1.4209
  868MPD2    N112799   1.026   3.265  13.173 -0.6010  0.3101  0.2857
  868MPD2    H712800   1.063   3.232  13.085 -0.1749  0.2980  0.4708
  869MPD2     C12801   1.772   1.131   0.817  0.0868  0.5296  0.0715
  869MPD2    C112802   1.868   1.125   0.718 -0.1748 -0.3099  0.0532
  869MPD2    C212803   1.992   1.177   0.740  0.6000  0.1695 -0.0317
  869MPD2    C312804   2.025   1.231   0.865 -0.3519 -0.1785 -0.1622
  869MPD2    C412805   1.928   1.219   0.965 -0.7384  0.0235  0.1601
  869MPD2    C512806   1.800   1.180   0.940 -0.0588  0.0931  0.4307
  869MPD2     H12807   2.069   1.155   0.666 -1.6257  0.3641 -2.4148
  869MPD2    H112808   1.951   1.254   1.065 -0.6632 -0.3472  0.2728
  869MPD2    H212809   1.668   1.106   0.806  0.3572 -0.5438  0.0214
  869MPD2    H312810   1.725   1.184   1.018 -0.3927 -1.3586  0.1875
  869MPD2     N12811   2.147   1.295   0.895 -0.0915  0.7405  0.0661
  869MPD2    H512812   2.149   1.357   0.975  1.4550 -0.7618  1.1906
  869MPD2    N112813   1.827   1.075   0.593 -0.3687 -0.1687  0.3989
  869MPD2    H712814   1.734   1.036   0.589 -2.0126  3.7589  0.3706
  870MPD2     C12815   1.614   1.103   1.625 -0.3725 -0.3034 -0.5670
  870MPD2    C112816   1.612   0.977   1.574 -0.0856 -0.0205  0.0168
  870MPD2    C212817   1.494   0.934   1.516 -0.1524 -0.4287 -0.1851
  870MPD2    C312818   1.382   1.015   1.505  0.4009 -0.2532  0.0722
  870MPD2    C412819   1.381   1.136   1.572  0.6430  0.5102 -0.2169
  870MPD2    C512820   1.501   1.181   1.622 -0.5515 -0.1852 -0.3204
  870MPD2     H12821   1.488   0.831   1.482  1.1277 -0.3651 -0.6073
  870MPD2    H112822   1.300   1.208   1.567  0.1837 -0.0142 -0.2922
  870MPD2    H212823   1.703   1.154   1.657  0.5969 -1.7702 -0.9294
  870MPD2    H312824   1.516   1.282   1.659  0.9163 -0.9039  1.0405
  870MPD2     N12825   1.273   0.953   1.441  0.1777  0.1540 -0.3723
  870MPD2    H512826   1.293   0.872   1.384 -0.1140  1.7992 -2.7906
  870MPD2    N112827   1.736   0.902   1.580  0.1309  0.3840  0.1412
  870MPD2    H712828   1.818   0.950   1.616 -0.6490 -0.3087  2.8699
  871MPD2     C12829   3.107   0.293  16.535 -0.4707 -0.6827 -0.0701
  871MPD2    C112830   3.094   0.220  16.652 -0.3871  0.1272  0.2687
  871MPD2    C212831   3.146   0.089  16.655  0.2188 -0.2271  0.5764
  871MPD2    C312832   3.202   0.028  16.548 -0.3754 -0.0278 -0.5117
  871MPD2    C412833   3.210   0.094  16.433 -0.6876  0.5502 -0.0469
  871MPD2    C512834   3.164   0.224  16.427 -1.1034 -0.5342  0.3020
  871MPD2     H12835   3.151   0.035  16.749  1.3695 -2.9221 -1.0502
  871MPD2    H112836   3.255   0.044  16.348 -0.2955 -0.5947  0.8314
  871MPD2    H212837   3.051   0.385  16.521 -0.5062 -0.5410  1.0070
  871MPD2    H312838   3.168   0.282  16.335  2.1252  1.2925  1.5927
  871MPD2     N12839   3.261   4.635  16.571 -0.5394 -0.1642 -0.2841
  871MPD2    H512840   3.253   4.585  16.659  1.4756 -0.1958 -0.1318
  871MPD2    N112841   3.036   0.285  16.763  0.2035  0.0855  0.2043
  871MPD2    H712842   3.021   0.384  16.746  0.3720  0.0124 -0.3585
  872MPD2     C12843   3.718   2.009  14.195  0.4801 -0.3603 -0.5554
  872MPD2    C112844   3.671   2.133  14.221 -0.1622 -0.0551  0.2172
  872MPD2    C212845   3.538   2.147  14.255 -0.0422  0.1088  0.1231
  872MPD2    C312846   3.448   2.039  14.267 -1.0395  0.0855 -0.7143
  872MPD2    C412847   3.503   1.914  14.239  0.3444 -0.0014  0.6361
  872MPD2    C512848   3.638   1.900  14.205 -0.0051  0.2886  0.6136
  872MPD2     H12849   3.497   2.241  14.290 -0.2611  0.0929 -0.0896
  872MPD2    H112850   3.439   1.828  14.248  1.6726 -0.8968  1.5606
  872MPD2    H212851   3.817   1.977  14.165  1.8260 -0.4608  3.9591
  872MPD2    H312852   3.681   1.805  14.174 -2.1677  0.2283 -2.2513
  872MPD2     N12853   3.313   2.045  14.300  0.1042  0.1475 -0.0541
  872MPD2    H512854   3.273   1.953  14.310  1.9442 -0.6652 -0.1349
  872MPD2    N112855   3.748   2.249  14.224  0.3906 -0.4412 -0.8651
  872MPD2    H712856   3.695   2.334  14.239  1.1093  0.0090 -0.8744
  873MPD2     C12857   0.942   1.753   1.087 -0.7507  0.0733  0.2717
  873MPD2    C112858   0.808   1.778   1.106  0.4426  0.0982 -0.2145
  873MPD2    C212859   0.716   1.702   1.034 -0.0955 -0.5703  0.8543
  873MPD2    C312860   0.762   1.598   0.954  0.0261 -0.3961 -0.0446
  873MPD2    C412861   0.894   1.569   0.954  0.1671  1.1671  0.1355
  873MPD2    C512862   0.985   1.654   1.005 -0.3062  0.8217  0.0175
  873MPD2     H12863   0.617   1.745   1.029 -0.1588 -0.7532  0.5136
  873MPD2    H112864   0.941   1.485   0.905 -1.0741  0.9194 -0.6159
  873MPD2    H212865   1.013   1.822   1.131 -2.0955  0.5163  1.7901
  873MPD2    H312866   1.089   1.630   0.985 -1.1004 -1.1988 -1.7189
  873MPD2     N12867   0.652   1.519   0.908  0.4255 -0.0324  0.4129
  873MPD2    H512868   0.560   1.558   0.927  0.2905  0.0235 -0.3674
  873MPD2    N112869   0.778   1.885   1.189 -0.1795 -0.3030 -0.3127
  873MPD2    H712870   0.854   1.945   1.221 -1.6415  1.1478  0.4544
  874MPD2     C12871   0.549   2.572  16.399 -0.0017 -0.2188  0.7942
  874MPD2    C112872   0.610   2.559  16.520 -0.3000 -0.9823 -0.0913
  874MPD2    C212873   0.745   2.598  16.530 -0.3496 -0.2901  0.0054
  874MPD2    C312874   0.813   2.655  16.421 -0.2319  0.6071 -0.0076
  874MPD2    C412875   0.747   2.654  16.299  0.1142 -0.0858  0.3954
  874MPD2    C512876   0.621   2.611  16.292  0.3508 -0.4913 -0.3509
  874MPD2     H12877   0.802   2.574  16.619  0.0069  1.8510  0.3587
  874MPD2    H112878   0.805   2.678  16.210 -0.0261  0.6395  0.4970
  874MPD2    H212879   0.441   2.568  16.386 -0.0272  1.8840  0.3701
  874MPD2    H312880   0.568   2.593  16.199  1.9569 -2.0502 -0.9621
  874MPD2     N12881   0.951   2.697  16.441 -0.3953 -0.1692 -0.4905
  874MPD2    H512882   0.974   2.696  16.540 -3.2622 -0.2521  0.1746
  874MPD2    N112883   0.538   2.515  16.634  0.4537  0.2795  0.3542
  874MPD2    H712884   0.442   2.489  16.614  0.5827 -0.7187  0.9945
  875MPD2     C12885   1.391   0.586  14.734 -0.3913 -0.1915  0.3030
  875MPD2    C112886   1.269   0.642  14.724  0.0697  0.0530  0.8830
  875MPD2    C212887   1.232   0.745  14.813 -0.7427 -0.0064 -0.2854
  875MPD2    C312888   1.317   0.791  14.915 -0.3546 -0.9321  0.3633
  875MPD2    C412889   1.432   0.718  14.933 -0.1006 -0.1783 -0.4792
  875MPD2    C512890   1.473   0.625  14.838  0.0097 -0.6849 -0.7132
  875MPD2     H12891   1.131   0.785  14.809 -2.0209 -3.3503 -1.5151
  875MPD2    H112892   1.505   0.743  15.009 -1.6054 -1.2489  1.3290
  875MPD2    H212893   1.428   0.507  14.670  0.6085 -1.3499  2.2927
  875MPD2    H312894   1.558   0.559  14.848  1.3114  0.3526 -4.6167
  875MPD2     N12895   1.285   0.888  15.005 -0.1454 -0.2365 -0.3994
  875MPD2    H512896   1.351   0.902  15.080 -0.8157 -0.0221  0.1556
  875MPD2    N112897   1.183   0.614  14.618 -0.4170 -0.9022  0.4541
  875MPD2    H712898   1.093   0.660  14.630 -1.2633 -1.9014 -1.9044
  876MPD2     C12899   0.879   2.448  15.933  0.0969 -0.7015  0.3381
  876MPD2    C112900   0.806   2.335  15.936 -0.1056  0.0013 -0.2772
  876MPD2    C212901   0.799   2.275  16.060  0.3139 -0.2003  0.4128
  876MPD2    C312902   0.854   2.325  16.176  0.2095 -0.0358  0.6421
  876MPD2    C412903   0.942   2.431  16.166 -0.6256  0.6048 -0.1328
  876MPD2    C512904   0.948   2.492  16.042  0.4560  0.6282 -0.5130
  876MPD2     H12905   0.739   2.185  16.076 -2.7086  1.7676  0.1372
  876MPD2    H112906   0.998   2.472  16.249 -1.2257  1.1687 -0.0131
  876MPD2    H212907   0.887   2.497  15.837 -1.1309  1.0931  1.1582
  876MPD2    H312908   1.022   2.570  16.027  0.0396  1.4071  1.4570
  876MPD2     N12909   0.828   2.254  16.294 -0.5107 -0.3731  0.4042
  876MPD2    H512910   0.749   2.192  16.279  0.6787 -1.8287  0.1735
  876MPD2    N112911   0.745   2.286  15.822  0.5769  0.3699 -0.2372
  876MPD2    H712912   0.769   2.335  15.736 -0.4782 -0.2267 -0.8684
  877MPD2     C12913   0.326   2.476  15.158  0.2639  0.5274  0.0685
  877MPD2    C112914   0.424   2.379  15.148  0.1248 -0.8079 -0.3781
  877MPD2    C212915   0.449   2.335  15.021  0.4612  0.8279 -0.4307
  877MPD2    C312916   0.402   2.394  14.908 -0.7505 -1.0319 -0.3240
  877MPD2    C412917   0.309   2.496  14.925  0.5216  0.1965  0.6025
  877MPD2    C512918   0.269   2.528  15.048 -0.4795 -0.1346 -0.4365
  877MPD2     H12919   0.513   2.247  15.020 -0.8836 -0.1701  1.0828
  877MPD2    H112920   0.257   2.542  14.842  0.3892  0.7713  0.9989
  877MPD2    H212921   0.288   2.522  15.248  0.7646  1.5797 -0.2622
  877MPD2    H312922   0.195   2.606  15.051  0.5041  0.8385 -1.2765
  877MPD2     N12923   0.426   2.350  14.778 -0.0341 -0.1901  0.4166
  877MPD2    H512924   0.377   2.395  14.702  0.7301  0.7436  0.4750
  877MPD2    N112925   0.488   2.320  15.259  0.2514  0.3127 -0.4154
  877MPD2    H712926   0.555   2.246  15.240  0.1994  0.8460 -2.7019
  878MPD2     C12927   4.104   1.187  12.816 -1.0387 -0.5925  0.1294
  878MPD2    C112928   4.205   1.275  12.859 -0.5070  0.6960 -0.2971
  878MPD2    C212929   4.213   1.286  12.993  0.5744  0.1645  0.0024
  878MPD2    C312930   4.137   1.218  13.088  0.3560 -0.3644 -0.2298
  878MPD2    C412931   4.027   1.151  13.043  0.0300  0.1440  0.7475
  878MPD2    C512932   4.023   1.125  12.908  0.3583 -0.2112  0.6651
  878MPD2     H12933   4.281   1.359  13.035  0.4830  0.5374 -0.5016
  878MPD2    H112934   3.974   1.086  13.112  1.6990  2.0571  3.8103
  878MPD2    H212935   4.109   1.147  12.716 -2.1491 -2.2435  0.7368
  878MPD2    H312936   3.956   1.043  12.884 -1.7697  1.6842  0.0780
  878MPD2     N12937   4.169   1.231  13.227  0.0841  0.0059 -0.1238
  878MPD2    H512938   4.262   1.265  13.247 -0.0438  0.4570 -0.2869
  878MPD2    N112939   4.282   1.351  12.768  0.6020  0.0822 -0.4686
  878MPD2    H712940   4.274   1.336  12.668 -0.1667 -0.9805 -0.2426
  879MPD2     C12941   0.815   3.282  17.111  0.0279  0.1882 -0.3455
  879MPD2    C112942   0.771   3.185  17.198 -0.5082  0.1048 -0.5212
  879MPD2    C212943   0.666   3.104  17.154 -0.6661 -0.3553  0.6484
  879MPD2    C312944   0.591   3.140  17.047 -0.1599 -0.5973 -0.8171
  879MPD2    C412945   0.630   3.247  16.966  0.2160 -0.2846  0.3164
  879MPD2    C512946   0.737   3.324  17.003 -0.3593 -0.5444  0.5315
  879MPD2     H12947   0.628   3.032  17.225  0.5477 -2.8423 -1.2580
  879MPD2    H112948   0.570   3.279  16.882 -0.1716 -2.3983 -0.2146
  879MPD2    H212949   0.896   3.351  17.135  1.3360 -1.0746 -1.1278
  879MPD2    H312950   0.766   3.407  16.938 -1.4186  1.2918  2.3966
  879MPD2     N12951   0.478   3.070  17.004 -0.5238  0.0018  0.0646
  879MPD2    H512952   0.419   3.102  16.928  0.8656 -0.5424 -1.2463
  879MPD2    N112953   0.839   3.167  17.320  0.4217  0.2510 -0.5471
  879MPD2    H712954   0.891   3.250  17.348 -0.2857  1.0519 -1.6082
  880MPD2     C12955   1.625   4.719   0.807 -0.4611  0.1399  0.3171
  880MPD2    C112956   1.700   0.049   0.713 -0.7857 -0.1198 -0.0154
  880MPD2    C212957   1.830   0.013   0.690  0.3536  0.3216  0.0789
  880MPD2    C312958   1.884   4.645   0.762 -0.0364 -0.4148 -0.5112
  880MPD2    C412959   1.809   4.574   0.852  0.3492  0.1821  0.6398
  880MPD2    C512960   1.678   4.617   0.880 -0.0621 -0.1154 -0.2810
  880MPD2     H12961   1.888   0.077   0.624  2.1841 -0.5782  0.8153
  880MPD2    H112962   1.851   4.489   0.904 -0.7317 -0.3237  0.6711
  880MPD2    H212963   1.521   0.007   0.831 -0.7976 -0.4253 -0.6326
  880MPD2    H312964   1.619   4.556   0.948  0.2237  0.1252  0.1875
  880MPD2     N12965   2.028   4.615   0.745 -0.5749  0.1526 -0.8366
  880MPD2    H512966   2.075   4.678   0.681  1.2937 -0.8498 -0.4506
  880MPD2    N112967   1.630   0.154   0.645  0.2120  0.5602 -0.6486
  880MPD2    H712968   1.539   0.183   0.680  0.5851 -2.3358  2.6989
  881MPD2     C12969   1.551   0.815  17.501  0.1522 -0.2530 -0.1610
  881MPD2    C112970   1.651   0.733  17.539  0.8009  0.2646 -0.7190
  881MPD2    C212971   1.644   0.678  17.661  0.2953 -0.3771  0.3928
  881MPD2    C312972   1.517   0.666  17.725 -1.0104 -0.1805 -0.2798
  881MPD2    C412973   1.406   0.730  17.670  0.4599  0.2253 -0.4358
  881MPD2    C512974   1.429   0.798  17.557 -0.3150  0.1507 -0.5419
  881MPD2     H12975   1.731   0.645  17.715 -0.8742 -3.9959  0.0236
  881MPD2    H112976   1.308   0.725  17.714 -0.5645 -0.6252 -2.7791
  881MPD2    H212977   1.552   0.874  17.410 -0.0439 -2.0387 -1.3227
  881MPD2    H312978   1.347   0.848  17.508  1.4239  0.7978 -2.7770
  881MPD2     N12979   1.492   0.600   0.113 -0.0027 -0.1861 -0.5020
  881MPD2    H512980   1.400   0.604   0.157 -0.0090  1.5983 -0.6703
  881MPD2    N112981   1.772   0.760  17.479  0.0224 -0.1353 -0.1331
  881MPD2    H712982   1.773   0.822  17.399  1.4686  1.2686  0.9838
  882MPD2     C12983   0.179   2.268  13.977  0.4254 -0.4220  0.4807
  882MPD2    C112984   0.182   2.294  14.113  0.2401  0.5566  0.4134
  882MPD2    C212985   0.063   2.285  14.182  0.0603 -0.2278  0.4141
  882MPD2    C312986   4.678   2.254  14.112 -0.2078 -0.7548 -0.3866
  882MPD2    C412987   4.679   2.231  13.975 -0.2374 -0.5937  0.3191
  882MPD2    C512988   0.067   2.241  13.909 -0.3021  0.2562 -0.6298
  882MPD2     H12989   0.059   2.297  14.290  0.7595  2.7137  0.1057
  882MPD2    H112990   4.586   2.211  13.924 -0.8680 -2.2420  2.1277
  882MPD2    H212991   0.271   2.273  13.920  0.0065 -1.5216 -0.2914
  882MPD2    H312992   0.065   2.229  13.801  0.4980 -2.7987 -0.3062
  882MPD2     N12993   4.550   2.253  14.172  0.0865 -0.3417  0.2071
  882MPD2    H512994   4.472   2.241  14.109  0.7233  0.1738 -0.6732
  882MPD2    N112995   0.313   2.314  14.177 -0.3397  0.4461 -0.1285
  882MPD2    H712996   0.391   2.288  14.117 -0.8011 -1.2238 -0.0130
  883MPD2     C12997   2.430   2.115  16.111  0.3203  0.0866  0.0149
  883MPD2    C112998   2.474   2.233  16.046  0.4724  0.5728  0.2635
  883MPD2    C212999   2.551   2.315  16.120  0.3644  0.6341 -0.6027
  883MPD2    C313000   2.592   2.296  16.250  0.3893  0.7429  0.4514
  883MPD2    C413001   2.544   2.184  16.309  0.2151  0.4778 -0.2644
  883MPD2    C513002   2.466   2.095  16.244 -0.4291  0.7690  0.3148
  883MPD2     H13003   2.584   2.410  16.080  0.6604  0.3838 -0.9615
  883MPD2    H113004   2.567   2.157  16.411 -1.1015  0.7174  0.0921
  883MPD2    H213005   2.369   2.040  16.062  0.7064  0.2937 -0.7635
  883MPD2    H313006   2.424   2.019  16.308 -1.4040  0.6936 -0.4198
  883MPD2     N13007   2.682   2.386  16.313 -0.0008  0.4312  0.3946
  883MPD2    H513008   2.724   2.463  16.262 -1.6344 -0.2466 -1.9845
  883MPD2    N113009   2.425   2.263  15.918 -0.3526 -0.3378  0.0867
  883MPD2    H713010   2.445   2.355  15.879 -2.2187 -0.3391 -0.8446
  884MPD2     C13011   4.482   3.035  15.373 -0.2081 -0.4537 -0.0557
  884MPD2    C113012   4.412   3.075  15.255 -0.1239  0.1429  0.3662
  884MPD2    C213013   4.281   3.107  15.271  0.6696  0.0964  0.0928
  884MPD2    C313014   4.214   3.117  15.392  0.2669  0.5568 -0.1703
  884MPD2    C413015   4.292   3.105  15.504  0.4189  0.3690  0.4893
  884MPD2    C513016   4.418   3.051  15.490 -0.1759 -0.0072 -0.0416
  884MPD2     H13017   4.226   3.142  15.184 -1.1256 -2.4496  0.2013
  884MPD2    H113018   4.264   3.116  15.608 -1.4698  1.5388 -0.1313
  884MPD2    H213019   4.577   2.984  15.374 -0.5812 -1.1660 -0.5899
  884MPD2    H313020   4.462   3.034  15.588 -1.1357  0.3128  0.4402
  884MPD2     N13021   4.075   3.153  15.392 -0.1789 -0.1656 -0.0826
  884MPD2    H513022   4.031   3.157  15.301 -1.4985  0.4833  0.5852
  884MPD2    N113023   4.468   3.069  15.123 -0.2976 -0.3465  0.3042
  884MPD2    H713024   4.404   3.092  15.048  0.7110  0.7358 -0.2290
  885MPD2     C13025   2.745   3.189   0.209 -0.1464  0.3524  0.0983
  885MPD2    C113026   2.751   3.324   0.246  0.2651 -0.6341 -1.5245
  885MPD2    C213027   2.732   3.416   0.148  0.3424 -0.0329  0.3677
  885MPD2    C313028   2.700   3.377   0.014  0.5757 -0.2455  0.3090
  885MPD2    C413029   2.685   3.245  17.721 -0.2210 -0.1337  0.4000
  885MPD2    C513030   2.710   3.151   0.085 -0.3481 -0.4484 -0.2228
  885MPD2     H13031   2.746   3.523   0.160  0.2646  0.3291 -2.7043
  885MPD2    H113032   2.681   3.213  17.617 -0.2202  1.4870 -0.1060
  885MPD2    H213033   2.764   3.114   0.285  0.1145  0.2720 -0.0445
  885MPD2    H313034   2.711   3.048   0.052 -1.2100 -0.3304 -0.6139
  885MPD2     N13035   2.695   3.470  17.651  0.6721  0.0416  0.4157
  885MPD2    H513036   2.728   3.560  17.683  1.3140  0.0155 -0.1922
  885MPD2    N113037   2.770   3.351   0.384  0.0034 -0.5268  0.0968
  885MPD2    H713038   2.780   3.270   0.444 -1.8808 -0.6316  0.2762
  886MPD2     C13039   3.897   1.998  15.881 -0.0083  0.5899 -0.8340
  886MPD2    C113040   4.006   1.945  15.817 -0.2771  0.2347 -0.0979
  886MPD2    C213041   4.039   2.003  15.698  0.0034  0.1366  0.4757
  886MPD2    C313042   3.959   2.103  15.637  0.0582 -0.8756  0.1486
  886MPD2    C413043   3.842   2.142  15.701  1.0320  0.2308  0.2750
  886MPD2    C513044   3.814   2.095  15.825 -0.4306 -0.1621 -0.5521
  886MPD2     H13045   4.124   1.963  15.643  0.4702 -1.9903  2.7163
  886MPD2    H113046   3.784   2.221  15.656 -1.2629 -1.5498  0.1344
  886MPD2    H213047   3.862   1.954  15.973 -0.6102  1.9186 -0.4403
  886MPD2    H313048   3.730   2.132  15.883  0.5773 -1.6320  1.8684
  886MPD2     N13049   3.987   2.165  15.508  0.5065 -0.1691 -0.5763
  886MPD2    H513050   3.926   2.236  15.469  1.1276  0.6639 -0.0424
  886MPD2    N113051   4.096   1.851  15.881  0.3340  0.2174 -0.3788
  886MPD2    H713052   4.172   1.825  15.819  0.1654  3.9531 -2.2181
  887MPD2     C13053   0.047   1.651  15.833 -0.3394 -0.6119 -0.3399
  887MPD2    C113054   4.665   1.726  15.829 -0.3884 -0.5738 -0.1140
  887MPD2    C213055   4.677   1.853  15.777  0.2686 -0.4114  0.1290
  887MPD2    C313056   0.058   1.916  15.750 -0.2486 -0.1743 -0.2317
  887MPD2    C413057   0.170   1.838  15.772  0.4939 -0.2612 -0.4498
  887MPD2    C513058   0.166   1.716  15.822 -0.1587  0.0647  0.2944
  887MPD2     H13059   4.582   1.895  15.744  0.3752  0.2231  0.6135
  887MPD2    H113060   0.271   1.874  15.756  0.8431  0.3425  3.1003
  887MPD2    H213061   0.036   1.545  15.856 -1.4101 -0.0013  1.9918
  887MPD2    H313062   0.258   1.662  15.843 -0.3132 -0.8959 -1.5256
  887MPD2     N13063   0.049   2.035  15.682 -0.3887  0.4763 -0.1588
  887MPD2    H513064   4.696   2.074  15.646 -0.1843  2.0422  1.0590
  887MPD2    N113065   4.535   1.677  15.855  0.2284  0.8329  0.0724
  887MPD2    H713066   4.465   1.743  15.823 -0.3007  0.2033 -0.0738
  888MPD2     C13067   1.412   1.934  14.916  0.3927 -0.1469 -0.5830
  888MPD2    C113068   1.392   2.006  15.031 -0.2728  0.8398  0.0104
  888MPD2    C213069   1.456   2.133  15.046 -0.0939  0.1589 -0.3954
  888MPD2    C313070   1.522   2.184  14.940 -0.0332  0.9608 -0.8519
  888MPD2    C413071   1.516   2.115  14.815 -0.1627 -0.0058  0.1428
  888MPD2    C513072   1.473   1.987  14.810  0.5360 -0.6569 -0.3061
  888MPD2     H13073   1.440   2.192  15.136  0.1344 -1.1651  0.5146
  888MPD2    H113074   1.564   2.156  14.727 -0.4622  1.5261  0.6828
  888MPD2    H213075   1.363   1.840  14.897 -0.8489 -0.0828  2.2488
  888MPD2    H313076   1.490   1.930  14.719  0.4588  1.4616 -1.6558
  888MPD2     N13077   1.602   2.302  14.960 -0.2415  0.1920 -0.1592
  888MPD2    H513078   1.605   2.338  15.054  1.9477  0.6392 -0.3882
  888MPD2    N113079   1.324   1.946  15.145  0.1361  0.9488 -0.1984
  888MPD2    H713080   1.333   1.995  15.234 -0.2202 -0.7358  0.7728
  889MPD2     C13081   0.746   1.771  12.945  0.3021 -0.1386 -0.0967
  889MPD2    C113082   0.816   1.706  13.050 -0.0795  0.5639  0.4354
  889MPD2    C213083   0.817   1.779  13.169 -0.3171  1.1148 -0.1351
  889MPD2    C313084   0.787   1.912  13.176  0.7012 -0.1041  0.1873
  889MPD2    C413085   0.744   1.978  13.062  0.3729  0.3697 -0.6276
  889MPD2    C513086   0.727   1.910  12.945 -0.2132 -0.0429  0.2649
  889MPD2     H13087   0.818   1.725  13.263 -1.0518  3.8060  1.4260
  889MPD2    H113088   0.722   2.084  13.052 -1.6827 -0.1201 -1.1984
  889MPD2    H213089   0.724   1.716  12.854 -0.8578 -2.2879  1.4972
  889MPD2    H313090   0.700   1.965  12.855 -0.2939  2.2645  1.7050
  889MPD2     N13091   0.769   1.974  13.307 -0.0716 -0.2819  0.3953
  889MPD2    H513092   0.774   1.907  13.384 -1.1491  0.6429  1.2659
  889MPD2    N113093   0.820   1.564  13.056 -0.0918  0.0882 -0.3208
  889MPD2    H713094   0.817   1.510  12.971  2.6512 -0.4966 -0.0257
  890MPD2     C13095   0.600   3.293  14.833 -0.1989  0.2157  0.1154
  890MPD2    C113096   0.663   3.364  14.931 -0.7893 -0.2829 -0.4248
  890MPD2    C213097   0.741   3.294  15.028  0.1894 -0.1768  0.7201
  890MPD2    C313098   0.749   3.155  15.016 -0.4906 -0.0755 -0.3596
  890MPD2    C413099   0.681   3.089  14.920  0.1781 -0.2608  0.2444
  890MPD2    C513100   0.595   3.153  14.833 -0.3944 -0.1841  0.7447
  890MPD2     H13101   0.809   3.344  15.095 -1.0546  1.4511  0.7836
  890MPD2    H113102   0.674   2.981  14.906 -0.7844 -0.4261  1.9341
  890MPD2    H213103   0.551   3.337  14.746  1.3576 -2.6688 -2.2352
  890MPD2    H313104   0.552   3.107  14.745 -0.2238 -0.6810  0.9255
  890MPD2     N13105   0.834   3.096  15.117 -0.2938  0.5960  0.2690
  890MPD2    H513106   0.883   3.153  15.184  0.3575  0.3148  0.0307
  890MPD2    N113107   0.651   3.504  14.926  0.6247 -0.1635  0.1679
  890MPD2    H713108   0.606   3.550  14.847  2.5607 -0.8693 -1.3450
  891MPD2     C13109   3.414   2.030  16.639 -0.4128  0.0488 -0.2700
  891MPD2    C113110   3.332   1.973  16.734  0.0004 -0.2779  0.2392
  891MPD2    C213111   3.378   1.946  16.861  0.5800 -0.0586 -0.0764
  891MPD2    C313112   3.507   1.973  16.904  0.0846 -0.3683  0.0899
  891MPD2    C413113   3.591   2.031  16.803 -1.1530 -0.6752  0.6565
  891MPD2    C513114   3.543   2.065  16.678  0.2699  0.0099  0.0716
  891MPD2     H13115   3.319   1.912  16.945 -0.2662 -0.3473 -0.7912
  891MPD2    H113116   3.692   2.061  16.829 -1.0087  0.1461 -0.8355
  891MPD2    H213117   3.383   2.044  16.536 -3.0308  1.1146  0.6636
  891MPD2    H313118   3.603   2.110  16.600  0.5043 -0.4632 -0.0242
  891MPD2     N13119   3.557   1.945  17.036 -0.0496  0.2210  0.3742
  891MPD2    H513120   3.488   1.913  17.104 -0.6202  0.5222 -0.0588
  891MPD2    N113121   3.206   1.936  16.684  0.0018 -0.4884 -0.2355
  891MPD2    H713122   3.196   1.950  16.584  0.2651  0.9883 -0.0538
  892MPD2     C13123   4.289   2.489  15.120  0.4253 -0.1425 -0.3805
  892MPD2    C113124   4.191   2.489  15.023  0.4996  0.2219  0.2288
  892MPD2    C213125   4.204   2.417  14.911 -0.0588 -0.5467 -0.4984
  892MPD2    C313126   4.318   2.336  14.894  0.2665  0.1069 -0.0582
  892MPD2    C413127   4.423   2.345  14.985 -0.0474  0.4191 -0.1384
  892MPD2    C513128   4.410   2.424  15.098  1.0359  0.3264 -0.2269
  892MPD2     H13129   4.124   2.406  14.839 -1.7820 -2.7018  1.7607
  892MPD2    H113130   4.516   2.296  14.958 -0.5502 -1.3312  1.2940
  892MPD2    H213131   4.273   2.540  15.214  2.8330 -1.1345  0.5623
  892MPD2    H313132   4.490   2.427  15.170  0.5912  0.0711  0.2754
  892MPD2     N13133   4.333   2.251  14.777 -0.0327  0.0608 -0.3516
  892MPD2    H513134   4.430   2.233  14.754 -0.0703 -1.4642  0.7537
  892MPD2    N113135   4.066   2.554  15.040  0.1397 -0.4815 -0.0410
  892MPD2    H713136   3.996   2.530  14.971 -1.0144 -0.6884  1.2117
  893MPD2     C13137   0.882   1.598   1.353  0.0304 -0.7865 -0.1246
  893MPD2    C113138   0.874   1.469   1.304  0.0507  0.5187 -0.1076
  893MPD2    C213139   0.757   1.395   1.310  0.1581  0.6154  0.4501
  893MPD2    C313140   0.643   1.450   1.368  0.2383  0.1003  0.1601
  893MPD2    C413141   0.650   1.576   1.422  0.5219  0.3552  0.1332
  893MPD2    C513142   0.771   1.650   1.420  0.0783  0.2676  0.2061
  893MPD2     H13143   0.761   1.290   1.286 -1.7973  1.1495 -2.1446
  893MPD2    H113144   0.563   1.612   1.476  0.2768 -1.9853  1.2970
  893MPD2    H213145   0.969   1.660   1.336 -1.3518  0.5038 -2.3949
  893MPD2    H313146   0.773   1.748   1.467 -0.2159 -0.0976  0.9725
  893MPD2     N13147   0.526   1.373   1.392  0.3592  0.0397 -0.0731
  893MPD2    H513148   0.468   1.406   1.468 -0.0768  2.3199 -1.3950
  893MPD2    N113149   0.991   1.413   1.259 -0.7249  0.0390  0.1489
  893MPD2    H713150   1.070   1.477   1.265 -1.5058  1.1221 -1.0248
  894MPD2     C13151   4.179   0.354   1.523  0.8915 -0.1832  0.8071
  894MPD2    C113152   4.070   0.284   1.542  0.3067  0.1345  0.2770
  894MPD2    C213153   4.067   0.149   1.493 -0.4911  0.2303  0.2808
  894MPD2    C313154   4.174   0.090   1.435  0.2162  0.2742 -0.0091
  894MPD2    C413155   4.286   0.165   1.425  0.1387 -0.5993  0.2010
  894MPD2    C513156   4.291   0.298   1.459 -0.0576 -0.4471  0.0853
  894MPD2     H13157   3.971   0.098   1.499 -0.2797 -0.1724  0.2181
  894MPD2    H113158   4.375   0.123   1.379  1.0577  0.5547  0.8962
  894MPD2    H213159   4.178   0.458   1.552 -0.7188 -0.3846  1.5043
  894MPD2    H313160   4.381   0.353   1.434 -0.1632 -0.2988  0.0334
  894MPD2     N13161   4.164   4.690   1.378 -0.0733  0.2843  0.2918
  894MPD2    H513162   4.076   4.646   1.354  0.9768 -2.1039  0.8612
  894MPD2    N113163   3.954   0.335   1.605 -0.2972  0.9507 -0.6119
  894MPD2    H713164   3.875   0.271   1.611 -1.8909  2.9625 -0.0753
  895MPD2     C13165   3.298   2.039  13.392 -0.3507 -0.0504  0.5250
  895MPD2    C113166   3.183   1.976  13.351  0.3536 -0.3354 -0.3721
  895MPD2    C213167   3.198   1.844  13.307 -0.3216  0.1438  0.8405
  895MPD2    C313168   3.315   1.778  13.321 -0.4472 -0.0347 -0.0765
  895MPD2    C413169   3.428   1.844  13.361 -0.3627 -0.2210 -0.4367
  895MPD2    C513170   3.420   1.970  13.397  0.3900 -0.2789  0.2862
  895MPD2     H13171   3.106   1.794  13.279  1.0244 -1.3233 -0.9440
  895MPD2    H113172   3.524   1.794  13.374 -1.1317 -1.2748  1.2524
  895MPD2    H213173   3.297   2.146  13.410 -0.6523 -0.0884  0.7337
  895MPD2    H313174   3.509   2.021  13.430  1.3401 -2.3183  0.8797
  895MPD2     N13175   3.313   1.646  13.291 -0.3701  0.1596  0.0557
  895MPD2    H513176   3.217   1.615  13.279 -0.3984  0.8824 -1.6082
  895MPD2    N113177   3.062   2.043  13.354  0.1098 -0.9457  0.5772
  895MPD2    H713178   2.985   1.990  13.314  1.1099 -2.6387  0.8868
  896MPD2     C13179   0.868   0.581   1.385  0.4191  0.5932 -1.0245
  896MPD2    C113180   0.884   0.487   1.283  0.0592  0.1038  0.2679
  896MPD2    C213181   0.791   0.382   1.275 -0.5578 -0.1037  0.0146
  896MPD2    C313182   0.695   0.369   1.369 -0.0757 -0.2996 -0.3758
  896MPD2    C413183   0.678   0.468   1.462 -0.8154  0.5338 -0.4194
  896MPD2    C513184   0.760   0.578   1.472  0.0105  0.7279  0.0198
  896MPD2     H13185   0.803   0.307   1.197  0.4125  1.0399 -0.9364
  896MPD2    H113186   0.600   0.459   1.536 -0.4029  0.4813  0.0060
  896MPD2    H213187   0.932   0.668   1.391  2.2888 -1.0872  3.0359
  896MPD2    H313188   0.748   0.659   1.543 -1.7727  2.5412 -2.3407
  896MPD2     N13189   0.606   0.260   1.352  0.2650 -0.1934 -0.4457
  896MPD2    H513190   0.618   0.205   1.267  1.2010 -0.9463  0.1579
  896MPD2    N113191   0.987   0.503   1.193  0.7960 -0.1539 -0.7354
  896MPD2    H713192   1.061   0.567   1.220 -1.1233  2.0587 -0.6374
  897MPD2     C13193   2.224   1.733  10.992 -0.0171  0.2897  0.3055
  897MPD2    C113194   2.146   1.687  10.882 -0.6524  0.6979 -0.5204
  897MPD2    C213195   2.050   1.588  10.906  0.0099  0.0473  0.4994
  897MPD2    C313196   2.048   1.524  11.025  0.3040  0.4831  0.1456
  897MPD2    C413197   2.128   1.553  11.131 -0.0741  0.2191 -0.3519
  897MPD2    C513198   2.212   1.663  11.112  0.3309 -0.0092 -0.3492
  897MPD2     H13199   1.992   1.555  10.820 -0.3902 -0.7268  1.0586
  897MPD2    H113200   2.131   1.495  11.223  1.6634 -0.3879 -0.7867
  897MPD2    H213201   2.290   1.818  10.983 -0.0805  0.2751 -0.2996
  897MPD2    H313202   2.279   1.698  11.190 -1.1112 -0.8772  1.2754
  897MPD2     N13203   1.965   1.408  11.030  0.4924 -0.4832 -0.5982
  897MPD2    H513204   1.912   1.382  10.948 -0.4302 -0.8969  0.1396
  897MPD2    N113205   2.159   1.750  10.757 -0.4140  0.0641  0.2073
  897MPD2    H713206   2.208   1.839  10.767 -2.6580  1.2704  0.5281
  898MPD2     C13207   3.833   2.248   0.010 -0.7224  0.6401  0.1378
  898MPD2    C113208   3.885   2.330   0.101 -0.1976  0.5925 -0.6792
  898MPD2    C213209   3.864   2.467   0.096  0.3179 -0.4828 -0.3035
  898MPD2    C313210   3.780   2.517  17.732 -0.1643  0.9628  0.2993
  898MPD2    C413211   3.718   2.431  17.645 -0.4861  0.5443  0.6480
  898MPD2    C513212   3.748   2.302  17.649  0.1078 -0.7489  0.4414
  898MPD2     H13213   3.908   2.539   0.164 -1.1892 -0.4940  0.6772
  898MPD2    H113214   3.638   2.464  17.581  1.3210  1.3258 -1.2167
  898MPD2    H213215   3.854   2.141   0.006 -1.0170  0.6191 -1.0436
  898MPD2    H313216   3.693   2.232  17.587  1.6718  0.1015 -1.9112
  898MPD2     N13217   3.741   2.654  17.727 -0.8219  0.1222  0.4242
  898MPD2    H513218   3.665   2.662  17.661  1.0057  1.7893 -1.4969
  898MPD2    N113219   3.980   2.283   0.199 -0.5114 -0.3545  0.0640
  898MPD2    H713220   4.014   2.353   0.264  0.8487 -1.8749  0.9873
  899MPD2     C13221   4.408   2.622  17.586  0.2451 -0.3754  0.3996
  899MPD2    C113222   4.506   2.711  17.637 -0.7367  0.1373  0.5691
  899MPD2    C213223   4.530   2.716   0.035  0.5281 -0.7846 -0.7202
  899MPD2    C313224   4.449   2.642   0.120 -0.7523  1.3344  0.1915
  899MPD2    C413225   4.354   2.560   0.069  0.5392 -0.1553 -0.2066
  899MPD2    C513226   4.331   2.541  17.665  0.2534 -0.7806 -0.7767
  899MPD2     H13227   4.610   2.777   0.077  0.4495 -0.2300 -1.3749
  899MPD2    H113228   4.295   2.500   0.137 -1.1265  1.4379 -0.2306
  899MPD2    H213229   4.377   2.626  17.482 -0.3034 -0.5014  0.5566
  899MPD2    H313230   4.251   2.474  17.633  1.0029 -2.8203  1.6437
  899MPD2     N13231   4.457   2.641   0.261  0.1664  0.0210  0.5109
  899MPD2    H513232   4.408   2.565   0.307  0.6388  0.6698  2.0763
  899MPD2    N113233   4.581   2.784  17.543 -0.5166 -0.2607 -0.4306
  899MPD2    H713234   4.547   2.787  17.447 -0.4545  2.2965 -0.3949
  900MPD2     C13235   0.047   4.124  12.978 -0.2544 -0.1763 -0.3263
  900MPD2    C113236   4.692   4.024  12.972  0.9936 -0.3039 -0.4674
  900MPD2    C213237   4.570   4.042  12.911 -0.7126  0.3755  0.3073
  900MPD2    C313238   4.544   4.161  12.846  0.0015 -0.3860  0.3169
  900MPD2    C413239   4.638   4.260  12.847  0.4585 -0.5776 -0.4145
  900MPD2    C513240   0.026   4.241  12.913 -0.1195 -0.0706  0.1785
  900MPD2     H13241   4.494   3.964  12.913 -0.4617  0.0510 -2.5421
  900MPD2    H113242   4.620   4.356  12.800 -1.0372 -0.8277 -0.3324
  900MPD2    H213243   0.146   4.115  13.021 -0.5548 -1.2544  0.1531
  900MPD2    H313244   0.103   4.317  12.919  0.4770 -0.6418 -0.2181
  900MPD2     N13245   4.413   4.174  12.792  0.4107 -0.4588  0.4512
  900MPD2    H513246   4.346   4.100  12.813 -0.9141  0.4809 -0.4861
  900MPD2    N113247   4.725   3.907  13.044  0.2065  0.0759 -0.9690
  900MPD2    H713248   0.089   3.897  13.070  0.0687  0.2583 -0.3724
  901MPD2     C13249   4.587   2.842  13.291 -0.3114 -0.2237 -0.4249
  901MPD2    C113250   4.720   2.859  13.244 -0.2886  0.0476 -0.2118
  901MPD2    C213251   0.027   2.979  13.186  0.6184 -0.2082 -1.0455
  901MPD2    C313252   4.680   3.091  13.187  0.3467  0.1181  0.2259
  901MPD2    C413253   4.552   3.069  13.227  0.4464 -0.2647  0.5387
  901MPD2    C513254   4.512   2.952  13.280  0.4635 -0.1700  0.1833
  901MPD2     H13255   0.127   2.996  13.148  0.7807  2.2555  0.4714
  901MPD2    H113256   4.471   3.139  13.241 -1.9967 -3.5605  2.8210
  901MPD2    H213257   4.558   2.749  13.338  1.3903  0.2636  1.5945
  901MPD2    H313258   4.410   2.944  13.317 -0.0606  1.6474 -0.8679
  901MPD2     N13259   4.728   3.215  13.140  0.8309  0.3634  0.5741
  901MPD2    H513260   0.095   3.224  13.129  0.4190  4.0280 -0.1406
  901MPD2    N113261   0.060   2.739  13.238  0.5565 -0.0228  0.1513
  901MPD2    H713262   0.009   2.653  13.257  0.1769  0.3212  0.6796
  902MPD2     C13263   3.630   1.605  12.997 -0.2129  0.3173  0.3349
  902MPD2    C113264   3.525   1.671  12.931  0.1917 -0.0369 -0.4139
  902MPD2    C213265   3.489   1.621  12.809  0.0470 -0.0133  0.0906
  902MPD2    C313266   3.544   1.503  12.760  0.0643  0.8549 -0.6660
  902MPD2    C413267   3.642   1.438  12.830 -0.1265 -0.1791  0.1064
  902MPD2    C513268   3.690   1.497  12.944 -0.1284  0.7055 -0.0369
  902MPD2     H13269   3.423   1.684  12.751 -1.5598 -0.8326  1.0392
  902MPD2    H113270   3.690   1.346  12.798  1.6937  0.7354  0.2095
  902MPD2    H213271   3.666   1.643  13.092  0.2169  1.4894 -0.2903
  902MPD2    H313272   3.775   1.451  12.992  0.0844  3.0846  1.8445
  902MPD2     N13273   3.510   1.450  12.631 -0.1707  0.0865  0.4495
  902MPD2    H513274   3.552   1.362  12.601 -2.2613 -0.7184 -0.1397
  902MPD2    N113275   3.492   1.795  12.983 -0.3348  0.1011 -0.1920
  902MPD2    H713276   3.562   1.837  13.043 -1.0724  1.0219  0.0206
  903MPD2     C13277   3.127   1.470  11.778 -0.4369  0.5392  0.4873
  903MPD2    C113278   3.092   1.456  11.908  0.1836  0.4036  0.2317
  903MPD2    C213279   2.958   1.455  11.939  0.0984 -0.6280  0.8776
  903MPD2    C313280   2.861   1.481  11.843  0.3537  0.1605  0.1626
  903MPD2    C413281   2.895   1.483  11.707 -0.7770 -0.3181  0.3863
  903MPD2    C513282   3.029   1.496  11.679  0.1900  0.3375  0.5785
  903MPD2     H13283   2.921   1.434  12.038 -0.8248 -1.6099  0.3243
  903MPD2    H113284   2.824   1.499  11.627  0.2807 -0.4610 -0.5764
  903MPD2    H213285   3.231   1.465  11.749 -0.5352 -1.1535  0.4322
  903MPD2    H313286   3.058   1.507  11.576 -1.1235  2.2231  0.3984
  903MPD2     N13287   2.725   1.481  11.890 -0.0942  0.6691 -0.3753
  903MPD2    H513288   2.716   1.467  11.991 -0.3257  0.6790 -0.3954
  903MPD2    N113289   3.196   1.440  12.003 -0.1990 -0.3009  0.2794
  903MPD2    H713290   3.292   1.457  11.973 -0.3583 -0.0097 -0.0708
  904MPD2     C13291   2.946   1.029  14.256  0.4615 -0.8044  0.8845
  904MPD2    C113292   2.989   1.137  14.183 -0.5404 -0.0955 -0.4125
  904MPD2    C213293   3.118   1.153  14.145 -0.2573  0.6044 -0.3524
  904MPD2    C313294   3.212   1.063  14.182  0.4269  0.2754  0.4938
  904MPD2    C413295   3.168   0.951  14.247 -0.1885  0.0516  0.6708
  904MPD2    C513296   3.034   0.932  14.275  0.3171 -0.1186 -0.5634
  904MPD2     H13297   3.138   1.246  14.093  1.1471  0.0986 -0.7241
  904MPD2    H113298   3.243   0.875  14.264 -2.7231 -2.8480 -1.2690
  904MPD2    H213299   2.841   1.011  14.278  0.0086 -0.6056 -1.1308
  904MPD2    H313300   3.016   0.844  14.336 -0.2329  1.2489  1.2436
  904MPD2     N13301   3.350   1.092  14.149  0.6699  0.1216 -0.0527
  904MPD2    H513302   3.367   1.184  14.108 -3.1027  0.8889  0.1079
  904MPD2    N113303   2.902   1.238  14.136 -0.1674  0.5968 -0.3558
  904MPD2    H713304   2.950   1.306  14.078  1.8078 -1.2479 -0.8896
  905MPD2     C13305   2.615   1.166  13.506  0.0442  0.5230  0.6848
  905MPD2    C113306   2.698   1.267  13.544  0.3182 -0.5428  0.2530
  905MPD2    C213307   2.802   1.291  13.468  0.0044  0.5886  0.7238
  905MPD2    C313308   2.824   1.211  13.354 -0.8385 -1.3883  0.0434
  905MPD2    C413309   2.749   1.107  13.314 -0.1768 -0.5921 -0.9528
  905MPD2    C513310   2.639   1.098  13.393  0.3407 -0.8553 -0.5303
  905MPD2     H13311   2.884   1.359  13.489  2.5139 -1.8542 -1.1810
  905MPD2    H113312   2.761   1.042  13.227 -2.9239 -2.0411 -0.2783
  905MPD2    H213313   2.526   1.140  13.562 -0.1937 -3.3546 -1.5024
  905MPD2    H313314   2.575   1.014  13.370  1.0510 -1.8270  1.0384
  905MPD2     N13315   2.955   1.212  13.299 -0.4648 -0.0033 -0.6038
  905MPD2    H513316   2.969   1.128  13.245 -0.8527  0.2134 -1.0466
  905MPD2    N113317   2.668   1.329  13.666 -0.5432 -0.0576  0.0716
  905MPD2    H713318   2.584   1.298  13.714 -1.1286  0.1367 -0.8234
  906MPD2     C13319   0.848   1.907  11.221  0.3578  0.1472 -0.0904
  906MPD2    C113320   0.811   1.798  11.157 -0.0798 -0.8550 -0.0446
  906MPD2    C213321   0.783   1.686  11.234 -0.0506  0.0773 -0.3751
  906MPD2    C313322   0.795   1.678  11.370  0.1048 -0.1699 -0.4612
  906MPD2    C413323   0.826   1.793  11.437 -0.6373 -0.1943  0.2806
  906MPD2    C513324   0.858   1.900  11.360  0.0705 -0.5901 -0.3641
  906MPD2     H13325   0.746   1.602  11.176  0.0374  1.1084 -1.9417
  906MPD2    H113326   0.842   1.798  11.545  0.5025  1.6107  0.0234
  906MPD2    H213327   0.846   2.000  11.164 -0.0109 -0.3847 -0.9518
  906MPD2    H313328   0.872   1.990  11.419  1.4940 -0.4560 -0.9326
  906MPD2     N13329   0.760   1.560  11.444  0.2652  0.1992  0.3846
  906MPD2    H513330   0.741   1.576  11.542  1.4242  1.0064  0.4822
  906MPD2    N113331   0.788   1.799  11.018  0.0485 -0.4600  0.5713
  906MPD2    H713332   0.843   1.870  10.970 -0.1840 -1.3744 -1.0353
  907MPD2     C13333   4.325   0.807  15.930 -0.1050  0.0445  0.2062
  907MPD2    C113334   4.358   0.677  15.935  0.3213  0.1942 -0.1355
  907MPD2    C213335   4.378   0.623  16.058  0.1980  0.2255  0.2092
  907MPD2    C313336   4.352   0.696  16.176  0.6289  0.1591  0.6587
  907MPD2    C413337   4.316   0.827  16.171  0.1544 -0.3744  0.5619
  907MPD2    C513338   4.311   0.884  16.043 -0.0187 -0.2595  0.2460
  907MPD2     H13339   4.408   0.519  16.063 -1.3591 -0.1957  0.5770
  907MPD2    H113340   4.301   0.893  16.255  1.0573 -1.5348  1.6393
  907MPD2    H213341   4.318   0.863  15.838  1.3490 -1.0093 -0.5284
  907MPD2    H313342   4.302   0.992  16.038  3.6167 -0.0344 -1.2635
  907MPD2     N13343   4.371   0.636  16.304  0.4042 -0.0051 -0.1488
  907MPD2    H513344   4.398   0.538  16.300  1.4853  0.2793  0.1028
  907MPD2    N113345   4.386   0.592  15.829 -0.2289  0.0278 -0.0745
  907MPD2    H713346   4.422   0.501  15.856 -0.2260 -0.3477 -1.3712
  908MPD2     C13347   1.968   1.528   9.776 -0.1539 -0.2263 -0.2683
  908MPD2    C113348   2.058   1.456   9.848  0.4820 -0.1829  0.3944
  908MPD2    C213349   2.114   1.521   9.957  0.8163 -0.3928 -0.3569
  908MPD2    C313350   2.081   1.647   9.997 -0.5604  0.0831 -0.5802
  908MPD2    C413351   2.003   1.721   9.913  0.3929  0.9505 -0.1666
  908MPD2    C513352   1.938   1.659   9.813 -0.0565 -0.5473  0.0073
  908MPD2     H13353   2.172   1.458  10.023  1.0963 -0.0798 -0.3026
  908MPD2    H113354   1.977   1.825   9.933  0.6368  1.2537 -1.4566
  908MPD2    H213355   1.915   1.482   9.694 -0.6096  2.4763 -1.4642
  908MPD2    H313356   1.856   1.717   9.772 -0.1442 -0.4797  0.2791
  908MPD2     N13357   2.120   1.700  10.122 -0.1075  0.5843  0.0376
  908MPD2    H513358   2.170   1.638  10.186 -1.9482  0.4487  1.3273
  908MPD2    N113359   2.094   1.320   9.818  0.5842 -0.1162  0.1194
  908MPD2    H713360   2.057   1.286   9.729  0.0951  2.0844 -0.5170
  909MPD2     C13361   2.367   3.459  11.925  0.6064 -0.6679  0.3985
  909MPD2    C113362   2.446   3.573  11.936 -0.3664 -0.6520  0.2276
  909MPD2    C213363   2.436   3.658  12.046 -0.7270  0.8804 -0.6981
  909MPD2    C313364   2.341   3.633  12.144  0.8092  0.1783 -0.2471
  909MPD2    C413365   2.265   3.515  12.133 -0.0778 -0.3191 -0.3847
  909MPD2    C513366   2.283   3.427  12.029  0.6691 -0.5124 -0.0162
  909MPD2     H13367   2.496   3.749  12.053  0.6682 -0.1391  0.6584
  909MPD2    H113368   2.187   3.478  12.199 -0.0171 -1.2139 -0.8203
  909MPD2    H213369   2.372   3.394  11.839  0.4962 -1.3462  0.8994
  909MPD2    H313370   2.215   3.344  12.014  0.7350 -0.5075 -0.3230
  909MPD2     N13371   2.321   3.731  12.244  0.5763 -0.7096 -0.3618
  909MPD2    H513372   2.376   3.815  12.230 -0.7060  0.5164  2.0474
  909MPD2    N113373   2.532   3.617  11.834  0.0912  0.7302  0.3624
  909MPD2    H713374   2.587   3.699  11.853  1.8897  0.5193 -4.0456
  910MPD2     C13375   3.515   1.321  16.343  0.5685 -0.2260 -0.0673
  910MPD2    C113376   3.610   1.288  16.240  0.4073 -0.3323 -0.2247
  910MPD2    C213377   3.588   1.308  16.104 -0.5438 -0.0666  0.3380
  910MPD2    C313378   3.467   1.367  16.071  0.5747  0.4312  0.3856
  910MPD2    C413379   3.384   1.413  16.167  0.2618  0.7207  0.1446
  910MPD2    C513380   3.407   1.389  16.302 -0.0835  0.4642 -0.0623
  910MPD2     H13381   3.659   1.279  16.028 -1.2933  0.6783 -0.6523
  910MPD2    H113382   3.285   1.450  16.144  0.7859  0.7777 -1.9674
  910MPD2    H213383   3.526   1.298  16.448  1.5247  0.1505 -0.0839
  910MPD2    H313384   3.330   1.417  16.374  0.0265 -1.8869  0.9736
  910MPD2     N13385   3.428   1.389  15.936  0.0147 -0.2655  0.2043
  910MPD2    H513386   3.339   1.435  15.925 -0.4169 -1.2361 -0.3706
  910MPD2    N113387   3.725   1.220  16.270  0.2857  0.0392 -0.2712
  910MPD2    H713388   3.783   1.201  16.189 -2.4298  0.6084 -2.3789
  911MPD2     C13389   1.649   1.683  16.143 -0.0058  0.2447  0.3254
  911MPD2    C113390   1.645   1.727  16.272 -0.2209  0.6716  0.2065
  911MPD2    C213391   1.590   1.848  16.311 -0.3130 -0.1441 -0.0901
  911MPD2    C313392   1.520   1.924  16.222  0.0214 -0.5285 -0.3508
  911MPD2    C413393   1.504   1.872  16.093 -0.0367 -0.7931  0.4096
  911MPD2    C513394   1.580   1.763  16.053  0.3056  0.1305 -0.0544
  911MPD2     H13395   1.605   1.883  16.413 -1.1432 -3.6562  1.2505
  911MPD2    H113396   1.451   1.921  16.012 -2.0664 -1.1388  1.5402
  911MPD2    H213397   1.682   1.584  16.113 -1.8271 -0.2504  0.0012
  911MPD2    H313398   1.589   1.731  15.949  1.4474 -2.1653  0.7400
  911MPD2     N13399   1.470   2.058  16.257 -0.5499 -0.3449 -0.4187
  911MPD2    H513400   1.425   2.113  16.184 -0.0225  0.2032 -0.3273
  911MPD2    N113401   1.709   1.641  16.362 -0.1714 -0.4619  0.4611
  911MPD2    H713402   1.737   1.551  16.322  1.9476  0.5907 -0.4429
  912MPD2     C13403   1.202   2.076  15.873 -0.0845 -0.6530 -0.6230
  912MPD2    C113404   1.179   2.060  16.011  0.7847  0.0502  0.3988
  912MPD2    C213405   1.185   1.932  16.062  0.2970 -0.5131 -0.2591
  912MPD2    C313406   1.194   1.819  15.981 -0.1128  0.0092 -0.2364
  912MPD2    C413407   1.202   1.841  15.844  0.1121 -0.5738 -0.5981
  912MPD2    C513408   1.210   1.964  15.794  0.0623 -0.1961  0.4310
  912MPD2     H13409   1.178   1.905  16.167 -1.7015  2.5882  0.4312
  912MPD2    H113410   1.197   1.766  15.767  2.1878 -1.4890  0.1648
  912MPD2    H213411   1.204   2.170  15.821 -1.3705  0.6432  1.6430
  912MPD2    H313412   1.226   1.971  15.687 -1.9734 -0.9458  0.0813
  912MPD2     N13413   1.210   1.697  16.042 -0.3049  0.2145  0.3471
  912MPD2    H513414   1.211   1.688  16.143  1.2878  1.2278  0.4240
  912MPD2    N113415   1.167   2.173  16.093 -0.3674  0.1950  0.6381
  912MPD2    H713416   1.190   2.258  16.044 -0.4657  0.5337  1.1818
  913MPD2     C13417   1.476   2.170  10.553 -0.2007 -0.9191  0.6514
  913MPD2    C113418   1.551   2.266  10.624 -0.5374 -0.6705  0.8841
  913MPD2    C213419   1.582   2.381  10.554 -0.2300 -0.5727 -0.0667
  913MPD2    C313420   1.546   2.403  10.419 -0.3288 -0.2687  0.9003
  913MPD2    C413421   1.453   2.316  10.362 -0.0311  0.4014  0.0922
  913MPD2    C513422   1.417   2.197  10.432 -0.4635  0.2394 -0.3845
  913MPD2     H13423   1.651   2.450  10.602 -0.2129 -0.9362  0.4445
  913MPD2    H113424   1.407   2.336  10.265  0.3827  0.9730  0.0084
  913MPD2    H213425   1.450   2.069  10.582  0.2133 -0.9587  0.8882
  913MPD2    H313426   1.351   2.132  10.377  0.8675 -3.0060  1.8198
  913MPD2     N13427   1.591   2.513  10.341  0.4367 -0.1295  0.0293
  913MPD2    H513428   1.549   2.523  10.249  0.0364  2.4960  0.4939
  913MPD2    N113429   1.595   2.230  10.760  0.1408 -0.6590 -0.3704
  913MPD2    H713430   1.578   2.139  10.800 -1.6729 -0.8046 -1.4655
  914MPD2     C13431   4.698   3.010  12.641 -0.0534 -0.0202  0.1309
  914MPD2    C113432   0.039   3.047  12.751  0.1487 -0.4815  0.5312
  914MPD2    C213433   0.123   2.958  12.816 -0.0498  0.2802  0.3091
  914MPD2    C313434   0.106   2.825  12.788  0.3515 -0.4275 -0.8975
  914MPD2    C413435   0.023   2.792  12.684 -0.5115  0.0188 -0.5561
  914MPD2    C513436   4.693   2.883  12.608  0.5139 -0.1505  0.2495
  914MPD2     H13437   0.185   2.997  12.896 -2.7252  0.4066  2.3347
  914MPD2    H113438   0.012   2.689  12.650 -0.8058 -0.1031 -0.0929
  914MPD2    H213439   4.649   3.073  12.567  1.5507 -1.1847 -1.9500
  914MPD2    H313440   4.634   2.851  12.522 -1.0134  1.0404  0.8396
  914MPD2     N13441   0.170   2.727  12.873 -0.1959 -0.1044  0.5801
  914MPD2    H513442   0.216   2.773  12.951 -1.3820 -0.7281  1.6475
  914MPD2    N113443   0.054   3.186  12.787 -0.3816 -0.1742 -0.1949
  914MPD2    H713444   0.130   3.213  12.850 -0.3106  1.9118 -1.1735
  915MPD2     C13445   2.817   2.902  15.684  0.9573 -0.0424  0.3155
  915MPD2    C113446   2.733   3.004  15.646 -0.3579  0.1785 -1.0717
  915MPD2    C213447   2.693   3.095  15.738  0.4580 -0.6561 -0.3497
  915MPD2    C313448   2.741   3.076  15.871 -0.8740 -0.1464  0.7315
  915MPD2    C413449   2.835   2.981  15.903 -0.3435  0.4182  0.2096
  915MPD2    C513450   2.871   2.887  15.807 -0.0090 -0.6329  0.2600
  915MPD2     H13451   2.623   3.177  15.723 -0.7356 -1.7627 -0.8187
  915MPD2    H113452   2.883   2.979  16.000 -0.6495  2.0076  0.3915
  915MPD2    H213453   2.843   2.833  15.604  2.6073  1.6983 -0.6300
  915MPD2    H313454   2.943   2.809  15.830 -0.9397 -2.0504 -1.7343
  915MPD2     N13455   2.685   3.164  15.977  0.3518  0.5012  0.1783
  915MPD2    H513456   2.644   3.254  15.953  2.4006  1.1748 -0.7681
  915MPD2    N113457   2.670   2.988  15.518  0.2739  0.1421 -0.3077
  915MPD2    H713458   2.663   2.894  15.480 -0.0432  0.0565 -0.0415
  916MPD2     C13459   0.594   1.749  16.144 -0.3278 -0.0968 -0.1477
  916MPD2    C113460   0.626   1.714  16.273  0.0874  0.4354 -0.4101
  916MPD2    C213461   0.613   1.589  16.323  0.3484  0.7625 -0.8860
  916MPD2    C313462   0.554   1.487  16.248  0.0640  0.0957  0.4984
  916MPD2    C413463   0.514   1.523  16.118 -0.1612 -0.1963  0.0431
  916MPD2    C513464   0.530   1.653  16.066  0.0840  0.3027 -0.5272
  916MPD2     H13465   0.615   1.568  16.430 -0.3923  2.1928 -0.5963
  916MPD2    H113466   0.457   1.460  16.051 -0.1904  1.5063 -1.5466
  916MPD2    H213467   0.606   1.851  16.109  0.0139  0.5511  1.8065
  916MPD2    H313468   0.504   1.683  15.965 -1.8639  0.7813  0.0937
  916MPD2     N13469   0.517   1.367  16.306 -0.3691 -0.0705 -0.5286
  916MPD2    H513470   0.524   1.367  16.408  0.6929  0.7113 -0.6102
  916MPD2    N113471   0.681   1.820  16.349  0.2577  0.4930 -0.1449
  916MPD2    H713472   0.679   1.913  16.309 -0.0956  0.4775 -0.1599
  917MPD2     C13473   1.219   3.899  11.492  0.7794  0.6893 -0.2321
  917MPD2    C113474   1.225   3.925  11.629  0.3969 -0.2387 -0.3823
  917MPD2    C213475   1.344   3.959  11.689  0.2580 -0.4819  0.1609
  917MPD2    C313476   1.459   3.977  11.609  0.4111  0.5734  0.1092
  917MPD2    C413477   1.446   3.960  11.469 -0.4248 -0.1042 -0.6232
  917MPD2    C513478   1.334   3.916  11.412  0.5859  0.7686  0.6673
  917MPD2     H13479   1.350   3.979  11.795  3.0622 -0.9724  0.0890
  917MPD2    H113480   1.531   3.982  11.406 -2.1615  2.7831 -1.9758
  917MPD2    H213481   1.122   3.867  11.457  0.6617 -0.0880  0.8181
  917MPD2    H313482   1.337   3.896  11.305 -0.0522  2.1938  0.3874
  917MPD2     N13483   1.593   4.005  11.654  0.2765  0.5355 -0.1725
  917MPD2    H513484   1.660   4.017  11.578  0.7008  2.0752  0.4448
  917MPD2    N113485   1.108   3.908  11.702 -0.0066  0.4261 -0.2407
  917MPD2    H713486   1.022   3.892  11.651 -0.7122  0.7517  0.8404
  918MPD2     C13487   1.278   4.029  12.582  0.0156 -0.1377  0.1338
  918MPD2    C113488   1.340   4.015  12.460  0.6597 -0.1846 -0.1946
  918MPD2    C213489   1.266   4.018  12.345 -0.4515  0.3120  0.4266
  918MPD2    C313490   1.131   4.031  12.350  0.3472 -0.7431 -0.2255
  918MPD2    C413491   1.069   4.044  12.475  0.2872 -0.6519  0.2407
  918MPD2    C513492   1.144   4.035  12.589 -0.2150 -0.5240  0.9682
  918MPD2     H13493   1.314   3.997  12.250 -0.9435  0.4613  0.1466
  918MPD2    H113494   0.961   4.047  12.488  0.2841  2.4411 -0.5457
  918MPD2    H213495   1.327   4.003  12.676 -0.8982 -0.3533  0.5495
  918MPD2    H313496   1.095   4.044  12.685 -2.9753  0.5818 -0.5132
  918MPD2     N13497   1.054   4.026  12.231 -0.3015  0.3972 -0.4678
  918MPD2    H513498   1.102   3.998  12.146 -0.8826 -1.1326 -0.2921
  918MPD2    N113499   1.473   3.982  12.450  0.0908  0.0948  0.2501
  918MPD2    H713500   1.503   3.938  12.363 -0.4356 -1.4080  0.8393
  919MPD2     C13501   1.697   3.206  11.686 -0.3837 -0.4435 -0.6839
  919MPD2    C113502   1.609   3.104  11.666 -0.0414  0.2901  0.5296
  919MPD2    C213503   1.513   3.106  11.565 -0.5571  0.1136  0.0051
  919MPD2    C313504   1.524   3.205  11.466 -0.3187 -0.3335  0.5362
  919MPD2    C413505   1.623   3.299  11.486 -0.7967  0.4055  0.1427
  919MPD2    C513506   1.714   3.295  11.588 -0.1094  0.2283 -0.5908
  919MPD2     H13507   1.441   3.026  11.556 -0.7961  0.4035 -0.6886
  919MPD2    H113508   1.634   3.384  11.421 -0.0052 -0.4219 -0.8088
  919MPD2    H213509   1.766   3.218  11.768 -2.1201 -0.0928  0.7089
  919MPD2    H313510   1.767   3.388  11.605 -0.1793 -0.2628  2.2893
  919MPD2     N13511   1.446   3.209  11.354 -0.1349  0.3500 -0.0310
  919MPD2    H513512   1.454   3.292  11.296  1.0495  1.4653  1.7195
  919MPD2    N113513   1.593   3.011  11.765 -0.5808 -0.0396 -0.3234
  919MPD2    H713514   1.507   2.957  11.756  0.9654 -2.1323 -2.5583
  920MPD2     C13515   1.483   3.745  10.573  0.8545  0.5282 -0.3165
  920MPD2    C113516   1.348   3.711  10.571  0.2906 -0.0532 -0.1004
  920MPD2    C213517   1.312   3.604  10.651 -0.4748  0.4111  0.1135
  920MPD2    C313518   1.403   3.539  10.730 -0.2160 -0.1689  0.4283
  920MPD2    C413519   1.531   3.577  10.732 -0.4000  0.6202  0.1517
  920MPD2    C513520   1.570   3.679  10.656  0.0764 -0.4261 -0.1705
  920MPD2     H13521   1.214   3.558  10.653 -0.2879 -0.0477 -0.8951
  920MPD2    H113522   1.611   3.532  10.788  0.1987  1.2905 -0.1705
  920MPD2    H213523   1.521   3.834  10.523  1.9437 -0.3122 -0.9743
  920MPD2    H313524   1.674   3.709  10.662 -0.2540  0.5144  0.8207
  920MPD2     N13525   1.355   3.438  10.817  0.1586 -0.5842 -0.2917
  920MPD2    H513526   1.258   3.412  10.804 -0.1332  0.9743 -1.2183
  920MPD2    N113527   1.259   3.771  10.476  0.1237 -0.3597  0.6051
  920MPD2    H713528   1.167   3.729  10.486  0.9922 -1.8255  2.5399
  921MPD2     C13529   2.433   1.917  16.941  0.2533 -0.8497  0.2288
  921MPD2    C113530   2.469   1.811  16.862 -0.7185 -0.1725 -0.6490
  921MPD2    C213531   2.364   1.736  16.814  0.2147 -0.3182 -0.3243
  921MPD2    C313532   2.232   1.760  16.849 -0.1568 -0.1093  0.7797
  921MPD2    C413533   2.200   1.866  16.925 -0.5194  0.5645  0.3548
  921MPD2    C513534   2.306   1.944  16.977 -0.2148 -0.4014 -0.9037
  921MPD2     H13535   2.391   1.664  16.737 -1.7580 -0.5641 -0.7932
  921MPD2    H113536   2.100   1.890  16.959 -0.4174 -0.2234  1.2274
  921MPD2    H213537   2.508   1.991  16.969 -0.9018  0.3951  0.0052
  921MPD2    H313538   2.281   2.015  17.056  0.0213  0.3530 -1.5099
  921MPD2     N13539   2.125   1.684  16.813  0.0220  0.3338 -0.3123
  921MPD2    H513540   2.031   1.716  16.835 -0.1212 -0.5578  0.3917
  921MPD2    N113541   2.601   1.801  16.811  0.3899  0.5661 -0.2565
  921MPD2    H713542   2.665   1.877  16.836 -0.7864  1.8440 -1.1421
  922MPD2     C13543   3.685   0.221  17.242  0.6213  0.0456  0.2682
  922MPD2    C113544   3.553   0.225  17.272 -0.8413  0.1804  0.0644
  922MPD2    C213545   3.502   0.112  17.334  0.8312  0.4327 -0.9566
  922MPD2    C313546   3.572   4.733  17.363 -0.3148 -0.3703 -0.1616
  922MPD2    C413547   3.706   4.730  17.320 -0.7048  0.0913  0.1989
  922MPD2    C513548   3.764   0.111  17.267 -1.1175  0.2813  0.0352
  922MPD2     H13549   3.394   0.108  17.342  0.8603 -1.5817 -1.5460
  922MPD2    H113550   3.775   4.657  17.361 -0.7728 -0.1796 -0.1687
  922MPD2    H213551   3.744   0.313  17.237  1.0298 -0.1412  1.6032
  922MPD2    H313552   3.871   0.114  17.253 -1.1247  0.8240  0.1044
  922MPD2     N13553   3.498   4.627  17.428  0.1970  0.0994  0.4715
  922MPD2    H513554   3.401   4.640  17.454  0.0137  1.2282 -0.7636
  922MPD2    N113555   3.467   0.333  17.273 -0.3627  0.2383  0.0623
  922MPD2    H713556   3.372   0.306  17.294 -0.3148  0.2285  0.2676
  923MPD2     C13557   4.331   1.375   9.060  0.3106 -0.1765  0.3801
  923MPD2    C113558   4.289   1.431   9.178 -0.6909 -0.4036 -0.2923
  923MPD2    C213559   4.380   1.456   9.281 -0.0075  0.2982  0.4447
  923MPD2    C313560   4.504   1.421   9.268 -0.3211 -0.1546 -0.3501
  923MPD2    C413561   4.549   1.351   9.156 -0.8136  0.0911  0.2322
  923MPD2    C513562   4.462   1.335   9.049 -0.3657  0.2275  0.5532
  923MPD2     H13563   4.358   1.501   9.377 -1.2340  0.3913  0.1183
  923MPD2    H113564   4.654   1.325   9.143 -0.7191  2.2130 -3.5400
  923MPD2    H213565   4.264   1.352   8.978  0.2783 -3.0680  1.1924
  923MPD2    H313566   4.506   1.304   8.954 -0.7311 -0.2801  0.5481
  923MPD2     N13567   4.599   1.444   9.370  0.0733 -0.0975 -0.1889
  923MPD2    H513568   4.689   1.395   9.365  1.5258  2.2069  3.7126
  923MPD2    N113569   4.155   1.468   9.189  0.4660  0.5754 -0.6855
  923MPD2    H713570   4.090   1.443   9.116  1.9706 -1.6741 -1.2573
  924MPD2     C13571   4.651   0.267  15.935  0.2279 -0.6589  0.4610
  924MPD2    C113572   4.567   0.199  16.016  0.3651 -0.3731 -0.0540
  924MPD2    C213573   4.557   0.236  16.150  0.4080  0.0513 -0.5453
  924MPD2    C313574   4.637   0.333  16.209 -0.1223  0.0178  0.2385
  924MPD2    C413575   4.719   0.406  16.123  0.1080 -0.9976  0.0673
  924MPD2    C513576   4.729   0.362  15.993  0.1605 -0.2872  0.2407
  924MPD2     H13577   4.494   0.180  16.218 -1.9261  1.2349 -1.7478
  924MPD2    H113578   0.035   0.500  16.146  1.0749 -0.7806 -2.8596
  924MPD2    H213579   4.661   0.237  15.831  2.1661  1.2654  0.1129
  924MPD2    H313580   0.056   0.423  15.928  0.9468  0.3914  1.6241
  924MPD2     N13581   4.615   0.377  16.345 -0.8030 -0.3083 -0.3438
  924MPD2    H513582   4.664   0.461  16.376 -0.3135 -0.6925 -0.0782
  924MPD2    N113583   4.496   0.091  15.964 -0.3357 -0.7012 -0.2255
  924MPD2    H713584   4.483   0.091  15.864  2.0358  0.5348 -0.5275
  925MPD2     C13585   3.290   2.255  14.933 -0.5061  0.0363 -0.2122
  925MPD2    C113586   3.188   2.325  14.872 -0.0983 -1.3573  0.0785
  925MPD2    C213587   3.168   2.458  14.903 -0.0979  0.5738  0.6329
  925MPD2    C313588   3.236   2.526  15.006 -0.4029 -0.5395  0.0007
  925MPD2    C413589   3.327   2.453  15.078  0.1411  0.2661  0.2199
  925MPD2    C513590   3.365   2.326  15.031 -0.4195 -0.1170  0.6088
  925MPD2     H13591   3.094   2.513  14.844 -1.8890 -1.7939  0.6599
  925MPD2    H113592   3.374   2.496  15.166  0.0182  2.0386 -0.5873
  925MPD2    H213593   3.315   2.151  14.919 -0.7045 -0.2671  1.7075
  925MPD2    H313594   3.449   2.278  15.079  0.7130  0.8136 -0.4382
  925MPD2     N13595   3.200   2.658  15.047 -0.4539  0.0109  0.1594
  925MPD2    H513596   3.254   2.695  15.125  0.0014 -0.5475  0.1129
  925MPD2    N113597   3.112   2.272  14.771  0.0433 -0.0025 -0.5951
  925MPD2    H713598   3.033   2.328  14.741 -0.3916 -0.3831 -0.1665
  926MPD2     C13599   1.694   0.592  14.042  0.6869  0.1685  0.4183
  926MPD2    C113600   1.585   0.631  13.973 -0.6369 -1.2667  1.0914
  926MPD2    C213601   1.587   0.636  13.839 -0.1331  0.3363 -0.2337
  926MPD2    C313602   1.699   0.614  13.771  0.4931 -0.3349  0.3363
  926MPD2    C413603   1.813   0.584  13.845  0.6244  0.1582 -0.3664
  926MPD2    C513604   1.806   0.566  13.980  1.1219  0.3278 -0.1817
  926MPD2     H13605   1.495   0.662  13.789  0.2282  1.3534 -0.3663
  926MPD2    H113606   1.909   0.559  13.800  3.1925  3.3568  3.2764
  926MPD2    H213607   1.688   0.579  14.149 -2.3005 -0.7505  0.1519
  926MPD2    H313608   1.892   0.540  14.040  1.2714 -2.5169 -1.6445
  926MPD2     N13609   1.711   0.625  13.630 -0.0976 -0.3242  0.0153
  926MPD2    H513610   1.804   0.631  13.590  0.4959 -1.9053  1.1390
  926MPD2    N113611   1.469   0.667  14.047  0.3156  0.3677  0.2898
  926MPD2    H713612   1.382   0.677  13.996 -0.0234 -1.9254  0.3888
  927MPD2     C13613   1.827   3.189   0.282  0.1244 -0.0593  1.0284
  927MPD2    C113614   1.799   3.078   0.204 -0.5157  0.6328  0.0620
  927MPD2    C213615   1.897   3.035   0.119  0.5491 -0.5015 -0.1321
  927MPD2    C313616   2.015   3.099   0.100 -0.7134  0.2760 -0.1692
  927MPD2    C413617   2.040   3.214   0.172  0.2987  1.1678 -0.1384
  927MPD2    C513618   1.947   3.248   0.261  0.2083  0.2893 -0.0767
  927MPD2     H13619   1.879   2.956   0.048  2.3279  0.8507 -2.1161
  927MPD2    H113620   2.126   3.276   0.151 -0.9679  1.8658 -3.2625
  927MPD2    H213621   1.764   3.234   0.358 -0.8044 -0.6594  0.6123
  927MPD2    H313622   1.975   3.331   0.325  0.1586  1.1130 -1.1202
  927MPD2     N13623   2.101   3.049   0.004 -0.6975 -0.7214 -0.1156
  927MPD2    H513624   2.079   2.961  17.695 -0.1132  1.0277 -3.7785
  927MPD2    N113625   1.671   3.009   0.202  0.0521  0.3306 -0.3300
  927MPD2    H713626   1.671   2.921   0.151 -2.2161  0.9927 -1.4565
  928MPD2     C13627   3.997   1.039   0.894 -0.1010 -0.5177 -0.4158
  928MPD2    C113628   4.095   1.065   0.993 -0.3864 -0.1786 -0.6249
  928MPD2    C213629   4.174   1.173   0.972  0.2732 -0.5289 -0.1234
  928MPD2    C313630   4.167   1.232   0.849 -0.2066 -0.0577  0.0822
  928MPD2    C413631   4.077   1.201   0.759  0.7538  0.8130  0.8434
  928MPD2    C513632   3.982   1.112   0.780  0.0401  0.0741 -0.5498
  928MPD2     H13633   4.254   1.203   1.038 -0.3088  1.9612 -0.5131
  928MPD2    H113634   4.073   1.254   0.664  0.3700  1.1986  1.0750
  928MPD2    H213635   3.927   0.957   0.909 -3.0431  2.2565  1.2831
  928MPD2    H313636   3.911   1.077   0.705 -0.0789  0.6748 -0.7199
  928MPD2     N13637   4.257   1.334   0.809  0.5580  0.0322  0.5627
  928MPD2    H513638   4.259   1.362   0.712  0.7915 -0.1052  0.5265
  928MPD2    N113639   4.102   0.978   1.108 -0.1956  0.3502 -0.3234
  928MPD2    H713640   4.029   0.907   1.109  0.9531 -0.8002  1.0513
  929MPD2     C13641   4.614   1.744  10.306 -0.1054 -0.0635  0.0214
  929MPD2    C113642   4.511   1.673  10.363 -0.3565  0.4903 -0.2912
  929MPD2    C213643   4.391   1.739  10.378  0.4158  0.7187 -0.4931
  929MPD2    C313644   4.378   1.879  10.371  0.5522 -0.4338 -0.7803
  929MPD2    C413645   4.481   1.946  10.314 -0.0379  0.3474  0.5948
  929MPD2    C513646   4.596   1.877  10.276  0.4064 -0.5775 -0.2396
  929MPD2     H13647   4.315   1.683  10.432 -0.2373  1.3783 -0.7293
  929MPD2    H113648   4.477   2.051  10.288 -1.0000  0.8527  2.7809
  929MPD2    H213649   4.713   1.706  10.284 -1.3728 -2.4105 -1.6254
  929MPD2    H313650   4.683   1.917  10.224  0.7278  1.6243  1.9589
  929MPD2     N13651   4.263   1.941  10.428 -0.3600 -0.2436 -0.2367
  929MPD2    H513652   4.190   1.883  10.466 -0.7557 -0.2992 -1.0782
  929MPD2    N113653   4.528   1.533  10.383  0.1896  0.4490 -0.6239
  929MPD2    H713654   4.618   1.497  10.353  0.2398  1.6552 -1.9141
  930MPD2     C13655   1.276   3.402  14.444 -0.4442  0.4434 -0.3380
  930MPD2    C113656   1.407   3.400  14.409 -0.9413 -0.4092  1.0591
  930MPD2    C213657   1.445   3.355  14.290 -0.5105  0.2852  0.0146
  930MPD2    C313658   1.346   3.308  14.199  0.6317  0.2013  0.2393
  930MPD2    C413659   1.211   3.318  14.228  0.0331  0.6279  0.0538
  930MPD2    C513660   1.181   3.352  14.354  0.1307  0.6358  0.2897
  930MPD2     H13661   1.544   3.379  14.251 -1.1979 -0.0466 -1.9515
  930MPD2    H113662   1.127   3.312  14.159  0.4767 -1.4119 -0.3117
  930MPD2    H213663   1.235   3.436  14.538 -0.6767  2.6117 -1.2278
  930MPD2    H313664   1.079   3.349  14.389  0.1768  0.9311  0.4566
  930MPD2     N13665   1.384   3.280  14.068 -0.1326 -0.0363 -0.1664
  930MPD2    H513666   1.313   3.280  13.995 -0.8547  2.9607  0.5038
  930MPD2    N113667   1.493   3.486  14.488  0.4872  0.1644  0.6374
  930MPD2    H713668   1.440   3.552  14.544  1.2499  2.5266 -1.4079
  931MPD2     C13669   1.737   2.432   0.275 -0.8703 -0.9340 -0.1228
  931MPD2    C113670   1.632   2.474   0.350 -0.1986  0.4361 -0.0427
  931MPD2    C213671   1.611   2.430   0.484  0.9980  0.2723  0.6977
  931MPD2    C313672   1.711   2.348   0.531 -0.4440  0.1574  0.0107
  931MPD2    C413673   1.819   2.305   0.457  0.1457  0.4646 -0.1489
  931MPD2    C513674   1.826   2.345   0.329  0.0614 -0.5002  0.2763
  931MPD2     H13675   1.535   2.473   0.548  1.0343  2.4197 -0.6816
  931MPD2    H113676   1.896   2.238   0.493 -0.9095 -2.2254 -2.9152
  931MPD2    H213677   1.757   2.476   0.178  1.9109  0.8537  1.2413
  931MPD2    H313678   1.914   2.315   0.273 -1.5506 -2.6187 -1.0953
  931MPD2     N13679   1.707   2.301   0.665 -0.6086 -0.4991  0.2003
  931MPD2    H513680   1.780   2.241   0.703 -1.4909 -2.1321 -0.6985
  931MPD2    N113681   1.541   2.561   0.279 -0.2087 -0.0771  0.0247
  931MPD2    H713682   1.571   2.608   0.194 -0.0249  0.4746  0.3935
  932MPD2     C13683   4.485   2.348  12.016  0.1928  0.4763  0.5589
  932MPD2    C113684   4.378   2.391  11.937  0.0506 -0.5693 -0.0394
  932MPD2    C213685   4.317   2.304  11.854  0.1063  0.2560  0.4988
  932MPD2    C313686   4.359   2.173  11.854 -0.7700 -0.0485  0.9783
  932MPD2    C413687   4.461   2.129  11.944 -0.1783 -0.2155 -0.8942
  932MPD2    C513688   4.520   2.221  12.012  0.0998  0.7301  0.2758
  932MPD2     H13689   4.232   2.349  11.804 -0.5690 -0.5124  0.9572
  932MPD2    H113690   4.488   2.024  11.941 -0.5602 -0.3199 -0.7109
  932MPD2    H213691   4.541   2.405  12.089 -0.3660  2.6449 -0.7295
  932MPD2    H313692   4.602   2.187  12.075 -1.2689 -1.6937  0.7168
  932MPD2     N13693   4.295   2.072  11.777 -0.0325 -0.1741 -0.1837
  932MPD2    H513694   4.332   1.977  11.782  1.0703  0.2010 -1.1155
  932MPD2    N113695   4.324   2.523  11.952  0.8124 -0.2017  0.0033
  932MPD2    H713696   4.246   2.550  11.892  1.4726  0.6168 -0.4772
  933MPD2     C13697   3.586   0.635   1.431  0.0597 -0.4747 -0.5636
  933MPD2    C113698   3.669   0.738   1.468  0.0381  0.1635 -0.0768
  933MPD2    C213699   3.605   0.851   1.524 -0.2939 -0.1887 -0.5216
  933MPD2    C313700   3.469   0.859   1.550  0.2512  0.1756  0.6416
  933MPD2    C413701   3.389   0.751   1.522  0.1672 -0.2718  0.5249
  933MPD2    C513702   3.448   0.645   1.450 -0.6687 -0.9215 -0.4299
  933MPD2     H13703   3.667   0.932   1.559 -0.2919 -0.1080 -0.7103
  933MPD2    H113704   3.282   0.745   1.539 -0.1400  0.3158 -1.1179
  933MPD2    H213705   3.632   0.549   1.384  0.2609 -0.8091  0.2538
  933MPD2    H313706   3.388   0.564   1.409 -1.2714 -0.7941  0.1936
  933MPD2     N13707   3.425   0.975   1.619  0.8296 -0.0033 -0.2400
  933MPD2    H513708   3.499   1.036   1.651  0.3948  1.0530 -1.2449
  933MPD2    N113709   3.808   0.735   1.443 -0.2876 -0.1779  0.0974
  933MPD2    H713710   3.847   0.666   1.380 -1.3240  1.1955 -2.0496
  934MPD2     C13711   0.901   4.506   1.737  0.4329 -0.5710 -0.5524
  934MPD2    C113712   0.941   4.471   1.610  0.4120 -0.2016  0.3152
  934MPD2    C213713   0.867   4.387   1.533 -0.3662 -0.2860  0.1827
  934MPD2    C313714   0.756   4.331   1.592 -0.4388 -0.1501 -0.6834
  934MPD2    C413715   0.717   4.368   1.716  0.7622  0.0452 -0.6441
  934MPD2    C513716   0.790   4.445   1.787  0.2872  0.0503 -0.3807
  934MPD2     H13717   0.905   4.357   1.436 -0.2280  2.3907 -0.5981
  934MPD2    H113718   0.631   4.325   1.765  0.6549  0.7789 -0.1895
  934MPD2    H213719   0.944   4.588   1.795  2.2689 -0.8114 -1.5774
  934MPD2    H313720   0.761   4.466   1.889  2.2340 -0.7328  0.3427
  934MPD2     N13721   0.665   4.246   1.526 -0.1024 -0.3556  0.0735
  934MPD2    H513722   0.585   4.207   1.575  2.1190 -1.2537  3.0118
  934MPD2    N113723   1.061   4.523   1.552 -0.1794 -0.7959 -0.2191
  934MPD2    H713724   1.075   4.505   1.452 -0.6550 -0.9004 -0.2640
  935MPD2     C13725   0.927   3.429   1.180  0.7020  0.1912  0.2994
  935MPD2    C113726   0.794   3.414   1.209 -0.4896 -0.0656 -0.5930
  935MPD2    C213727   0.711   3.519   1.218 -0.1605  0.2672  0.1772
  935MPD2    C313728   0.763   3.642   1.202  0.2290  0.0703  0.3032
  935MPD2    C413729   0.897   3.657   1.165 -0.6628 -0.5507 -0.7864
  935MPD2    C513730   0.974   3.546   1.141 -0.6199 -0.0191  0.3837
  935MPD2     H13731   0.608   3.512   1.251 -0.0092 -0.2663  0.5359
  935MPD2    H113732   0.943   3.753   1.145 -3.3370  1.2893  1.9584
  935MPD2    H213733   0.996   3.346   1.168 -0.3618 -0.7289  0.5632
  935MPD2    H313734   1.077   3.571   1.117 -0.1702 -2.2352  0.0332
  935MPD2     N13735   0.686   3.762   1.216  0.5893  0.4333  0.2080
  935MPD2    H513736   0.738   3.849   1.209  1.1832  0.0373 -0.2815
  935MPD2    N113737   0.735   3.282   1.224  0.1150  0.4812  0.0469
  935MPD2    H713738   0.636   3.277   1.244  0.2738  1.1814  0.9936
  936MPD2     C13739   3.800   0.702  12.423  0.0185 -0.5260 -0.8396
  936MPD2    C113740   3.895   0.600  12.407 -0.1616  0.3322  0.5799
  936MPD2    C213741   4.018   0.611  12.342 -0.0236 -0.1236  0.6736
  936MPD2    C313742   4.047   0.740  12.294 -0.1840 -0.4225 -0.3710
  936MPD2    C413743   3.943   0.829  12.278 -0.4083 -0.8565  0.2396
  936MPD2    C513744   3.825   0.815  12.350 -0.1079  0.3082  0.1185
  936MPD2     H13745   4.078   0.522  12.327  1.9587  1.6288 -1.9222
  936MPD2    H113746   3.946   0.923  12.224  1.1980 -1.3555 -0.5587
  936MPD2    H213747   3.702   0.690  12.467  0.7928 -0.8010  0.7925
  936MPD2    H313748   3.754   0.897  12.352 -1.5329 -0.9513  0.6789
  936MPD2     N13749   4.180   0.773  12.257 -0.3657  0.3583 -0.1873
  936MPD2    H513750   4.251   0.708  12.289 -1.1643 -1.2684 -1.7019
  936MPD2    N113751   3.878   0.480  12.484  0.8699 -0.1887 -0.3141
  936MPD2    H713752   3.956   0.418  12.468  3.0593  2.7243 -0.9884
  937MPD2     C13753   1.936   2.299  11.839  0.0040 -0.0819  0.7627
  937MPD2    C113754   1.974   2.433  11.841 -0.0017 -0.0268 -0.2469
  937MPD2    C213755   2.061   2.468  11.738  0.8862  0.2056 -0.5173
  937MPD2    C313756   2.115   2.386  11.640 -0.1794  0.7180  0.3819
  937MPD2    C413757   2.068   2.256  11.639 -0.1281  1.1134  0.1472
  937MPD2    C513758   1.979   2.223  11.738  0.1204 -0.3123  0.5044
  937MPD2     H13759   2.085   2.573  11.731 -2.0787  1.0088  1.4992
  937MPD2    H113760   2.103   2.183  11.567 -0.6527 -0.6716  1.6851
  937MPD2    H213761   1.868   2.251  11.908 -1.8754 -0.0683 -1.0967
  937MPD2    H313762   1.952   2.118  11.735 -0.0742 -0.1599 -3.0886
  937MPD2     N13763   2.204   2.436  11.543  0.5904  0.0383 -0.4704
  937MPD2    H513764   2.229   2.534  11.552  0.5579  0.1878 -1.9842
  937MPD2    N113765   1.903   2.534  11.902  0.1045 -0.3489  0.2873
  937MPD2    H713766   1.928   2.627  11.868 -1.3742 -0.2803 -0.5746
  938MPD2     C13767   4.642   3.294   1.222 -0.8167 -0.0502  0.3648
  938MPD2    C113768   4.543   3.376   1.257  0.0975  0.7878  0.2425
  938MPD2    C213769   4.434   3.330   1.326  0.8761  0.0913 -0.4609
  938MPD2    C313770   4.422   3.195   1.355 -0.7370  0.2461 -0.2214
  938MPD2    C413771   4.523   3.110   1.317 -0.2286 -0.0585 -0.2999
  938MPD2    C513772   4.630   3.155   1.257 -0.3635 -0.1057 -0.3284
  938MPD2     H13773   4.357   3.404   1.344  1.2617  0.3917 -0.0227
  938MPD2    H113774   4.520   3.007   1.351  0.8527 -0.6293 -1.9574
  938MPD2    H213775   4.730   3.322   1.166 -0.9005 -2.3318 -0.9087
  938MPD2    H313776   4.709   3.082   1.246  0.4431  0.7722 -0.4158
  938MPD2     N13777   4.317   3.144   1.426  0.1948  0.5094  0.7332
  938MPD2    H513778   4.321   3.044   1.447 -2.6642  0.6435  1.8766
  938MPD2    N113779   4.552   3.521   1.227 -0.0787 -0.5013 -0.6604
  938MPD2    H713780   4.476   3.581   1.257  1.5418  1.7608 -1.1392
  939MPD2     C13781   1.182   4.113   0.605  0.3966  0.2318 -0.4243
  939MPD2    C113782   1.237   4.236   0.600 -0.6516  0.4092  0.1953
  939MPD2    C213783   1.323   4.269   0.492  0.3641 -0.2355 -0.4612
  939MPD2    C313784   1.342   4.181   0.385  0.4445 -1.0761  0.4120
  939MPD2    C413785   1.295   4.051   0.399  0.3900 -1.0772  0.0139
  939MPD2    C513786   1.228   4.021   0.513  0.0434  0.0006 -0.2312
  939MPD2     H13787   1.364   4.367   0.474  0.5208  0.2114  2.3245
  939MPD2    H113788   1.317   3.966   0.336 -0.1873 -1.1157 -0.1369
  939MPD2    H213789   1.127   4.082   0.693  1.4076 -1.2436 -0.3166
  939MPD2    H313790   1.193   3.919   0.530 -0.0558  0.1413  0.3830
  939MPD2     N13791   1.404   4.227   0.265 -0.2309  0.4314  0.3251
  939MPD2    H513792   1.429   4.325   0.260  0.6229  0.2659  1.2124
  939MPD2    N113793   1.212   4.321   0.705  0.0786  0.7187  0.6258
  939MPD2    H713794   1.152   4.283   0.778  0.9817 -0.2571  0.8772
  940MPD2     C13795   0.141   0.501  13.177 -0.2674  0.5882  0.1374
  940MPD2    C113796   0.047   0.427  13.246  0.4338  0.7277  0.5254
  940MPD2    C213797   4.730   0.311  13.181 -0.3744  0.7471 -0.1863
  940MPD2    C313798   0.033   0.274  13.049 -0.4134 -0.0704  0.0502
  940MPD2    C413799   0.118   0.365  12.986 -0.1904  0.2430  0.2778
  940MPD2    C513800   0.174   0.471  13.049 -0.2404  0.5407  0.1029
  940MPD2     H13801   4.660   0.251  13.237 -0.9039  0.3532 -1.2589
  940MPD2    H113802   0.144   0.354  12.881  0.2608  0.7622  0.3391
  940MPD2    H213803   0.186   0.590  13.220  1.4377 -0.2075 -0.0224
  940MPD2    H313804   0.245   0.535  12.997  0.8329 -0.6262  0.1346
  940MPD2     N13805   4.711   0.168  12.976 -0.5295 -0.3380 -0.3901
  940MPD2    H513806   0.017   0.138  12.887 -0.5598 -1.0809 -0.1588
  940MPD2    N113807   4.731   0.462  13.381  0.5628  0.0485  0.5373
  940MPD2    H713808   4.675   0.392  13.427  0.1842 -0.4348 -0.6648
  941MPD2     C13809   4.313   4.036   9.843 -0.1101 -0.8033  0.1166
  941MPD2    C113810   4.265   4.086   9.958 -0.0017 -0.3494 -0.1389
  941MPD2    C213811   4.140   4.045  10.000  0.1736  0.0459 -0.5261
  941MPD2    C313812   4.062   3.957   9.921 -0.3370 -0.0113 -0.9383
  941MPD2    C413813   4.110   3.903   9.807  0.1731 -0.2394 -0.0520
  941MPD2    C513814   4.236   3.945   9.769 -0.1452 -0.0005  0.6070
  941MPD2     H13815   4.095   4.091  10.087  0.6579 -1.1711  0.3777
  941MPD2    H113816   4.059   3.829   9.747  0.5516 -1.2729  0.8880
  941MPD2    H213817   4.418   4.051   9.822 -0.2304  1.0412  0.7948
  941MPD2    H313818   4.269   3.907   9.673  1.3585 -2.4660  2.0802
  941MPD2     N13819   3.931   3.910   9.956 -0.4120 -0.2036  0.7000
  941MPD2    H513820   3.889   3.841   9.895 -1.2136 -0.5078  1.5964
  941MPD2    N113821   4.345   4.167  10.046  0.1098  0.0054 -0.2581
  941MPD2    H713822   4.308   4.179  10.140  0.9070 -0.6025  0.1301
  942MPD2     C13823   3.645   1.268  10.086 -0.6240  0.2308 -0.0900
  942MPD2    C113824   3.591   1.268   9.961 -0.3615 -0.0888 -0.4718
  942MPD2    C213825   3.687   1.269   9.862  0.0747  0.3419  0.4883
  942MPD2    C313826   3.823   1.285   9.886  0.4707  0.6103 -0.7433
  942MPD2    C413827   3.866   1.302  10.012 -0.6052  0.2957  0.5005
  942MPD2    C513828   3.776   1.292  10.114 -0.2209  0.3213 -0.0313
  942MPD2     H13829   3.653   1.265   9.758  0.1344  0.4156  0.4662
  942MPD2    H113830   3.967   1.332  10.034 -0.5879 -0.4318  1.4158
  942MPD2    H213831   3.590   1.266  10.179 -0.8285 -0.8049 -0.2353
  942MPD2    H313832   3.809   1.296  10.218  0.4480 -1.1015 -0.1863
  942MPD2     N13833   3.917   1.303   9.781 -0.0986  0.1956 -0.2213
  942MPD2    H513834   4.012   1.318   9.814  1.2779 -0.8309 -3.7272
  942MPD2    N113835   3.449   1.265   9.932 -0.0981  0.2026  0.0046
  942MPD2    H713836   3.428   1.252   9.833  0.3377  0.4795 -0.1269
  943MPD2     C13837   2.527   4.235  10.536 -0.0121 -0.3150  0.3920
  943MPD2    C113838   2.437   4.142  10.573  0.8205 -0.6463 -0.2403
  943MPD2    C213839   2.369   4.150  10.698  0.5773  0.0660 -0.3261
  943MPD2    C313840   2.400   4.254  10.787  0.8731  0.5805 -0.0335
  943MPD2    C413841   2.501   4.351  10.747 -0.3144  0.0055  0.1965
  943MPD2    C513842   2.557   4.334  10.623  0.4081 -0.4910  0.0110
  943MPD2     H13843   2.301   4.071  10.727  0.6351  1.0297  2.4066
  943MPD2    H113844   2.510   4.440  10.808  2.5802 -0.8777  1.0588
  943MPD2    H213845   2.579   4.226  10.442  2.0253 -1.7054  1.6794
  943MPD2    H313846   2.633   4.403  10.587 -0.6508  0.2451 -0.8163
  943MPD2     N13847   2.330   4.272  10.910  0.4565 -0.3197  0.1981
  943MPD2    H513848   2.371   4.351  10.961 -0.6372 -1.3595  2.6759
  943MPD2    N113849   2.409   4.035  10.486 -0.5443 -0.0224  0.3842
  943MPD2    H713850   2.465   4.032  10.401 -0.4156  2.8114  0.3886
  944MPD2     C13851   2.329   3.345  11.003 -0.9317  0.1795  0.7519
  944MPD2    C113852   2.249   3.302  11.109  0.4179 -0.6473  0.5765
  944MPD2    C213853   2.240   3.381  11.217 -0.0966  0.3245  0.7941
  944MPD2    C313854   2.313   3.496  11.231  0.3085  0.2839 -0.6449
  944MPD2    C413855   2.386   3.536  11.126 -0.4828 -0.5890 -0.5176
  944MPD2    C513856   2.385   3.464  11.006 -0.4155 -0.0875  0.7877
  944MPD2     H13857   2.178   3.347  11.300 -2.3186  1.3707 -0.4166
  944MPD2    H113858   2.446   3.626  11.118 -2.2708  0.7599  1.3311
  944MPD2    H213859   2.334   3.291  10.909 -0.7534  1.3920  0.0582
  944MPD2    H313860   2.425   3.505  10.914  0.2411  1.1269  1.6078
  944MPD2     N13861   2.305   3.570  11.357 -0.1345  0.0619  0.0232
  944MPD2    H513862   2.241   3.533  11.426 -0.8914 -0.3335 -0.8824
  944MPD2    N113863   2.174   3.179  11.088 -0.2576 -0.3689 -0.8219
  944MPD2    H713864   2.197   3.123  11.007 -1.1569 -0.5613 -0.9475
    1TMC1    C113865   0.700   4.558  15.332 -1.0364 -0.3228 -0.0907
    1TMC1    C213866   0.613   4.499  15.422  0.6152  0.4458 -0.6773
    1TMC1    C313867   0.622   4.541  15.556  0.4911  0.0873 -0.7368
    1TMC1    C413868   0.792   4.656  15.375 -0.6768  0.6094 -0.1341
    1TMC1    C513869   0.794   4.687  15.506 -0.5555  0.0385  0.5332
    1TMC1    C613870   0.706   4.642  15.594  0.5408  0.2778 -0.5048
    1TMC1     C13871   0.683   4.538  15.187  0.0354 -0.1099 -0.4967
    1TMC1     O13872   0.619   4.443  15.150 -0.3032 -0.4044  0.8807
    1TMC1     H13873   0.568   4.403  15.397  1.0001 -0.1938  1.0249
    1TMC1    H113874   0.864   4.702  15.309  3.0580 -0.4190  3.1684
    1TMC1    H213875   0.733   4.651  15.698  0.4609  1.0034 -0.5421
    1TMC1    C713876   0.857   0.081  15.540  0.0818  0.1339  0.3735
    1TMC1    C813877   0.548   4.483  15.667 -0.2481  0.2284  0.4288
    1TMC1    O113878   0.955   0.116  15.482 -0.4841  0.4150 -0.2151
    1TMC1    O213879   0.569   4.521  15.781  0.4170 -0.2525 -0.6239
    1TMC1    O313880   0.764   0.166  15.598  0.0273 -0.0095  0.0327
    1TMC1    H313881   0.706   0.126  15.666 -0.9158  0.6489 -0.3876
    1TMC1    O513882   0.447   4.418  15.620  0.6012 -0.5464 -0.0245
    1TMC1    H513883   0.444   4.391  15.526  0.2270 -3.2475  0.7353
    2MPD2     C13884   0.736   4.687  14.693 -0.3011  0.7216 -0.0385
    2MPD2    C113885   0.725   0.065  14.768 -0.2717 -0.2106  0.3156
    2MPD2    C213886   0.708   0.049  14.904  0.2692  0.0837 -0.1885
    2MPD2    C313887   0.711   4.659  14.970  0.1653  0.4296  0.0145
    2MPD2    C413888   0.712   4.548  14.896 -0.5622 -0.3439  0.3298
    2MPD2    C513889   0.728   4.563  14.756 -0.2189  0.3496 -0.0977
    2MPD2     H13890   0.708   0.135  14.970  0.3897 -0.9408  1.1424
    2MPD2    H113891   0.720   4.449  14.938  0.6671 -0.2660  0.2680
    2MPD2    H213892   0.757   4.682  14.587 -0.8743  1.1611 -0.1724
    2MPD2    H313893   0.744   4.472  14.698  1.5228  0.8992 -0.4493
    2MPD2     N13894   0.709   4.650  15.109  0.1490 -0.0469 -0.0475
    2MPD2    H513895   0.727   0.006  15.153  0.7558  0.4686 -1.3340
    2MPD2    N113896   0.723   0.185  14.693 -0.3120 -0.4170  0.3172
    2MPD2    H713897   0.712   0.184  14.592 -0.9103  0.6130  0.3743
    3TMC2    C113898   0.692   0.414  14.668  0.6086 -0.6315 -0.0664
    3TMC2    C213899   0.726   0.537  14.700 -0.5027 -0.4654  0.2874
    3TMC2    C313900   0.728   0.642  14.609 -0.3172 -0.7265  0.4341
    3TMC2    C413901   0.642   0.393  14.541  0.0051 -0.2495  0.6614
    3TMC2    C513902   0.628   0.497  14.457  0.3455 -0.0068 -0.0577
    3TMC2    C613903   0.690   0.618  14.478  0.5379  0.7259 -0.0499
    3TMC2     C13904   0.723   0.310  14.753 -0.3410  0.1267 -0.1907
    3TMC2     O13905   0.760   0.339  14.868 -0.0958 -0.2331  0.3906
    3TMC2     H13906   0.760   0.562  14.799  0.2258  0.2635 -0.1529
    3TMC2    H113907   0.608   0.296  14.507  1.3779 -1.0999  1.7424
    3TMC2    H213908   0.690   0.700  14.406  0.7570  0.1637 -0.6888
    3TMC2    C713909   0.661   0.457  14.324  0.2177  0.2756 -0.1209
    3TMC2    C813910   0.800   0.767  14.631  0.0204 -0.6561 -0.9354
    3TMC2    O113911   0.730   0.355  14.310  0.4749  0.2619 -0.1590
    3TMC2    O213912   0.919   0.761  14.647 -0.1826 -0.8661  0.3675
    3TMC2    O513913   0.729   0.870  14.567  0.4255  0.2461  0.5204
    3TMC2    H513914   0.635   0.845  14.571  0.3352  0.7873  1.9050
    4TMC2    C113915   0.144   1.001  13.690  0.1263 -0.1392  0.2075
    4TMC2    C213916   0.191   1.010  13.557 -0.0692 -0.1366 -0.7988
    4TMC2    C313917   0.315   0.965  13.528 -0.1773 -0.2079  0.2334
    4TMC2    C413918   0.224   0.957  13.792  0.5302 -0.3505 -1.5088
    4TMC2    C513919   0.339   0.896  13.754 -0.2726  0.3332 -0.5024
    4TMC2    C613920   0.388   0.903  13.628 -0.2784 -0.4606  0.0407
    4TMC2     C13921   0.006   1.006  13.727 -0.5434  0.2003  0.6022
    4TMC2     O13922   4.725   1.038  13.844  0.2555 -0.0235 -0.5935
    4TMC2     H13923   0.122   1.037  13.478 -0.7826  0.3860  0.0064
    4TMC2    H113924   0.193   0.944  13.895 -2.1263 -2.6100 -2.5837
    4TMC2    H213925   0.474   0.849  13.589  0.7823 -0.3639  2.2407
    4TMC2    C713926   0.419   0.830  13.855 -0.2656  0.3553 -1.2066
    4TMC2    C813927   0.339   0.938  13.388 -0.0205  0.1440  0.5546
    4TMC2    O113928   0.402   0.876  13.969 -0.6023  0.4882  0.5984
    4TMC2    O213929   0.250   0.921  13.308 -0.4276  0.4005 -0.3646
    4TMC2    O513930   0.468   0.964  13.358  0.0484 -0.0408 -0.0896
    4TMC2    H513931   0.514   1.013  13.430  2.4513 -0.8009 -1.1349
    5MPD2     C13932   4.250   0.896  13.689 -0.2786 -0.4821 -0.1241
    5MPD2    C113933   4.317   0.827  13.592  0.1831  0.4233  0.2212
    5MPD2    C213934   4.452   0.844  13.576  0.6149 -0.3504 -0.5976
    5MPD2    C313935   4.517   0.941  13.650 -0.4317  0.1221 -0.4704
    5MPD2    C413936   4.450   1.016  13.745  0.1370  0.3687  0.0518
    5MPD2    C513937   4.312   0.996  13.763  0.3658  0.3420  0.9219
    5MPD2     H13938   4.513   0.795  13.501  0.7360 -0.1561 -0.6238
    5MPD2    H113939   4.498   1.103  13.790 -0.9092  2.1184 -2.2161
    5MPD2    H213940   4.143   0.881  13.698 -0.1480 -1.5777 -0.3869
    5MPD2    H313941   4.248   1.059  13.824 -1.9823 -0.3032 -0.8732
    5MPD2     N13942   4.653   0.956  13.630  0.2558 -0.3672  0.2749
    5MPD2    H513943   4.699   0.906  13.555 -0.5672  1.4753 -1.4770
    5MPD2    N113944   4.238   0.739  13.518 -0.3909 -0.5483  0.0491
    5MPD2    H713945   4.140   0.734  13.545 -0.2644 -1.0555  0.4064
    6MPD1     C13946   2.996   1.542  12.677 -0.9344  0.2829 -0.2232
    6MPD1    C113947   3.005   1.451  12.577  0.5148 -0.0238  0.0395
    6MPD1    C213948   3.093   1.348  12.588  0.1665  0.0049 -0.6412
    6MPD1    C313949   3.167   1.332  12.706  0.0790 -0.6847 -0.2458
    6MPD1    C413950   3.162   1.422  12.803 -0.1432  0.0452  0.0892
    6MPD1    C513951   3.072   1.523  12.787 -0.1453  0.0037 -0.3711
    6MPD1     H13952   3.100   1.279  12.505  0.8621 -0.8024  0.0799
    6MPD1    H113953   3.219   1.409  12.894  3.4665  0.3717 -2.0889
    6MPD1    H213954   2.943   1.636  12.668 -1.4099  0.0085 -0.3077
    6MPD1    H313955   3.061   1.595  12.867 -1.5180 -0.0280 -0.5304
    6MPD1     N13956   3.251   1.222  12.741  0.7111 -0.6325 -0.1962
    6MPD1    H513957   3.283   1.208  12.836 -0.9395 -0.5499  0.3749
    6MPD1    N113958   2.910   1.463  12.470 -0.1262 -0.0990 -0.3175
    6MPD1    H613959   2.878   1.559  12.464  0.3738  0.0492 -0.6093
    6MPD1    H713960   2.958   1.442  12.382  1.5592  1.9650  0.1077
    7MPD2     C13961   3.417   0.763  13.317 -0.0084  0.4953  0.1814
    7MPD2    C113962   3.488   0.721  13.203  0.4400 -0.9549  0.3806
    7MPD2    C213963   3.592   0.642  13.222  0.1403 -0.3396 -0.2204
    7MPD2    C313964   3.638   0.603  13.346 -0.5656  0.1891  0.0320
    7MPD2    C413965   3.573   0.653  13.457  0.5597  0.4486 -0.5978
    7MPD2    C513966   3.453   0.716  13.441 -0.1216 -0.2642  0.3496
    7MPD2     H13967   3.644   0.615  13.131  1.7114  0.2675  0.5008
    7MPD2    H113968   3.604   0.615  13.554  0.5928 -0.5215 -0.9881
    7MPD2    H213969   3.339   0.838  13.316  0.2420  0.7535  0.1136
    7MPD2    H313970   3.398   0.742  13.530  0.7007 -1.9505  1.3524
    7MPD2     N13971   3.753   0.521  13.354  0.1720 -0.3664 -0.2526
    7MPD2    H513972   3.779   0.482  13.264  1.7029 -0.3637  0.1944
    7MPD2    N113973   3.458   0.763  13.072 -0.8426  0.1852 -0.3075
    7MPD2    H713974   3.516   0.722  13.000 -1.5951 -0.7620 -0.3727
    8TMC3    C113975   3.974   0.455  13.421  0.2170  0.1895  0.8748
    8TMC3    C213976   4.081   0.524  13.476  0.1151  0.0167  0.5946
    8TMC3    C313977   4.187   0.548  13.393  0.2710  0.2680  0.3447
    8TMC3    C413978   3.980   0.406  13.294 -0.6964  0.1482  0.8352
    8TMC3    C513979   4.078   0.449  13.208 -0.0440  0.1972 -0.3045
    8TMC3    C613980   4.187   0.518  13.257 -0.6310  0.1796  0.2717
    8TMC3     C13981   3.838   0.495  13.462 -0.3779  0.1391  0.3002
    8TMC3     O13982   3.824   0.532  13.581 -0.4841 -0.2197  0.1465
    8TMC3     H13983   4.074   0.556  13.580 -2.4666 -0.9215  0.7163
    8TMC3    H113984   3.898   0.348  13.253 -0.3784  0.2689  0.0260
    8TMC3    H213985   4.269   0.543  13.189  0.6497 -0.2590  1.6574
    8TMC3    C713986   4.017   0.508  13.097 -0.0903 -0.3938 -0.3192
    8TMC3    C813987   4.287   0.646  13.430 -0.5182 -0.1921 -0.0408
    8TMC3    O113988   3.894   0.496  13.098 -0.3453 -0.0250 -0.0466
    8TMC3    O213989   4.390   0.660  13.363 -0.0587  0.2391 -0.2021
    9TMC3    C113990   3.386   1.034  12.717  0.3436  0.2123  0.8314
    9TMC3    C213991   3.511   1.024  12.668 -0.1449  0.2422  0.1099
    9TMC3    C313992   3.592   0.944  12.745  0.3555  0.0173 -0.1899
    9TMC3    C413993   3.335   0.985  12.839 -0.1199 -0.5822 -0.1349
    9TMC3    C513994   3.426   0.924  12.914  0.6074 -0.7239  0.1661
    9TMC3    C613995   3.554   0.892  12.869  0.0253  0.0304  0.1406
    9TMC3     C13996   3.311   1.140  12.653  0.4402 -1.0407  0.3548
    9TMC3     O13997   3.300   1.154  12.532  0.6088 -0.6063  0.1943
    9TMC3     H13998   3.544   1.068  12.575  1.3928  2.1023  1.5346
    9TMC3    H113999   3.230   0.987  12.866 -0.2431  2.3397 -0.8546
    9TMC3    H214000   3.628   0.859  12.941  0.2792 -1.4210 -0.7846
    9TMC3    C714001   3.375   0.872  13.043  1.1253  0.2557 -0.2242
    9TMC3    C814002   3.730   0.930  12.705 -0.3939  0.5895  0.0131
    9TMC3    O114003   3.272   0.910  13.091  0.6240  0.2973  0.0133
    9TMC3    O214004   3.780   1.012  12.630 -0.0896  0.2302  0.9080
   10MPD2     C14005   4.184   0.713  12.841 -0.0673  0.3859 -0.1183
   10MPD2    C114006   4.080   0.660  12.913  0.5117 -0.3924 -0.1627
   10MPD2    C214007   3.952   0.698  12.880  0.2651 -0.5388  0.3698
   10MPD2    C314008   3.927   0.792  12.782  0.0970 -0.2515  0.1663
   10MPD2    C414009   4.036   0.848  12.708 -0.3840  0.1300  0.2846
   10MPD2    C514010   4.162   0.812  12.750 -0.5009 -0.1728 -0.7305
   10MPD2     H14011   3.862   0.674  12.936 -0.7393  2.3964  0.0252
   10MPD2    H114012   4.018   0.929  12.638  0.9801 -0.8589 -1.2158
   10MPD2    H214013   4.287   0.699  12.872  0.0776  1.4149 -0.1342
   10MPD2    H314014   4.247   0.864  12.708 -0.9331  0.1404 -1.2102
   10MPD2     N14015   3.792   0.833  12.780  0.3719 -0.1833  0.3967
   10MPD2    H514016   3.725   0.778  12.833  0.7248  0.2701  1.3167
   10MPD2    N114017   4.110   0.570  13.017 -0.1918  0.8422 -0.6154
   10MPD2    H714018   4.207   0.541  13.017 -0.0834  1.1996  0.8305
   11MPD2     C14019   0.691   0.429  14.032  0.4328  0.0683 -0.2966
   11MPD2    C114020   0.631   0.540  14.096 -0.3057 -0.2078 -0.1052
   11MPD2    C214021   0.571   0.639  14.018  0.3532  0.0130 -0.2769
   11MPD2    C314022   0.560   0.628  13.879  0.5695  0.1212 -0.0170
   11MPD2    C414023   0.621   0.517  13.822  0.5280 -0.2937 -0.4508
   11MPD2    C514024   0.686   0.427  13.892 -0.1254 -0.1585 -0.3665
   11MPD2     H14025   0.508   0.710  14.069 -0.0382 -0.4114 -0.1699
   11MPD2    H114026   0.612   0.503  13.715 -0.4397  0.5932 -0.4889
   11MPD2    H214027   0.733   0.338  14.074 -1.9669 -0.8695  0.0709
   11MPD2    H314028   0.723   0.333  13.851 -0.2332  0.2145 -1.3221
   11MPD2     N14029   0.489   0.726  13.803 -0.5784  0.4901 -1.0041
   11MPD2    H514030   0.483   0.719  13.702  1.7222 -0.9074 -1.0584
   11MPD2    N114031   0.609   0.547  14.237 -0.1525  0.4966  0.2491
   11MPD2    H714032   0.554   0.623  14.276 -1.7444  0.5794 -2.1164
    1MPD1     C14033   2.823   2.423   0.097 -0.1170  0.0967  0.4849
    1MPD1    C114034   2.766   2.321   0.023  0.1871 -0.1549 -0.9310
    1MPD1    C214035   2.831   2.284  17.638 -1.0538  0.4472 -0.8712
    1MPD1    C314036   2.953   2.341  17.606  0.1854 -0.7191  0.0935
    1MPD1    C414037   3.013   2.430  17.682 -0.7120 -0.0584 -0.3352
    1MPD1    C514038   2.947   2.470   0.061  0.6483  0.0548  0.4468
    1MPD1     H14039   2.792   2.205  17.575 -0.7120  0.0225 -0.5550
    1MPD1    H114040   3.107   2.473  17.651  0.0615  0.8823  3.3096
    1MPD1    H214041   2.780   2.475   0.182  2.0108 -0.0045  1.6224
    1MPD1    H314042   2.986   2.557   0.112  0.7479 -0.5713  1.4452
    1MPD1     N14043   3.020   2.300  17.487  0.0352 -0.0829 -0.2761
    1MPD1    H514044   3.112   2.343  17.481  0.5672 -1.0024  1.1582
    1MPD1    N114045   2.641   2.267   0.049  0.0569 -0.0666 -0.3010
    1MPD1    H614046   2.608   2.284   0.144 -0.9772 -0.4809 -0.5786
    1MPD1    H714047   2.641   2.166   0.035  0.4387 -0.2546  1.0650
    2MPD1     C14048   3.904   2.289  17.092  0.4426 -0.1984 -0.1042
    2MPD1    C114049   3.832   2.312  16.975 -0.0578 -0.0260 -0.4247
    2MPD1    C214050   3.699   2.316  16.996  0.5434  1.0821 -0.0744
    2MPD1    C314051   3.640   2.285  17.121 -0.4888 -0.2703 -0.7672
    2MPD1    C414052   3.712   2.263  17.236 -0.0051 -0.8642 -0.0144
    2MPD1    C514053   3.849   2.259  17.218  0.2629 -0.0960  0.1506
    2MPD1     H14054   3.643   2.358  16.914 -0.0311  2.3681  0.9768
    2MPD1    H114055   3.679   2.233  17.335 -0.2789  3.1154  1.0888
    2MPD1    H214056   4.012   2.276  17.090  0.2067 -2.2027 -0.2093
    2MPD1    H314057   3.921   2.243  17.297  0.2905 -0.7603 -0.0125
    2MPD1     N14058   3.500   2.267  17.119 -0.2224  0.4334  0.3970
    2MPD1    H514059   3.451   2.289  17.033  0.3839  0.7853  0.1386
    2MPD1    N114060   3.888   2.366  16.857 -0.1341  0.1841 -0.3126
    2MPD1    H614061   3.842   2.343  16.769 -2.5348  0.7938  0.8068
    2MPD1    H714062   3.981   2.326  16.842  0.1030  0.8265 -0.5873
    3TMC3    C114063   3.284   2.219  17.197 -0.7221 -0.1589 -0.5571
    3TMC3    C214064   3.242   2.211  17.069 -0.6608  0.6951 -0.1535
    3TMC3    C314065   3.109   2.212  17.049 -0.2532 -0.6799 -0.1045
    3TMC3    C414066   3.197   2.245  17.301  0.0103 -0.0520  0.3639
    3TMC3    C514067   3.062   2.234  17.270  0.0526 -0.6390 -0.7360
    3TMC3    C614068   3.016   2.212  17.149 -0.4181 -0.2429  0.0624
    3TMC3     C14069   3.420   2.235  17.227 -0.6049 -0.3218 -0.6952
    3TMC3     O14070   3.458   2.227  17.345 -0.5571 -0.1179  0.4134
    3TMC3     H14071   3.305   2.178  16.987 -1.4776  1.5283 -1.1141
    3TMC3    H114072   3.238   2.241  17.401 -2.0510 -1.8959  1.1598
    3TMC3    H214073   2.911   2.217  17.123 -0.4589 -0.1928  0.2387
    3TMC3    C714074   2.966   2.234  17.381 -0.0901  0.8417 -0.4818
    3TMC3    C814075   3.059   2.219  16.912  0.3525  0.3075  0.2848
    3TMC3    O114076   2.846   2.232  17.344 -0.2710  0.8174 -0.3160
    3TMC3    O214077   2.939   2.186  16.890 -0.7248  0.7872 -0.0035
    4MPD1     C14078   3.139   2.245  16.408  0.2035  0.6861 -0.3688
    4MPD1    C114079   3.250   2.298  16.470  0.3173 -1.4104 -0.2127
    4MPD1    C214080   3.249   2.316  16.605 -0.6415 -0.0949 -0.2117
    4MPD1    C314081   3.147   2.260  16.680 -0.3010  0.2443 -0.1986
    4MPD1    C414082   3.032   2.207  16.615 -0.5846 -0.1662  0.1849
    4MPD1    C514083   3.035   2.200  16.483  0.0947 -0.6435 -0.1116
    4MPD1     H14084   3.328   2.376  16.648 -1.6470 -0.5508  2.2635
    4MPD1    H114085   2.945   2.165  16.664 -2.0420  1.5283 -0.9872
    4MPD1    H214086   3.132   2.238  16.300 -0.2741 -1.2897 -0.1969
    4MPD1    H314087   2.946   2.162  16.434  0.6245 -0.7319 -1.0068
    4MPD1     N14088   3.153   2.269  16.822  0.4235 -0.4889 -0.5831
    4MPD1    H514089   3.235   2.313  16.864 -0.9890  0.3837  1.2543
    4MPD1    N114090   3.361   2.342  16.390 -0.2200 -0.2821  0.4919
    4MPD1    H614091   3.381   2.283  16.310  0.2581 -1.2620  1.3162
    4MPD1    H714092   3.449   2.345  16.442 -1.0458 -1.1732  1.9468
    1TCq1    O114093   0.120   1.045  11.348 -0.2368 -0.3462  0.2080
    1TCq1    C114094   0.152   1.003  11.223  0.2193 -0.1794 -0.1068
    1TCq1    O214095   0.247   1.032  11.152  0.1038  0.2053  0.1262
    1TCq1    C214096   0.055   0.904  11.183 -0.8114 -0.3757  0.1880
    1TCq1    C314097   0.004   0.903  11.055  0.2693  0.9650  0.4071
    1TCq1    C414098   4.637   0.817  11.022 -0.1633  0.0889  0.0711
    1TCq1    C514099   4.596   0.737  11.122 -0.1345 -0.4731  0.2585
    1TCq1    C614100   4.657   0.731  11.249  0.9432 -0.2361 -0.6480
    1TCq1    C714101   0.026   0.814  11.278 -0.4705  0.0036 -0.2886
    1TCq1    C814102   4.601   0.651  11.352 -0.0138  0.3001  0.1466
    1TCq1    O414103   4.548   0.550  11.316  0.2078 -0.2501  0.1609
    1TCq1    C914104   4.548   0.856  10.912  0.0123 -0.9793  0.4271
    1TCq1    O514105   4.576   0.956  10.843  0.2221  0.6564  0.1350
    1TCq1    O614106   4.450   0.781  10.884  0.4216  0.3058  0.7094
    1TCq1    H114107   0.043   1.003  11.391 -2.4345  3.0445 -0.4033
    1TCq1    H214108   0.017   0.992  10.993 -0.8644  2.3589  2.1832
    1TCq1    H314109   4.509   0.676  11.101  0.8750 -1.4115 -1.1101
    1TCq1    H414110   0.096   0.815  11.361  0.3168 -0.1313 -0.9498
    2MPD1     C14111   4.608   0.507  11.844  0.2853 -0.0480 -0.1826
    2MPD1    C114112   4.674   0.634  11.834  0.2024  0.3691  0.0426
    2MPD1    C214113   4.676   0.688  11.702  0.6863 -1.1219 -0.1771
    2MPD1    C314114   4.615   0.626  11.598  0.6657 -0.3415 -0.7709
    2MPD1    C414115   4.557   0.501  11.613  0.2155 -0.5313 -0.0878
    2MPD1    C514116   4.562   0.436  11.730  0.6664  0.4495 -0.6471
    2MPD1     H14117   4.729   0.777  11.671 -0.3244 -0.3443  0.3442
    2MPD1    H114118   4.515   0.445  11.530  0.1585  0.8310 -0.9772
    2MPD1    H214119   4.593   0.469  11.945  2.4454  1.6907  0.7788
    2MPD1    H314120   4.519   0.337  11.745  1.9115  0.3529  2.2134
    2MPD1     N14121   4.636   0.694  11.476 -0.5799  0.7396  0.0330
    2MPD1    H514122   4.674   0.788  11.480  0.0962  0.5590 -1.9155
    2MPD1    N114123   4.710   0.720  11.941  0.3514 -0.5005  0.2731
    2MPD1    H614124   0.002   0.671  12.026 -0.9199  0.4693  1.2310
    2MPD1    H714125   0.052   0.783  11.917 -1.0885  2.3155  3.0368
    1TMC1    C114126   1.141   2.894   0.809  0.3767 -0.1094  0.3923
    1TMC1    C214127   1.113   3.029   0.801 -0.6751  0.2336 -0.5070
    1TMC1    C314128   0.996   3.073   0.856 -0.3914  0.4914  0.6002
    1TMC1    C414129   1.044   2.809   0.867  0.2051 -0.2571  0.3560
    1TMC1    C514130   0.919   2.861   0.890 -0.4192  0.8987  0.1125
    1TMC1    C614131   0.895   2.992   0.896 -0.2944  0.1052  0.0039
    1TMC1     C14132   1.262   2.838   0.750 -0.1014  0.2564  0.0831
    1TMC1     O14133   1.274   2.718   0.750  0.0494  0.1637  0.2285
    1TMC1     H14134   1.171   3.100   0.744 -2.4165  2.3216  0.3307
    1TMC1    H114135   1.052   2.701   0.867 -0.3320 -0.2946  2.0469
    1TMC1    H214136   0.808   3.030   0.949  0.6439  0.8547  1.0184
    1TMC1    C714137   0.837   2.775   0.971 -0.3011 -0.0714 -0.0977
    1TMC1    C814138   0.981   3.210   0.893  0.1522  0.1600  0.4265
    1TMC1    O114139   0.889   2.695   1.045 -0.3798  0.2140 -0.3235
    1TMC1    O214140   0.871   3.259   0.921 -0.2077 -0.6947  0.4063
    1TMC1    O314141   0.707   2.820   0.979  0.1471 -0.3721 -0.1364
    1TMC1    H314142   0.669   2.870   0.904  0.2036  0.9586  0.7156
    1TMC1    O514143   1.101   3.227   0.954 -0.0282 -0.3554 -1.0522
    1TMC1    H514144   1.170   3.159   0.937  1.7740  1.5634 -1.3969
    2MPD1     C14145   1.734   2.843   0.549  0.7314  0.2661  0.2586
    2MPD1    C114146   1.708   2.964   0.603  0.2862 -0.1154  0.0590
    2MPD1    C214147   1.588   2.995   0.667 -0.6936  0.2523 -0.6532
    2MPD1    C314148   1.486   2.903   0.652 -0.6115 -0.6366 -0.1814
    2MPD1    C414149   1.510   2.782   0.597 -0.4418  0.1844  0.1957
    2MPD1    C514150   1.633   2.754   0.548 -0.1003  0.0431  1.0623
    2MPD1     H14151   1.581   3.085   0.728 -1.1171  0.5841 -1.1957
    2MPD1    H114152   1.438   2.701   0.597 -1.3404  0.9807  0.7662
    2MPD1    H214153   1.830   2.810   0.509 -0.3623 -0.6793 -1.5872
    2MPD1    H314154   1.658   2.652   0.520 -0.3924  0.5532 -1.0587
    2MPD1     N14155   1.358   2.933   0.714  0.3808 -0.5354 -0.0305
    2MPD1    H514156   1.334   3.028   0.739  0.3388 -0.3848 -0.6428
    2MPD1    N114157   1.814   3.049   0.632  0.4064 -0.7135 -0.1953
    2MPD1    H614158   1.785   3.143   0.660 -1.2619 -0.5009 -2.6118
    2MPD1    H714159   1.888   3.052   0.563 -1.3818  2.5263 -1.9804
    1MPD1     C14160   1.169   1.301  11.239  0.4678 -0.0520  0.3129
    1MPD1    C114161   1.090   1.284  11.347 -0.7172 -0.2869 -0.1334
    1MPD1    C214162   1.087   1.387  11.438  0.3967 -0.0756  0.3913
    1MPD1    C314163   1.175   1.485  11.428 -0.3949 -0.0789  0.2702
    1MPD1    C414164   1.272   1.484  11.330  0.0676  0.2526  0.1858
    1MPD1    C514165   1.256   1.400  11.224 -0.1007 -0.2733 -0.3063
    1MPD1     H14166   1.012   1.393  11.515  1.0854  1.4993  0.9353
    1MPD1    H114167   1.343   1.563  11.310  1.1877 -0.5747  0.9174
    1MPD1    H214168   1.169   1.226  11.161 -0.8643 -0.6488  0.9053
    1MPD1    H314169   1.324   1.400  11.140 -0.2544  1.6870 -0.4375
    1MPD1     N14170   1.160   1.592  11.525  0.4413 -0.0905  0.9254
    1MPD1    H514171   1.092   1.575  11.598  0.7791  1.2031  1.5426
    1MPD1    N114172   0.986   1.188  11.349  0.4235 -0.3252  0.2664
    1MPD1    H614173   1.006   1.099  11.305  0.2687  0.4057 -1.3001
    1MPD1    H714174   0.958   1.160  11.443  0.2127  0.9382  0.5830
    2MPD1     C14175   0.772   2.357  10.453  0.6608  0.4412  0.6439
    2MPD1    C114176   0.673   2.429  10.387  0.5196 -0.4645 -0.0423
    2MPD1    C214177   0.634   2.540  10.449  0.6723 -0.4215  1.3110
    2MPD1    C314178   0.692   2.576  10.570 -0.2374  0.7807  0.2706
    2MPD1    C414179   0.801   2.509  10.622  0.2314 -0.2260 -0.4598
    2MPD1    C514180   0.839   2.397  10.565 -0.6286  0.7148 -0.3461
    2MPD1     H14181   0.558   2.598  10.397  2.1781  0.5974  0.2398
    2MPD1    H114182   0.843   2.542  10.716  0.9092 -0.8258 -0.5475
    2MPD1    H214183   0.813   2.268  10.408  0.0993  0.4625  0.0868
    2MPD1    H314184   0.926   2.339  10.592 -0.7380  1.1332  0.9326
    2MPD1     N14185   0.664   2.693  10.643  0.3439 -0.3804  0.2198
    2MPD1    H514186   0.728   2.714  10.719  0.8642  0.0862 -0.3499
    2MPD1    N114187   0.596   2.376  10.289 -0.0148  0.2846  0.2413
    2MPD1    H614188   0.543   2.456  10.255 -0.4324  0.4142  1.1994
    2MPD1    H714189   0.642   2.320  10.218  0.1910  2.9660 -1.7488
    3MPD1     C14190   0.059   3.598  10.819 -0.0777 -0.2573  0.2978
    3MPD1    C114191   0.064   3.513  10.926  0.4648  0.3057  0.1304
    3MPD1    C214192   0.161   3.407  10.922  0.5062 -0.1210 -0.0853
    3MPD1    C314193   0.243   3.387  10.810  0.3246  0.9475 -0.6050
    3MPD1    C414194   0.225   3.474  10.703  0.1807  0.5569  0.4727
    3MPD1    C514195   0.126   3.566  10.703  0.4496  0.2424  0.0450
    3MPD1     H14196   0.169   3.343  11.010  0.9877  1.1013  0.7555
    3MPD1    H114197   0.270   3.456  10.606 -1.7248  0.1019 -0.3257
    3MPD1    H214198   4.733   3.688  10.811  1.3116  0.4555 -2.1625
    3MPD1    H314199   0.116   3.626  10.613 -2.8002  0.8896  0.8486
    3MPD1     N14200   0.341   3.284  10.825  0.2932 -0.4696 -0.1598
    3MPD1    H514201   0.357   3.243  10.916  0.6370  2.6466  1.1948
    3MPD1    N114202   4.731   3.550  11.039 -0.2343 -0.4036 -0.1836
    3MPD1    H614203   4.652   3.610  11.017  0.1304  0.6305  1.2832
    3MPD1    H714204   4.679   3.473  11.080  0.8525  0.1931  2.3244
    4MPD2     C14205   0.701   2.105  11.804 -0.3789 -0.5498  0.1757
    4MPD2    C114206   0.833   2.136  11.800 -0.8100 -0.6907  0.1618
    4MPD2    C214207   0.865   2.271  11.791 -0.7251  0.3685 -0.2757
    4MPD2    C314208   0.776   2.375  11.789 -0.2924  0.5467 -0.3070
    4MPD2    C414209   0.644   2.333  11.796  0.1405 -0.5289  0.1467
    4MPD2    C514210   0.606   2.201  11.790  0.2629 -0.5997  0.2050
    4MPD2     H14211   0.970   2.293  11.777 -1.3892  2.1659 -2.4734
    4MPD2    H114212   0.560   2.401  11.800 -0.2005 -0.7565 -2.6696
    4MPD2    H214213   0.673   2.001  11.792 -0.1399 -0.8327  2.0538
    4MPD2    H314214   0.500   2.179  11.785  0.1303  0.0709  0.0820
    4MPD2     N14215   0.805   2.517  11.784 -0.5379 -0.2967  0.4442
    4MPD2    H514216   0.729   2.581  11.765 -2.3484 -2.5554  0.0181
    4MPD2    N114217   0.941   2.047  11.804 -0.0040  0.1686 -0.1086
    4MPD2    H714218   1.036   2.083  11.808 -0.9250  2.5493  0.0648
    5TMC3    C114219   1.069   1.855  11.822 -0.0396  0.0668  0.6081
    5TMC3    C214220   1.098   1.769  11.723 -0.1600 -0.3291 -0.5044
    5TMC3    C314221   1.196   1.801  11.633  0.2749 -0.6450 -0.2716
    5TMC3    C414222   1.160   1.949  11.855  0.5708  0.2106 -0.9731
    5TMC3    C514223   1.273   1.974  11.782  0.1762 -0.7182 -0.1343
    5TMC3    C614224   1.283   1.900  11.668  0.3168  0.9108 -0.6073
    5TMC3     C14225   0.935   1.910  11.808 -0.0519  0.3787 -0.0068
    5TMC3     O14226   0.846   1.835  11.772  0.4659  0.6571 -0.1952
    5TMC3     H14227   1.019   1.697  11.704 -0.3660 -0.0837 -0.5737
    5TMC3    H114228   1.144   2.002  11.948  1.2558 -3.1821  1.0813
    5TMC3    H214229   1.358   1.935  11.598  0.2319  0.6232 -0.8408
    5TMC3    C714230   1.288   2.112  11.773  0.1929  0.3245 -0.4658
    5TMC3    C814231   1.240   1.706  11.526 -0.3803 -0.7019  0.7138
    5TMC3    O114232   1.191   2.181  11.802 -0.3094 -0.5656 -0.2031
    5TMC3    O214233   1.325   1.750  11.450 -0.2447 -0.6994  0.3164
    6TMC3    C114234   0.541   2.889  10.714  0.3978 -0.8874  0.2095
    6TMC3    C214235   0.464   2.999  10.669  1.2636 -0.1485 -0.2657
    6TMC3    C314236   0.483   3.113  10.744 -0.3197 -0.5338  0.7962
    6TMC3    C414237   0.636   2.899  10.818 -0.2188  0.1772  0.2461
    6TMC3    C514238   0.650   3.022  10.875  0.2782  0.4566 -0.0117
    6TMC3    C614239   0.571   3.130  10.844 -0.6298  0.2717 -0.2167
    6TMC3     C14240   0.549   2.767  10.628  0.4457  0.3021 -0.2003
    6TMC3     O14241   0.461   2.766  10.543  0.4674  0.3163 -0.1035
    6TMC3     H14242   0.390   2.987  10.592  0.4695  1.1755  0.2866
    6TMC3    H114243   0.694   2.817  10.860 -0.2116  0.5382  0.9505
    6TMC3    H214244   0.576   3.221  10.902  0.1878 -0.2509  0.5543
    6TMC3    C714245   0.735   3.029  10.991  0.2408 -0.8855 -0.6511
    6TMC3    C814246   0.398   3.226  10.713  0.5754  0.2215 -0.0314
    6TMC3    O114247   0.747   2.922  11.051 -0.5017 -0.1335  0.0155
    6TMC3    O214248   0.374   3.243  10.594 -0.8860 -0.0738 -0.3980
    7MPD2     C14249   1.523   2.570  11.700 -0.1286  0.2774  0.4682
    7MPD2    C114250   1.393   2.538  11.731  0.2684  0.3215  0.2151
    7MPD2    C214251   1.359   2.403  11.745 -0.2275  0.5579 -0.6031
    7MPD2    C314252   1.446   2.296  11.725  0.0966  0.5063 -0.3937
    7MPD2    C414253   1.574   2.332  11.690 -0.1599  0.0397 -0.5232
    7MPD2    C514254   1.611   2.464  11.692 -0.9723  0.5865  0.7102
    7MPD2     H14255   1.254   2.388  11.766 -0.1226  1.3513  0.5397
    7MPD2    H114256   1.652   2.261  11.668 -0.5298 -0.0492 -1.5709
    7MPD2    H214257   1.559   2.672  11.692  1.1596 -0.2766 -0.6689
    7MPD2    H314258   1.718   2.480  11.678 -1.0139 -0.2509 -0.5235
    7MPD2     N14259   1.412   2.161  11.736  0.4403 -0.2622  0.3447
    7MPD2    H514260   1.484   2.093  11.713 -0.7386 -1.2712 -0.4024
    7MPD2    N114261   1.287   2.626  11.748 -0.2856  0.7807 -0.2197
    7MPD2    H714262   1.202   2.577  11.774  0.0071 -0.8350 -2.3212
    8TMC3    C114263   1.164   2.816  11.755 -0.4423 -0.5364  0.6570
    8TMC3    C214264   1.112   2.874  11.648 -0.0888  0.3187  0.3951
    8TMC3    C314265   0.987   2.848  11.603 -0.1711 -0.0297  0.2578
    8TMC3    C414266   1.081   2.731  11.823  1.2226 -0.6779 -0.0352
    8TMC3    C514267   0.949   2.705  11.778  0.3701 -0.2754  0.0354
    8TMC3    C614268   0.904   2.756  11.661 -0.6837  0.8465  0.4338
    8TMC3     C14269   1.297   2.765  11.745 -0.0948  0.5803  0.0192
    8TMC3     O14270   1.392   2.836  11.703  0.3789 -0.0540  0.5728
    8TMC3     H14271   1.181   2.934  11.589 -0.0261 -1.9669 -1.8214
    8TMC3    H114272   1.107   2.693  11.921  0.4768 -3.3076 -0.8644
    8TMC3    H214273   0.804   2.747  11.622 -0.5273 -0.3699  0.3149
    8TMC3    C714274   0.931   2.559  11.796 -0.6303 -0.2053 -0.1048
    8TMC3    C814275   0.938   2.914  11.484  0.1420  0.2808 -0.2384
    8TMC3    O114276   1.037   2.497  11.800  0.2301 -0.3370  0.5227
    8TMC3    O214277   0.858   2.847  11.424 -0.2092  0.3544 -0.0288
    9MPD2     C14278   1.011   3.260  11.347  0.1493  0.3341  0.0073
    9MPD2    C114279   0.953   3.132  11.356 -0.6197 -0.5545 -0.0957
    9MPD2    C214280   0.871   3.097  11.249 -0.2403 -0.3061  0.1488
    9MPD2    C314281   0.842   3.187  11.146 -0.0378 -0.0168  0.0414
    9MPD2    C414282   0.883   3.314  11.158 -0.3716  0.5130 -0.1989
    9MPD2    C514283   0.987   3.347  11.245 -0.7114  0.2296  0.1304
    9MPD2     H14284   0.833   2.995  11.248  0.0503 -0.4109 -0.3146
    9MPD2    H114285   0.851   3.376  11.075 -1.5519 -0.5131 -0.5022
    9MPD2    H214286   1.091   3.291  11.414  0.4004 -0.9945  0.3322
    9MPD2    H314287   1.038   3.442  11.250  1.1748 -0.7581 -0.0533
    9MPD2     N14288   0.769   3.157  11.031 -0.4602 -0.4629 -0.7954
    9MPD2    H514289   0.750   3.234  10.967 -1.7867  0.9266  1.2751
    9MPD2    N114290   0.987   3.044  11.454 -0.2126  0.2484  0.2265
    9MPD2    H714291   1.050   3.082  11.524  1.0176 -0.4955 -0.4740
    1MPD1     C14292   1.351   1.084  17.355  0.3042 -0.1516  0.8399
    1MPD1    C114293   1.211   1.090  17.353 -0.2630  0.4311 -0.5236
    1MPD1    C214294   1.148   1.044  17.236  0.3234 -0.5918 -0.8449
    1MPD1    C314295   1.215   0.988  17.127 -0.4464  0.1162  0.5357
    1MPD1    C414296   1.356   0.978  17.133 -0.3634 -0.5341 -0.5098
    1MPD1    C514297   1.422   1.022  17.250 -0.2556 -0.1820  0.4198
    1MPD1     H14298   1.039   1.048  17.239  0.2364 -2.1782 -1.9687
    1MPD1    H114299   1.419   0.932  17.058 -1.1664  0.8717 -2.0423
    1MPD1    H214300   1.404   1.120  17.443  0.2460  1.1934  0.3144
    1MPD1    H314301   1.529   1.008  17.251 -0.4581 -1.7363  0.7959
    1MPD1     N14302   1.144   0.946  17.005 -0.5753  0.5116 -0.0633
    1MPD1    H514303   1.193   0.896  16.932 -3.4263  0.5686 -1.9935
    1MPD1    N114304   1.155   1.176  17.441  0.1361  0.6331 -0.3251
    1MPD1    H614305   1.059   1.146  17.458  0.7135 -0.6105  0.7020
    1MPD1    H714306   1.209   1.187  17.526 -1.3976 -1.3461  0.9188
    2TMC2    C114307   0.938   0.737  16.705  0.3253  0.1100 -0.3255
    2TMC2    C214308   0.808   0.773  16.681  0.4325  0.6169  0.0341
    2TMC2    C314309   0.760   0.883  16.739  0.1440 -0.0183  1.0323
    2TMC2    C414310   1.017   0.809  16.796  0.0119  0.1174  0.3555
    2TMC2    C514311   0.959   0.917  16.864 -0.4450  0.6057 -0.3473
    2TMC2    C614312   0.829   0.957  16.836  1.0168  0.3098 -0.2282
    2TMC2     C14313   0.963   0.596  16.694  0.6529 -0.9388 -1.2473
    2TMC2     O14314   1.045   0.538  16.763 -0.5387  0.2895  0.6862
    2TMC2     H14315   0.747   0.706  16.622 -1.5655  0.9107  1.7836
    2TMC2    H114316   1.120   0.779  16.807 -0.1488 -0.9109 -0.9608
    2TMC2    H214317   0.782   1.045  16.878 -3.1846 -1.4519 -1.1780
    2TMC2    C714318   1.009   0.971  16.986 -0.4170  0.8784  0.2185
    2TMC2    C814319   0.624   0.922  16.718  0.1925  0.3272 -0.5201
    2TMC2    O114320   0.921   1.024  17.055  0.1035 -0.6819 -0.2143
    2TMC2    O214321   0.532   0.844  16.701  0.1279  0.6543 -0.3917
    2TMC2    O514322   0.629   1.048  16.671  0.0538  0.1415  0.0958
    2TMC2    H514323   0.715   1.095  16.685 -0.9588  3.0370 -3.3796
    3MPD1     C14324   0.997   0.188  16.385  0.4234  0.5427  0.2077
    3MPD1    C114325   0.899   0.265  16.338 -0.3610  0.4073  0.0248
    3MPD1    C214326   0.874   0.381  16.411  0.1294 -0.0532  0.6426
    3MPD1    C314327   0.956   0.423  16.517  0.7040  0.0692 -0.4284
    3MPD1    C414328   1.058   0.343  16.565  0.5274  0.7455  0.0941
    3MPD1    C514329   1.075   0.229  16.490  0.1539  0.1197  0.8245
    3MPD1     H14330   0.787   0.442  16.390 -0.3616 -0.0717  2.6246
    3MPD1    H114331   1.122   0.359  16.651  4.0115  1.1414 -2.5793
    3MPD1    H214332   1.016   0.095  16.334  2.3801 -0.9833  3.7012
    3MPD1    H314333   1.154   0.163  16.526 -2.6280 -2.7301  1.7621
    3MPD1     N14334   0.920   0.544  16.573 -0.4395 -1.4410 -0.0716
    3MPD1    H514335   0.852   0.600  16.522  0.5651  1.2939  1.5765
    3MPD1    N114336   0.815   0.210  16.235  0.4952 -0.4664 -0.0122
    3MPD1    H614337   0.867   0.156  16.167  0.1235 -0.9892  0.1195
    3MPD1    H714338   0.764   0.288  16.195  2.6829 -0.4405 -2.7280
    1TMC1    C114339   3.281   4.367  13.612  0.2249 -0.2355 -0.4945
    1TMC1    C214340   3.291   4.253  13.692  0.0449  0.4032 -0.1316
    1TMC1    C314341   3.172   4.206  13.736  0.0676  0.5437 -0.3636
    1TMC1    C414342   3.167   4.418  13.560  1.2762  0.0467  0.2145
    1TMC1    C514343   3.056   4.360  13.612  0.1055  0.0065  0.6258
    1TMC1    C614344   3.050   4.260  13.702 -0.1297 -0.4869  0.4973
    1TMC1     C14345   3.396   4.433  13.569 -0.8143  0.3533  0.4628
    1TMC1     O14346   3.398   4.480  13.461 -0.1635  0.5251  0.6287
    1TMC1     H14347   3.387   4.204  13.709 -0.5382 -0.2841  1.2170
    1TMC1    H114348   3.168   4.494  13.483 -0.9972  0.2755  0.4388
    1TMC1    H214349   2.962   4.219  13.748 -1.6379  2.9821  0.7076
    1TMC1    C714350   2.931   4.391  13.547  0.1258  0.9886  0.0257
    1TMC1    C814351   3.173   4.070  13.784 -0.6746 -0.5435 -0.6718
    1TMC1    O114352   2.842   4.310  13.529 -0.3744  0.0366  0.0304
    1TMC1    O214353   3.250   3.979  13.742  0.1720  0.1141 -0.2511
    1TMC1    O314354   2.918   4.523  13.524 -0.5529  0.3400 -0.0852
    1TMC1    H314355   2.990   4.583  13.552 -0.4101  0.9096 -1.6702
    1TMC1    O514356   3.106   4.073  13.898 -0.3472  0.0704  0.1313
    1TMC1    H514357   3.048   4.153  13.902  0.2192  0.4621  0.4276
    2MPD2     C14358   3.665   4.578  13.578  0.2754 -0.5947  1.0361
    2MPD2    C114359   3.622   4.491  13.673  0.5700 -0.4304 -1.0213
    2MPD2    C214360   3.716   4.436  13.759 -0.7950 -0.5867  0.9328
    2MPD2    C314361   3.852   4.476  13.760  0.5693 -0.4252  0.1876
    2MPD2    C414362   3.897   4.562  13.661 -0.1272 -0.8110  0.0936
    2MPD2    C514363   3.798   4.616  13.583  0.4100 -0.7590  0.6158
    2MPD2     H14364   3.679   4.361  13.828  1.0056 -2.8004 -0.4833
    2MPD2    H114365   3.999   4.596  13.652 -0.3224 -0.1579  0.3488
    2MPD2    H214366   3.601   4.611  13.497 -0.3991 -0.2615  1.7090
    2MPD2    H314367   3.820   4.700  13.518  1.0647 -0.8218  0.7561
    2MPD2     N14368   3.945   4.424  13.852 -0.1681 -0.4990 -0.4679
    2MPD2    H514369   3.906   4.346  13.903 -0.0659  0.7254  1.5000
    2MPD2    N114370   3.497   4.429  13.665 -0.2799 -0.4445 -0.2922
    2MPD2    H714371   3.485   4.371  13.747 -1.7465 -0.9064 -0.8487
    3TCq1    O114372   4.536   4.462  14.061 -0.0092  0.0206 -0.2441
    3TCq1    C114373   4.459   4.418  14.167 -0.3409 -0.1574  0.4259
    3TCq1    O214374   4.510   4.378  14.274  0.5279 -0.5253  0.4545
    3TCq1    C214375   4.326   4.374  14.120  0.3395  0.2287 -0.3181
    3TCq1    C314376   4.268   4.269  14.183  0.3046 -0.0919  0.1692
    3TCq1    C414377   4.143   4.229  14.149 -0.3079  0.0554  0.1431
    3TCq1    C514378   4.079   4.294  14.042  0.4628 -0.2429  0.2903
    3TCq1    C614379   4.143   4.396  13.976  0.2113 -0.1249 -0.3410
    3TCq1    C714380   4.271   4.436  14.009  0.1959  0.0429 -0.3705
    3TCq1    C814381   4.068   4.481  13.880  0.4294  0.5229 -0.0821
    3TCq1    O414382   4.115   4.585  13.834 -0.0315  0.1527 -0.2764
    3TCq1    C914383   4.076   4.110  14.202 -0.2311  0.6030 -0.3087
    3TCq1    O514384   4.146   4.037  14.278 -0.3369  0.9766 -0.4145
    3TCq1    O614385   3.956   4.094  14.176 -0.4039 -0.3511  0.3530
    3TCq1    H114386   4.481   4.475  13.981 -0.1733  1.6874  0.1222
    3TCq1    H214387   4.320   4.208  14.257 -1.0057  0.2323  1.3512
    3TCq1    H314388   3.985   4.245  14.017 -0.5358  0.3023  3.0163
    3TCq1    H414389   4.316   4.522  13.960 -0.3460 -0.2877 -1.4386
    1MPD2     C14390   3.468   0.581  15.110  0.0660 -0.2797 -0.7398
    1MPD2    C114391   3.396   0.516  15.006 -0.3002 -0.0071 -0.0283
    1MPD2    C214392   3.458   0.418  14.932  0.0285 -0.1615  0.4215
    1MPD2    C314393   3.580   0.375  14.964  0.5080 -0.5070 -0.0282
    1MPD2    C414394   3.646   0.432  15.074  0.2348  0.1473  0.1579
    1MPD2    C514395   3.595   0.539  15.142 -0.2110  0.1404 -0.3615
    1MPD2     H14396   3.403   0.370  14.852  2.3267  0.6760 -1.6206
    1MPD2    H114397   3.744   0.393  15.100  0.0443 -1.3817 -1.4360
    1MPD2    H214398   3.428   0.659  15.174 -0.8040 -0.4238 -1.1211
    1MPD2    H314399   3.637   0.588  15.229  1.1104  0.6270 -1.2664
    1MPD2     N14400   3.648   0.265  14.909 -0.4131 -0.1054 -0.0596
    1MPD2    H514401   3.742   0.252  14.947 -0.4723 -1.1409 -0.2673
    1MPD2    N114402   3.263   0.552  14.984 -0.6013 -0.3306  0.5886
    1MPD2    H714403   3.229   0.629  15.040  0.7656  0.9346 -0.3137
    2TMC3    C114404   3.041   0.538  14.903  0.2651 -0.3743  0.0194
    2TMC3    C214405   2.975   0.425  14.914 -0.1960  0.1548 -0.0294
    2TMC3    C314406   2.858   0.407  14.848 -0.0704 -0.0609  0.6174
    2TMC3    C414407   2.998   0.636  14.824  0.4550  0.2276 -0.2043
    2TMC3    C514408   2.879   0.617  14.759 -0.0388  0.1185 -0.1926
    2TMC3    C614409   2.813   0.499  14.762 -0.7230  0.3574 -0.4070
    2TMC3     C14410   3.178   0.502  14.893  0.5187 -0.3333  0.5079
    2TMC3     O14411   3.198   0.408  14.815 -0.3619 -0.0418 -0.4830
    2TMC3     H14412   3.008   0.345  14.979 -0.6541  1.0988  1.3676
    2TMC3    H114413   3.053   0.729  14.813  1.0200  0.2549  3.0803
    2TMC3    H214414   2.711   0.483  14.728 -0.5893 -2.8057  0.6092
    2TMC3    C714415   2.809   0.721  14.689 -0.5220  0.4716 -0.2787
    2TMC3    C814416   2.857   0.272  14.796  0.3776  0.9004  0.3206
    2TMC3    O114417   2.688   0.699  14.658 -0.3105  0.4178 -0.2652
    2TMC3    O214418   2.750   0.215  14.774  0.6238  0.3821 -0.9362
    3TCq1    O114419   3.423   1.772  14.513  0.0764  0.1561 -0.4214
    3TCq1    C114420   3.295   1.748  14.469  0.3765 -0.2747 -0.6630
    3TCq1    O214421   3.235   1.807  14.384 -0.0070 -0.3943 -0.2095
    3TCq1    C214422   3.237   1.655  14.565 -0.7661  0.1613 -0.0224
    3TCq1    C314423   3.285   1.652  14.694  0.0316  0.3954  0.5080
    3TCq1    C414424   3.235   1.544  14.767 -0.2279 -0.0114 -0.1493
    3TCq1    C514425   3.120   1.473  14.727 -0.7258  0.2070 -0.3125
    3TCq1    C614426   3.067   1.502  14.601  0.5468 -0.6717  0.2536
    3TCq1    C714427   3.122   1.598  14.518  0.4543  0.3520  0.0429
    3TCq1    C814428   2.954   1.420  14.548 -0.0899 -0.6704 -0.4455
    3TCq1    O414429   2.896   1.464  14.451  0.2601 -0.4958  0.2346
    3TCq1    C914430   3.299   1.523  14.893 -0.5549  0.2307  0.0392
    3TCq1    O514431   3.413   1.579  14.906 -0.3573 -0.1599 -0.1150
    3TCq1    O614432   3.234   1.457  14.977 -0.0016 -0.6417 -0.0072
    3TCq1    H114433   3.455   1.709  14.582 -1.6330 -0.6647 -0.3819
    3TCq1    H214434   3.374   1.706  14.724 -1.0923  2.9909 -0.9143
    3TCq1    H314435   3.080   1.396  14.792  2.4397  0.9337  2.4649
    3TCq1    H414436   3.093   1.621  14.416  1.7408  0.2717 -0.3391
    4MPD2     C14437   2.760   1.192  14.498  0.5129  0.2172 -0.2017
    4MPD2    C114438   2.871   1.187  14.578 -0.1987  0.0096  0.0930
    4MPD2    C214439   2.914   1.067  14.637 -0.0844  0.2953  0.0027
    4MPD2    C314440   2.844   0.951  14.621 -0.2450 -0.3780 -0.0439
    4MPD2    C414441   2.719   0.961  14.555 -0.3840  0.4809  0.2296
    4MPD2    C514442   2.680   1.081  14.496 -1.0803  0.2241 -0.3342
    4MPD2     H14443   3.009   1.065  14.689  0.2026 -1.0016 -0.5666
    4MPD2    H114444   2.640   0.888  14.543 -0.3164 -0.0235  2.8024
    4MPD2    H214445   2.728   1.279  14.442  1.2101  1.1515  0.8549
    4MPD2    H314446   2.587   1.083  14.442  0.3663 -2.1791 -2.8960
    4MPD2     N14447   2.888   0.826  14.676  0.2631  0.0292 -0.3190
    4MPD2    H514448   2.982   0.812  14.712 -0.3455  1.1947  1.7343
    4MPD2    N114449   2.961   1.292  14.596 -0.3534 -0.0841 -0.0524
    4MPD2    H714450   3.041   1.284  14.658 -0.6624  1.7547  0.5995
    5TMC2    C114451   3.587   4.640  14.627  0.1500  0.4305  0.1900
    5TMC2    C214452   3.630   4.548  14.719  0.4970  0.5536 -0.3212
    5TMC2    C314453   3.699   4.608  14.822 -0.1351  0.0280  0.0097
    5TMC2    C414454   3.611   0.043  14.627 -0.2435  0.4493  0.1116
    5TMC2    C514455   3.679   0.093  14.733  0.0484  0.2666 -0.1703
    5TMC2    C614456   3.733   0.007  14.822 -0.1351 -0.1985 -0.3117
    5TMC2     C14457   3.447   4.610  14.596  0.4239 -0.6228 -0.1118
    5TMC2     O14458   3.412   4.495  14.568 -0.7883  0.6176 -0.3742
    5TMC2     H14459   3.604   4.443  14.726  0.6807  0.4423 -1.2822
    5TMC2    H114460   3.567   0.109  14.553 -2.0375  0.8704  1.5473
    5TMC2    H214461   3.790   0.042  14.907 -0.2391  0.4536 -0.5096
    5TMC2    C714462   3.612   0.209  14.789  0.1083  0.5422 -0.2080
    5TMC2    C814463   3.754   4.528  14.928 -0.1912 -0.3315 -0.3668
    5TMC2    O114464   3.504   0.220  14.732 -0.2527  0.0055 -0.0764
    5TMC2    O214465   3.875   4.546  14.956 -0.5950 -0.1258 -0.0186
    5TMC2    O514466   3.678   4.419  14.959  0.0521 -0.4991 -0.5806
    5TMC2    H514467   3.581   4.424  14.943  0.2897  2.2562 -1.2078
    6MPD2     C14468   2.955   0.017  14.655 -0.1615 -0.2896 -0.2754
    6MPD2    C114469   3.034   0.120  14.698  0.6865  0.1482 -0.3777
    6MPD2    C214470   3.173   0.113  14.674  0.3751  0.5627  1.2967
    6MPD2    C314471   3.230   0.004  14.610  1.0531  0.3347  0.1702
    6MPD2    C414472   3.153   4.643  14.557 -0.4575 -0.5576  0.4047
    6MPD2    C514473   3.014   4.654  14.572  0.5437  0.2308 -0.1473
    6MPD2     H14474   3.240   0.185  14.720  2.2333 -1.2585  1.4565
    6MPD2    H114475   3.181   4.556  14.499 -0.5655 -1.4520  1.6859
    6MPD2    H214476   2.851   0.012  14.687 -0.2584 -1.3100 -0.7394
    6MPD2    H314477   2.952   4.577  14.529  0.2179 -0.9021  2.3447
    6MPD2     N14478   3.372   4.723  14.617 -0.5287 -0.6889  0.4926
    6MPD2    H514479   3.414   0.072  14.656  0.2967  0.5135 -2.9967
    6MPD2    N114480   2.989   0.237  14.762 -0.2708  0.6811 -0.1233
    6MPD2    H714481   3.068   0.299  14.776 -0.1734  0.4327  0.4385
  945NH3     N114482   0.777   3.347  16.110 -0.3641  0.0306 -0.4398
  945NH3     H214483   0.719   3.377  16.187  1.4368 -2.7241  1.9838
  945NH3     H314484   0.753   3.411  16.035 -0.0463 -0.6352 -1.1040
  945NH3     H414485   0.732   3.261  16.082 -3.9278  2.2543 -1.5390
  946SOD     NA14486   3.958   1.839  16.929  0.1983  0.5110  0.5181
  947SOD     NA14487   4.011   3.750   3.459 -0.2647 -0.1832  0.0242
  948SOD     NA14488   0.903   1.252  11.143  0.3843 -0.5913  0.5904
  949SOD     NA14489   2.725   2.914   2.502  0.1943  0.1030 -0.3327
  950SOD     NA14490   3.834   0.219  10.924  0.3622  0.2948  0.1002
  951SOD     NA14491   3.960   2.596   6.785  0.1342  0.5491  0.2536
  952SOD     NA14492   3.295   1.250  15.021  0.0610 -0.1121  0.2034
  953SOD     NA14493   2.570   4.373   9.927 -0.2070  0.0498  0.1229
  954SOL     OW14494   2.221   2.819   6.165  0.0216  0.3648 -0.0871
  954SOL    HW114495   2.193   2.888   6.105  0.1895 -1.7443 -2.5933
  954SOL    HW214496   2.137   2.777   6.184  0.2566  1.2789  2.9395
  955SOL     OW14497   0.389   1.636  12.694 -1.0071 -0.4191  0.4290
  955SOL    HW114498   0.462   1.691  12.667 -2.0557  1.9158  2.2728
  955SOL    HW214499   0.320   1.682  12.646 -0.1843 -1.6794 -1.9170
  956SOL     OW14500   3.188   2.963   2.300  0.3863 -0.1952 -0.4537
  956SOL    HW114501   3.207   2.923   2.385  0.9363 -1.6629 -1.2576
  956SOL    HW214502   3.109   2.913   2.280  0.0995  0.6088 -1.3472
  957SOL     OW14503   2.558   4.319   5.490  0.4564 -0.2995 -0.0581
  957SOL    HW114504   2.558   4.243   5.549  0.9100 -0.0361  0.2778
  957SOL    HW214505   2.555   4.390   5.553  1.6123  1.2471 -1.7313
  958SOL     OW14506   3.422   0.905   9.142 -0.9109 -0.3077 -0.3854
  958SOL    HW114507   3.465   0.909   9.228  0.8792  1.8251 -1.4069
  958SOL    HW214508   3.385   0.993   9.142 -1.6286 -0.6114 -1.2879
  959SOL     OW14509   2.946   4.339  14.550 -0.5115  0.0244  0.1853
  959SOL    HW114510   2.924   4.279  14.480  0.3238 -1.9477  1.5992
  959SOL    HW214511   2.861   4.383  14.551  0.4690  1.9468  1.0564
  960SOL     OW14512   2.819   2.189   6.151 -0.3360  0.3588  0.1477
  960SOL    HW114513   2.905   2.232   6.154  0.1576 -0.6046  0.0083
  960SOL    HW214514   2.762   2.259   6.181  0.1198  1.3734 -1.3746
  961SOL     OW14515   3.538   2.629   5.998 -0.0772 -0.1468  0.2723
  961SOL    HW114516   3.479   2.636   6.073  1.9800 -1.5762  2.0166
  961SOL    HW214517   3.492   2.668   5.923  1.1598  0.3856 -0.1956
  962SOL     OW14518   0.108   1.934  15.359 -0.9340  0.2320  0.1137
  962SOL    HW114519   0.134   1.876  15.431 -0.6531  1.1279  0.7292
  962SOL    HW214520   0.194   1.962  15.328 -2.3498  2.6732 -1.6307
  963SOL     OW14521   3.749   3.805   8.985 -0.0206  0.3167  0.1252
  963SOL    HW114522   3.812   3.791   8.914  0.5108 -1.5637  0.9705
  963SOL    HW214523   3.738   3.714   9.015  3.2635  0.1201  0.6800
  964SOL     OW14524   2.784   2.054   4.571 -0.0064  0.6594 -0.2066
  964SOL    HW114525   2.728   2.116   4.618  0.3111 -0.5687  1.7825
  964SOL    HW214526   2.783   2.096   4.484  0.9096  1.8901  0.3670
  965SOL     OW14527   3.257   0.194   5.714 -0.3560 -0.0497 -0.0835
  965SOL    HW114528   3.341   0.150   5.720 -1.3333 -1.7911  0.6996
  965SOL    HW214529   3.232   0.157   5.629 -1.7539 -2.5471  1.4141
  966SOL     OW14530   1.735   3.295   9.081  0.2451  0.2947  0.0441
  966SOL    HW114531   1.756   3.387   9.097 -1.2628  0.3554  1.7342
  966SOL    HW214532   1.761   3.288   8.989 -0.4815  1.8125 -0.2667
  967SOL     OW14533   3.386   3.804   2.402 -0.1191 -0.1286 -0.2071
  967SOL    HW114534   3.478   3.797   2.375  0.2593 -1.1246  1.3499
  967SOL    HW214535   3.360   3.861   2.330  2.8059 -1.1163 -2.0548
  968SOL     OW14536   2.771   2.916   1.852  0.3124  0.1611 -0.0139
  968SOL    HW114537   2.823   2.898   1.773 -0.5543  1.0751 -0.8039
  968SOL    HW214538   2.764   2.828   1.889 -1.9484  1.2135  2.0593
  969SOL     OW14539   3.582   3.600   4.173  0.5016  0.1908 -0.7382
  969SOL    HW114540   3.618   3.610   4.261 -3.8766 -2.9510  1.4440
  969SOL    HW214541   3.633   3.665   4.124 -0.6246 -0.6143 -2.9993
  970SOL     OW14542   1.411   2.313  12.039  0.1990  0.0834  1.1545
  970SOL    HW114543   1.343   2.346  11.981 -0.3490  1.6653  2.7058
  970SOL    HW214544   1.485   2.288  11.983  0.3295  1.6803  0.6133
  971SOL     OW14545   2.079   3.273   4.063 -0.0455  0.9903 -0.2136
  971SOL    HW114546   2.046   3.344   4.118 -0.7922 -1.3455  2.3279
  971SOL    HW214547   2.126   3.324   3.997 -0.0185 -0.6121 -1.4260
  972SOL     OW14548   4.056   3.008   8.396  0.7785  0.3128  0.1025
  972SOL    HW114549   4.139   3.029   8.439  0.4652 -1.8996  1.7998
  972SOL    HW214550   4.086   2.988   8.307  0.6227 -1.7467  0.5017
  973SOL     OW14551   3.449   1.106   2.218  0.2145 -0.6238 -0.7493
  973SOL    HW114552   3.473   1.081   2.128 -1.6471 -2.7848 -0.6489
  973SOL    HW214553   3.505   1.183   2.222 -0.5041 -0.2149  1.0775
  974SOL     OW14554   2.424   2.222   8.501 -0.1115  0.3586  0.4021
  974SOL    HW114555   2.506   2.175   8.488  0.1183  1.2248 -1.3717
  974SOL    HW214556   2.422   2.260   8.413  2.8704  1.1881  0.6754
  975SOL     OW14557   0.005   4.119   2.905 -0.1367  0.2445 -0.6421
  975SOL    HW114558   0.062   4.045   2.884  1.0092  1.4817 -1.8446
  975SOL    HW214559   4.658   4.075   2.930  0.4550 -0.6480 -0.2664
  976SOL     OW14560   1.556   0.700   8.305  0.2901  0.0315  0.1485
  976SOL    HW114561   1.553   0.617   8.352  0.8849  0.4656  0.9581
  976SOL    HW214562   1.490   0.757   8.344  0.1484  0.6767 -1.0325
  977SOL     OW14563   4.348   0.646   3.667  0.3720  0.2789  0.0073
  977SOL    HW114564   4.336   0.566   3.617 -1.5914  1.1220 -0.8498
  977SOL    HW214565   4.336   0.600   3.750  0.0944 -0.3915 -0.4137
  978SOL     OW14566   0.618   2.307  12.973  0.1713 -0.0643 -0.4091
  978SOL    HW114567   0.625   2.373  13.042 -4.0224  0.7374 -0.7272
  978SOL    HW214568   0.541   2.262  13.007  1.9174 -1.9559  1.0570
  979SOL     OW14569   4.147   0.893  15.566 -0.0442 -0.1417  0.4005
  979SOL    HW114570   4.230   0.856  15.596  0.8252 -0.5342 -2.4769
  979SOL    HW214571   4.149   0.867  15.474  0.8405  0.3140  0.2939
  980SOL     OW14572   1.138   4.730   9.257 -0.1923  0.3322 -0.5893
  980SOL    HW114573   1.135   4.642   9.295 -0.2949  0.5932  0.0044
  980SOL    HW214574   1.090   4.719   9.175  0.0230  1.6728 -0.9005
  981SOL     OW14575   1.226   2.263  17.198  0.2185  0.0751  0.3208
  981SOL    HW114576   1.289   2.245  17.129  1.3118 -0.2240  1.3955
  981SOL    HW214577   1.215   2.358  17.192 -2.3827 -0.4754 -3.1711
  982SOL     OW14578   0.932   4.410   7.918 -0.2134 -0.8473  0.4800
  982SOL    HW114579   0.910   4.502   7.926  3.1366  0.1806 -1.9117
  982SOL    HW214580   1.023   4.417   7.947  0.2977  1.8565 -1.8080
  983SOL     OW14581   1.166   1.776   4.612 -0.8181  0.2619  0.1059
  983SOL    HW114582   1.250   1.821   4.611 -1.6620  1.8367 -0.4241
  983SOL    HW214583   1.164   1.729   4.528 -1.4105  0.8946 -0.2331
  984SOL     OW14584   0.040   3.373   5.667 -0.1340  0.8310  0.3154
  984SOL    HW114585   0.044   3.378   5.762 -1.2319 -2.9488  0.5407
  984SOL    HW214586   4.701   3.430   5.644  0.6713  1.8608  0.3162
  985SOL     OW14587   0.532   2.089   5.486 -0.2781  0.4560  0.1224
  985SOL    HW114588   0.569   2.001   5.487  0.2665  0.7035  1.8551
  985SOL    HW214589   0.480   2.079   5.406  0.7280  1.1094 -0.6169
  986SOL     OW14590   3.023   4.606  11.591  0.3607  0.5875  0.0383
  986SOL    HW114591   3.058   4.624  11.504 -1.5528 -0.1149 -0.8624
  986SOL    HW214592   3.062   4.674  11.646 -0.9000  0.6656  0.8505
  987SOL     OW14593   2.117   2.069   3.900  0.4937  0.0247  0.1515
  987SOL    HW114594   2.067   2.091   3.979  0.9015 -0.4857  0.5595
  987SOL    HW214595   2.101   2.147   3.848 -0.7961 -1.5162 -1.7401
  988SOL     OW14596   4.444   2.720   1.910  0.0109  0.7524 -0.3755
  988SOL    HW114597   4.507   2.763   1.968 -0.5640 -1.8200  2.1464
  988SOL    HW214598   4.497   2.715   1.831 -0.0932  0.4485 -0.4254
  989SOL     OW14599   3.457   2.955   7.442  0.1993 -0.0119 -0.7555
  989SOL    HW114600   3.425   3.028   7.495  1.0056 -0.7103  0.6957
  989SOL    HW214601   3.536   2.948   7.496 -0.0551  0.1925 -0.3563
  990SOL     OW14602   2.693   2.946   4.354 -0.3332 -0.3292  0.2154
  990SOL    HW114603   2.647   3.022   4.390  1.0570  0.9017 -0.6265
  990SOL    HW214604   2.738   2.976   4.276 -0.8721  0.1691  0.0995
  991SOL     OW14605   3.897   3.853   8.732 -0.3761  0.9401  0.4765
  991SOL    HW114606   3.868   3.939   8.762 -2.4323 -0.0573  1.4022
  991SOL    HW214607   3.979   3.843   8.780 -0.5870 -1.1789  0.4284
  992SOL     OW14608   2.854   1.648   7.707  0.0998  0.3910 -0.2667
  992SOL    HW114609   2.777   1.656   7.651 -0.9424  0.2671  1.1520
  992SOL    HW214610   2.873   1.739   7.731 -0.0130 -0.1658  1.9138
  993SOL     OW14611   4.154   1.070  15.845  0.0792  0.0884 -0.0791
  993SOL    HW114612   4.123   0.988  15.883  3.3393 -0.9499  0.4254
  993SOL    HW214613   4.250   1.068  15.841  0.0729  0.2102 -0.2577
  994SOL     OW14614   4.179   3.624   9.508  0.3869 -0.2373  1.2164
  994SOL    HW114615   4.245   3.559   9.483  0.5845  0.8333 -1.0977
  994SOL    HW214616   4.105   3.566   9.526 -0.5172  0.4324 -0.2990
  995SOL     OW14617   0.526   2.579   5.930  0.3764 -0.0143 -0.5240
  995SOL    HW114618   0.521   2.662   5.883 -3.4272 -1.6507 -3.0651
  995SOL    HW214619   0.516   2.529   5.848  0.3308  0.5248 -0.8477
  996SOL     OW14620   2.764   4.247  11.155  0.2530  0.5715 -0.1440
  996SOL    HW114621   2.710   4.168  11.150  2.0383 -0.7937  1.9965
  996SOL    HW214622   2.696   4.314  11.152  1.1024  1.3087 -3.4454
  997SOL     OW14623   0.517   1.217   6.181 -0.1450  0.2217  0.3999
  997SOL    HW114624   0.477   1.242   6.264 -1.1085  1.4914 -0.4469
  997SOL    HW214625   0.499   1.295   6.129 -2.0557 -1.4431 -1.4532
  998SOL     OW14626   2.913   0.294   9.952 -0.2559  0.1262  0.2072
  998SOL    HW114627   2.943   0.234  10.020 -1.0167 -0.5118 -0.0284
  998SOL    HW214628   2.915   0.377  10.001  1.2101 -0.0567  0.4297
  999SOL     OW14629   1.626   0.841   0.658  0.0055 -0.4675 -0.0635
  999SOL    HW114630   1.702   0.843   0.716 -0.7248 -0.5568  0.8954
  999SOL    HW214631   1.558   0.798   0.710 -0.4340 -1.1187 -1.1831
 1000SOL     OW14632   3.558   3.510   8.636 -0.7533 -0.0289 -0.3473
 1000SOL    HW114633   3.630   3.552   8.589 -0.4721 -0.9319 -0.7280
 1000SOL    HW214634   3.545   3.429   8.587 -0.9413 -0.1920 -0.0296
 1001SOL     OW14635   0.846   4.446   0.491  0.2013  0.1119  0.0779
 1001SOL    HW114636   0.788   4.423   0.418  0.3950  0.6195 -0.2318
 1001SOL    HW214637   0.925   4.470   0.444 -2.7168  1.9063 -3.9322
 1002SOL     OW14638   3.447   4.526   4.841 -0.0503 -0.0297 -0.8547
 1002SOL    HW114639   3.506   4.585   4.887 -0.5009 -0.6006  0.4654
 1002SOL    HW214640   3.372   4.508   4.898 -0.9709 -0.3707 -2.1699
 1003SOL     OW14641   0.254   3.753   4.152 -0.1653 -0.2689 -0.1961
 1003SOL    HW114642   0.258   3.834   4.203  0.4806 -1.0101  0.9267
 1003SOL    HW214643   0.222   3.775   4.064  1.7679  1.1954 -0.5308
 1004SOL     OW14644   4.483   0.291   5.769 -0.2486 -0.2048 -0.2503
 1004SOL    HW114645   4.389   0.309   5.771 -0.0219  1.1505 -1.5295
 1004SOL    HW214646   4.509   0.310   5.859  2.7065 -0.1582 -1.1110
 1005SOL     OW14647   3.476   3.930   7.831 -0.1084  0.0553  0.0028
 1005SOL    HW114648   3.540   3.862   7.853 -0.9977 -0.9241 -0.4428
 1005SOL    HW214649   3.394   3.888   7.805 -1.2803  1.0444  2.0879
 1006SOL     OW14650   3.393   1.342   4.923 -0.5454  0.0980 -0.0165
 1006SOL    HW114651   3.304   1.348   4.889  0.1887 -0.8542 -2.1069
 1006SOL    HW214652   3.390   1.423   4.973 -0.5442  0.1701 -0.1334
 1007SOL     OW14653   3.980   1.113   1.824  0.2291  0.2602 -0.1048
 1007SOL    HW114654   4.009   1.199   1.794  0.0319  0.7836  1.1906
 1007SOL    HW214655   4.056   1.083   1.874  1.9401  3.4151 -0.8054
 1008SOL     OW14656   0.482   0.873   3.550  0.6602  0.5323  0.3014
 1008SOL    HW114657   0.389   0.854   3.560  0.4323  1.6020  0.2436
 1008SOL    HW214658   0.478   0.968   3.564 -1.4788  0.5647 -0.5336
 1009SOL     OW14659   1.607   2.565   2.928  0.1295 -0.5047  0.5907
 1009SOL    HW114660   1.679   2.501   2.932 -0.9861 -1.8957 -1.6326
 1009SOL    HW214661   1.539   2.503   2.953  0.7852 -2.2603 -1.9643
 1010SOL     OW14662   0.404   1.726   8.217  0.3296 -0.1209 -0.5370
 1010SOL    HW114663   0.484   1.762   8.254 -1.0851  0.8439  1.5869
 1010SOL    HW214664   0.448   1.655   8.171  1.5158 -0.6434  1.4306
 1011SOL     OW14665   2.857   3.979  10.461 -0.3925 -0.7810  0.0521
 1011SOL    HW114666   2.839   4.009  10.550  0.6000 -0.8883  0.2887
 1011SOL    HW214667   2.944   4.015  10.446 -1.6878  3.2070  2.1110
 1012SOL     OW14668   2.065   2.361   0.728 -0.3294 -0.1353  0.0694
 1012SOL    HW114669   2.055   2.266   0.734  0.0062 -0.1133  1.0316
 1012SOL    HW214670   2.160   2.373   0.718 -0.0808 -0.3999  2.1719
 1013SOL     OW14671   3.399   1.272  12.978 -0.2547 -0.2196  0.9398
 1013SOL    HW114672   3.467   1.206  12.990 -0.5933 -0.8843 -0.7630
 1013SOL    HW214673   3.446   1.353  12.995  1.8352 -1.2352 -0.0049
 1014SOL     OW14674   0.902   0.679   6.185 -0.1004  0.4454  0.0354
 1014SOL    HW114675   0.914   0.585   6.194 -1.5632  0.4637  2.1470
 1014SOL    HW214676   0.984   0.705   6.228 -0.5464  2.1142 -0.1037
 1015SOL     OW14677   2.361   2.408   2.406 -0.6148 -0.4642 -0.2463
 1015SOL    HW114678   2.267   2.397   2.421 -0.8038 -0.2146 -1.2533
 1015SOL    HW214679   2.395   2.384   2.492  0.8677  1.4987 -0.2788
 1016SOL     OW14680   2.791   2.592   6.667  0.3057 -0.0631  0.0421
 1016SOL    HW114681   2.722   2.550   6.615  0.6221 -1.4849  0.7756
 1016SOL    HW214682   2.808   2.518   6.726 -0.3113 -1.3946 -1.4540
 1017SOL     OW14683   1.324   1.079  17.711  0.4715 -0.0502 -0.5013
 1017SOL    HW114684   1.239   1.116  17.734  0.6287 -0.3404  0.5284
 1017SOL    HW214685   1.345   1.004   0.031  0.1661 -0.5349 -1.0307
 1018SOL     OW14686   3.064   2.803   8.692 -0.1333  0.0285  0.1958
 1018SOL    HW114687   3.023   2.742   8.631  0.9944 -2.0391  1.4933
 1018SOL    HW214688   3.005   2.874   8.715  0.3921  0.2791  0.7890
 1019SOL     OW14689   2.923   1.408   5.199 -1.0274 -0.1694  0.0491
 1019SOL    HW114690   2.878   1.486   5.230  3.7847  3.3300 -1.6479
 1019SOL    HW214691   2.960   1.445   5.118 -0.4942 -0.8740 -0.0280
 1020SOL     OW14692   3.838   0.894   8.276  0.1173 -0.0639  0.0187
 1020SOL    HW114693   3.783   0.903   8.354 -0.2312 -0.4588 -0.1800
 1020SOL    HW214694   3.792   0.958   8.221 -1.6217 -0.9664  0.4189
 1021SOL     OW14695   3.663   1.531   4.927 -0.2679  0.0321 -0.4358
 1021SOL    HW114696   3.709   1.605   4.888 -0.1663  0.5546  0.7006
 1021SOL    HW214697   3.643   1.481   4.847  1.2032  0.3815 -1.0167
 1022SOL     OW14698   4.372   1.778  12.168 -0.1658 -0.2321 -0.3801
 1022SOL    HW114699   4.337   1.698  12.129 -1.5893  0.1706  0.0830
 1022SOL    HW214700   4.465   1.773  12.143  0.0722  0.9668  0.2433
 1023SOL     OW14701   2.453   0.490   2.352 -0.3018 -0.4796 -0.5308
 1023SOL    HW114702   2.538   0.495   2.396 -0.0886 -1.8339 -0.7867
 1023SOL    HW214703   2.488   0.462   2.268 -0.6651  1.8022 -1.4463
 1024SOL     OW14704   0.806   1.231  16.708  0.1616 -0.0650  0.3473
 1024SOL    HW114705   0.835   1.312  16.749  0.6596 -0.6067  1.0585
 1024SOL    HW214706   0.832   1.255  16.618 -0.0197  1.3436  0.6776
 1025SOL     OW14707   2.037   1.054   6.855  0.0870  0.1846  0.5762
 1025SOL    HW114708   1.962   1.043   6.913  0.3387  0.7046  0.9947
 1025SOL    HW214709   2.112   1.040   6.914 -0.3226 -1.8825  0.6302
 1026SOL     OW14710   1.468   3.087   8.780  0.2749  0.0964 -0.3957
 1026SOL    HW114711   1.561   3.086   8.756  0.0792 -1.0853 -1.1282
 1026SOL    HW214712   1.428   3.162   8.737  1.0595  1.0977  0.6303
 1027SOL     OW14713   0.350   0.071   6.651  0.4454  0.0114 -0.0467
 1027SOL    HW114714   0.304   0.142   6.606 -1.3706 -0.5509  0.9245
 1027SOL    HW214715   0.399   0.110   6.723 -0.5574  0.6748  0.2859
 1028SOL     OW14716   3.420   2.046  12.232  0.3889 -0.3269 -0.5052
 1028SOL    HW114717   3.460   2.091  12.157 -0.9953  1.1550 -0.3547
 1028SOL    HW214718   3.444   2.115  12.293 -1.0107  0.9877 -1.4211
 1029SOL     OW14719   2.938   1.693   0.709  0.4038  0.0127 -0.2005
 1029SOL    HW114720   2.853   1.653   0.691 -0.6553  1.9342  0.5262
 1029SOL    HW214721   2.976   1.706   0.622 -2.5899 -0.7439 -1.6212
 1030SOL     OW14722   0.288   1.900   7.232  0.3163 -0.3117  0.1984
 1030SOL    HW114723   0.337   1.975   7.265  1.1883  0.1576 -2.1890
 1030SOL    HW214724   0.201   1.931   7.205 -0.4182 -0.8476  1.9538
 1031SOL     OW14725   3.538   0.966   2.432  0.2607 -0.5470  0.0750
 1031SOL    HW114726   3.633   0.979   2.435  0.3687 -1.0379 -1.4765
 1031SOL    HW214727   3.520   1.029   2.362 -3.3972 -1.0628  0.5703
 1032SOL     OW14728   3.226   4.035   9.428  0.1100  0.5284  0.5872
 1032SOL    HW114729   3.299   4.030   9.366 -0.3289 -0.2965  0.1448
 1032SOL    HW214730   3.254   3.975   9.496  0.9984  2.5441  2.0078
 1033SOL     OW14731   0.355   0.476   2.632  0.1009 -0.3622 -0.4875
 1033SOL    HW114732   0.386   0.429   2.709 -1.1751 -0.5967 -0.1174
 1033SOL    HW214733   0.267   0.444   2.612 -0.7823  1.3923  0.6334
 1034SOL     OW14734   2.792   4.656  10.289  0.5419  0.3846  0.0750
 1034SOL    HW114735   2.778   4.619  10.376 -0.4239  0.8109  0.1001
 1034SOL    HW214736   2.735   4.733  10.288  1.7462  1.2943  0.7759
 1035SOL     OW14737   1.922   4.688   3.873 -0.1275  0.3519 -0.4637
 1035SOL    HW114738   1.880   4.631   3.808  0.2285 -2.2797  1.5992
 1035SOL    HW214739   1.972   0.010   3.814  0.5460  1.3951  1.1017
 1036SOL     OW14740   4.174   4.297   3.130 -0.2397  0.0116  0.0091
 1036SOL    HW114741   4.215   4.312   3.216  1.1139 -2.2290 -0.2625
 1036SOL    HW214742   4.082   4.311   3.151 -0.4393  0.5224 -1.2127
 1037SOL     OW14743   2.702   1.809  11.804  0.3064  0.7420 -0.2532
 1037SOL    HW114744   2.781   1.862  11.795 -0.5029  2.1262  0.7365
 1037SOL    HW214745   2.719   1.770  11.890 -2.9695 -1.4910 -0.6322
 1038SOL     OW14746   3.109   0.879   6.998  0.0310  0.1396  0.1290
 1038SOL    HW114747   3.044   0.821   7.038  1.9927 -1.6537  0.6802
 1038SOL    HW214748   3.060   0.959   6.978 -2.1155 -0.8403  1.5362
 1039SOL     OW14749   3.329   1.473  17.266  0.2034  0.0403 -0.1754
 1039SOL    HW114750   3.413   1.519  17.267  0.5860 -0.7209  1.7750
 1039SOL    HW214751   3.317   1.466  17.171  3.6178 -0.3191 -0.5760
 1040SOL     OW14752   4.155   3.610   1.565  0.1634 -0.4416  0.4654
 1040SOL    HW114753   4.151   3.517   1.543  1.0156 -0.8606  2.0715
 1040SOL    HW214754   4.113   3.613   1.651 -0.6724 -0.7122  0.0725
 1041SOL     OW14755   4.655   3.866   4.239  0.1040 -0.2933  0.4583
 1041SOL    HW114756   0.004   3.899   4.273  0.0660  0.7400 -0.4410
 1041SOL    HW214757   4.680   3.848   4.148 -2.9232  1.7195 -0.7860
 1042SOL     OW14758   0.904   2.407   1.883 -0.6609  0.5333  0.3011
 1042SOL    HW114759   0.865   2.413   1.971  0.7636 -0.9646  1.0375
 1042SOL    HW214760   0.997   2.426   1.889 -0.7406  0.5273  1.6072
 1043SOL     OW14761   3.039   4.364   5.622  0.1456  1.2146  0.0040
 1043SOL    HW114762   3.103   4.389   5.688  0.8767 -1.1799  0.2090
 1043SOL    HW214763   2.957   4.361   5.671  0.5722 -0.4263  0.6292
 1044SOL     OW14764   0.686   3.866   3.992  0.7785 -0.0315  0.4779
 1044SOL    HW114765   0.636   3.893   4.069  0.1389  0.5463 -0.1458
 1044SOL    HW214766   0.709   3.951   3.957  1.5127 -0.8140 -0.9429
 1045SOL     OW14767   0.957   2.490   2.482 -0.3623 -0.2561 -0.2029
 1045SOL    HW114768   0.934   2.580   2.458  2.2866  0.5324  0.2012
 1045SOL    HW214769   0.877   2.442   2.462 -0.8510  0.6650 -0.4715
 1046SOL     OW14770   3.014   2.114   1.739 -0.1092  0.3653  0.1382
 1046SOL    HW114771   3.029   2.024   1.712 -0.1204  0.5286 -0.4122
 1046SOL    HW214772   3.098   2.152   1.716 -0.8888  0.6513 -2.1892
 1047SOL     OW14773   1.457   4.092   9.735 -0.1898  0.0531  0.2367
 1047SOL    HW114774   1.419   4.140   9.809 -0.9394  1.7762 -1.2524
 1047SOL    HW214775   1.414   4.139   9.663 -1.4267 -2.9962 -1.0099
 1048SOL     OW14776   2.367   2.316   9.422 -0.1427 -0.7038  0.1249
 1048SOL    HW114777   2.321   2.375   9.363  0.4795 -0.1629  0.1728
 1048SOL    HW214778   2.443   2.374   9.435  1.4378 -1.9859 -3.4214
 1049SOL     OW14779   4.598   0.687  13.187  0.1223 -0.5422 -0.1207
 1049SOL    HW114780   4.653   0.610  13.173  0.2907 -0.6097  0.8989
 1049SOL    HW214781   4.532   0.648  13.246 -0.0921  1.7764  1.1992
 1050SOL     OW14782   0.178   4.262   2.256  0.3463 -0.1602  0.0106
 1050SOL    HW114783   0.117   4.334   2.272 -0.2283 -0.3673 -1.2180
 1050SOL    HW214784   0.189   4.258   2.161 -0.8622 -1.8117 -0.0705
 1051SOL     OW14785   1.964   2.887   1.576 -0.2952 -0.2987 -0.2658
 1051SOL    HW114786   1.984   2.976   1.606  0.6668 -1.3802  2.3216
 1051SOL    HW214787   1.900   2.859   1.642 -0.7648  0.3479 -0.4423
 1052SOL     OW14788   0.241   1.776  12.506  0.7957 -0.2856 -0.1961
 1052SOL    HW114789   0.149   1.781  12.482  0.0298  0.4476  2.9285
 1052SOL    HW214790   0.277   1.782  12.417  5.3874 -0.5445  1.6414
 1053SOL     OW14791   3.033   0.371   9.729  0.4238  0.0395 -0.7270
 1053SOL    HW114792   2.971   0.343   9.796  0.6497 -0.1713 -0.6054
 1053SOL    HW214793   2.987   0.444   9.688 -0.2303  0.7029  1.1855
 1054SOL     OW14794   4.635   2.701   7.903  0.0067  0.3071  0.1333
 1054SOL    HW114795   4.622   2.606   7.903 -0.6543  0.3991 -0.4412
 1054SOL    HW214796   4.547   2.738   7.895  0.7507  2.2085  0.8392
 1055SOL     OW14797   4.160   4.172  13.158  0.8107  0.4754  0.4277
 1055SOL    HW114798   4.070   4.185  13.128 -0.1860 -2.8690  1.9564
 1055SOL    HW214799   4.177   4.084  13.124  0.8868  0.2252  1.1231
 1056SOL     OW14800   4.673   2.878   1.983 -0.0766  0.3116 -0.5250
 1056SOL    HW114801   4.624   2.914   1.909 -2.1417  0.5027  0.9309
 1056SOL    HW214802   4.726   2.949   2.018  0.2279 -1.8367  3.3629
 1057SOL     OW14803   4.094   2.411   2.164  0.1560  0.4207 -0.1871
 1057SOL    HW114804   4.124   2.325   2.194  0.8767  0.6667 -0.1979
 1057SOL    HW214805   4.174   2.441   2.122  1.0679 -5.1636 -2.4155
 1058SOL     OW14806   2.503   4.550  13.091  0.7184 -0.2439  0.3403
 1058SOL    HW114807   2.440   4.593  13.149  1.2020 -0.3448  0.9277
 1058SOL    HW214808   2.476   4.582  13.004  1.0026 -0.5323  0.1465
 1059SOL     OW14809   1.595   1.327  13.390 -0.1555  0.8633  0.1062
 1059SOL    HW114810   1.580   1.266  13.317 -2.0252 -0.4001  1.5282
 1059SOL    HW214811   1.686   1.310  13.412 -0.2510 -0.4194 -0.4720
 1060SOL     OW14812   0.679   2.713   5.346 -0.5905 -0.0432 -0.0380
 1060SOL    HW114813   0.619   2.780   5.312  1.1706  0.3093 -2.5093
 1060SOL    HW214814   0.660   2.650   5.276 -2.1939 -0.4068  0.7246
 1061SOL     OW14815   3.912   1.204   2.330  0.0238 -0.3223 -0.6580
 1061SOL    HW114816   3.917   1.242   2.418  3.0517  0.9690 -1.3767
 1061SOL    HW214817   3.977   1.256   2.282 -0.3470  0.8546  0.1120
 1062SOL     OW14818   4.657   1.408  11.396  0.0145 -0.0994 -0.5104
 1062SOL    HW114819   4.733   1.358  11.428  0.0163  0.9091  1.0444
 1062SOL    HW214820   4.620   1.351  11.329 -0.9597  0.5956 -0.5549
 1063SOL     OW14821   0.808   4.358   2.386 -0.1764 -0.3309 -0.0498
 1063SOL    HW114822   0.866   4.435   2.382  0.1445 -0.7426 -3.3852
 1063SOL    HW214823   0.718   4.390   2.379  0.5262  1.2785 -1.7459
 1064SOL     OW14824   3.691   4.597   2.036  0.0562 -0.0433 -0.8220
 1064SOL    HW114825   3.644   4.649   2.100  0.9932 -1.1546  0.7698
 1064SOL    HW214826   3.771   4.648   2.024 -0.4117  1.5185  2.8276
 1065SOL     OW14827   3.157   2.496   0.362 -0.5872 -0.1097  0.0705
 1065SOL    HW114828   3.208   2.453   0.294 -1.3045  0.2685 -0.7151
 1065SOL    HW214829   3.223   2.486   0.430  0.3878  0.1016 -0.8477
 1066SOL     OW14830   0.463   1.040   4.245 -0.2396 -0.0972  0.0285
 1066SOL    HW114831   0.530   1.017   4.309  1.0217  1.0041 -0.8802
 1066SOL    HW214832   0.507   1.108   4.194 -2.7828  1.1714 -0.4880
 1067SOL     OW14833   4.027   2.686   6.599  0.3756 -0.0665  0.6277
 1067SOL    HW114834   4.120   2.694   6.581  0.0290  2.1055 -0.1550
 1067SOL    HW214835   3.990   2.750   6.538  0.9619 -0.1106  0.2276
 1068SOL     OW14836   3.882   0.970   4.765  0.1446 -0.0259  0.3082
 1068SOL    HW114837   3.830   0.997   4.841  0.4272 -0.6687  0.7312
 1068SOL    HW214838   3.965   1.017   4.776 -1.0091  1.8106  1.3528
 1069SOL     OW14839   0.593   2.939   3.248  0.5420 -0.3917  0.5134
 1069SOL    HW114840   0.588   2.971   3.338  0.0917 -0.3684  0.4770
 1069SOL    HW214841   0.574   2.847   3.265  2.5014 -1.1976 -1.5568
 1070SOL     OW14842   2.387   0.248  12.157 -0.2172 -0.1575 -0.2739
 1070SOL    HW114843   2.328   0.185  12.116  0.5609 -0.9254 -0.2186
 1070SOL    HW214844   2.457   0.246  12.092  1.7004  2.1587  1.7259
 1071SOL     OW14845   1.048   0.654  10.815  0.6530 -0.0858 -0.7961
 1071SOL    HW114846   0.975   0.593  10.829 -0.0945  1.3925  1.7683
 1071SOL    HW214847   1.061   0.656  10.720  0.7822  1.2108 -0.7524
 1072SOL     OW14848   0.113   2.763   7.165 -0.1915 -0.9529  0.1756
 1072SOL    HW114849   0.050   2.835   7.162 -0.2025 -0.8921  1.5792
 1072SOL    HW214850   0.151   2.769   7.253  0.6929 -0.6728 -0.2292
 1073SOL     OW14851   2.319   1.221  11.694 -0.2653  0.7136 -0.6289
 1073SOL    HW114852   2.280   1.254  11.612 -1.3923  0.5217 -0.1737
 1073SOL    HW214853   2.404   1.190  11.661 -0.6178 -2.4257  1.4121
 1074SOL     OW14854   1.049   4.475   2.942  0.5497  0.6587  0.1067
 1074SOL    HW114855   1.030   4.569   2.946  0.1191  0.5800 -0.1350
 1074SOL    HW214856   1.000   4.438   2.869 -1.0140  0.6970  1.1470
 1075SOL     OW14857   1.508   0.553   9.254 -0.1707 -0.0191 -0.0927
 1075SOL    HW114858   1.431   0.525   9.303  1.6894 -1.3265  2.0229
 1075SOL    HW214859   1.491   0.648   9.258 -0.4065 -0.2722  4.3973
 1076SOL     OW14860   0.115   3.000   6.956  0.4821 -0.1765 -0.3173
 1076SOL    HW114861   0.107   3.035   7.044 -0.7809 -1.1234 -0.0579
 1076SOL    HW214862   0.056   3.064   6.916  1.1107 -0.5285 -1.8443
 1077SOL     OW14863   0.392   2.914   6.847  0.4187  0.1674  0.2388
 1077SOL    HW114864   0.301   2.926   6.873  1.1700 -0.8413  3.3321
 1077SOL    HW214865   0.370   2.890   6.757  1.6293 -0.7188  0.1748
 1078SOL     OW14866   4.666   2.000  12.450  0.0295 -0.5645 -0.2904
 1078SOL    HW114867   4.692   2.092  12.451 -0.2650 -0.4792 -0.4173
 1078SOL    HW214868   4.702   1.972  12.534 -0.6746 -1.0343 -0.1429
 1079SOL     OW14869   3.593   3.638   6.746  0.4465  0.3191  0.2291
 1079SOL    HW114870   3.685   3.613   6.757  0.3268  0.3664  1.3466
 1079SOL    HW214871   3.559   3.581   6.815  1.5676  0.2383  0.7163
 1080SOL     OW14872   0.564   0.088   3.079  0.3310 -0.0713 -0.3044
 1080SOL    HW114873   0.640   0.035   3.102 -1.1531 -1.3756  1.5797
 1080SOL    HW214874   0.598   0.177   3.082 -0.0506  0.0226  1.3350
 1081SOL     OW14875   4.108   1.804   6.078  0.4933  0.0204  0.2728
 1081SOL    HW114876   4.189   1.854   6.067  1.4948 -1.7662 -0.4531
 1081SOL    HW214877   4.041   1.873   6.074  0.4308 -0.0233  0.6198
 1082SOL     OW14878   3.945   0.755   2.744 -0.2605  0.4096  0.3271
 1082SOL    HW114879   3.961   0.671   2.788  0.3898  0.6976  0.6426
 1082SOL    HW214880   3.981   0.735   2.658 -3.2152  1.9478 -1.2333
 1083SOL     OW14881   4.116   1.064   4.867  0.4488 -0.0051  0.3278
 1083SOL    HW114882   4.125   1.068   4.962  0.9823  0.4891  0.2541
 1083SOL    HW214883   4.164   1.144   4.843  1.5117 -0.7240  0.0576
 1084SOL     OW14884   4.186   3.376  17.655 -0.2840 -0.3088 -0.4274
 1084SOL    HW114885   4.146   3.289  17.658  1.8771 -1.2183  2.0231
 1084SOL    HW214886   4.131   3.424  17.593 -0.6938 -1.2450 -0.7833
 1085SOL     OW14887   3.561   0.669   0.000  0.3008  0.2657  0.8995
 1085SOL    HW114888   3.468   0.674  17.715  0.3452 -0.9857  0.4160
 1085SOL    HW214889   3.571   0.578   0.027  0.0329 -0.8069 -2.6972
 1086SOL     OW14890   4.458   4.700   2.699 -0.1432  0.1163 -0.0052
 1086SOL    HW114891   4.469   0.029   2.769 -0.2665 -0.5551  0.6145
 1086SOL    HW214892   4.462   0.026   2.624 -0.7684 -0.9400 -0.8939
 1087SOL     OW14893   0.242   0.547   6.758  0.1977 -0.2478  0.8085
 1087SOL    HW114894   0.236   0.591   6.673 -2.1415 -2.2860 -0.0657
 1087SOL    HW214895   0.332   0.514   6.759  1.1129  2.1322 -2.2870
 1088SOL     OW14896   3.562   1.047   3.999 -0.0076  0.6239 -0.1584
 1088SOL    HW114897   3.593   1.066   4.087  0.0507  0.2664 -0.1007
 1088SOL    HW214898   3.644   1.063   3.953 -0.3053 -0.1467 -0.9815
 1089SOL     OW14899   1.320   3.560  10.116 -0.2339  0.7272  0.3383
 1089SOL    HW114900   1.404   3.600  10.137 -0.1775  1.0638 -0.5208
 1089SOL    HW214901   1.352   3.474  10.089 -0.4239  0.4769  0.9088
 1090SOL     OW14902   2.064   3.462   5.113  0.0066 -0.9698 -0.3294
 1090SOL    HW114903   2.137   3.498   5.062 -1.3993  2.2295 -0.0607
 1090SOL    HW214904   1.996   3.529   5.113  1.7756  0.8170 -1.2853
 1091SOL     OW14905   0.809   3.674   5.575 -0.4401 -0.0191  0.5456
 1091SOL    HW114906   0.877   3.652   5.638  1.6718  0.7077 -1.5074
 1091SOL    HW214907   0.820   3.604   5.511 -2.8251  2.3467 -2.4138
 1092SOL     OW14908   4.304   3.247  11.948 -0.9141 -0.2895  0.5110
 1092SOL    HW114909   4.295   3.279  11.859  1.8974  2.6986  1.3138
 1092SOL    HW214910   4.384   3.197  11.928  0.1027  1.1529  1.0240
 1093SOL     OW14911   1.787   3.985  11.461  0.3916 -0.3495 -0.0404
 1093SOL    HW114912   1.776   3.956  11.370 -0.3149 -1.7931  0.5210
 1093SOL    HW214913   1.874   3.949  11.478  0.9824  1.5276  0.9660
 1094SOL     OW14914   3.554   2.803   8.116  0.5475 -0.0440  0.1431
 1094SOL    HW114915   3.637   2.816   8.162  0.7110  1.0854 -0.4856
 1094SOL    HW214916   3.552   2.709   8.135  1.0783  0.3394  2.1564
 1095SOL     OW14917   2.024   4.210   5.625  0.3236  0.0785  0.1242
 1095SOL    HW114918   2.106   4.259   5.629  0.7779 -0.6150 -0.5381
 1095SOL    HW214919   2.046   4.140   5.563  0.0398 -0.5416  0.7220
 1096SOL     OW14920   4.353   4.131   7.850  0.1542  0.1621  0.0922
 1096SOL    HW114921   4.374   4.049   7.805  2.0609 -0.7552  2.6931
 1096SOL    HW214922   4.442   4.166   7.844 -0.3025  1.0138 -1.8136
 1097SOL     OW14923   0.495   0.439   3.862  0.0991  0.4549  0.1720
 1097SOL    HW114924   0.548   0.518   3.873 -0.6866  1.1053 -0.6893
 1097SOL    HW214925   0.522   0.392   3.941 -1.8628  2.8812  2.2951
 1098SOL     OW14926   0.206   1.587   7.157  0.3009 -0.0990 -0.5058
 1098SOL    HW114927   0.111   1.587   7.142  0.2995 -0.1624 -0.4965
 1098SOL    HW214928   0.208   1.512   7.216 -0.0317 -0.7902 -1.3645
 1099SOL     OW14929   0.288   3.108   5.884 -0.1294  0.2632  0.1506
 1099SOL    HW114930   0.268   3.195   5.919 -0.6394  1.2546 -2.5463
 1099SOL    HW214931   0.383   3.116   5.875 -0.1870 -0.6436 -1.2197
 1100SOL     OW14932   3.907   3.937   9.445 -0.2464 -0.5385 -0.0462
 1100SOL    HW114933   3.834   3.920   9.504 -1.9145  1.4651 -1.5484
 1100SOL    HW214934   3.931   4.027   9.466  0.6986 -0.6794 -0.5329
 1101SOL     OW14935   3.107   1.922   9.076  0.2284 -0.4241  0.1562
 1101SOL    HW114936   3.186   1.917   9.129  0.6654  1.5309 -0.3358
 1101SOL    HW214937   3.091   1.827   9.073 -0.3961 -0.3997  2.5681
 1102SOL     OW14938   0.990   4.103   4.772 -0.8127 -0.3624  0.7064
 1102SOL    HW114939   0.980   4.008   4.760  0.7953 -0.6364  1.5822
 1102SOL    HW214940   0.908   4.140   4.738 -0.2818  0.9136  0.8163
 1103SOL     OW14941   2.385   2.483   6.160 -0.2988 -0.3707  0.0076
 1103SOL    HW114942   2.416   2.561   6.207  1.8286 -0.2024 -1.6533
 1103SOL    HW214943   2.456   2.482   6.096 -1.4504 -1.4781 -1.2321
 1104SOL     OW14944   0.849   0.567   8.093 -0.2857 -0.0240 -0.3760
 1104SOL    HW114945   0.883   0.516   8.020  1.9952 -1.6224  1.8308
 1104SOL    HW214946   0.812   0.495   8.143  3.3352 -0.5237  1.5715
 1105SOL     OW14947   4.519   2.798  12.856  0.0197  0.0820  0.1530
 1105SOL    HW114948   4.593   2.802  12.795  0.4152  0.8692  0.6923
 1105SOL    HW214949   4.501   2.892  12.860  0.4993  0.2275 -0.9945
 1106SOL     OW14950   3.447   0.614  11.372 -0.0067  0.3029 -0.2630
 1106SOL    HW114951   3.537   0.590  11.351 -0.1337 -1.9363  1.6765
 1106SOL    HW214952   3.450   0.709  11.375  0.5580  0.2546  0.7754
 1107SOL     OW14953   0.519   0.606   3.521  0.4397  0.5421 -0.6518
 1107SOL    HW114954   0.521   0.694   3.559  0.7221  0.2312  0.0428
 1107SOL    HW214955   0.572   0.557   3.584 -1.5467  0.1328  0.7232
 1108SOL     OW14956   1.366   1.593   1.006 -0.1505  0.0451 -0.7635
 1108SOL    HW114957   1.411   1.512   1.027  0.0286  0.0683 -1.0636
 1108SOL    HW214958   1.436   1.645   0.967 -0.5950  2.0744  1.1378
 1109SOL     OW14959   4.149   2.737  17.514  0.2497  0.1732 -0.1216
 1109SOL    HW114960   4.183   2.720  17.601  0.4841  0.1475 -0.2160
 1109SOL    HW214961   4.076   2.677  17.503 -1.9623  2.8719 -0.3998
 1110SOL     OW14962   1.953   1.250  12.790 -0.2746  0.4609  0.2614
 1110SOL    HW114963   2.022   1.282  12.849  0.3446  1.1468 -0.8285
 1110SOL    HW214964   2.005   1.190  12.737 -1.5950  0.4921 -1.0450
 1111SOL     OW14965   1.112   2.181  13.456  0.3322 -0.2532 -0.0774
 1111SOL    HW114966   1.190   2.166  13.510 -1.2644 -0.0539  2.2573
 1111SOL    HW214967   1.082   2.092  13.436 -0.3701  0.3753 -1.8523
 1112SOL     OW14968   0.148   0.567   8.722 -0.5752  0.1802  0.0321
 1112SOL    HW114969   0.158   0.563   8.627  2.1044 -1.0717  0.3642
 1112SOL    HW214970   0.134   0.476   8.750  0.5747 -0.3443 -1.0503
 1113SOL     OW14971   2.047   2.650   0.025 -0.0918  0.1947 -0.6368
 1113SOL    HW114972   2.046   2.676   0.117  0.6464  1.3190 -0.9538
 1113SOL    HW214973   1.998   2.715  17.711 -1.6658 -0.3700  0.1908
 1114SOL     OW14974   1.914   2.100   3.536 -0.2803 -0.7998  0.1524
 1114SOL    HW114975   1.833   2.151   3.540 -0.4242 -0.9809 -0.4064
 1114SOL    HW214976   1.973   2.175   3.541 -0.3546 -0.7871  0.8705
 1115SOL     OW14977   4.654   0.150  10.449  0.0195  0.3236 -0.2525
 1115SOL    HW114978   4.635   0.167  10.357 -1.4939  0.2751  0.0536
 1115SOL    HW214979   4.669   0.055  10.449  2.6946  0.7628  0.7970
 1116SOL     OW14980   0.784   0.133   2.686  0.6120  0.0803 -0.1990
 1116SOL    HW114981   0.769   0.073   2.613  1.9064  0.7757 -1.0561
 1116SOL    HW214982   0.851   0.194   2.654  1.1201 -0.9822 -1.1864
 1117SOL     OW14983   4.166   4.218   6.975 -0.5034 -0.1480 -0.9945
 1117SOL    HW114984   4.132   4.210   6.885  0.4639  1.2317 -1.4692
 1117SOL    HW214985   4.251   4.175   6.968  0.0056  0.8581 -0.9287
 1118SOL     OW14986   3.998   1.394   7.166  0.3103 -0.5348  0.1349
 1118SOL    HW114987   3.928   1.454   7.139  0.7128 -0.4661 -0.7504
 1118SOL    HW214988   3.995   1.337   7.089  1.8308 -1.2924  0.6345
 1119SOL     OW14989   4.089   3.441   6.096 -0.4018  0.7207  0.0226
 1119SOL    HW114990   4.164   3.495   6.068 -2.0884  2.9710 -0.1394
 1119SOL    HW214991   4.083   3.478   6.184  2.3133 -3.2245  1.8636
 1120SOL     OW14992   4.364   1.148  11.870 -0.5540  0.7470  0.2121
 1120SOL    HW114993   4.421   1.076  11.896  0.3222  0.4382 -2.5273
 1120SOL    HW214994   4.415   1.222  11.902  2.6981 -1.6580  0.5421
 1121SOL     OW14995   3.817   1.686   4.205  0.0498  0.2552 -0.0616
 1121SOL    HW114996   3.746   1.663   4.266  0.5272  2.0218  1.1502
 1121SOL    HW214997   3.760   1.724   4.139 -1.0192 -0.3034  0.5399
 1122SOL     OW14998   4.239   3.222   2.374  0.1540  0.3440 -0.1773
 1122SOL    HW114999   4.247   3.195   2.465  3.4886 -1.4354 -1.0021
 1122SOL    HW215000   4.152   3.263   2.376  1.1154  2.1302  3.9201
 1123SOL     OW15001   2.065   3.134   8.781  0.1695  0.1346 -0.2914
 1123SOL    HW115002   1.982   3.108   8.822  0.6282  0.7638  1.0197
 1123SOL    HW215003   2.104   3.047   8.774  0.2824  0.3059 -1.7699
 1124SOL     OW15004   4.057   3.019   1.196 -0.4197 -0.4794 -0.2303
 1124SOL    HW115005   3.985   2.963   1.167 -1.3009 -1.1512  3.3063
 1124SOL    HW215006   4.132   2.962   1.185  1.3258  1.6719  0.5795
 1125SOL     OW15007   3.036   2.709   3.209  0.4574 -0.2331 -0.0613
 1125SOL    HW115008   3.123   2.743   3.230 -0.8009  1.6889  2.1434
 1125SOL    HW215009   3.030   2.665   3.124 -1.8508 -1.0390  0.5078
 1126SOL     OW15010   3.827   1.490  15.883 -0.1905 -0.5772  0.2276
 1126SOL    HW115011   3.795   1.513  15.970  1.9249 -1.9081  1.3613
 1126SOL    HW215012   3.767   1.424  15.848  0.0261 -0.6021 -0.0955
 1127SOL     OW15013   1.190   0.521  13.043  0.0646  0.1942 -0.4111
 1127SOL    HW115014   1.133   0.569  13.104  1.1560  1.6677 -0.5462
 1127SOL    HW215015   1.125   0.454  13.022  1.6681 -1.6955  0.6594
 1128SOL     OW15016   1.625   3.948   3.251 -0.1294  0.2521  0.3158
 1128SOL    HW115017   1.535   3.947   3.285  1.3363  0.7073  4.1436
 1128SOL    HW215018   1.664   3.988   3.329  1.3660  2.2664 -1.4651
 1129SOL     OW15019   2.691   0.352   2.652 -0.1327  0.3026  0.1418
 1129SOL    HW115020   2.695   0.421   2.718  1.6408  1.6570 -1.3958
 1129SOL    HW215021   2.713   0.386   2.566 -0.6607  0.3245  0.0137
 1130SOL     OW15022   3.238   4.547  17.205  0.2402  0.0710 -0.4402
 1130SOL    HW115023   3.215   4.621  17.149  3.1158  0.5735 -0.9351
 1130SOL    HW215024   3.209   4.574  17.292 -0.0157 -0.6734 -0.2911
 1131SOL     OW15025   3.493   0.807   7.511  0.2479 -0.5259  0.7105
 1131SOL    HW115026   3.546   0.744   7.560  0.4529 -0.1199  1.0056
 1131SOL    HW215027   3.436   0.852   7.573 -1.1797 -1.0757 -0.2059
 1132SOL     OW15028   1.895   2.818   1.247  0.1648  0.0965 -0.4049
 1132SOL    HW115029   1.985   2.837   1.220 -0.6587  3.5984 -0.7275
 1132SOL    HW215030   1.848   2.901   1.237 -0.6514 -0.3223  0.0059
 1133SOL     OW15031   2.187   3.027   2.492 -0.3419  0.3960  0.3021
 1133SOL    HW115032   2.105   3.074   2.506  0.0813  1.8873 -2.0762
 1133SOL    HW215033   2.143   2.947   2.462 -2.9262  1.6473  0.7864
 1134SOL     OW15034   0.743   0.782   7.169  0.0233 -0.0191 -0.0320
 1134SOL    HW115035   0.680   0.760   7.100 -0.2384 -2.7390  1.0839
 1134SOL    HW215036   0.707   0.863   7.205  0.9710  0.5357 -0.3243
 1135SOL     OW15037   1.833   3.068   1.204 -0.1266  0.3902  0.1657
 1135SOL    HW115038   1.859   3.103   1.119 -0.0899 -0.7899 -0.3033
 1135SOL    HW215039   1.750   3.115   1.209  0.3520  1.2885 -0.3286
 1136SOL     OW15040   3.988   4.668   5.358  0.6632  0.3488  0.2057
 1136SOL    HW115041   4.067   4.617   5.342 -0.4812 -0.4097 -3.0789
 1136SOL    HW215042   3.925   4.616   5.308  0.1228  0.0514  1.1937
 1137SOL     OW15043   1.628   0.167  13.929  0.4030 -0.6514  0.0852
 1137SOL    HW115044   1.535   0.162  13.951  0.8172  1.4077  2.3116
 1137SOL    HW215045   1.667   0.181  14.015 -1.3571  2.4995  0.3875
 1138SOL     OW15046   0.879   2.554   8.019 -0.9834  0.5152 -0.3990
 1138SOL    HW115047   0.850   2.585   8.106  0.4100 -0.2338  0.3315
 1138SOL    HW215048   0.801   2.518   7.978  0.8833 -1.4247 -2.1996
 1139SOL     OW15049   4.483   4.536  13.783 -0.7646  0.1844 -0.2528
 1139SOL    HW115050   4.410   4.555  13.723 -2.0093  1.6946  1.7551
 1139SOL    HW215051   4.540   4.492  13.720 -0.8559  2.3536 -1.8715
 1140SOL     OW15052   3.756   2.918   6.015  0.1951  0.4413 -0.0550
 1140SOL    HW115053   3.722   2.994   6.063  1.4899  0.9754  0.0263
 1140SOL    HW215054   3.850   2.933   6.028  0.3590 -0.2126 -0.5198
 1141SOL     OW15055   2.042   2.520   4.561  0.5876  0.3520 -0.3303
 1141SOL    HW115056   2.051   2.509   4.466 -0.3453 -2.5339 -0.0862
 1141SOL    HW215057   2.111   2.586   4.569  0.8606 -0.0081  0.2872
 1142SOL     OW15058   2.351   2.120   4.073 -0.3247 -0.4288  0.0199
 1142SOL    HW115059   2.272   2.094   4.028 -1.1732  0.7843  0.8161
 1142SOL    HW215060   2.397   2.181   4.016  0.2326 -1.4483 -0.6331
 1143SOL     OW15061   1.546   4.705   2.477  0.3061  0.2436  0.4693
 1143SOL    HW115062   1.618   4.732   2.534  0.7723  1.9490 -0.9296
 1143SOL    HW215063   1.541   4.610   2.477 -1.1363  0.3098 -1.2376
 1144SOL     OW15064   0.546   1.350   7.233  0.3381  0.6392  0.8356
 1144SOL    HW115065   0.628   1.349   7.283  0.8982  0.3575 -0.0773
 1144SOL    HW215066   0.488   1.403   7.288  1.7801  2.2462  0.8079
 1145SOL     OW15067   2.724   1.751  12.063  0.0223 -0.4974  0.4563
 1145SOL    HW115068   2.716   1.833  12.111  2.1974  0.6990 -1.2528
 1145SOL    HW215069   2.810   1.722  12.094 -0.6240 -2.4001  0.4769
 1146SOL     OW15070   2.735   3.823   1.913  0.8875 -0.2177  0.2958
 1146SOL    HW115071   2.734   3.772   1.832  1.3270 -0.4130  0.4094
 1146SOL    HW215072   2.658   3.781   1.950 -0.1495  0.2175 -1.3393
 1147SOL     OW15073   1.903   2.878   9.301  0.2400  0.7622 -0.4066
 1147SOL    HW115074   1.818   2.846   9.271 -0.4005  1.6073  0.5044
 1147SOL    HW215075   1.910   2.967   9.266 -0.2062 -0.0053 -2.4546
 1148SOL     OW15076   3.429   1.823   7.906  0.3737  0.2044  0.0444
 1148SOL    HW115077   3.510   1.792   7.946  0.5012 -0.0597 -0.4191
 1148SOL    HW215078   3.433   1.771   7.827 -1.2905 -0.1417  0.1869
 1149SOL     OW15079   0.437   3.086  14.214 -0.1644  0.0905 -0.7109
 1149SOL    HW115080   0.380   3.058  14.287  0.6567  0.4381  0.0563
 1149SOL    HW215081   0.400   3.166  14.176  1.6936  0.9332 -0.7147
 1150SOL     OW15082   1.076   1.904   9.395 -1.1149 -0.6191  0.0855
 1150SOL    HW115083   1.018   1.926   9.322  0.7928  2.0857 -0.6504
 1150SOL    HW215084   1.036   1.971   9.450  0.2962  0.7634 -0.5656
 1151SOL     OW15085   0.814   2.485   8.300 -0.0003  0.5800 -0.6498
 1151SOL    HW115086   0.726   2.490   8.337 -0.5697  0.1910 -1.9752
 1151SOL    HW215087   0.862   2.468   8.381  0.3916 -1.0785 -1.2351
 1152SOL     OW15088   3.754   3.661  11.932 -0.0889  0.1136  0.1093
 1152SOL    HW115089   3.771   3.731  11.869  3.5543  2.4146  3.5980
 1152SOL    HW215090   3.678   3.617  11.894  2.3314 -2.2433 -2.0173
 1153SOL     OW15091   0.882   4.243   6.359  0.0289  0.3417  0.1914
 1153SOL    HW115092   0.818   4.250   6.288 -2.1992 -1.2153  2.0534
 1153SOL    HW215093   0.969   4.251   6.320  0.2693 -0.0090  0.6512
 1154SOL     OW15094   3.493   3.876   3.155 -0.1687 -0.5392 -0.6574
 1154SOL    HW115095   3.470   3.921   3.073 -0.3424 -0.9635 -0.8406
 1154SOL    HW215096   3.442   3.930   3.215  1.8242 -1.7322  2.1261
 1155SOL     OW15097   2.778   3.319   9.131 -0.3362 -0.0338  0.6550
 1155SOL    HW115098   2.768   3.293   9.039 -0.0786  0.3714  0.5169
 1155SOL    HW215099   2.819   3.405   9.127  1.9978 -1.1089  1.5763
 1156SOL     OW15100   3.149   0.569   6.842  0.2302  0.3338 -0.1256
 1156SOL    HW115101   3.149   0.643   6.781 -1.8799  0.7274  0.3516
 1156SOL    HW215102   3.105   0.606   6.918  0.3927  3.3163 -1.4738
 1157SOL     OW15103   1.147   0.216   8.563  0.5459  0.0751 -0.1244
 1157SOL    HW115104   1.235   0.179   8.557  0.4191 -0.6606  2.4439
 1157SOL    HW215105   1.175   0.279   8.630  0.6333  0.8956 -0.9432
 1158SOL     OW15106   4.210   0.365   1.940 -0.6373 -0.0535 -0.5764
 1158SOL    HW115107   4.210   0.399   2.030  2.0161  1.6098 -1.2173
 1158SOL    HW215108   4.203   0.448   1.894  1.7080 -0.3145 -1.3675
 1159SOL     OW15109   4.041   1.350  14.774  0.1792 -1.0680  0.1567
 1159SOL    HW115110   4.097   1.369  14.699 -0.2899 -0.8342 -0.1334
 1159SOL    HW215111   4.112   1.316  14.830  1.1306  0.4621 -0.1212
 1160SOL     OW15112   4.725   3.677   6.089 -0.2558 -0.4955  0.2006
 1160SOL    HW115113   4.682   3.598   6.122 -1.1716 -0.0434  0.0916
 1160SOL    HW215114   4.656   3.741   6.106  0.8691 -0.1674  3.6266
 1161SOL     OW15115   3.936   1.515  11.214  0.4183  0.8397 -0.4215
 1161SOL    HW115116   3.860   1.470  11.178 -0.4861  0.2873  2.2006
 1161SOL    HW215117   3.904   1.605  11.207 -1.8883  0.0285 -0.1802
 1162SOL     OW15118   4.500   3.302   8.510 -0.6308  0.0616 -0.2637
 1162SOL    HW115119   4.460   3.384   8.481 -0.3526 -0.8006 -3.1154
 1162SOL    HW215120   4.448   3.232   8.470 -0.6499  0.6300 -1.2291
 1163SOL     OW15121   4.639   4.349   5.854 -0.3942 -0.9248 -0.4344
 1163SOL    HW115122   4.594   4.267   5.834 -0.4367 -0.5768 -1.7861
 1163SOL    HW215123   4.609   4.407   5.784 -0.4620 -0.3940  0.0330
 1164SOL     OW15124   3.189   3.826   7.896 -0.0141  0.0470  0.4146
 1164SOL    HW115125   3.207   3.752   7.838 -3.3314 -0.8515  0.5048
 1164SOL    HW215126   3.182   3.782   7.981 -0.2185 -0.3336  0.2042
 1165SOL     OW15127   4.542   1.185   3.625  0.1356 -0.2170 -0.6496
 1165SOL    HW115128   4.554   1.245   3.551 -0.0422 -2.0265 -2.1497
 1165SOL    HW215129   4.474   1.126   3.592  1.3084 -2.0349  0.2258
 1166SOL     OW15130   2.614   4.258  13.427 -0.1171  0.6164  0.0719
 1166SOL    HW115131   2.708   4.270  13.440 -0.3341  1.2623  1.1105
 1166SOL    HW215132   2.595   4.225  13.515 -0.7461  1.1610  0.1385
 1167SOL     OW15133   3.614   2.854   3.331  0.1107  0.2446  0.0147
 1167SOL    HW115134   3.597   2.760   3.318  0.3583  0.3937 -1.3366
 1167SOL    HW215135   3.532   2.881   3.373  0.8796  0.2662  1.5286
 1168SOL     OW15136   0.573   0.375  15.082 -0.0915  0.6443 -0.0235
 1168SOL    HW115137   0.642   0.405  15.024  0.0140  2.5179  1.0579
 1168SOL    HW215138   0.497   0.426  15.054 -0.5245 -0.4986 -0.9441
 1169SOL     OW15139   4.108   1.799  12.260 -0.3503  0.4059  0.4095
 1169SOL    HW115140   4.061   1.719  12.239  0.4663  0.1200 -0.3683
 1169SOL    HW215141   4.199   1.786  12.233 -1.0799  0.1768 -1.9866
 1170SOL     OW15142   4.535   1.556   1.161 -0.0097  0.0445  0.1900
 1170SOL    HW115143   4.607   1.492   1.167 -0.3310 -0.3604 -0.2637
 1170SOL    HW215144   4.464   1.495   1.140  2.8803 -3.1650 -0.3365
 1171SOL     OW15145   4.695   3.659   5.277  0.1779  0.8871  0.4395
 1171SOL    HW115146   4.625   3.645   5.213  0.1596  1.6733  0.2866
 1171SOL    HW215147   4.688   3.582   5.334 -1.0750 -0.5213 -1.6110
 1172SOL     OW15148   3.170   1.848   8.426  0.5274  0.3101  0.2041
 1172SOL    HW115149   3.179   1.782   8.357 -0.1092 -1.3958  1.7623
 1172SOL    HW215150   3.230   1.813   8.492  0.3805 -0.9087 -0.3059
 1173SOL     OW15151   0.963   3.206   8.753  0.2065  0.2826 -0.9032
 1173SOL    HW115152   0.912   3.268   8.700 -0.0340 -0.4434 -1.5218
 1173SOL    HW215153   1.010   3.263   8.814 -0.3356  0.4352 -0.6281
 1174SOL     OW15154   4.463   3.682   3.525 -0.1699  0.2531  0.4947
 1174SOL    HW115155   4.475   3.772   3.495  2.5917 -0.8060 -1.5905
 1174SOL    HW215156   4.546   3.655   3.564  0.1605  0.3422 -0.1558
 1175SOL     OW15157   1.296   4.226  11.287  0.1264 -0.0774 -0.3372
 1175SOL    HW115158   1.288   4.307  11.338 -3.5432 -1.2527  1.0120
 1175SOL    HW215159   1.303   4.162  11.357  1.5190 -0.4918 -0.8706
 1176SOL     OW15160   3.613   2.774   1.814  0.4175  0.1124 -0.3922
 1176SOL    HW115161   3.651   2.694   1.849  0.9543  1.0431  1.1420
 1176SOL    HW215162   3.585   2.744   1.728  1.2431 -0.1631 -0.5684
 1177SOL     OW15163   4.590   1.559  11.088 -0.6634  0.6626 -0.4925
 1177SOL    HW115164   4.677   1.599  11.084 -1.1853  1.6724 -1.6344
 1177SOL    HW215165   4.545   1.599  11.163  0.7253  0.8851  0.2154
 1178SOL     OW15166   4.076   2.798  12.912 -0.3553 -0.5474 -0.4076
 1178SOL    HW115167   4.013   2.735  12.948  0.3201 -0.5584  0.7580
 1178SOL    HW215168   4.135   2.806  12.987 -0.4865 -2.7241 -0.0674
 1179SOL     OW15169   2.937   2.781   0.872  0.0324 -0.9280  0.6074
 1179SOL    HW115170   2.996   2.809   0.802 -1.6251  1.3436  0.1139
 1179SOL    HW215171   2.861   2.834   0.848  1.2202  0.4541 -0.1367
 1180SOL     OW15172   0.765   1.152   8.457 -0.4373  0.1066  0.4500
 1180SOL    HW115173   0.675   1.121   8.471 -0.4497  0.4027  1.0484
 1180SOL    HW215174   0.808   1.069   8.477  0.2581  0.7116  1.5200
 1181SOL     OW15175   1.498   2.470  11.021 -0.8178 -0.0121  0.5028
 1181SOL    HW115176   1.589   2.498  11.022 -0.4903 -1.0084 -0.3492
 1181SOL    HW215177   1.459   2.557  11.025  0.2572  0.4916  0.0893
 1182SOL     OW15178   3.698   1.688   8.463  0.4183 -0.0785 -0.3094
 1182SOL    HW115179   3.767   1.621   8.469  1.2086  0.7895  0.2764
 1182SOL    HW215180   3.746   1.761   8.424  1.4136 -0.4546  0.1939
 1183SOL     OW15181   2.985   3.048   9.947 -0.1032 -0.1456 -0.8563
 1183SOL    HW115182   2.902   3.027   9.990  0.6798 -0.6980  0.3831
 1183SOL    HW215183   3.006   3.130   9.991  1.2190 -1.9882  1.9535
 1184SOL     OW15184   2.277   3.765   6.733 -0.8520  0.0972  0.6941
 1184SOL    HW115185   2.235   3.697   6.680  1.9858 -0.6412 -0.5715
 1184SOL    HW215186   2.203   3.786   6.792 -2.1507  1.2782 -1.3652
 1185SOL     OW15187   0.719   1.138  10.079  0.3837  0.0883  0.0163
 1185SOL    HW115188   0.628   1.157  10.058 -0.0660 -1.4096  0.6682
 1185SOL    HW215189   0.745   1.220  10.122  0.7438  0.1163 -0.2589
 1186SOL     OW15190   2.233   2.728   4.534 -0.7736  0.4218  0.2926
 1186SOL    HW115191   2.314   2.694   4.572  0.3716  0.1734 -2.3591
 1186SOL    HW215192   2.218   2.789   4.606  1.4724  0.9408  0.3231
 1187SOL     OW15193   1.776   2.010   2.348 -0.4917  0.1792  0.2697
 1187SOL    HW115194   1.711   1.993   2.281 -2.4874  2.7784  1.5585
 1187SOL    HW215195   1.839   2.058   2.295  0.5730 -0.5542  0.8553
 1188SOL     OW15196   3.823   0.264   9.662  0.5710 -0.0023 -0.2936
 1188SOL    HW115197   3.864   0.251   9.577 -1.2886  1.4828 -1.4123
 1188SOL    HW215198   3.791   0.354   9.659  0.3507 -0.0580  0.2840
 1189SOL     OW15199   0.948   0.924   7.274 -0.4476  0.2638  0.2135
 1189SOL    HW115200   0.990   0.974   7.204  0.2149  1.4066  1.4376
 1189SOL    HW215201   0.876   0.873   7.237  0.0315 -0.8025  0.7352
 1190SOL     OW15202   0.679   0.259   8.509  0.5954 -0.1548 -0.5541
 1190SOL    HW115203   0.633   0.181   8.477  1.3051  0.1542 -2.3467
 1190SOL    HW215204   0.758   0.219   8.547 -1.4204 -2.6101  1.0742
 1191SOL     OW15205   2.415   2.827  17.085  0.6327 -0.8119 -0.5284
 1191SOL    HW115206   2.327   2.832  17.122  1.1940 -0.3951  0.7652
 1191SOL    HW215207   2.456   2.815  17.171  0.0497  0.7916 -0.0287
 1192SOL     OW15208   3.698   1.622   5.768 -0.3029 -0.1402  0.5044
 1192SOL    HW115209   3.674   1.565   5.694 -1.0661  0.7930  0.0281
 1192SOL    HW215210   3.783   1.581   5.785 -0.5898 -1.0398 -0.1947
 1193SOL     OW15211   0.271   4.184   7.104  0.2322 -0.6154  0.0221
 1193SOL    HW115212   0.249   4.131   7.180  0.8661  0.0616  0.6679
 1193SOL    HW215213   0.186   4.194   7.061  0.3102 -1.3220 -0.3062
 1194SOL     OW15214   1.138   1.755   2.910  0.2821  0.6264  0.0284
 1194SOL    HW115215   1.157   1.774   3.001 -1.3899 -0.3078  0.5812
 1194SOL    HW215216   1.057   1.805   2.898 -0.1356 -0.1372 -0.3278
 1195SOL     OW15217   2.208   4.403   5.699 -0.4054  0.0383 -0.6738
 1195SOL    HW115218   2.159   4.480   5.727 -0.2240  0.1787 -0.7465
 1195SOL    HW215219   2.278   4.441   5.646  2.3256 -1.9906  1.5118
 1196SOL     OW15220   0.423   0.240   9.301  0.1415 -0.8364  0.4185
 1196SOL    HW115221   0.499   0.195   9.265  0.6468  0.5882 -0.2959
 1196SOL    HW215222   0.454   0.265   9.388  0.5622  0.5616 -0.1451
 1197SOL     OW15223   2.535   0.342   0.575  0.1687 -0.2443  0.1235
 1197SOL    HW115224   2.546   0.436   0.565  0.0432 -0.2901 -0.4471
 1197SOL    HW215225   2.468   0.322   0.510  1.3440  0.2749 -1.2260
 1198SOL     OW15226   0.481   3.914  10.744 -0.0549 -0.0871 -0.0334
 1198SOL    HW115227   0.479   3.985  10.809 -0.9288 -2.0202  2.0533
 1198SOL    HW215228   0.450   3.837  10.792 -3.6291  0.2394 -1.8084
 1199SOL     OW15229   0.036   1.520  16.367 -0.6002  0.0270  0.1822
 1199SOL    HW115230   4.732   1.482  16.447 -0.9852 -0.5046 -0.2572
 1199SOL    HW215231   0.053   1.607  16.403  1.9660 -0.3210 -0.1449
 1200SOL     OW15232   4.563   3.382   7.718 -0.1139  0.5100 -0.6494
 1200SOL    HW115233   4.585   3.373   7.810 -0.0842 -1.4142 -0.8419
 1200SOL    HW215234   4.506   3.306   7.707  0.8268 -0.4166  0.9367
 1201SOL     OW15235   3.236   0.446  13.601  0.2087  0.1720 -0.2990
 1201SOL    HW115236   3.293   0.462  13.676  1.7658  1.4724 -1.7575
 1201SOL    HW215237   3.182   0.374  13.634  1.2982 -0.9597 -0.9951
 1202SOL     OW15238   2.933   4.530   0.305 -0.0835 -0.4361 -0.2345
 1202SOL    HW115239   3.025   4.551   0.316  0.0533 -0.6399 -0.9820
 1202SOL    HW215240   2.932   4.514   0.211  0.4468  0.7782 -0.4359
 1203SOL     OW15241   0.323   2.033   4.553  0.6539 -0.7567  0.3035
 1203SOL    HW115242   0.380   1.968   4.511  0.2703 -0.7572 -0.2120
 1203SOL    HW215243   0.296   2.083   4.476  0.2346 -1.7958 -0.2104
 1204SOL     OW15244   1.180   2.156   4.486  0.3036 -0.5069  0.4471
 1204SOL    HW115245   1.114   2.088   4.499  0.2439 -0.8304 -1.5664
 1204SOL    HW215246   1.141   2.238   4.517 -1.6890 -2.0368  1.9109
 1205SOL     OW15247   1.652   2.595  16.109 -0.4276 -0.3157  0.6368
 1205SOL    HW115248   1.747   2.582  16.100 -0.1542  1.0498  1.4814
 1205SOL    HW215249   1.643   2.645  16.191 -1.5616  1.6959 -0.7213
 1206SOL     OW15250   1.297   2.225  13.668 -0.2520  0.1846  0.7683
 1206SOL    HW115251   1.231   2.287  13.697 -0.7239  0.4148 -0.8026
 1206SOL    HW215252   1.362   2.224  13.739  0.8417 -1.9098 -0.2543
 1207SOL     OW15253   2.127   2.379   6.735  0.0939  0.3631 -0.2686
 1207SOL    HW115254   2.073   2.306   6.705  0.9570 -0.5993  0.5490
 1207SOL    HW215255   2.201   2.325   6.762 -0.9471 -0.3039  1.2823
 1208SOL     OW15256   3.175   1.584  15.968  0.2879  0.1118  0.1700
 1208SOL    HW115257   3.097   1.571  15.914  0.1716  0.7945  0.1811
 1208SOL    HW215258   3.227   1.640  15.911  0.6571  0.8281  1.2220
 1209SOL     OW15259   1.656   3.994   5.736 -0.6510 -0.6586 -0.3896
 1209SOL    HW115260   1.705   4.075   5.726  0.9556 -1.5236  0.4107
 1209SOL    HW215261   1.726   3.930   5.750 -1.0680 -1.0256  0.0549
 1210SOL     OW15262   1.382   3.297   1.311  0.0114 -0.0572 -0.3944
 1210SOL    HW115263   1.322   3.236   1.268 -2.3513  2.8313 -1.2119
 1210SOL    HW215264   1.336   3.371   1.270  0.0089 -0.6924 -1.5193
 1211SOL     OW15265   0.744   3.541   5.254 -0.2871  0.2010  0.0277
 1211SOL    HW115266   0.681   3.613   5.260 -2.1650 -1.5774  1.1826
 1211SOL    HW215267   0.824   3.594   5.252  1.3863 -2.3045  0.7798
 1212SOL     OW15268   0.118   4.479   6.790  0.5689  0.2181  0.0089
 1212SOL    HW115269   0.150   4.549   6.848  1.3320 -0.7850  0.8043
 1212SOL    HW215270   0.045   4.450   6.844 -0.0932 -2.1137 -2.1612
 1213SOL     OW15271   4.042   1.921   2.453  0.2396 -0.6494  0.2931
 1213SOL    HW115272   4.117   1.924   2.393  0.7510  0.7587  1.0064
 1213SOL    HW215273   4.078   1.885   2.535  1.1663  0.3141  0.3102
 1214SOL     OW15274   4.395   3.256   8.057  0.3091 -0.1578  0.0220
 1214SOL    HW115275   4.465   3.310   8.019 -2.2946  1.3868 -2.5493
 1214SOL    HW215276   4.436   3.216   8.133  0.7847  0.0442 -0.1233
 1215SOL     OW15277   4.580   1.998   4.674  0.4461  0.7713  0.4762
 1215SOL    HW115278   4.674   1.987   4.688  0.7664  1.9174 -0.7955
 1215SOL    HW215279   4.545   1.910   4.658  1.2589  0.8731 -1.9777
 1216SOL     OW15280   3.471   0.537  12.100  0.2711 -0.4088 -0.0970
 1216SOL    HW115281   3.484   0.453  12.144 -1.1443  0.0900  1.2536
 1216SOL    HW215282   3.476   0.603  12.169  1.7861 -1.1326  0.4863
 1217SOL     OW15283   0.943   2.389  10.925  0.0603 -0.3078 -0.2500
 1217SOL    HW115284   0.964   2.379  11.018 -0.9950  0.5437  0.0885
 1217SOL    HW215285   0.900   2.475  10.920  2.3284  0.9526  1.5130
 1218SOL     OW15286   0.861   1.018  10.318 -0.5701 -0.3417 -0.3023
 1218SOL    HW115287   0.793   0.982  10.375  0.3925 -0.9229  0.4783
 1218SOL    HW215288   0.830   0.986  10.233  0.5415 -0.8676 -0.5219
 1219SOL     OW15289   4.474   1.460   4.801 -0.1189 -0.0389  0.0065
 1219SOL    HW115290   4.404   1.395   4.798  0.5489 -0.8045  1.2921
 1219SOL    HW215291   4.434   1.540   4.836  0.8036  1.0369 -1.4171
 1220SOL     OW15292   0.775   0.362   7.191 -0.3507 -0.1204  0.4807
 1220SOL    HW115293   0.736   0.428   7.133 -0.5986 -0.3213  0.4172
 1220SOL    HW215294   0.772   0.413   7.272  0.0587  0.4821  0.1135
 1221SOL     OW15295   1.785   0.515   6.711  0.0849  0.6268 -0.4503
 1221SOL    HW115296   1.749   0.552   6.630 -1.0764  0.1825 -0.1197
 1221SOL    HW215297   1.751   0.426   6.700 -0.4251  1.0190 -2.1363
 1222SOL     OW15298   2.777   3.642   7.812  0.2023  0.1069  0.0457
 1222SOL    HW115299   2.734   3.715   7.858 -1.9929 -0.0987 -1.7381
 1222SOL    HW215300   2.777   3.586   7.890 -1.1543  0.7175  0.4889
 1223SOL     OW15301   3.868   0.608   8.301 -0.0802 -0.5331 -0.4415
 1223SOL    HW115302   3.863   0.703   8.313  0.1341 -0.3957 -1.5233
 1223SOL    HW215303   3.930   0.602   8.229  0.2835  1.3028 -0.2825
 1224SOL     OW15304   3.269   1.704   1.090  0.4342 -0.0214 -0.8401
 1224SOL    HW115305   3.334   1.772   1.104 -0.3463  0.3888  0.7492
 1224SOL    HW215306   3.219   1.732   1.013 -2.0939 -0.4872  0.6252
 1225SOL     OW15307   1.494   4.019   1.316 -0.1115  0.0045  0.4244
 1225SOL    HW115308   1.527   4.092   1.264  2.8877 -0.4255  1.6705
 1225SOL    HW215309   1.461   4.073   1.388 -0.3636  0.2112  0.1516
 1226SOL     OW15310   1.215   0.352   3.437  0.2179  0.0489  0.0726
 1226SOL    HW115311   1.267   0.368   3.358 -0.1978 -0.2711 -0.2651
 1226SOL    HW215312   1.209   0.257   3.427 -0.6243 -0.0216  1.2703
 1227SOL     OW15313   2.173   0.645   6.720 -0.6157  0.7098  0.0869
 1227SOL    HW115314   2.156   0.566   6.669  0.4667  0.6394 -0.1623
 1227SOL    HW215315   2.261   0.622   6.751 -1.6380  0.9797  3.1758
 1228SOL     OW15316   2.123   0.391  13.851  0.0791  0.0019 -0.4242
 1228SOL    HW115317   2.122   0.442  13.770 -1.1061  0.7950  0.0962
 1228SOL    HW215318   2.215   0.365  13.854  0.0011 -0.0666  1.2704
 1229SOL     OW15319   0.420   1.928   5.014  0.2398 -0.0353  0.1642
 1229SOL    HW115320   0.493   1.970   5.060  0.8897 -0.2578 -0.6665
 1229SOL    HW215321   0.455   1.930   4.925 -3.2315 -1.6985 -1.2231
 1230SOL     OW15322   4.178   3.545   9.191  0.6954 -0.1980 -0.3252
 1230SOL    HW115323   4.116   3.614   9.216  0.6154 -0.5405  0.4265
 1230SOL    HW215324   4.127   3.498   9.124 -1.1466  1.2162  0.0930
 1231SOL     OW15325   1.290   2.679   3.866 -0.1964 -0.3005  0.9420
 1231SOL    HW115326   1.357   2.690   3.934 -0.9568 -1.1406  1.8355
 1231SOL    HW215327   1.250   2.598   3.899  1.0873 -0.7942  1.3038
 1232SOL     OW15328   4.538   0.684   1.372  0.1004 -0.9161 -0.2019
 1232SOL    HW115329   4.612   0.627   1.354  0.3214 -0.5686 -0.3869
 1232SOL    HW215330   4.553   0.697   1.466 -0.2976  0.3990 -0.3100
 1233SOL     OW15331   3.896   1.969   6.097 -0.1263  0.7543 -0.5187
 1233SOL    HW115332   3.815   1.976   6.147 -1.6475  0.8481 -2.9621
 1233SOL    HW215333   3.909   2.062   6.076 -1.2905  0.7120 -1.3935
 1234SOL     OW15334   3.408   2.584   5.207  0.7816  0.4524 -0.1996
 1234SOL    HW115335   3.456   2.667   5.211  1.9872 -0.3453  1.5779
 1234SOL    HW215336   3.319   2.619   5.213  0.3952 -0.8412  1.6135
 1235SOL     OW15337   2.777   4.529  16.518 -0.1381 -0.1704 -0.5006
 1235SOL    HW115338   2.825   4.611  16.520  0.1607 -0.3523 -0.2080
 1235SOL    HW215339   2.787   4.512  16.424 -0.6990 -0.9340 -0.4230
 1236SOL     OW15340   4.425   1.702  14.064  0.7103  0.1356 -0.7255
 1236SOL    HW115341   4.471   1.646  14.127  1.0439  2.7595  1.3767
 1236SOL    HW215342   4.369   1.756  14.119 -0.1366 -0.9654 -0.5151
 1237SOL     OW15343   3.258   0.784  15.839  0.8823  0.2966 -0.0890
 1237SOL    HW115344   3.200   0.709  15.847  0.1403  0.8552 -0.2171
 1237SOL    HW215345   3.189   0.851  15.832 -1.4769 -2.1041  0.2606
 1238SOL     OW15346   3.864   0.424  15.459  0.1837 -0.0003 -0.4090
 1238SOL    HW115347   3.880   0.477  15.381  0.6599 -0.9066 -0.9236
 1238SOL    HW215348   3.835   0.501  15.508 -0.2163  1.5040 -2.9508
 1239SOL     OW15349   3.988   0.560   6.917  0.0669  0.4131  0.1711
 1239SOL    HW115350   3.893   0.559   6.929 -0.0133  1.1351 -0.3935
 1239SOL    HW215351   4.008   0.623   6.987  0.6407 -2.8777  2.9788
 1240SOL     OW15352   2.703   0.880  13.643  0.5208  0.3277 -0.4757
 1240SOL    HW115353   2.756   0.958  13.660  2.4867 -0.6963 -1.8856
 1240SOL    HW215354   2.759   0.804  13.662  0.9340  0.5182 -0.9248
 1241SOL     OW15355   4.213   1.136   3.655  0.0377  0.2395 -0.0161
 1241SOL    HW115356   4.230   1.075   3.727  3.4624  1.3755  0.1795
 1241SOL    HW215357   4.259   1.084   3.588 -0.2079  0.8950 -0.6888
 1242SOL     OW15358   2.190   0.426  14.224  0.0427  0.5756 -0.3190
 1242SOL    HW115359   2.267   0.480  14.244  1.1608 -1.0968 -0.0542
 1242SOL    HW215360   2.154   0.484  14.157  1.3480 -0.2358 -1.7418
 1243SOL     OW15361   0.433   1.875   9.976  0.5024  0.4661 -0.5394
 1243SOL    HW115362   0.399   1.850   9.890  1.8111 -0.9611 -0.6388
 1243SOL    HW215363   0.369   1.932  10.019  1.6902  1.9350 -0.6928
 1244SOL     OW15364   2.653   0.799   4.747 -0.0166  0.3665  0.4471
 1244SOL    HW115365   2.650   0.873   4.686 -2.1470 -0.1448 -0.0601
 1244SOL    HW215366   2.567   0.802   4.790  1.2180 -0.5284  2.9524
 1245SOL     OW15367   4.331   3.846  12.114 -0.7087  0.0693  0.1286
 1245SOL    HW115368   4.368   3.870  12.198 -2.0828 -3.0951  1.6416
 1245SOL    HW215369   4.397   3.888  12.059 -1.8805 -0.9107 -2.0594
 1246SOL     OW15370   2.762   4.609   1.192 -0.0020  0.0797 -0.9629
 1246SOL    HW115371   2.794   4.535   1.243  1.8424  0.8064 -1.0677
 1246SOL    HW215372   2.807   4.585   1.111  1.5637 -2.0783  0.5501
 1247SOL     OW15373   2.284   2.779   1.372 -0.6091  0.1061  0.4218
 1247SOL    HW115374   2.240   2.740   1.448 -1.1475  0.4128  0.2648
 1247SOL    HW215375   2.346   2.707   1.362 -2.7206 -1.6974  0.1447
 1248SOL     OW15376   4.114   1.297   8.464  0.2369  0.3130 -0.5381
 1248SOL    HW115377   4.081   1.207   8.469 -0.3418  0.4826 -1.2089
 1248SOL    HW215378   4.158   1.305   8.549  2.6962  1.0457 -1.8703
 1249SOL     OW15379   2.036   2.976   2.104  0.5057 -0.5929  0.4628
 1249SOL    HW115380   2.056   3.067   2.125 -1.8011 -0.7752  3.3536
 1249SOL    HW215381   2.110   2.926   2.138  1.8726  0.3693 -1.0766
 1250SOL     OW15382   1.433   0.593   4.254  0.3300 -0.0119  0.0645
 1250SOL    HW115383   1.451   0.624   4.165  1.7373 -1.0946 -0.0338
 1250SOL    HW215384   1.516   0.552   4.280  1.0760  1.8518  0.5784
 1251SOL     OW15385   1.831   2.193   2.707 -0.0530  0.5005  0.7226
 1251SOL    HW115386   1.881   2.237   2.639  1.1738 -1.6724  0.2126
 1251SOL    HW215387   1.873   2.107   2.708 -0.5756  0.2487  1.5958
 1252SOL     OW15388   2.755   2.321   3.204 -0.5562 -0.3431  0.2396
 1252SOL    HW115389   2.722   2.308   3.293  1.9533 -0.5955  1.1343
 1252SOL    HW215390   2.738   2.232   3.172  0.2005  0.9669 -3.6459
 1253SOL     OW15391   3.786   4.540   3.296  0.1468  0.3743 -0.6479
 1253SOL    HW115392   3.864   4.590   3.321  0.2928  0.2584 -0.8673
 1253SOL    HW215393   3.751   4.535   3.385  0.9756  1.8671 -0.2416
 1254SOL     OW15394   1.167   0.844   4.749 -0.2044 -0.7157 -0.0015
 1254SOL    HW115395   1.229   0.916   4.764 -2.0290  1.1399 -1.4483
 1254SOL    HW215396   1.102   0.876   4.687 -1.1424  1.0970  1.9223
 1255SOL     OW15397   2.416   2.314   3.889  0.1491  0.3242  0.1544
 1255SOL    HW115398   2.466   2.266   3.822 -0.9484 -1.5877  0.6976
 1255SOL    HW215399   2.483   2.367   3.933 -0.0599  0.9438 -0.2786
 1256SOL     OW15400   2.053   1.610   2.317  0.0953 -0.3177 -0.5248
 1256SOL    HW115401   2.118   1.628   2.385 -0.1053  1.8250 -0.9121
 1256SOL    HW215402   1.988   1.678   2.333  0.5323  0.6067 -2.6118
 1257SOL     OW15403   2.655   2.106   3.016  0.1290  0.1678  0.6161
 1257SOL    HW115404   2.613   2.021   3.004  0.2579  0.1468  0.3197
 1257SOL    HW215405   2.724   2.095   2.951  0.3807 -2.8048  1.4040
 1258SOL     OW15406   1.202   4.513  14.283  0.1459  0.6425 -0.7164
 1258SOL    HW115407   1.270   4.562  14.328 -0.4114 -0.7965  1.6656
 1258SOL    HW215408   1.249   4.478  14.207 -1.8253  1.3940 -2.2772
 1259SOL     OW15409   1.012   2.064   2.257 -0.8032 -0.1530  0.1205
 1259SOL    HW115410   0.955   2.068   2.333  0.0140 -1.3721  0.7817
 1259SOL    HW215411   1.033   2.157   2.245  0.5548 -0.3226  1.2834
 1260SOL     OW15412   1.720   2.937   9.709 -0.1894 -0.1836 -0.6619
 1260SOL    HW115413   1.752   2.921   9.797  0.7921 -1.4571 -1.2406
 1260SOL    HW215414   1.636   2.892   9.714 -1.1305  1.4650 -1.6555
 1261SOL     OW15415   0.468   4.515   9.551 -0.1465 -0.4161 -0.0421
 1261SOL    HW115416   0.384   4.520   9.506 -0.1291 -0.0978 -0.0435
 1261SOL    HW215417   0.485   4.610   9.552  0.9046 -0.5913 -1.0631
 1262SOL     OW15418   1.485   1.885   8.479 -0.1526  0.2258 -0.2555
 1262SOL    HW115419   1.478   1.980   8.491  0.5637  0.0780  1.4434
 1262SOL    HW215420   1.570   1.879   8.435  0.7050  0.8922  1.2797
 1263SOL     OW15421   3.252   0.892   0.673 -0.0056  0.2157 -0.6819
 1263SOL    HW115422   3.305   0.922   0.747  0.4004 -1.4038 -0.3099
 1263SOL    HW215423   3.270   0.956   0.604  0.4798 -1.3318 -1.9851
 1264SOL     OW15424   4.506   4.302   8.290 -0.0366  0.0850 -0.7178
 1264SOL    HW115425   4.482   4.364   8.359  0.3325  0.9510 -1.3615
 1264SOL    HW215426   4.504   4.361   8.215 -0.9467  0.6100 -0.2868
 1265SOL     OW15427   2.476   0.598   7.370 -0.4548  0.0198  0.3670
 1265SOL    HW115428   2.487   0.678   7.422  0.9010 -0.1015  0.2653
 1265SOL    HW215429   2.382   0.604   7.354 -0.5611 -1.1705  0.6137
 1266SOL     OW15430   1.378   0.002   7.655 -0.6143  0.2494  0.6222
 1266SOL    HW115431   1.313   4.685   7.703 -0.4936 -0.3281  0.1686
 1266SOL    HW215432   1.330   0.006   7.572  1.7732 -0.7855 -0.7806
 1267SOL     OW15433   3.871   3.118  12.350  0.3560 -0.3927  0.2368
 1267SOL    HW115434   3.796   3.088  12.402  0.2045 -0.0726  0.2053
 1267SOL    HW215435   3.910   3.174  12.417  2.1087 -0.4891 -0.6895
 1268SOL     OW15436   4.436   0.235   6.893 -0.6488  0.4934 -0.8794
 1268SOL    HW115437   4.453   0.298   6.824  0.2683 -0.3767 -1.4456
 1268SOL    HW215438   4.345   0.210   6.875 -0.4050 -1.3950  0.4518
 1269SOL     OW15439   3.447   0.393   7.640  0.1175 -0.1490 -0.3371
 1269SOL    HW115440   3.407   0.339   7.571 -0.3163  1.9561 -1.7357
 1269SOL    HW215441   3.497   0.331   7.693  0.3790  0.9150  0.6580
 1270SOL     OW15442   4.151   3.700  11.959  0.0795 -0.2368 -0.1831
 1270SOL    HW115443   4.127   3.791  11.946 -0.1023 -0.2242  0.2491
 1270SOL    HW215444   4.235   3.701  12.005 -0.8116 -2.0513  1.4768
 1271SOL     OW15445   4.103   3.569   3.576 -0.1668 -0.0534 -0.2927
 1271SOL    HW115446   4.075   3.477   3.583  1.9956 -0.3942  3.4350
 1271SOL    HW215447   4.140   3.586   3.662  0.0366 -1.6231 -0.0647
 1272SOL     OW15448   2.632   1.291   2.728  0.9510 -0.2345 -0.3717
 1272SOL    HW115449   2.632   1.273   2.822  1.9229 -0.7791 -0.4686
 1272SOL    HW215450   2.676   1.216   2.688 -0.8333  0.0927 -2.9786
 1273SOL     OW15451   4.019   0.038   8.547 -0.1239 -0.3308  0.2451
 1273SOL    HW115452   4.053   0.106   8.488 -0.7253 -0.6071 -0.4141
 1273SOL    HW215453   3.936   0.025   8.501  0.2367  0.0908 -0.5287
 1274SOL     OW15454   4.346   4.001   5.452 -0.7254 -0.5198 -0.7467
 1274SOL    HW115455   4.329   3.923   5.400  0.6472 -0.9179 -0.5981
 1274SOL    HW215456   4.327   4.056   5.376  0.7613  0.3757 -0.4696
 1275SOL     OW15457   4.562   0.650   5.171  0.6067  0.1972 -0.1059
 1275SOL    HW115458   4.644   0.698   5.163 -0.2140  1.8450  1.4092
 1275SOL    HW215459   4.565   0.605   5.256  3.0964 -0.5971 -0.6188
 1276SOL     OW15460   2.957   3.510   8.806 -0.0026  0.1521  0.7314
 1276SOL    HW115461   2.883   3.539   8.752  1.0261  1.6037  0.0957
 1276SOL    HW215462   2.931   3.538   8.894  1.6537 -1.2243  1.6488
 1277SOL     OW15463   3.369   0.660   8.287 -0.3814 -0.4064 -0.1346
 1277SOL    HW115464   3.411   0.744   8.267 -0.2168 -0.3321  0.5589
 1277SOL    HW215465   3.431   0.593   8.259 -0.5573  0.0289 -1.6112
 1278SOL     OW15466   0.844   2.486   2.145 -0.0046 -0.4691 -0.4819
 1278SOL    HW115467   0.783   2.560   2.143 -1.9580 -1.9840  2.5783
 1278SOL    HW215468   0.927   2.523   2.176 -0.1667 -1.2505  0.8720
 1279SOL     OW15469   3.099   1.882   4.446 -0.2872 -0.0252 -0.3715
 1279SOL    HW115470   3.089   1.966   4.402  0.6795  1.1131  1.5834
 1279SOL    HW215471   3.010   1.851   4.462 -1.3445  3.4380  0.4546
 1280SOL     OW15472   2.011   4.356  14.636 -0.4368  0.0167  0.0556
 1280SOL    HW115473   1.954   4.342  14.560  0.1619 -1.7957 -0.0599
 1280SOL    HW215474   2.056   4.273  14.651 -0.0626  0.2048 -0.0300
 1281SOL     OW15475   2.928   3.685  13.825 -0.4100  0.0602  0.3212
 1281SOL    HW115476   2.889   3.667  13.739  1.8444  1.5383 -1.0075
 1281SOL    HW215477   3.019   3.668  13.803 -0.8737  1.7284 -2.7946
 1282SOL     OW15478   0.048   3.884  13.585 -0.3227 -0.0091  0.0194
 1282SOL    HW115479   4.702   3.843  13.553 -2.0926  2.0544  1.7834
 1282SOL    HW215480   0.076   3.809  13.637  1.7012 -0.5671 -1.8680
 1283SOL     OW15481   1.537   1.187   5.774 -0.1116 -0.2608 -0.5215
 1283SOL    HW115482   1.479   1.242   5.721  1.3671  0.0647 -1.8095
 1283SOL    HW215483   1.604   1.171   5.707  0.7965  0.4377  0.2309
 1284SOL     OW15484   4.307   3.356   1.774 -0.2122  0.0943 -0.6017
 1284SOL    HW115485   4.394   3.320   1.763 -0.2080 -0.2770  0.6455
 1284SOL    HW215486   4.324   3.439   1.730 -1.6587  0.7070 -0.0214
 1285SOL     OW15487   3.698   1.888  14.533 -0.4997  0.6698  0.0471
 1285SOL    HW115488   3.630   1.903  14.467 -0.1661 -0.7946 -0.6331
 1285SOL    HW215489   3.635   1.876  14.604  0.1512  1.4880  0.7573
 1286SOL     OW15490   1.082   2.412  17.410 -0.0438 -0.5531 -0.0125
 1286SOL    HW115491   1.121   2.337  17.365 -1.1602 -0.5414 -0.9960
 1286SOL    HW215492   1.025   2.365  17.471  2.3626 -2.1735  0.9978
 1287SOL     OW15493   3.831   2.755   3.665 -0.0062 -0.3432  0.7254
 1287SOL    HW115494   3.867   2.747   3.577  0.3272  1.7302  0.6713
 1287SOL    HW215495   3.739   2.730   3.655 -0.3448  0.8116  0.9701
 1288SOL     OW15496   3.271   2.516   2.913 -0.2074  0.5063  0.0293
 1288SOL    HW115497   3.364   2.501   2.929 -1.1407 -0.9346  4.2985
 1288SOL    HW215498   3.269   2.502   2.818  1.8615  0.4735 -0.0145
 1289SOL     OW15499   0.160   0.378   5.678 -0.3665 -0.1216 -0.0234
 1289SOL    HW115500   0.067   0.401   5.675 -0.7207 -1.5904 -0.3117
 1289SOL    HW215501   0.194   0.452   5.728 -0.1811  0.8690 -1.6085
 1290SOL     OW15502   3.614   0.439   4.899  0.0050  0.1613 -0.4488
 1290SOL    HW115503   3.572   0.501   4.839 -0.1084  0.6712  0.1576
 1290SOL    HW215504   3.608   0.494   4.977 -0.2829 -0.1877 -0.2260
 1291SOL     OW15505   0.938   1.219   3.703  0.0322  0.7721 -0.7042
 1291SOL    HW115506   0.936   1.297   3.647  1.6816 -0.1768 -2.0870
 1291SOL    HW215507   0.929   1.143   3.645  1.1657 -0.9153  1.3626
 1292SOL     OW15508   3.883   0.346   4.781  0.4141 -0.0683  0.2155
 1292SOL    HW115509   3.944   0.408   4.741 -1.4932  1.6987  0.0644
 1292SOL    HW215510   3.809   0.396   4.815  2.1408  1.8539  1.1512
 1293SOL     OW15511   0.991   1.383  10.996 -0.0452  0.2095 -0.7470
 1293SOL    HW115512   1.037   1.378  10.913  2.4127 -1.1706  0.6806
 1293SOL    HW215513   1.014   1.474  11.017 -0.8480  0.6237 -1.6751
 1294SOL     OW15514   0.342   4.191   8.016 -0.3420  0.0907  0.2956
 1294SOL    HW115515   0.353   4.100   8.041  0.5479  0.3276  0.7528
 1294SOL    HW215516   0.381   4.245   8.085 -0.7273 -0.9676  1.3251
 1295SOL     OW15517   3.983   3.041   3.011 -0.3782 -0.3528 -0.2680
 1295SOL    HW115518   3.895   3.013   3.035  0.4446 -1.2079  1.7802
 1295SOL    HW215519   4.032   2.963   3.036 -0.5587 -0.8558 -1.5129
 1296SOL     OW15520   1.429   2.784   3.677 -0.6833  0.0274  0.0505
 1296SOL    HW115521   1.361   2.752   3.736 -0.5311  1.0172  0.7625
 1296SOL    HW215522   1.448   2.863   3.729 -1.3310 -1.9520  3.3280
 1297SOL     OW15523   1.709   0.164  10.880  0.1797 -0.4108  0.4452
 1297SOL    HW115524   1.696   0.085  10.827  1.9722  1.3133 -2.5486
 1297SOL    HW215525   1.619   0.190  10.902  0.7247  0.7516  1.2831
 1298SOL     OW15526   0.840   3.454   6.374 -0.2940 -0.1366 -0.3602
 1298SOL    HW115527   0.901   3.381   6.364  0.4158  0.2793  0.9613
 1298SOL    HW215528   0.759   3.405   6.391 -0.3584  0.1304  0.1089
 1299SOL     OW15529   0.711   0.439   3.678  0.2493 -0.0129  0.0077
 1299SOL    HW115530   0.651   0.409   3.747  1.1386 -0.8335  0.4299
 1299SOL    HW215531   0.793   0.409   3.717 -0.5018 -1.8471  0.1918
 1300SOL     OW15532   2.485   1.964  12.715 -0.0655  0.9140 -0.0159
 1300SOL    HW115533   2.461   2.038  12.771  0.8367 -1.4243  3.4544
 1300SOL    HW215534   2.567   1.931  12.754  0.5351 -0.2782 -2.3068
 1301SOL     OW15535   1.398   1.237   5.122 -0.1974  0.0436 -0.4702
 1301SOL    HW115536   1.454   1.298   5.075  2.1349 -1.0813  0.8737
 1301SOL    HW215537   1.370   1.301   5.187 -0.1985 -0.6297  0.1946
 1302SOL     OW15538   0.312   1.515   6.047 -0.2390 -0.0402  0.0369
 1302SOL    HW115539   0.387   1.574   6.042 -0.2809 -0.1090 -1.4879
 1302SOL    HW215540   0.249   1.576   6.086  1.5610  1.6839  0.2315
 1303SOL     OW15541   3.015   4.554   6.191 -0.3933  0.1836  0.2591
 1303SOL    HW115542   3.098   4.508   6.180  0.2281  0.9010  1.9873
 1303SOL    HW215543   2.985   4.520   6.275 -0.6716  2.8005  1.2455
 1304SOL     OW15544   3.288   0.329   8.660  0.1448  0.3094 -0.4026
 1304SOL    HW115545   3.216   0.368   8.611 -0.0347  0.2200 -0.2129
 1304SOL    HW215546   3.286   0.365   8.749 -0.3561  0.0976 -0.3281
 1305SOL     OW15547   2.580   2.468   8.292 -0.2511 -0.4994  0.4498
 1305SOL    HW115548   2.547   2.379   8.286 -0.7139 -0.2393 -0.8570
 1305SOL    HW215549   2.507   2.511   8.247  1.0126  1.7710  0.5431
 1306SOL     OW15550   0.578   2.272   2.596 -0.3163  0.0068 -0.0359
 1306SOL    HW115551   0.598   2.324   2.674 -0.9915  0.5195 -0.2097
 1306SOL    HW215552   0.646   2.297   2.534 -1.7887  2.0360 -0.8104
 1307SOL     OW15553   2.354   0.113  11.523  0.1702  0.6967 -0.1741
 1307SOL    HW115554   2.362   0.027  11.564 -2.4419  0.1101 -0.8724
 1307SOL    HW215555   2.264   0.131  11.549  0.3300 -0.9133  1.5351
 1308SOL     OW15556   0.221   0.368   3.802  0.0113  0.6186 -0.6966
 1308SOL    HW115557   0.186   0.426   3.869  0.1186  0.9909 -0.9555
 1308SOL    HW215558   0.315   0.379   3.814  0.2198 -0.2318 -1.5182
 1309SOL     OW15559   1.297   0.253   3.124  0.1937  0.0362 -0.5837
 1309SOL    HW115560   1.355   0.329   3.133 -1.4476  1.3187 -0.6979
 1309SOL    HW215561   1.227   0.287   3.068 -1.2147  0.3347  1.3615
 1310SOL     OW15562   2.469   1.506   7.392  0.1075  0.0819  0.0073
 1310SOL    HW115563   2.490   1.555   7.312 -1.2099  0.7393  0.0724
 1310SOL    HW215564   2.525   1.431   7.369 -1.4480 -1.6700  1.8997
 1311SOL     OW15565   3.967   0.146   6.862 -0.0615  0.3509 -0.0283
 1311SOL    HW115566   3.927   0.138   6.949  2.3826 -0.5907  1.0210
 1311SOL    HW215567   4.047   0.197   6.877  1.0677 -1.6768  0.8362
 1312SOL     OW15568   2.146   2.265   8.624 -0.2655  0.0390  0.4205
 1312SOL    HW115569   2.093   2.268   8.545 -0.0311  2.0783  0.3420
 1312SOL    HW215570   2.227   2.244   8.578 -0.6688  0.2707 -0.3800
 1313SOL     OW15571   1.392   1.778   7.511 -0.2277  0.5524  0.0477
 1313SOL    HW115572   1.391   1.848   7.446 -1.5646 -0.5315 -1.0948
 1313SOL    HW215573   1.316   1.725   7.487 -1.0564  1.4850  0.5815
 1314SOL     OW15574   1.807   3.833   1.587 -0.1694  0.0417 -0.2593
 1314SOL    HW115575   1.871   3.763   1.599 -0.5578 -0.0173  1.4862
 1314SOL    HW215576   1.844   3.905   1.638  1.7546  0.4655 -2.3028
 1315SOL     OW15577   3.855   2.636   2.204  0.2758 -0.2432  0.1697
 1315SOL    HW115578   3.932   2.679   2.166  0.4472 -0.2762  0.4724
 1315SOL    HW215579   3.779   2.680   2.166 -0.0600  0.7119  1.9581
 1316SOL     OW15580   1.519   1.537   7.200  0.5046 -0.2886  0.2277
 1316SOL    HW115581   1.591   1.599   7.214  0.8793 -0.5133 -0.7520
 1316SOL    HW215582   1.566   1.481   7.139  1.4566 -0.0376  0.7228
 1317SOL     OW15583   3.147   3.733   1.315  0.1057  0.3037  0.2932
 1317SOL    HW115584   3.185   3.820   1.321 -0.9509  0.7592  0.3171
 1317SOL    HW215585   3.080   3.747   1.248  0.6903  1.1898 -0.1059
 1318SOL     OW15586   1.893   3.136   1.454  0.6280 -0.4978 -0.0154
 1318SOL    HW115587   1.926   3.059   1.499  1.6485 -1.1425 -1.8536
 1318SOL    HW215588   1.887   3.114   1.361  0.2335  3.0102 -0.8263
 1319SOL     OW15589   2.761   1.748   6.435  0.2091  0.3360 -0.3847
 1319SOL    HW115590   2.760   1.840   6.409 -0.8820  0.5636  0.4461
 1319SOL    HW215591   2.818   1.756   6.511  0.4066  0.1159 -0.5088
 1320SOL     OW15592   1.382   1.953   8.204 -0.1971 -0.9158  0.4756
 1320SOL    HW115593   1.417   1.988   8.286  0.4871  1.0709 -0.6699
 1320SOL    HW215594   1.384   1.862   8.232 -0.5397 -1.0973 -0.1026
 1321SOL     OW15595   2.308   0.645  14.990  0.0561 -0.2451 -0.6160
 1321SOL    HW115596   2.373   0.587  14.951  0.5543 -1.2411  1.7165
 1321SOL    HW215597   2.351   0.727  14.966 -2.7976  0.7435 -2.3459
 1322SOL     OW15598   4.010   1.198   1.447 -0.9427 -0.0435  0.3242
 1322SOL    HW115599   4.025   1.259   1.519 -0.4204 -0.1103  0.2699
 1322SOL    HW215600   3.916   1.187   1.460 -0.5119 -2.9394  0.9437
 1323SOL     OW15601   2.064   1.765  11.442  0.2292 -0.2804 -0.4083
 1323SOL    HW115602   2.054   1.671  11.456  2.0203 -0.3035  0.7145
 1323SOL    HW215603   2.159   1.776  11.450  0.1007 -0.2202  0.9741
 1324SOL     OW15604   3.034   4.532   6.489  0.4048 -0.0683  0.3370
 1324SOL    HW115605   3.019   4.512   6.582  1.5912  1.4286  0.8564
 1324SOL    HW215606   3.117   4.579   6.492 -0.0346  0.6564  1.4220
 1325SOL     OW15607   2.092   2.410   2.445  0.4002 -0.2753 -0.4543
 1325SOL    HW115608   2.034   2.448   2.379 -0.2285  0.0149  0.2589
 1325SOL    HW215609   2.042   2.328   2.456 -0.0272 -0.0140 -0.4434
 1326SOL     OW15610   3.109   2.503   3.690  0.0396 -0.4182 -0.3902
 1326SOL    HW115611   3.055   2.581   3.704  1.2254  0.6067 -1.5386
 1326SOL    HW215612   3.049   2.432   3.714 -1.0918  0.0593 -1.8321
 1327SOL     OW15613   3.584   3.744   0.668  0.1616  0.8387  0.1340
 1327SOL    HW115614   3.610   3.652   0.659  3.2248  1.8015 -0.6848
 1327SOL    HW215615   3.626   3.754   0.753  0.4204 -0.4709  0.1581
 1328SOL     OW15616   0.970   2.971   7.379 -0.0620 -0.5952  0.7343
 1328SOL    HW115617   1.009   2.912   7.314 -0.4338  1.4262 -1.2993
 1328SOL    HW215618   0.884   2.929   7.382 -0.3313  0.0478  1.8722
 1329SOL     OW15619   4.700   0.855  13.372 -0.2690  0.1254 -0.4064
 1329SOL    HW115620   4.675   0.811  13.291  2.1923 -1.2724 -0.4422
 1329SOL    HW215621   0.057   0.823  13.371 -0.7442 -1.2498 -0.4287
 1330SOL     OW15622   0.007   0.068   2.185  0.1216  0.6841 -0.1486
 1330SOL    HW115623   0.002   0.140   2.122  3.0544 -1.6769 -3.0674
 1330SOL    HW215624   0.045   0.117   2.258  0.5931 -1.5940  1.1429
 1331SOL     OW15625   3.977   1.219  14.224 -0.0273  0.6440 -0.1206
 1331SOL    HW115626   3.928   1.301  14.218  1.1992  1.2617 -1.5994
 1331SOL    HW215627   3.964   1.201  14.317 -0.5109  0.0385 -0.3123
 1332SOL     OW15628   3.105   1.000  10.167  0.4981 -0.1425 -0.1484
 1332SOL    HW115629   3.191   1.018  10.205  1.6340 -3.3834 -1.1616
 1332SOL    HW215630   3.109   0.913  10.126  1.9687  0.2461 -0.8397
 1333SOL     OW15631   4.679   4.574   1.868  0.1200 -0.3400 -0.1515
 1333SOL    HW115632   4.664   4.548   1.958  1.6908  1.3320  0.5980
 1333SOL    HW215633   0.039   4.589   1.879  0.3989 -0.4460 -2.3701
 1334SOL     OW15634   3.222   0.367   4.062  0.4038 -0.4654  0.2401
 1334SOL    HW115635   3.309   0.402   4.078 -0.0532  0.2844  1.0370
 1334SOL    HW215636   3.242   0.281   4.025  0.7941 -1.0408  1.7720
 1335SOL     OW15637   3.541   1.066   1.960  0.1776  0.5745 -0.0221
 1335SOL    HW115638   3.530   0.982   1.916  0.2939 -0.8363  2.5989
 1335SOL    HW215639   3.595   1.103   1.891 -1.0272  0.0399 -1.2526
 1336SOL     OW15640   1.340   1.963   9.429 -0.0162 -0.5515  0.0296
 1336SOL    HW115641   1.314   2.047   9.466  0.1086 -0.8135  0.7007
 1336SOL    HW215642   1.258   1.925   9.396 -0.1984  0.4243 -0.6330
 1337SOL     OW15643   3.219   4.553  16.868 -0.4125 -0.3546 -0.3602
 1337SOL    HW115644   3.263   4.505  16.938 -2.8718  0.1521  1.5432
 1337SOL    HW215645   3.142   4.497  16.859  0.0257 -1.1034  0.5495
 1338SOL     OW15646   2.360   1.334   3.421  0.3674  0.0997 -0.1100
 1338SOL    HW115647   2.340   1.302   3.509  0.9200 -0.1765 -0.0842
 1338SOL    HW215648   2.429   1.274   3.394  1.2802  0.6854  0.9437
 1339SOL     OW15649   0.412   0.130   6.996 -0.0767 -0.4426 -0.1185
 1339SOL    HW115650   0.353   0.160   7.066 -2.3598 -0.1022 -2.2103
 1339SOL    HW215651   0.417   0.215   6.954 -1.7617 -0.9743 -1.3788
 1340SOL     OW15652   4.099   0.993   8.258 -0.2055  0.0928  0.3526
 1340SOL    HW115653   4.017   0.946   8.246  0.1761 -0.0849 -1.5506
 1340SOL    HW215654   4.068   1.032   8.340  3.0364 -1.9236  2.5446
 1341SOL     OW15655   0.125   2.258  16.415 -0.2632  0.2690 -0.0336
 1341SOL    HW115656   0.042   2.242  16.369 -0.9004 -1.1253  1.6234
 1341SOL    HW215657   0.190   2.239  16.346  0.6250 -0.5284  1.0306
 1342SOL     OW15658   4.579   0.526   8.847 -0.8924 -0.2669 -0.1171
 1342SOL    HW115659   4.581   0.617   8.816 -2.5429 -1.0552 -2.5394
 1342SOL    HW215660   4.556   0.530   8.940 -0.9943  3.1641 -0.2863
 1343SOL     OW15661   0.202   0.356   0.229  0.2258 -0.1922  0.4656
 1343SOL    HW115662   0.120   0.314   0.205 -0.3397  0.5843  1.0559
 1343SOL    HW215663   0.224   0.315   0.313  1.1007  2.0927  1.3614
 1344SOL     OW15664   3.506   4.387   8.206 -0.0395 -1.0650 -0.0080
 1344SOL    HW115665   3.492   4.378   8.301 -0.3170  2.8069  0.3465
 1344SOL    HW215666   3.537   4.300   8.186 -1.0323 -1.6103  0.7905
 1345SOL     OW15667   0.473   0.406   7.309  0.2354 -0.0860 -0.1202
 1345SOL    HW115668   0.439   0.483   7.353  0.2832  0.4225 -0.9617
 1345SOL    HW215669   0.485   0.443   7.221  0.6757  0.2918  0.0969
 1346SOL     OW15670   4.151   2.075   2.927  0.1917 -0.1231  0.4761
 1346SOL    HW115671   4.197   2.144   2.879 -0.2993 -0.3696 -0.3427
 1346SOL    HW215672   4.167   2.110   3.015 -1.2354  0.1942  0.6072
 1347SOL     OW15673   0.835   0.608   2.496 -0.3163  0.4403 -0.1078
 1347SOL    HW115674   0.919   0.600   2.542 -0.1028 -2.3700 -0.9821
 1347SOL    HW215675   0.827   0.703   2.484  1.9952  0.8361  1.4545
 1348SOL     OW15676   3.231   4.714   6.619 -0.1900  0.1691 -0.7546
 1348SOL    HW115677   3.249   4.715   6.713  1.5182 -0.3093 -1.0739
 1348SOL    HW215678   3.320   4.691   6.590  0.3378  1.4773 -0.1784
 1349SOL     OW15679   0.233   0.714   1.959 -0.1619  1.1829 -0.1847
 1349SOL    HW115680   0.298   0.685   2.024 -0.8377 -0.3151 -0.1842
 1349SOL    HW215681   0.234   0.804   1.991  2.8089  0.6459  1.2258
 1350SOL     OW15682   2.188   1.754   7.031 -0.1113 -0.3380  0.0180
 1350SOL    HW115683   2.266   1.753   6.976 -0.2948 -2.8031 -0.1903
 1350SOL    HW215684   2.128   1.810   6.982  0.2321  0.8956  1.0039
 1351SOL     OW15685   0.784   4.239   4.610 -0.0356 -0.2531 -0.0726
 1351SOL    HW115686   0.696   4.269   4.587  0.0552 -1.7867 -2.3971
 1351SOL    HW215687   0.833   4.257   4.530  2.8500 -4.0036  0.8665
 1352SOL     OW15688   3.956   2.789  11.468  0.2930  0.5440 -0.5438
 1352SOL    HW115689   4.046   2.757  11.466  0.8472  2.0799 -0.2981
 1352SOL    HW215690   3.922   2.757  11.385 -0.2250  1.7291 -0.7950
 1353SOL     OW15691   0.122   3.536   5.068  0.3797  0.0706  0.3677
 1353SOL    HW115692   0.107   3.561   4.976  1.0390 -0.1178  0.2113
 1353SOL    HW215693   0.067   3.591   5.124  0.8232  2.2999 -1.3554
 1354SOL     OW15694   2.981   4.000   7.553  0.0472  0.0580  0.4553
 1354SOL    HW115695   2.949   3.933   7.494  4.0968  0.2446 -1.9656
 1354SOL    HW215696   2.958   4.077   7.500  2.8988  1.2658  0.9623
 1355SOL     OW15697   4.459   2.776   7.400 -0.4778 -0.2887 -0.5944
 1355SOL    HW115698   4.390   2.777   7.466 -1.3175 -0.8999 -1.4557
 1355SOL    HW215699   4.532   2.826   7.437 -0.2764 -0.3172 -0.9599
 1356SOL     OW15700   1.311   3.688   7.147 -0.2123  0.7091  0.2644
 1356SOL    HW115701   1.340   3.742   7.074 -0.6697 -0.4521 -0.7747
 1356SOL    HW215702   1.216   3.680   7.133  0.1446 -0.3613 -1.5827
 1357SOL     OW15703   2.217   4.720   7.498  0.3093  0.0583 -0.0406
 1357SOL    HW115704   2.274   4.706   7.423 -0.0928  2.2707 -0.7517
 1357SOL    HW215705   2.264   0.051   7.550 -0.3572  1.2708 -0.9627
 1358SOL     OW15706   0.472   1.204  10.416  0.5617 -0.0656 -0.2035
 1358SOL    HW115707   0.501   1.121  10.378  0.2930 -0.2617  0.0191
 1358SOL    HW215708   0.540   1.266  10.389  1.1062 -0.9767 -0.9541
 1359SOL     OW15709   2.339   3.374   8.748  0.1073 -0.4855  0.3517
 1359SOL    HW115710   2.389   3.295   8.767  0.3527 -0.4994 -0.3348
 1359SOL    HW215711   2.397   3.441   8.784  1.5305 -0.6065 -1.6984
 1360SOL     OW15712   0.883   3.527   6.027 -0.1451  0.1289 -0.0017
 1360SOL    HW115713   0.887   3.623   6.030  0.7792  0.1030 -0.4114
 1360SOL    HW215714   0.956   3.505   6.085 -0.6212 -1.0794  0.1349
 1361SOL     OW15715   1.467   1.428   6.168 -0.3082 -0.4965  0.1077
 1361SOL    HW115716   1.481   1.343   6.208  1.0584 -1.9215 -3.3580
 1361SOL    HW215717   1.382   1.415   6.126 -0.0594 -1.9479  0.0743
 1362SOL     OW15718   4.540   0.112   8.570 -0.1640 -0.3736 -0.0481
 1362SOL    HW115719   4.446   0.113   8.589  0.0909  0.5995  1.1904
 1362SOL    HW215720   4.558   0.199   8.605 -1.2610 -1.4341  3.1404
 1363SOL     OW15721   1.190   2.782   8.284  0.2171  0.0794  0.7908
 1363SOL    HW115722   1.192   2.878   8.279  2.0725  0.0415  0.7771
 1363SOL    HW215723   1.204   2.765   8.191  0.3899  1.5284  0.5527
 1364SOL     OW15724   0.004   1.925   7.218 -0.2309 -0.0726  0.3648
 1364SOL    HW115725   4.725   2.018   7.201 -1.7557 -0.9445 -3.1126
 1364SOL    HW215726   4.668   1.884   7.168  1.9447 -0.1747 -2.5819
 1365SOL     OW15727   3.215   3.417   8.745  0.2659  0.6353 -0.2067
 1365SOL    HW115728   3.119   3.416   8.748  0.2012  2.1451 -2.2018
 1365SOL    HW215729   3.240   3.445   8.833 -0.0194  0.1962  0.0200
 1366SOL     OW15730   3.676   1.661  12.220  0.3566  0.0527 -0.2217
 1366SOL    HW115731   3.739   1.594  12.247  0.7241  0.0060 -1.1929
 1366SOL    HW215732   3.690   1.657  12.125 -1.9144 -0.5725 -0.5189
 1367SOL     OW15733   0.250   0.207  10.006 -0.7297  0.4592  0.2659
 1367SOL    HW115734   0.334   0.163   9.991 -0.8778 -0.0487  0.9103
 1367SOL    HW215735   0.197   0.172   9.935  0.6014 -1.3177  0.1531
 1368SOL     OW15736   2.850   0.511  10.105  0.0803  0.2410  0.0461
 1368SOL    HW115737   2.849   0.540  10.196 -0.3499  0.3465  0.0094
 1368SOL    HW215738   2.815   0.587  10.058  2.4878  1.2838 -0.0152
 1369SOL     OW15739   0.684   0.944   4.428 -0.0171 -0.0321  0.0044
 1369SOL    HW115740   0.762   0.889   4.420 -0.2101 -0.5291  1.6765
 1369SOL    HW215741   0.705   0.999   4.503 -0.5796 -0.0856  0.2008
 1370SOL     OW15742   3.075   2.017  15.021  0.3233  0.8998  0.5379
 1370SOL    HW115743   3.115   2.035  14.936  0.4780  1.2628  0.6910
 1370SOL    HW215744   2.984   2.023  14.992 -0.7675  0.7083  3.9646
 1371SOL     OW15745   3.076   0.910   5.845 -0.0454 -0.5130 -0.2461
 1371SOL    HW115746   3.004   0.846   5.842 -1.4841  1.0884 -0.3704
 1371SOL    HW215747   3.105   0.886   5.933  0.1543 -0.0971 -0.1979
 1372SOL     OW15748   1.123   1.864  16.459  0.0937  0.4261 -0.5575
 1372SOL    HW115749   1.107   1.947  16.416 -0.5010  0.3756 -0.4334
 1372SOL    HW215750   1.067   1.805  16.408  0.1351 -0.5035  0.4528
 1373SOL     OW15751   2.575   4.670  15.981  0.3331  0.4944  0.1731
 1373SOL    HW115752   2.636   4.602  15.952  0.8805  1.3991 -0.7874
 1373SOL    HW215753   2.609   0.011  15.932 -1.4116  0.3309 -1.2910
 1374SOL     OW15754   2.688   2.683   1.983  0.2111 -0.3685 -0.1414
 1374SOL    HW115755   2.664   2.609   2.039  0.0531  0.9000  1.4386
 1374SOL    HW215756   2.619   2.681   1.916 -1.0796  1.0013  1.1593
 1375SOL     OW15757   4.400   0.704   2.152 -0.1304  0.1917  0.6458
 1375SOL    HW115758   4.433   0.718   2.241  2.4988 -3.0284  0.1445
 1375SOL    HW215759   4.332   0.772   2.155 -1.0838 -0.6676 -2.1163
 1376SOL     OW15760   2.484   4.291   1.081 -0.2539  0.2507 -0.2914
 1376SOL    HW115761   2.577   4.307   1.093  0.2187 -3.0828  0.6478
 1376SOL    HW215762   2.491   4.272   0.988 -1.0534  0.7750 -0.4566
 1377SOL     OW15763   2.026   1.387   8.257 -0.2527  0.3661 -0.3044
 1377SOL    HW115764   2.017   1.413   8.166  0.0287 -2.1191 -1.0277
 1377SOL    HW215765   2.099   1.446   8.278 -0.8659  1.2787 -0.7415
 1378SOL     OW15766   3.145   0.082   9.309 -0.0851 -0.1049  0.7871
 1378SOL    HW115767   3.171   0.007   9.363 -1.0918 -1.4474 -0.5825
 1378SOL    HW215768   3.050   0.070   9.299  0.3934 -0.4424 -3.1221
 1379SOL     OW15769   3.120   1.251   2.899  0.3321  0.3126  0.1979
 1379SOL    HW115770   3.188   1.230   2.836 -0.0193  1.4344 -0.5741
 1379SOL    HW215771   3.071   1.315   2.846 -2.1994 -0.6903  1.3258
 1380SOL     OW15772   4.215   1.250   7.573 -0.2312  0.1325  0.0612
 1380SOL    HW115773   4.239   1.243   7.666 -1.3714 -1.2994  0.2367
 1380SOL    HW215774   4.265   1.177   7.536 -2.0479 -0.2236 -1.6759
 1381SOL     OW15775   1.940   2.813  17.578  0.6869 -0.4055  0.1982
 1381SOL    HW115776   1.899   2.771  17.502 -0.7503 -0.0929  0.7881
 1381SOL    HW215777   1.904   2.902  17.574  2.1592  0.1474 -0.4917
 1382SOL     OW15778   0.538   0.498   2.908  0.2449  0.9315 -0.1517
 1382SOL    HW115779   0.594   0.542   2.973  1.1851 -0.2141 -0.1950
 1382SOL    HW215780   0.603   0.479   2.840 -0.4000 -1.5791 -0.0434
 1383SOL     OW15781   1.692   2.782   8.375 -0.3353 -0.0907 -0.2726
 1383SOL    HW115782   1.698   2.875   8.350 -2.7216 -0.5065 -2.4937
 1383SOL    HW215783   1.741   2.736   8.307  1.4379 -1.0199  1.6461
 1384SOL     OW15784   3.600   2.955  12.162 -0.5954  0.3870  0.2035
 1384SOL    HW115785   3.521   2.964  12.108 -1.2514  0.5613  1.1775
 1384SOL    HW215786   3.566   3.003  12.238 -0.3090 -1.0056  1.2216
 1385SOL     OW15787   2.438   1.640   1.289 -0.2839 -0.3865  0.0951
 1385SOL    HW115788   2.359   1.693   1.285 -1.1254 -1.6482  0.0274
 1385SOL    HW215789   2.404   1.554   1.265 -1.9678  0.1900  0.4614
 1386SOL     OW15790   0.429   4.061   8.513 -0.6554  0.1300  0.2633
 1386SOL    HW115791   0.428   4.155   8.497  1.5373 -0.3423 -2.5734
 1386SOL    HW215792   0.375   4.049   8.591 -1.5887  0.4496 -0.3276
 1387SOL     OW15793   2.411   0.689   8.211 -0.1720  0.0834  0.1578
 1387SOL    HW115794   2.468   0.637   8.268  0.5503  0.0872 -0.5586
 1387SOL    HW215795   2.384   0.752   8.277 -0.9655  0.9272 -0.9691
 1388SOL     OW15796   3.307   2.850  12.657 -0.2817  0.2238 -0.1289
 1388SOL    HW115797   3.259   2.771  12.633  0.9176 -0.5002 -0.1336
 1388SOL    HW215798   3.328   2.822  12.746  1.5845  2.8688  0.2677
 1389SOL     OW15799   0.952   0.988   6.485 -0.5568 -0.1258 -0.2546
 1389SOL    HW115800   1.043   1.014   6.499 -0.6851 -0.5160  1.3007
 1389SOL    HW215801   0.910   1.074   6.481 -2.0237 -0.7427  1.5778
 1390SOL     OW15802   4.435   4.176  10.554 -0.1107 -0.5161  0.1332
 1390SOL    HW115803   4.442   4.113  10.626  0.5797 -2.3754 -1.5628
 1390SOL    HW215804   4.340   4.174  10.540 -0.6948  1.1180  3.7005
 1391SOL     OW15805   3.211   4.332  14.683 -0.4938 -0.2481 -0.2845
 1391SOL    HW115806   3.272   4.396  14.646 -0.4983 -0.8070 -1.2685
 1391SOL    HW215807   3.130   4.355  14.638 -1.3606 -2.2540  0.2695
 1392SOL     OW15808   0.241   2.015   6.144  0.2096 -0.2808 -1.0085
 1392SOL    HW115809   0.213   2.072   6.072 -0.3270  2.0836  1.0911
 1392SOL    HW215810   0.311   1.971   6.097  0.2381  1.0470 -2.2235
 1393SOL     OW15811   2.237   0.517   2.538 -0.0202  0.6131  0.1166
 1393SOL    HW115812   2.307   0.490   2.478  0.1183 -0.5443  0.8060
 1393SOL    HW215813   2.156   0.496   2.491  0.1777 -1.4278  0.6536
 1394SOL     OW15814   1.121   0.400   7.358 -0.0056  0.4324 -0.0402
 1394SOL    HW115815   1.116   0.346   7.437 -0.6330 -0.2282 -0.5352
 1394SOL    HW215816   1.108   0.490   7.390  0.1144  0.4398 -0.0139
 1395SOL     OW15817   1.649   4.485   9.777 -0.0942  0.5453  0.6692
 1395SOL    HW115818   1.567   4.523   9.744  0.8923  1.0922 -1.1705
 1395SOL    HW215819   1.618   4.417   9.837  4.4855  0.7463  3.2211
 1396SOL     OW15820   3.000   0.633   1.852 -0.0998 -0.0758  0.0056
 1396SOL    HW115821   2.952   0.703   1.896  0.9952 -0.0404  1.1543
 1396SOL    HW215822   3.091   0.664   1.852 -0.1892  0.2088 -2.2298
 1397SOL     OW15823   1.825   3.645   4.372  0.1065  0.6808 -0.2854
 1397SOL    HW115824   1.745   3.668   4.325 -0.1397 -0.6961 -0.5519
 1397SOL    HW215825   1.878   3.689   4.306  1.1691  0.4215  0.3997
 1398SOL     OW15826   0.933   1.631   9.955  0.3825  0.0707  0.3391
 1398SOL    HW115827   1.026   1.622   9.978 -0.3690 -2.2085  2.4574
 1398SOL    HW215828   0.903   1.592  10.037 -1.0635 -0.6553 -0.5539
 1399SOL     OW15829   4.545   3.548  17.048  0.5242 -0.4135 -0.2927
 1399SOL    HW115830   4.627   3.501  17.032  0.8150 -0.1333  0.3639
 1399SOL    HW215831   4.477   3.488  17.020  0.2773  0.3090 -1.2160
 1400SOL     OW15832   1.201   4.580   3.349 -0.6807 -0.2790 -0.2475
 1400SOL    HW115833   1.219   4.488   3.368 -1.1066 -0.4973 -0.8984
 1400SOL    HW215834   1.178   4.582   3.256  1.4339 -1.8721 -0.7776
 1401SOL     OW15835   2.460   0.863   3.106 -0.1968  0.5761  0.5985
 1401SOL    HW115836   2.492   0.801   3.042 -2.1603  0.7291 -0.5295
 1401SOL    HW215837   2.545   0.893   3.138  0.3377 -1.5595  1.1411
 1402SOL     OW15838   1.339   3.957   4.041  0.4303 -0.3041  0.5840
 1402SOL    HW115839   1.349   3.998   3.955 -0.0626 -1.4434 -0.0192
 1402SOL    HW215840   1.307   3.870   4.018 -1.7002  1.1799 -2.1094
 1403SOL     OW15841   3.902   0.693   4.831  0.3791 -0.3109  0.1308
 1403SOL    HW115842   3.963   0.658   4.766 -0.8222 -1.7382 -0.2297
 1403SOL    HW215843   3.897   0.783   4.800  3.1759 -0.9021 -1.9934
 1404SOL     OW15844   3.140   3.137   6.663 -0.2747 -0.1461  0.6153
 1404SOL    HW115845   3.159   3.188   6.584 -1.5455 -0.9600 -0.2131
 1404SOL    HW215846   3.150   3.048   6.630  0.5928 -0.0051  0.4809
 1405SOL     OW15847   1.514   0.803   3.996  0.3747 -0.3370  0.2301
 1405SOL    HW115848   1.445   0.866   4.017  0.3448 -0.7616  1.3940
 1405SOL    HW215849   1.473   0.722   3.963 -0.8824  0.7901 -0.9698
 1406SOL     OW15850   3.298   4.122  10.985  0.4012 -0.0990  0.0908
 1406SOL    HW115851   3.239   4.052  11.015  0.0021  0.3249  0.2969
 1406SOL    HW215852   3.227   4.183  10.971 -0.5437 -1.4564 -1.0123
 1407SOL     OW15853   3.869   4.612   1.332 -0.2057 -0.4080 -0.3048
 1407SOL    HW115854   3.783   4.594   1.294  0.6469 -3.2856 -0.8870
 1407SOL    HW215855   3.842   4.598   1.423  2.0619 -1.1899  0.2337
 1408SOL     OW15856   3.749   1.432   4.008  0.1158  0.6352  0.2248
 1408SOL    HW115857   3.712   1.381   4.081 -0.1755 -0.3860 -0.6292
 1408SOL    HW215858   3.733   1.524   4.030  1.9242  1.4813 -2.0188
 1409SOL     OW15859   2.176   4.104  16.431 -0.3043  0.4798 -0.1420
 1409SOL    HW115860   2.232   4.123  16.506  1.5262 -1.4117 -1.0383
 1409SOL    HW215861   2.215   4.152  16.358 -2.6784  1.1309 -0.9880
 1410SOL     OW15862   2.096   1.605   2.036  0.2018  0.1604 -0.0635
 1410SOL    HW115863   2.010   1.602   1.993 -0.0752  2.0344  0.3636
 1410SOL    HW215864   2.075   1.582   2.126 -1.5014 -2.5920 -1.1509
 1411SOL     OW15865   3.796   2.013   3.898  0.0072 -0.1494  0.2582
 1411SOL    HW115866   3.824   1.938   3.845  2.1563 -0.1889  1.4659
 1411SOL    HW215867   3.702   1.999   3.893  0.1783 -1.1649 -0.0363
 1412SOL     OW15868   0.166   3.556   8.527 -0.4731 -0.3704 -0.4971
 1412SOL    HW115869   0.085   3.583   8.571 -1.3139 -2.2233 -0.8780
 1412SOL    HW215870   0.149   3.466   8.554  1.3234 -1.0141 -1.5052
 1413SOL     OW15871   2.729   1.193  11.795 -0.0406  0.0731  0.7090
 1413SOL    HW115872   2.725   1.288  11.797 -0.9970 -0.0549  4.5616
 1413SOL    HW215873   2.669   1.179  11.722 -0.9161  1.3357  1.1851
 1414SOL     OW15874   0.062   2.123   5.932  0.2382  0.5376 -0.0277
 1414SOL    HW115875   0.098   2.198   5.978  0.8747 -1.9844  3.6323
 1414SOL    HW215876   4.724   2.161   5.882  0.6373  2.0822  0.5745
 1415SOL     OW15877   3.174   3.875  13.047  0.3534 -0.3190  0.4074
 1415SOL    HW115878   3.188   3.946  12.984  2.4997 -0.0128  1.2324
 1415SOL    HW215879   3.171   3.928  13.127 -0.2553  0.4690 -0.1482
 1416SOL     OW15880   0.458   0.752   7.769  0.8690 -0.4999  0.1861
 1416SOL    HW115881   0.378   0.701   7.760  0.5862 -0.1869  0.9893
 1416SOL    HW215882   0.513   0.720   7.697  1.0467  1.0367 -0.3505
 1417SOL     OW15883   3.290   3.492  16.491  0.5452 -0.6337  0.3507
 1417SOL    HW115884   3.217   3.449  16.446 -0.7056  1.3928  0.4473
 1417SOL    HW215885   3.246   3.538  16.562 -0.0658 -1.5854  0.5755
 1418SOL     OW15886   3.242   3.934   6.486 -0.4365 -0.3242 -0.1004
 1418SOL    HW115887   3.325   3.981   6.489 -0.5001 -0.2895  0.9315
 1418SOL    HW215888   3.271   3.856   6.532  1.9353 -0.3546 -1.6288
 1419SOL     OW15889   0.563   0.053   7.903  0.1702 -0.2671  0.1387
 1419SOL    HW115890   0.561   4.702   7.947 -1.1851 -0.2221  0.1704
 1419SOL    HW215891   0.481   0.044   7.855  2.2318  0.1237 -3.4669
 1420SOL     OW15892   2.737   1.330   8.874 -0.3331 -0.4030  0.0432
 1420SOL    HW115893   2.720   1.240   8.845  3.3284 -0.9522 -0.4111
 1420SOL    HW215894   2.821   1.326   8.920 -0.1092  0.4719 -0.2813
 1421SOL     OW15895   4.429   1.139  15.811  0.4960 -0.0878 -0.1869
 1421SOL    HW115896   4.390   1.216  15.770  1.8770  0.4666 -0.4577
 1421SOL    HW215897   4.489   1.097  15.750  0.6889 -1.3675  0.8811
 1422SOL     OW15898   0.755   4.374   4.917  0.0518 -0.2429  0.3964
 1422SOL    HW115899   0.664   4.399   4.898 -0.1797  0.0332  1.8563
 1422SOL    HW215900   0.752   4.279   4.905 -1.1211  0.0833 -2.0452
 1423SOL     OW15901   1.997   1.328   2.722 -0.2472  0.1852 -0.3779
 1423SOL    HW115902   2.038   1.307   2.638 -0.6933 -1.3114 -0.2303
 1423SOL    HW215903   2.025   1.254   2.776  1.2845  0.2701 -1.0599
 1424SOL     OW15904   2.517   3.663   4.439 -0.2384 -0.3142 -0.1494
 1424SOL    HW115905   2.583   3.597   4.457 -1.6202 -1.8562 -0.7129
 1424SOL    HW215906   2.518   3.664   4.344  0.6524  0.6471 -0.1280
 1425SOL     OW15907   0.837   2.035  10.691  0.1587  0.1800  0.0544
 1425SOL    HW115908   0.913   2.058  10.638 -1.3292  1.4714 -1.5454
 1425SOL    HW215909   0.863   2.053  10.782  1.6192  1.4310 -0.6110
 1426SOL     OW15910   0.756   1.621   5.908  0.0449 -0.0863 -0.1163
 1426SOL    HW115911   0.708   1.583   5.834 -0.0706 -1.0119  0.4359
 1426SOL    HW215912   0.792   1.695   5.859  1.2086 -1.0039 -0.6449
 1427SOL     OW15913   0.573   1.818   1.709  0.1121 -0.0218 -0.5803
 1427SOL    HW115914   0.504   1.832   1.774 -1.6597 -0.0253 -2.4540
 1427SOL    HW215915   0.587   1.725   1.725  1.0133  0.2892  0.4007
 1428SOL     OW15916   3.367   2.456  10.345  0.1903  0.2177  0.0536
 1428SOL    HW115917   3.279   2.493  10.351 -0.3998 -1.3245  0.7436
 1428SOL    HW215918   3.350   2.364  10.364  1.4625  0.3289  1.7535
 1429SOL     OW15919   1.238   3.829   8.570  0.2961 -0.4032  0.2229
 1429SOL    HW115920   1.321   3.782   8.581 -0.3458 -1.8785 -1.2275
 1429SOL    HW215921   1.273   3.916   8.547  0.5660 -0.5394  0.1108
 1430SOL     OW15922   2.204   1.947   2.636 -0.2283  0.1757 -0.2161
 1430SOL    HW115923   2.207   2.013   2.567 -0.4926 -0.0053 -0.4005
 1430SOL    HW215924   2.203   2.008   2.711  1.8531 -1.9391  1.5256
 1431SOL     OW15925   4.637   1.115  13.065 -0.0299  0.1867 -0.3355
 1431SOL    HW115926   4.575   1.152  13.128 -1.2889 -1.8776 -0.3898
 1431SOL    HW215927   4.579   1.083  12.996  0.6534 -0.4465 -0.6280
 1432SOL     OW15928   3.427   3.102   9.293  0.5925 -0.2480  0.3826
 1432SOL    HW115929   3.432   3.098   9.389  1.2478 -1.1686  0.3023
 1432SOL    HW215930   3.504   3.154   9.270  0.9518 -1.7002 -1.6893
 1433SOL     OW15931   3.308   2.470  14.145  0.6384  0.3596 -0.5529
 1433SOL    HW115932   3.246   2.426  14.203 -0.3155  3.1764  0.5546
 1433SOL    HW215933   3.288   2.555  14.184  1.2101  0.7707 -1.1599
 1434SOL     OW15934   1.684   3.970  14.710  0.4342 -0.0151  0.2157
 1434SOL    HW115935   1.590   3.958  14.697  0.5816 -1.3534  0.3114
 1434SOL    HW215936   1.688   4.065  14.712 -1.3953  0.0334  1.6851
 1435SOL     OW15937   2.271   3.237   0.695  0.4288  0.4088 -0.3115
 1435SOL    HW115938   2.200   3.237   0.759  0.9799  1.2196  0.3199
 1435SOL    HW215939   2.337   3.186   0.742 -0.3452 -1.6830 -1.5184
 1436SOL     OW15940   4.412   0.116  17.679  0.8069  0.5093  0.3029
 1436SOL    HW115941   4.446   0.029  17.657  0.5707  0.7184 -0.8969
 1436SOL    HW215942   4.464   0.130   0.022  0.5450 -0.7072  0.7020
 1437SOL     OW15943   1.368   1.922   2.302  0.1225  0.6786  0.0609
 1437SOL    HW115944   1.408   1.842   2.336 -2.1475 -1.8473 -3.1287
 1437SOL    HW215945   1.308   1.939   2.375 -2.0981 -0.7885 -1.4154
 1438SOL     OW15946   1.874   4.553   5.242 -0.3573 -0.0155 -0.0797
 1438SOL    HW115947   1.862   4.463   5.274  0.2120  0.2684  0.9348
 1438SOL    HW215948   1.800   4.544   5.183  0.7721 -3.6865 -0.9447
 1439SOL     OW15949   4.636   2.923   8.848 -0.2227  0.1205 -0.2151
 1439SOL    HW115950   4.713   2.947   8.797  1.1909 -1.1559  1.2849
 1439SOL    HW215951   4.680   2.917   8.933  0.6845  1.2902 -0.6160
 1440SOL     OW15952   0.772   0.069  10.019  0.4237 -0.3794 -0.0806
 1440SOL    HW115953   0.820   4.724  10.043  2.3125  1.2291  1.4426
 1440SOL    HW215954   0.770   0.110  10.106 -2.0426 -0.6366 -0.0110
 1441SOL     OW15955   3.804   0.995   2.429 -0.0720  0.0039  0.0710
 1441SOL    HW115956   3.846   1.079   2.412  0.6298 -0.4245 -0.2904
 1441SOL    HW215957   3.860   0.927   2.390  1.2110 -0.6935  3.1073
 1442SOL     OW15958   0.892   4.142   0.377  0.0044  0.3975 -0.0605
 1442SOL    HW115959   0.823   4.188   0.330 -1.9035 -0.1810  2.1873
 1442SOL    HW215960   0.952   4.153   0.303  2.0082 -0.7849  1.3912
 1443SOL     OW15961   4.203   3.840   3.522 -0.0712 -0.0280 -0.0221
 1443SOL    HW115962   4.288   3.800   3.542 -0.4473 -0.4782  0.6800
 1443SOL    HW215963   4.187   3.872   3.611  1.6635  1.5325 -0.2787
 1444SOL     OW15964   2.226   1.655   7.431  0.4708  0.0343 -0.3948
 1444SOL    HW115965   2.306   1.606   7.449 -1.1050 -1.2893  2.9690
 1444SOL    HW215966   2.235   1.732   7.487  0.7832 -1.2121  1.2657
 1445SOL     OW15967   3.083   2.905   3.716  0.9297  0.6835  0.6499
 1445SOL    HW115968   3.005   2.850   3.724  1.6564 -0.3494  0.5865
 1445SOL    HW215969   3.042   2.984   3.681  3.2464  2.1716  1.3501
 1446SOL     OW15970   3.961   0.967   5.963  0.6452  0.3682  0.0342
 1446SOL    HW115971   4.021   1.038   5.941  1.1740 -0.0356  0.1872
 1446SOL    HW215972   3.870   0.992   5.948 -0.3821 -3.3943 -0.2300
 1447SOL     OW15973   2.414   0.209   6.282 -0.1393  0.4801 -0.2516
 1447SOL    HW115974   2.364   0.285   6.314 -1.6414 -0.6706  0.1506
 1447SOL    HW215975   2.363   0.141   6.325 -1.0560  1.2373 -0.1276
 1448SOL     OW15976   1.026   4.607  10.759  0.0825 -0.0327  0.2562
 1448SOL    HW115977   0.959   4.546  10.727  1.1073 -0.3193 -1.3385
 1448SOL    HW215978   1.084   4.609  10.683  0.1413 -1.8778  0.2514
 1449SOL     OW15979   0.686   2.310   4.355 -0.1239  0.1766  0.0178
 1449SOL    HW115980   0.774   2.331   4.386 -0.1629 -1.3049  1.1421
 1449SOL    HW215981   0.630   2.343   4.426 -0.2806  1.2905 -0.6245
 1450SOL     OW15982   3.157   1.122  14.871  0.6517 -0.5525 -0.7348
 1450SOL    HW115983   3.062   1.133  14.880  0.6509 -0.8805 -0.3444
 1450SOL    HW215984   3.180   1.029  14.870  0.6333 -0.5421 -1.9978
 1451SOL     OW15985   2.493   3.787  15.410 -0.6686 -0.1638 -0.5928
 1451SOL    HW115986   2.554   3.740  15.466  0.1896  2.0582  0.3307
 1451SOL    HW215987   2.532   3.874  15.397 -1.3558  0.4164  1.3461
 1452SOL     OW15988   4.607   0.375   8.618  0.8286  0.1661 -0.0196
 1452SOL    HW115989   4.669   0.438   8.582 -0.6629  0.2874 -2.3844
 1452SOL    HW215990   4.573   0.415   8.699 -2.1505 -1.0585 -0.6380
 1453SOL     OW15991   1.731   2.521  16.736 -0.1133 -0.4119 -0.5081
 1453SOL    HW115992   1.745   2.436  16.693 -0.9937 -0.9583  0.2769
 1453SOL    HW215993   1.662   2.494  16.797 -0.1650  2.5623  0.7576
 1454SOL     OW15994   4.646   2.333   3.480  0.0581 -0.3604 -0.1641
 1454SOL    HW115995   4.640   2.266   3.548  1.3656  0.4120  0.7046
 1454SOL    HW215996   4.562   2.379   3.482 -0.0796 -0.5823 -0.7509
 1455SOL     OW15997   4.169   0.129   1.839  0.4762 -0.2218  0.4409
 1455SOL    HW115998   4.238   0.133   1.772  0.2858  2.5396  0.3986
 1455SOL    HW215999   4.174   0.220   1.869 -0.8958  0.2214 -0.6607
 1456SOL     OW16000   1.301   4.112   8.585  0.2668 -0.2220 -0.0784
 1456SOL    HW116001   1.311   4.142   8.495 -0.3179  1.3565  0.3778
 1456SOL    HW216002   1.377   4.057   8.605  0.8498  0.9771  1.0270
 1457SOL     OW16003   1.604   3.243   6.551 -0.3358 -0.5661  0.3476
 1457SOL    HW116004   1.655   3.245   6.632 -0.8642  1.2867  0.6357
 1457SOL    HW216005   1.637   3.154   6.537  2.4474  0.2746  1.6543
 1458SOL     OW16006   4.011   1.623  13.231 -0.1430 -0.5368  0.1674
 1458SOL    HW116007   3.996   1.599  13.139  0.4053  0.8289 -0.2730
 1458SOL    HW216008   3.925   1.590  13.257 -0.0807 -0.0766  0.9500
 1459SOL     OW16009   3.338   4.586  10.473 -0.1183  0.4958 -0.1550
 1459SOL    HW116010   3.424   4.558  10.504  0.0871 -1.0909 -2.1799
 1459SOL    HW216011   3.351   4.616  10.383 -1.2567  0.3571 -0.3640
 1460SOL     OW16012   4.349   3.815   8.223 -0.1859 -0.0346 -0.1832
 1460SOL    HW116013   4.437   3.811   8.261 -1.3128 -0.7510  2.3181
 1460SOL    HW216014   4.348   3.906   8.193 -0.1736 -0.0276 -0.1620
 1461SOL     OW16015   1.423   0.621  13.178  0.9175 -0.1378 -0.9578
 1461SOL    HW116016   1.338   0.596  13.144  0.0406  2.2914 -0.5449
 1461SOL    HW216017   1.452   0.538  13.216 -0.0414  0.8247  1.8932
 1462SOL     OW16018   2.447   0.859  13.608  0.2802  0.5807 -0.2052
 1462SOL    HW116019   2.541   0.879  13.611 -0.4558  3.8466  0.4273
 1462SOL    HW216020   2.442   0.772  13.648 -0.6283  0.8395  0.2471
 1463SOL     OW16021   1.697   4.207   3.935  0.2726 -0.6975 -0.5103
 1463SOL    HW116022   1.690   4.115   3.960  0.0320 -0.3699  0.6392
 1463SOL    HW216023   1.789   4.213   3.911 -0.0044 -1.5829 -1.8223
 1464SOL     OW16024   1.828   2.676   8.141 -0.8306 -0.1809 -0.2042
 1464SOL    HW116025   1.869   2.761   8.125  0.7254 -0.3372  3.1049
 1464SOL    HW216026   1.742   2.679   8.097 -0.8791 -0.1167 -0.1041
 1465SOL     OW16027   3.949   3.622  17.161 -0.3305 -0.3825  0.2376
 1465SOL    HW116028   3.953   3.618  17.065  0.2371  1.6824  0.1647
 1465SOL    HW216029   3.870   3.571  17.175  0.3072 -1.7064 -0.9947
 1466SOL     OW16030   2.134   2.908   1.167 -0.0095 -0.5903 -0.5026
 1466SOL    HW116031   2.176   2.875   1.246 -3.2860 -0.7016  1.1849
 1466SOL    HW216032   2.190   2.980   1.139 -0.5271  0.9674  2.5616
 1467SOL     OW16033   4.015   0.900  13.292  0.2276  0.1536  0.2193
 1467SOL    HW116034   3.991   0.988  13.322  1.9776  0.2419  1.3509
 1467SOL    HW216035   3.982   0.856  13.371  1.4705 -1.8310 -0.3880
 1468SOL     OW16036   0.595   4.367  16.871  0.4328  0.6988 -0.1544
 1468SOL    HW116037   0.517   4.405  16.830 -1.3465 -1.9273  0.8173
 1468SOL    HW216038   0.557   4.299  16.926  0.6562  1.8234  1.3773
 1469SOL     OW16039   3.343   4.284   8.460  0.0152  0.9779  0.1444
 1469SOL    HW116040   3.394   4.357   8.496  1.6056  0.3136 -0.7856
 1469SOL    HW216041   3.263   4.287   8.513 -0.1142 -1.5536  0.0902
 1470SOL     OW16042   1.907   0.364  14.964 -0.1916 -0.3054  0.2230
 1470SOL    HW116043   1.960   0.393  15.038 -3.4111 -0.4015  2.5685
 1470SOL    HW216044   1.897   0.445  14.915 -2.6609  1.1994  3.2101
 1471SOL     OW16045   1.851   1.438  10.483 -0.0005  0.2392 -0.0232
 1471SOL    HW116046   1.912   1.497  10.527 -0.0148 -0.6294  1.1464
 1471SOL    HW216047   1.850   1.475  10.394  0.7145  2.2353  0.8101
 1472SOL     OW16048   0.217   0.083  14.351 -1.0469 -0.8981 -0.0187
 1472SOL    HW116049   0.206   0.022  14.278  0.0111 -1.2155  0.0979
 1472SOL    HW216050   0.236   0.162  14.300  0.2540 -0.8367  0.5750
 1473SOL     OW16051   0.253   1.540  17.529 -0.6463 -0.1246 -0.3145
 1473SOL    HW116052   0.263   1.520  17.436 -2.1114  0.1631 -0.5322
 1473SOL    HW216053   0.177   1.486  17.553 -1.0828  0.2180 -0.9487
 1474SOL     OW16054   0.631   2.595   6.184 -0.3093 -0.2460 -0.0909
 1474SOL    HW116055   0.608   2.591   6.092  0.1297  3.5427 -0.3572
 1474SOL    HW216056   0.726   2.607   6.176 -0.5317  0.7316 -1.1326
 1475SOL     OW16057   1.812   1.936  11.934  0.6944  0.3601  0.0381
 1475SOL    HW116058   1.776   2.023  11.919 -2.8893 -1.2373 -0.6838
 1475SOL    HW216059   1.859   1.952  12.015  0.9251 -2.3524  0.4600
 1476SOL     OW16060   0.813   0.595  16.131 -0.1478  0.9195 -0.8746
 1476SOL    HW116061   0.751   0.523  16.124 -0.1066  0.7186  0.9373
 1476SOL    HW216062   0.862   0.575  16.051 -1.6275 -2.7698 -0.8336
 1477SOL     OW16063   2.137   3.655   0.821 -0.0423 -0.1431 -0.1585
 1477SOL    HW116064   2.225   3.672   0.854 -0.4964  1.4640  0.2334
 1477SOL    HW216065   2.095   3.687   0.901 -0.8834 -1.7201  0.0392
 1478SOL     OW16066   4.163   1.978   9.711 -0.2614 -0.3178  0.4325
 1478SOL    HW116067   4.208   1.907   9.665  2.3502  0.8038  1.2007
 1478SOL    HW216068   4.202   1.986   9.798  1.6887  1.1214 -0.5588
 1479SOL     OW16069   3.088   2.137   9.639  0.0270  0.5056 -0.3127
 1479SOL    HW116070   3.153   2.092   9.585 -0.0012  0.9178 -0.6946
 1479SOL    HW216071   3.090   2.084   9.719 -0.4788  0.4032 -0.3694
 1480SOL     OW16072   4.226   1.290   0.371  0.0514  0.3101  0.0534
 1480SOL    HW116073   4.284   1.262   0.300 -1.9862 -2.4793 -0.4797
 1480SOL    HW216074   4.256   1.229   0.439  0.9321  2.8425  1.9774
 1481SOL     OW16075   2.087   3.874   7.789  0.6883  0.1121  0.1586
 1481SOL    HW116076   2.050   3.872   7.877 -0.0953  0.7638 -0.1570
 1481SOL    HW216077   2.036   3.812   7.738 -1.3741  0.3259  1.9799
 1482SOL     OW16078   4.279   4.437   6.196  0.1185 -0.7316 -0.6143
 1482SOL    HW116079   4.276   4.532   6.211  1.5931 -0.5645 -1.3657
 1482SOL    HW216080   4.370   4.414   6.214 -0.2441  0.5389  2.8512
 1483SOL     OW16081   3.649   0.969   5.070 -0.5649  0.2338 -0.4911
 1483SOL    HW116082   3.569   0.983   5.019 -1.0366  0.8662  0.4049
 1483SOL    HW216083   3.697   1.049   5.047 -0.1153  1.3555  4.2770
 1484SOL     OW16084   0.740   4.734   4.242 -0.1771  0.0740  0.3334
 1484SOL    HW116085   0.791   4.655   4.225 -1.8085  0.0281 -4.3495
 1484SOL    HW216086   0.810   0.046   4.288  0.6697 -2.1284  1.2570
 1485SOL     OW16087   1.833   1.185  17.392 -0.1480  0.5423 -0.5179
 1485SOL    HW116088   1.824   1.167  17.485 -0.2075  0.2928 -0.5725
 1485SOL    HW216089   1.863   1.275  17.403  0.5162 -0.0185  2.1861
 1486SOL     OW16090   2.058   0.126   9.653  0.0728  0.4171  0.1907
 1486SOL    HW116091   2.105   0.095   9.730  1.1577  0.7879 -0.3336
 1486SOL    HW216092   1.970   0.089   9.663  0.0175  0.5287  0.1228
 1487SOL     OW16093   2.277   1.086  13.550 -0.3660  0.0959  0.2610
 1487SOL    HW116094   2.299   1.122  13.464  0.0665 -1.1665 -0.1578
 1487SOL    HW216095   2.327   1.006  13.564  0.5100  0.5510 -0.2629
 1488SOL     OW16096   3.837   4.234   6.562  0.1574 -0.0952 -0.6630
 1488SOL    HW116097   3.773   4.205   6.628  2.0908  0.2143  1.3290
 1488SOL    HW216098   3.780   4.228   6.485  1.4662  1.3090 -1.7207
 1489SOL     OW16099   2.692   1.593  14.670  0.0256  0.0581  0.0947
 1489SOL    HW116100   2.718   1.668  14.616 -1.6219  0.0917 -0.6621
 1489SOL    HW216101   2.636   1.556  14.602  1.1024 -1.7484  0.2107
 1490SOL     OW16102   0.049   0.652  12.219  0.4139  0.6588 -0.1440
 1490SOL    HW116103   0.045   0.563  12.254 -1.3576  0.5993 -0.5110
 1490SOL    HW216104   0.062   0.692  12.305 -1.2207  2.7750 -0.8731
 1491SOL     OW16105   4.001   1.546  15.435  0.1307 -0.0049 -0.2347
 1491SOL    HW116106   4.009   1.569  15.528  1.7641  1.0976 -0.6432
 1491SOL    HW216107   4.042   1.623  15.395 -0.6633  0.2611 -0.5391
 1492SOL     OW16108   3.656   1.960   4.165  0.2293 -0.3204 -0.3628
 1492SOL    HW116109   3.575   1.950   4.216 -0.4397  0.1839 -1.3118
 1492SOL    HW216110   3.624   2.010   4.090  2.3554  0.2052 -0.9062
 1493SOL     OW16111   0.580   2.081  16.247 -0.3512  0.1851 -0.6590
 1493SOL    HW116112   0.504   2.088  16.305  0.0367  0.9733 -0.2475
 1493SOL    HW216113   0.530   2.106  16.170  0.7996  0.5244 -1.2866
 1494SOL     OW16114   2.483   3.751   1.975  0.6773  0.2624 -0.3330
 1494SOL    HW116115   2.403   3.741   1.923  1.5467  0.2011 -1.6711
 1494SOL    HW216116   2.462   3.817   2.041 -1.7681  1.2424 -2.0509
 1495SOL     OW16117   0.434   3.536  10.439 -0.4493 -0.6456 -0.1181
 1495SOL    HW116118   0.482   3.588  10.374 -0.6809 -0.7911 -0.4030
 1495SOL    HW216119   0.362   3.524  10.377 -0.8702  0.2362  0.1955
 1496SOL     OW16120   3.891   3.557  13.509  0.3351  0.4974 -0.0189
 1496SOL    HW116121   3.886   3.649  13.536  2.5460  0.4108  0.7008
 1496SOL    HW216122   3.913   3.554  13.416 -1.1426  0.0597 -0.3486
 1497SOL     OW16123   2.508   4.606   4.426  0.3569 -0.0731 -0.7501
 1497SOL    HW116124   2.482   4.691   4.392 -0.1038  0.5107  1.0820
 1497SOL    HW216125   2.573   4.625   4.493 -1.5888  1.5786  0.6680
 1498SOL     OW16126   0.792   1.641  13.704  0.1558 -0.8052  0.2065
 1498SOL    HW116127   0.773   1.595  13.785 -0.4624 -2.2612 -0.7700
 1498SOL    HW216128   0.875   1.684  13.726 -1.0615 -0.2011  3.5751
 1499SOL     OW16129   2.384   1.550   9.288 -0.1086  0.3715 -0.2533
 1499SOL    HW116130   2.419   1.638   9.298  2.1085 -0.6542  1.1909
 1499SOL    HW216131   2.337   1.550   9.371  2.9359 -0.0402  1.4811
 1500SOL     OW16132   1.598   4.508   7.662  0.0416 -0.3370 -0.0137
 1500SOL    HW116133   1.645   4.557   7.595  0.5121 -2.4924 -1.2766
 1500SOL    HW216134   1.636   4.552   7.738 -0.9969 -1.7261  1.3181
 1501SOL     OW16135   1.746   0.190  14.159  0.2603 -0.6413  0.3418
 1501SOL    HW116136   1.839   0.178  14.174  0.5553  0.1778 -0.8622
 1501SOL    HW216137   1.723   0.270  14.207  0.1962  0.1119 -0.9484
 1502SOL     OW16138   4.407   2.996   4.474  0.1667  0.4567  0.0459
 1502SOL    HW116139   4.465   2.933   4.518  0.7919  0.7674 -0.3285
 1502SOL    HW216140   4.468   3.069   4.482  2.0649 -1.2199  0.8354
 1503SOL     OW16141   2.198   2.914   6.454 -0.1856 -0.0367  0.2861
 1503SOL    HW116142   2.271   2.879   6.505  0.4620 -0.0053 -0.6130
 1503SOL    HW216143   2.253   2.982   6.417  1.2439 -1.9500 -1.1085
 1504SOL     OW16144   2.597   4.149   4.302  0.3751 -0.2817  0.0592
 1504SOL    HW116145   2.575   4.234   4.262  0.5706  0.3830  1.3520
 1504SOL    HW216146   2.534   4.143   4.374  1.1126  0.0491  0.7293
 1505SOL     OW16147   1.094   0.743   5.906  0.2260  0.0118  0.0938
 1505SOL    HW116148   1.133   0.756   5.819 -0.9641  3.0441 -0.0085
 1505SOL    HW216149   1.158   0.688   5.950  0.7952  0.0659 -0.6639
 1506SOL     OW16150   2.203   0.121   8.535 -0.5200 -0.1196  0.5571
 1506SOL    HW116151   2.268   0.074   8.587 -0.9544 -2.4116 -0.9453
 1506SOL    HW216152   2.259   0.175   8.480 -1.2235 -0.3730 -0.4190
 1507SOL     OW16153   0.533   4.513   8.006 -0.3593 -0.5749 -0.0586
 1507SOL    HW116154   0.455   4.531   8.058 -1.3269 -2.4688 -0.8622
 1507SOL    HW216155   0.588   4.479   8.077 -0.6161  0.3327  0.5696
 1508SOL     OW16156   2.228   2.639   3.853 -0.1053  0.0645  0.2923
 1508SOL    HW116157   2.245   2.702   3.922  0.5810 -0.4687  0.6157
 1508SOL    HW216158   2.264   2.677   3.773 -1.5679  0.7030 -0.0551
 1509SOL     OW16159   3.780   3.894  14.245 -0.3296  0.2240  0.6741
 1509SOL    HW116160   3.792   3.889  14.340 -0.8625 -0.4491  0.7037
 1509SOL    HW216161   3.825   3.978  14.237  2.6472 -1.3651  0.4410
 1510SOL     OW16162   1.848   2.018   8.319 -0.2532  0.7725  0.6391
 1510SOL    HW116163   1.778   1.959   8.292  1.0091  0.7199 -2.4954
 1510SOL    HW216164   1.900   1.968   8.382  0.6609  0.3417 -0.4756
 1511SOL     OW16165   3.774   3.943   6.219 -0.4855  0.0494 -0.0830
 1511SOL    HW116166   3.719   4.019   6.241  0.6384  0.7385  0.3225
 1511SOL    HW216167   3.708   3.878   6.196 -1.3177  0.6312  0.6361
 1512SOL     OW16168   1.256   2.975   8.981 -0.0811  0.3240  0.3562
 1512SOL    HW116169   1.323   3.034   8.948 -1.9542  1.8737 -0.6841
 1512SOL    HW216170   1.244   2.919   8.905 -0.6210 -0.7325  1.2139
 1513SOL     OW16171   1.674   1.074   9.769  0.1631 -0.0319  0.7317
 1513SOL    HW116172   1.639   1.029   9.693 -0.2312  1.4179  0.0473
 1513SOL    HW216173   1.716   1.148   9.724 -0.0232 -1.2027 -1.3207
 1514SOL     OW16174   4.349   1.926   7.165  0.3633 -0.4983 -0.7646
 1514SOL    HW116175   4.396   1.961   7.089  1.3576  1.1129  0.6067
 1514SOL    HW216176   4.284   1.873   7.120  0.1225 -3.6667  3.3660
 1515SOL     OW16177   4.551   3.153   0.102  0.3053 -0.0191  0.0603
 1515SOL    HW116178   4.555   3.223   0.036  0.4179 -2.5900 -2.6501
 1515SOL    HW216179   4.459   3.135   0.121  0.6653 -1.0811  0.8008
 1516SOL     OW16180   1.569   4.443   4.240 -0.0471  0.1857 -0.0320
 1516SOL    HW116181   1.655   4.404   4.226  1.2389  2.4251  1.5791
 1516SOL    HW216182   1.519   4.364   4.259  3.5853 -1.5955  1.9725
 1517SOL     OW16183   1.580   2.169  13.792  0.4805 -0.0815 -0.6013
 1517SOL    HW116184   1.644   2.162  13.721  1.7732  0.5496  0.4934
 1517SOL    HW216185   1.629   2.237  13.838 -0.7485  1.3445 -1.3665
 1518SOL     OW16186   1.807   0.349  13.435  0.1248  0.5899 -0.1622
 1518SOL    HW116187   1.858   0.271  13.412 -0.6349  0.5789 -1.8217
 1518SOL    HW216188   1.758   0.316  13.510 -0.7645  0.3233 -0.8478
 1519SOL     OW16189   1.360   0.488   9.014 -0.7425  0.1515  0.3311
 1519SOL    HW116190   1.365   0.492   9.109 -2.3225 -0.6616  0.4472
 1519SOL    HW216191   1.276   0.530   8.998  0.0133  1.6108  0.1597
 1520SOL     OW16192   4.211   1.312  12.499 -0.5061 -0.0431  0.2023
 1520SOL    HW116193   4.129   1.282  12.459 -0.8901 -0.5431  1.3613
 1520SOL    HW216194   4.269   1.324  12.424  0.8226 -0.3847  1.1742
 1521SOL     OW16195   2.781   2.866   2.268  0.0989  0.2780 -0.5622
 1521SOL    HW116196   2.789   2.771   2.262  2.2641  0.5112 -1.5807
 1521SOL    HW216197   2.816   2.896   2.184 -1.3888 -0.2956 -1.3656
 1522SOL     OW16198   2.404   3.586   6.989  0.2891  0.0430 -0.2428
 1522SOL    HW116199   2.329   3.527   6.995  0.2366  0.2217  0.8616
 1522SOL    HW216200   2.419   3.606   6.896  2.5109 -2.9773 -0.5408
 1523SOL     OW16201   2.874   2.106  13.897  0.0996  0.4828  0.0052
 1523SOL    HW116202   2.905   2.166  13.829  0.8689  0.5804  0.4366
 1523SOL    HW216203   2.791   2.076  13.860 -0.0242  0.2224  0.4901
 1524SOL     OW16204   1.848   4.320   7.620  0.5197  0.0823 -0.3141
 1524SOL    HW116205   1.766   4.301   7.575  0.4747 -2.7308  0.9325
 1524SOL    HW216206   1.872   4.405   7.583 -1.9027 -0.0848 -2.3064
 1525SOL     OW16207   4.237   1.438   5.598  0.2872  0.6610 -0.4882
 1525SOL    HW116208   4.264   1.362   5.651  2.6168  1.2040 -0.9054
 1525SOL    HW216209   4.189   1.389   5.531 -0.2089 -1.7689  1.6233
 1526SOL     OW16210   2.079   2.675   7.121 -0.1678 -0.2975  0.4424
 1526SOL    HW116211   2.012   2.715   7.175  0.1485  0.2758  0.4068
 1526SOL    HW216212   2.025   2.614   7.071  1.5740 -0.8574 -0.7815
 1527SOL     OW16213   2.156   0.340   2.235 -0.6587  0.8794 -0.2353
 1527SOL    HW116214   2.215   0.412   2.211  1.4709 -0.5107  0.8802
 1527SOL    HW216215   2.188   0.276   2.171 -0.5265  1.2659 -0.5615
 1528SOL     OW16216   2.047   4.061   5.878 -0.6034  0.1788  0.0745
 1528SOL    HW116217   2.020   3.993   5.816 -1.3329  2.4078 -2.0557
 1528SOL    HW216218   2.046   4.136   5.819 -0.7330  1.0028  1.1313
 1529SOL     OW16219   0.282   3.850   2.415  0.3069 -0.1307 -0.5250
 1529SOL    HW116220   0.223   3.873   2.486  0.1587  0.7281 -0.9248
 1529SOL    HW216221   0.357   3.891   2.459 -0.4219  0.5702  0.0404
 1530SOL     OW16222   4.074   0.494   5.986  0.4191 -0.2267  0.1251
 1530SOL    HW116223   4.134   0.561   5.954 -0.4474  1.1397  1.3973
 1530SOL    HW216224   4.130   0.426   6.024  0.5359 -1.4770 -2.2988
 1531SOL     OW16225   3.357   2.992  12.043  0.1333  0.0094 -0.5306
 1531SOL    HW116226   3.335   3.074  11.997 -0.9052  0.1738  0.2569
 1531SOL    HW216227   3.283   2.932  12.033 -0.1959  0.0563  1.6764
 1532SOL     OW16228   1.507   1.068   3.510 -0.0904  0.2385  0.3967
 1532SOL    HW116229   1.505   1.017   3.429 -0.3651 -1.6585  1.5914
 1532SOL    HW216230   1.442   1.018   3.559 -0.7725  0.0345 -0.7126
 1533SOL     OW16231   0.407   2.778   5.262 -0.2124 -0.0178 -0.0614
 1533SOL    HW116232   0.390   2.872   5.266 -0.3450 -0.0432 -0.0169
 1533SOL    HW216233   0.350   2.755   5.189 -3.3255 -1.1505  2.7348
 1534SOL     OW16234   2.896   1.458  15.896  0.3814  0.4904 -0.2284
 1534SOL    HW116235   2.832   1.517  15.855  1.0451  0.8873 -0.6870
 1534SOL    HW216236   2.937   1.431  15.814  0.1242 -1.2577  0.2176
 1535SOL     OW16237   4.652   0.559   3.639 -0.6343 -0.0330 -0.2068
 1535SOL    HW116238   4.655   0.574   3.734  2.9424  2.0403 -0.6432
 1535SOL    HW216239   4.629   0.645   3.605 -2.6445 -0.1789  0.7910
 1536SOL     OW16240   1.694   0.211   4.271  0.1686 -0.0582  0.1361
 1536SOL    HW116241   1.690   0.168   4.186 -0.2095 -2.5903  1.4178
 1536SOL    HW216242   1.787   0.203   4.292  0.4297  0.3798 -0.9184
 1537SOL     OW16243   2.756   2.720   2.596  0.6828  0.0206 -0.2785
 1537SOL    HW116244   2.813   2.660   2.549  0.2655  0.2916 -1.1283
 1537SOL    HW216245   2.699   2.663   2.647 -0.5787  0.0590 -1.6466
 1538SOL     OW16246   3.109   4.375   3.692  0.5017 -0.1142  0.1362
 1538SOL    HW116247   3.131   4.462   3.725  0.9489  0.0838 -0.7072
 1538SOL    HW216248   3.110   4.340   3.782 -3.1504  0.3088  0.3435
 1539SOL     OW16249   1.010   3.061   4.949  0.2808 -0.2006  0.5000
 1539SOL    HW116250   1.066   3.128   4.989 -1.5112  1.4876  0.1990
 1539SOL    HW216251   0.975   3.006   5.019 -0.3098 -0.2193  0.1893
 1540SOL     OW16252   4.648   4.647   3.793  0.0250 -0.3326  0.4904
 1540SOL    HW116253   4.686   4.625   3.878 -1.3224 -0.0350  1.1744
 1540SOL    HW216254   4.605   4.727   3.823  3.2357  1.4962  0.2143
 1541SOL     OW16255   4.660   4.262   3.225 -0.5888 -0.2176 -0.4467
 1541SOL    HW116256   4.728   4.299   3.169 -0.5197 -0.4443 -0.5093
 1541SOL    HW216257   4.601   4.336   3.240 -1.7883 -0.9802 -1.5125
 1542SOL     OW16258   1.438   2.300   2.468  0.1931 -0.0219  1.1440
 1542SOL    HW116259   1.397   2.218   2.493 -0.2354  0.5071  2.1694
 1542SOL    HW216260   1.460   2.338   2.553  0.9189  0.5595  0.7003
 1543SOL     OW16261   3.491   0.155   5.901 -0.4200 -0.0672 -0.9221
 1543SOL    HW116262   3.572   0.162   5.952 -0.6019 -0.5717 -0.5715
 1543SOL    HW216263   3.521   0.091   5.837  1.5603  0.5946 -0.6647
 1544SOL     OW16264   1.697   1.105   5.541  0.1618 -0.0461 -0.2923
 1544SOL    HW116265   1.765   1.158   5.582 -1.3505  0.7357  1.2063
 1544SOL    HW216266   1.741   1.067   5.465 -1.8668  0.7024 -1.8598
 1545SOL     OW16267   0.978   0.976   8.721 -0.2239  0.0859  0.3119
 1545SOL    HW116268   0.974   1.071   8.727  1.6535 -0.0285  3.3872
 1545SOL    HW216269   0.937   0.967   8.635 -0.6392  0.5108  0.4684
 1546SOL     OW16270   3.374   3.058  16.614 -1.0922  0.3546  0.1601
 1546SOL    HW116271   3.294   3.091  16.573 -0.3009 -0.9411 -2.4781
 1546SOL    HW216272   3.431   3.135  16.612 -1.5751  0.7257  0.8165
 1547SOL     OW16273   2.943   4.696  15.672  0.3998  0.8651  0.4877
 1547SOL    HW116274   2.929   0.050  15.707  0.0785  0.2504  1.9116
 1547SOL    HW216275   2.990   4.668  15.750 -2.2194  0.5678  1.9450
 1548SOL     OW16276   2.709   2.007  17.358 -0.0242 -0.2716 -0.4217
 1548SOL    HW116277   2.748   2.091  17.334  0.0912 -0.5080 -1.0442
 1548SOL    HW216278   2.777   1.945  17.333 -0.2138 -0.3843 -0.6565
 1549SOL     OW16279   0.345   0.909  11.816 -0.0235  0.4058  0.4194
 1549SOL    HW116280   0.373   0.894  11.906 -1.4428 -1.3971  0.5709
 1549SOL    HW216281   0.250   0.908  11.822 -0.0017  2.3692  0.9818
 1550SOL     OW16282   1.887   0.864   4.084  0.1634 -0.2431 -0.1368
 1550SOL    HW116283   1.939   0.866   4.004 -1.1045 -0.5939 -0.9608
 1550SOL    HW216284   1.822   0.796   4.066  2.0357 -1.2272 -3.1501
 1551SOL     OW16285   3.437   4.158  12.519  0.5620 -0.3054  0.8031
 1551SOL    HW116286   3.427   4.063  12.508 -0.4564 -0.1150  0.1588
 1551SOL    HW216287   3.346   4.186  12.509  0.8553  0.4691  0.3499
 1552SOL     OW16288   4.692   1.849   5.097  0.1397 -0.1830 -0.3007
 1552SOL    HW116289   0.043   1.809   5.084 -1.0971 -2.9214 -0.1394
 1552SOL    HW216290   4.640   1.802   5.031 -1.3579  2.5362 -1.0637
 1553SOL     OW16291   0.078   3.966   2.139  0.2700  0.4638  0.2595
 1553SOL    HW116292   0.034   4.016   2.070 -0.8556 -0.4170  0.3429
 1553SOL    HW216293   0.040   4.009   2.215 -0.9379 -1.6867  0.8610
 1554SOL     OW16294   2.674   3.160   4.557 -0.7108 -0.0318  0.2966
 1554SOL    HW116295   2.687   3.239   4.505  1.3909 -1.3075 -1.1188
 1554SOL    HW216296   2.720   3.174   4.640  1.4389 -1.6082 -0.6272
 1555SOL     OW16297   2.536   0.654   6.320 -0.1625 -0.5291 -0.7310
 1555SOL    HW116298   2.570   0.566   6.338  3.1255  0.9200  0.1943
 1555SOL    HW216299   2.519   0.693   6.405 -0.0576  0.1552 -1.0266
 1556SOL     OW16300   1.293   1.324   1.906 -0.0050 -0.4187  0.1479
 1556SOL    HW116301   1.251   1.240   1.888 -0.6502  0.1115 -0.7975
 1556SOL    HW216302   1.374   1.289   1.943 -1.3447 -0.9368  2.5853
 1557SOL     OW16303   4.490   2.531   6.721  0.2080  0.2720  0.3508
 1557SOL    HW116304   4.554   2.571   6.779 -0.2478  0.5753  0.6435
 1557SOL    HW216305   4.416   2.517   6.780  0.0839  1.9925  0.5923
 1558SOL     OW16306   2.310   0.997  11.259 -0.2815  1.0200  0.3313
 1558SOL    HW116307   2.235   0.978  11.202  0.5815 -0.3893 -0.3269
 1558SOL    HW216308   2.333   1.089  11.247 -2.0294  1.6172  1.5023
 1559SOL     OW16309   1.543   1.603   6.362  0.7109  0.5674 -0.2871
 1559SOL    HW116310   1.455   1.630   6.387  0.5576 -1.3019  1.2003
 1559SOL    HW216311   1.536   1.547   6.284  0.4548  1.2791 -0.7765
 1560SOL     OW16312   1.084   1.303  15.709  0.5649 -0.0078 -0.2956
 1560SOL    HW116313   0.991   1.305  15.688  0.7025  1.0547 -0.8005
 1560SOL    HW216314   1.094   1.393  15.740 -2.0921  0.3823 -0.5771
 1561SOL     OW16315   4.264   3.208   9.157  0.5114  0.0826  0.0222
 1561SOL    HW116316   4.231   3.125   9.123 -0.5188  0.1051  0.9541
 1561SOL    HW216317   4.191   3.268   9.141  0.2433  0.3907  2.3358
 1562SOL     OW16318   1.792   0.261  12.670  0.4191  0.1960  0.4270
 1562SOL    HW116319   1.823   0.290  12.756 -1.3030  0.7181  0.8701
 1562SOL    HW216320   1.701   0.234  12.676  1.5009 -2.8347  2.8316
 1563SOL     OW16321   1.824   1.548   8.778 -0.4656  0.5638  0.5755
 1563SOL    HW116322   1.733   1.573   8.760 -0.4011 -1.2657 -2.2262
 1563SOL    HW216323   1.830   1.472   8.721  1.6329  0.4619  0.9291
 1564SOL     OW16324   0.526   0.095   6.400 -0.1040 -0.7919 -0.0771
 1564SOL    HW116325   0.440   0.111   6.360 -0.7737 -2.4381  0.6749
 1564SOL    HW216326   0.579   0.149   6.342  1.1342 -2.2664 -0.3249
 1565SOL     OW16327   3.312   3.182   8.642  0.5166 -0.8088  0.1515
 1565SOL    HW116328   3.291   3.270   8.673 -2.2755 -1.6169  0.5930
 1565SOL    HW216329   3.258   3.174   8.564  2.2103  0.3717 -1.1291
 1566SOL     OW16330   0.477   3.291   7.004  0.1213  0.1065 -0.0459
 1566SOL    HW116331   0.385   3.287   6.979 -0.1506  0.0219  0.9819
 1566SOL    HW216332   0.488   3.386   7.013  1.3923 -0.0323 -0.0930
 1567SOL     OW16333   0.817   2.540  17.128  0.4516 -0.3309 -0.2473
 1567SOL    HW116334   0.866   2.610  17.171  1.1211 -1.8365  1.4752
 1567SOL    HW216335   0.819   2.578  17.041 -4.3601 -1.6637 -0.9264
 1568SOL     OW16336   3.910   1.271   8.202 -0.1126 -0.7940  0.4372
 1568SOL    HW116337   3.976   1.265   8.271 -0.7243 -1.0964  0.9996
 1568SOL    HW216338   3.954   1.302   8.123 -0.9184  1.9670  1.0840
 1569SOL     OW16339   3.926   1.196   3.549 -0.0471  0.0395  0.2138
 1569SOL    HW116340   3.989   1.258   3.512 -2.0999  2.4052  0.6433
 1569SOL    HW216341   3.934   1.119   3.492 -3.0997 -0.6402  0.6949
 1570SOL     OW16342   2.649   3.268  10.087  0.4240 -0.6065  0.1298
 1570SOL    HW116343   2.706   3.343  10.069  1.5313 -1.4062  0.2952
 1570SOL    HW216344   2.706   3.197  10.057 -0.3899 -1.1654 -0.0998
 1571SOL     OW16345   0.458   4.129   4.455 -0.0223 -0.6956  0.1423
 1571SOL    HW116346   0.525   4.068   4.423 -1.3048 -1.5368 -0.9074
 1571SOL    HW216347   0.424   4.170   4.376 -0.2461 -2.5145 -0.6989
 1572SOL     OW16348   2.547   1.939   6.224  0.5629  0.1766 -0.1255
 1572SOL    HW116349   2.603   1.943   6.146  0.6105  3.2665  0.0653
 1572SOL    HW216350   2.462   1.964   6.188 -0.3470 -2.7483  0.0070
 1573SOL     OW16351   3.484   2.298   1.835  0.3046  0.0553  0.0245
 1573SOL    HW116352   3.465   2.380   1.881  1.5775  0.5374 -0.3072
 1573SOL    HW216353   3.579   2.307   1.834  0.5461 -2.5834 -0.9665
 1574SOL     OW16354   0.834   2.066   8.768 -0.3541 -0.3297 -0.0809
 1574SOL    HW116355   0.764   2.130   8.755 -0.0668 -0.2316 -1.1462
 1574SOL    HW216356   0.873   2.094   8.850 -0.3955  0.7928 -0.4352
 1575SOL     OW16357   3.646   0.175   3.749 -0.1319  0.3743  0.5144
 1575SOL    HW116358   3.717   0.230   3.783  0.6403 -0.5584  0.3993
 1575SOL    HW216359   3.650   0.101   3.809  1.4538  0.4177  0.4793
 1576SOL     OW16360   0.597   4.405   9.322  0.2083  0.5172 -0.4726
 1576SOL    HW116361   0.540   4.408   9.399  0.8344  1.3229 -0.0481
 1576SOL    HW216362   0.672   4.459   9.346 -0.6251  0.2868  2.6108
 1577SOL     OW16363   2.678   0.405   3.843  0.0344  0.0509 -0.1691
 1577SOL    HW116364   2.738   0.472   3.876  0.0421 -1.7530  3.4565
 1577SOL    HW216365   2.593   0.449   3.852  0.2446  0.3896  0.1376
 1578SOL     OW16366   2.248   0.770   2.232  0.3968  0.5896 -0.3559
 1578SOL    HW116367   2.326   0.719   2.211  0.9449  0.6919  1.4220
 1578SOL    HW216368   2.283   0.853   2.199  0.9985  0.2306 -0.5948
 1579SOL     OW16369   3.540   2.467   2.946 -0.2134  0.1878  0.3516
 1579SOL    HW116370   3.614   2.525   2.962 -1.5496  1.7740  0.7257
 1579SOL    HW216371   3.576   2.381   2.966 -0.6376  0.3027  1.5889
 1580SOL     OW16372   2.074   3.962   4.879 -0.6287 -0.0958 -0.2080
 1580SOL    HW116373   2.114   3.875   4.878  2.5594  1.3619  0.1815
 1580SOL    HW216374   2.033   3.959   4.966 -2.5882  2.0629 -1.0655
 1581SOL     OW16375   3.847   3.338   3.742 -0.1016  0.2550 -0.2409
 1581SOL    HW116376   3.903   3.263   3.763  1.3307  1.1552 -0.8923
 1581SOL    HW216377   3.802   3.353   3.825  1.0823 -0.0491  0.4513
 1582SOL     OW16378   1.721   0.181  15.038  0.1829  0.7319  0.0612
 1582SOL    HW116379   1.711   0.234  15.117  0.5294  0.6480  0.1648
 1582SOL    HW216380   1.799   0.220  14.999 -0.0454  1.4548  0.3241
 1583SOL     OW16381   0.046   3.486   2.095  0.1430 -0.0988 -0.2372
 1583SOL    HW116382   0.012   3.546   2.029  1.8919  0.3472 -0.7192
 1583SOL    HW216383   0.096   3.542   2.154 -1.1605 -0.0374  0.8245
 1584SOL     OW16384   4.395   3.519  17.388 -0.3788 -0.0061 -0.4248
 1584SOL    HW116385   4.428   3.603  17.419 -1.7265  0.6288 -0.7064
 1584SOL    HW216386   4.371   3.535  17.297  2.3611 -2.8815 -1.6455
 1585SOL     OW16387   1.598   1.232   8.811  0.4372  0.0730  0.6140
 1585SOL    HW116388   1.656   1.261   8.740  0.6047 -2.5171 -0.3228
 1585SOL    HW216389   1.613   1.137   8.809 -1.1457 -0.1577  0.0047
 1586SOL     OW16390   2.483   0.866   6.158  0.2699  0.0843  0.2160
 1586SOL    HW116391   2.504   0.785   6.203 -3.2669  0.9872  3.5628
 1586SOL    HW216392   2.541   0.934   6.194 -2.5811  2.4941  0.2927
 1587SOL     OW16393   3.214   3.199   2.638  1.1898  0.1027  0.4693
 1587SOL    HW116394   3.251   3.286   2.625 -0.0377  0.6220  0.4523
 1587SOL    HW216395   3.173   3.198   2.725 -0.8101  1.9155 -0.4877
 1588SOL     OW16396   3.462   2.606   4.891  0.5035 -0.2470 -0.2663
 1588SOL    HW116397   3.439   2.563   4.973  1.2518 -0.7454 -0.3156
 1588SOL    HW216398   3.404   2.682   4.897  0.5881 -0.0853 -1.5452
 1589SOL     OW16399   3.376   1.872   9.853 -0.7445 -0.1018 -0.3713
 1589SOL    HW116400   3.405   1.900   9.939  4.9535 -3.6088 -1.1253
 1589SOL    HW216401   3.389   1.778   9.867 -3.3317  0.1436  3.6928
 1590SOL     OW16402   2.773   1.272   8.541  0.3946  0.3773  0.0010
 1590SOL    HW116403   2.709   1.317   8.597 -0.1401  0.1874 -0.4539
 1590SOL    HW216404   2.753   1.181   8.563  0.0393  0.3363 -0.4906
 1591SOL     OW16405   2.987   4.039   1.272 -0.3619  0.2893  0.4583
 1591SOL    HW116406   2.990   4.003   1.360 -1.6635 -0.9108  0.0227
 1591SOL    HW216407   3.000   4.133   1.286 -1.4034  0.5213 -0.1110
 1592SOL     OW16408   3.040   4.053  17.609 -0.4379 -0.3553  0.4547
 1592SOL    HW116409   3.050   3.975  17.663  0.6622 -0.0695  0.6627
 1592SOL    HW216410   2.946   4.071  17.605 -0.1032  1.3794  0.2902
 1593SOL     OW16411   2.431   0.030   1.481 -0.3166  0.4637 -0.5132
 1593SOL    HW116412   2.342   0.011   1.454 -1.0225 -0.1620  2.2729
 1593SOL    HW216413   2.476   0.016   1.397  0.6519 -2.1003  0.4584
 1594SOL     OW16414   1.063   2.401   3.646  0.0855  0.5040  0.3675
 1594SOL    HW116415   1.044   2.351   3.567 -1.1640 -1.1681  1.7192
 1594SOL    HW216416   0.999   2.367   3.709  1.4131 -1.2015  0.7748
 1595SOL     OW16417   1.085   0.796   3.770 -0.1258  0.4081  0.4581
 1595SOL    HW116418   1.096   0.708   3.806  1.1963 -0.6615 -2.5512
 1595SOL    HW216419   1.052   0.773   3.683 -0.6198  0.6877  0.5733
 1596SOL     OW16420   1.505   4.305  12.978 -0.7256 -0.2636  0.1512
 1596SOL    HW116421   1.576   4.267  12.927 -2.2985 -3.2676  0.2286
 1596SOL    HW216422   1.541   4.293  13.066 -0.4575  0.7287  0.1808
 1597SOL     OW16423   4.588   0.999   5.823  0.3807  0.2126 -0.5120
 1597SOL    HW116424   4.529   1.036   5.889  1.5844  0.0345  0.6735
 1597SOL    HW216425   4.651   1.068   5.803  0.0008  0.0092 -2.4155
 1598SOL     OW16426   4.709   4.540   9.794  0.1141  0.0405 -0.5414
 1598SOL    HW116427   0.017   4.504   9.715 -1.3399  1.4791 -1.9640
 1598SOL    HW216428   4.620   4.564   9.768 -0.2116  0.2467  0.7571
 1599SOL     OW16429   3.075   4.554   2.999  0.0448  0.2235  0.9060
 1599SOL    HW116430   3.144   4.560   2.932  0.7663 -0.3447  1.5958
 1599SOL    HW216431   3.006   4.604   2.956 -0.0807 -0.4088  0.3561
 1600SOL     OW16432   2.451   2.054  17.294  0.2202 -0.1463  0.3875
 1600SOL    HW116433   2.537   2.015  17.306  0.7299  0.5036 -1.1116
 1600SOL    HW216434   2.462   2.143  17.260  1.7639 -0.4247  0.1600
 1601SOL     OW16435   3.179   0.238   8.201 -0.4839 -0.1137  0.0447
 1601SOL    HW116436   3.222   0.216   8.284  0.1572 -0.3387 -0.3499
 1601SOL    HW216437   3.205   0.327   8.178  0.3219 -0.3538  0.0169
 1602SOL     OW16438   1.703   2.828  12.508 -0.9231  0.0732  0.4251
 1602SOL    HW116439   1.739   2.751  12.465 -1.2016 -0.5358  1.2770
 1602SOL    HW216440   1.784   2.870  12.539 -0.4548  0.8053 -1.8019
 1603SOL     OW16441   3.886   3.393   7.075 -0.1577 -0.5160  0.9623
 1603SOL    HW116442   3.841   3.453   7.135  0.6915  0.9707  0.1089
 1603SOL    HW216443   3.977   3.417   7.091  0.1652 -1.0056 -0.1392
 1604SOL     OW16444   3.902   3.271  13.793  0.7690  0.0446 -0.0092
 1604SOL    HW116445   3.864   3.236  13.874  0.0140  0.2566 -0.2697
 1604SOL    HW216446   3.990   3.295  13.821  1.3257 -0.1775 -1.5673
 1605SOL     OW16447   4.591   3.395   6.031  0.4698  0.1084  0.5518
 1605SOL    HW116448   4.538   3.378   5.954 -0.5699 -1.8374  1.6716
 1605SOL    HW216449   4.534   3.443   6.090 -1.4527  0.9570 -2.0342
 1606SOL     OW16450   2.227   1.428   7.156 -0.0030 -0.1993  0.1676
 1606SOL    HW116451   2.276   1.348   7.173 -1.2186 -1.1503 -0.8637
 1606SOL    HW216452   2.293   1.494   7.180 -1.4228  1.4878 -0.5533
 1607SOL     OW16453   3.555   0.768   0.693  0.3647  0.3249  0.2284
 1607SOL    HW116454   3.503   0.737   0.768 -0.5613 -0.9599 -0.9451
 1607SOL    HW216455   3.523   0.718   0.618 -0.0889 -0.0215  0.6480
 1608SOL     OW16456   3.763   4.281   9.565  0.1910  0.6475  0.0185
 1608SOL    HW116457   3.740   4.359   9.516  2.1617  0.6205 -0.9651
 1608SOL    HW216458   3.851   4.256   9.535 -0.7706  0.0452 -2.3032
 1609SOL     OW16459   0.315   3.884  12.941  0.3789 -0.2091  0.6476
 1609SOL    HW116460   0.318   3.963  12.888 -0.2225 -1.0388 -0.6223
 1609SOL    HW216461   0.336   3.924  13.025 -0.6625  2.1944 -0.2331
 1610SOL     OW16462   3.735   1.242  11.187 -0.5140 -0.2043 -0.3875
 1610SOL    HW116463   3.820   1.223  11.146  0.0872 -1.1008  1.2568
 1610SOL    HW216464   3.683   1.260  11.109 -0.5720 -0.7692 -0.4823
 1611SOL     OW16465   2.689   4.580  12.759  0.6192 -0.0141  0.3732
 1611SOL    HW116466   2.753   4.623  12.703 -1.1817  1.2812 -0.6730
 1611SOL    HW216467   2.717   4.490  12.740 -2.6657 -0.6925 -1.1545
 1612SOL     OW16468   3.693   1.893   6.681  0.0905  0.0977  0.5326
 1612SOL    HW116469   3.674   1.839   6.605  0.9424 -0.6710  0.8691
 1612SOL    HW216470   3.605   1.914   6.710  0.4910  1.4888  0.7514
 1613SOL     OW16471   4.665   3.094   7.500 -0.1493  0.2812 -0.1093
 1613SOL    HW116472   4.585   3.107   7.551 -0.0112 -0.3404  0.2526
 1613SOL    HW216473   4.721   3.152   7.551  0.3959  0.8260 -1.3136
 1614SOL     OW16474   4.351   0.821   6.716  0.0984 -0.0910 -0.1134
 1614SOL    HW116475   4.265   0.788   6.689  1.4476 -3.0947 -0.7449
 1614SOL    HW216476   4.342   0.912   6.688  0.6781 -0.4156 -1.3483
 1615SOL     OW16477   4.303   2.707  16.540  0.7148  0.1780 -0.0317
 1615SOL    HW116478   4.374   2.765  16.514  0.1634 -0.1310 -2.2171
 1615SOL    HW216479   4.236   2.762  16.580  0.8682 -1.8993  3.0869
 1616SOL     OW16480   3.554   1.547   2.771  0.4881  0.1617 -0.4848
 1616SOL    HW116481   3.524   1.477   2.830  1.9590 -1.0894 -1.2178
 1616SOL    HW216482   3.485   1.611   2.789  2.7965  1.9138  2.1394
 1617SOL     OW16483   4.522   2.249   4.833  0.0326  0.1232 -0.3003
 1617SOL    HW116484   4.529   2.172   4.776  0.0050  0.3477 -0.6039
 1617SOL    HW216485   4.487   2.211   4.913  0.3045  0.5866  0.0438
 1618SOL     OW16486   3.169   1.447   4.215 -0.3116 -0.0329  0.2220
 1618SOL    HW116487   3.110   1.442   4.139  1.0947 -2.6451 -0.7123
 1618SOL    HW216488   3.128   1.389   4.279  0.1387 -1.5894 -0.8887
 1619SOL     OW16489   0.971   2.373  13.317  0.4493 -0.7143  0.3528
 1619SOL    HW116490   0.981   2.313  13.391 -0.6413 -0.7675  0.4592
 1619SOL    HW216491   1.059   2.409  13.307 -0.0538  1.0765  2.1225
 1620SOL     OW16492   1.326   1.878   4.277 -0.0237 -0.1522 -0.8754
 1620SOL    HW116493   1.327   1.798   4.224 -1.4399 -0.7255 -0.0315
 1620SOL    HW216494   1.240   1.919   4.266  0.0039  0.1767  0.1068
 1621SOL     OW16495   4.557   0.828  13.962 -0.1294  0.2588  0.0508
 1621SOL    HW116496   4.589   0.877  13.887 -0.2858 -1.3130 -1.0260
 1621SOL    HW216497   4.464   0.851  13.960 -0.1023  0.2595 -0.9187
 1622SOL     OW16498   3.451   4.328  13.077  0.5645 -0.0231 -0.5760
 1622SOL    HW116499   3.357   4.335  13.058  0.2496  1.5881  1.6860
 1622SOL    HW216500   3.462   4.273  13.155  0.0505  0.1581 -0.3742
 1623SOL     OW16501   3.546   3.265   8.494 -0.1703  0.2753 -0.2357
 1623SOL    HW116502   3.506   3.216   8.566 -0.5907  0.2264 -0.5029
 1623SOL    HW216503   3.582   3.193   8.443 -3.2103  0.4556 -2.6252
 1624SOL     OW16504   3.199   1.150   5.857 -0.0736 -0.3130  0.0613
 1624SOL    HW116505   3.152   1.066   5.856 -0.1339 -0.2752 -1.0569
 1624SOL    HW216506   3.252   1.133   5.934  0.3190 -1.1082 -0.3864
 1625SOL     OW16507   1.635   3.071   7.960 -0.7357  0.2662  0.1917
 1625SOL    HW116508   1.570   3.052   7.892 -0.5055  2.0942 -0.5195
 1625SOL    HW216509   1.633   3.166   7.957  0.3133  0.2797  0.1081
 1626SOL     OW16510   3.489   0.893  11.407 -0.5361 -0.4178 -0.6073
 1626SOL    HW116511   3.541   0.971  11.427 -2.1802  0.0622  1.9065
 1626SOL    HW216512   3.495   0.837  11.485  0.1890 -1.6693 -1.5679
 1627SOL     OW16513   0.784   4.007  13.925  0.3496  0.5348  0.8596
 1627SOL    HW116514   0.851   3.950  13.963 -1.3862 -2.6487 -0.8454
 1627SOL    HW216515   0.789   4.008  13.830 -0.6646  2.8983  0.8383
 1628SOL     OW16516   2.574   2.205  16.767  0.1444  0.2606  0.0803
 1628SOL    HW116517   2.630   2.147  16.820  1.1101  2.7397  1.7688
 1628SOL    HW216518   2.622   2.232  16.689 -1.4768  0.6219 -0.7730
 1629SOL     OW16519   0.304   0.328  13.501 -0.5638 -0.1657 -0.1365
 1629SOL    HW116520   0.304   0.360  13.411 -1.8970 -3.8685 -1.4520
 1629SOL    HW216521   0.317   0.233  13.490  0.9384 -0.1677  1.6742
 1630SOL     OW16522   2.780   4.103  17.648  0.3357  0.5240 -0.9203
 1630SOL    HW116523   2.730   4.170  17.601 -0.4596 -1.2897 -2.6589
 1630SOL    HW216524   2.706   4.054  17.682  0.3100  0.4309 -1.1080
 1631SOL     OW16525   1.043   4.466   3.604  0.2153  0.8162  0.1375
 1631SOL    HW116526   1.099   4.501   3.673 -2.0343  1.5077  1.6085
 1631SOL    HW216527   1.055   4.372   3.616 -1.8467  0.4286 -0.8466
 1632SOL     OW16528   2.655   3.386   4.184  0.1056  0.1868 -0.6488
 1632SOL    HW116529   2.749   3.398   4.192  0.0245  0.3264  0.1746
 1632SOL    HW216530   2.641   3.445   4.110 -0.3761  0.9066  0.0046
 1633SOL     OW16531   3.984   0.977   5.377 -0.1827 -0.1317  0.1691
 1633SOL    HW116532   3.979   0.898   5.323 -0.2948 -1.4936  2.1908
 1633SOL    HW216533   4.007   0.940   5.462 -4.1845 -2.8482  0.0564
 1634SOL     OW16534   2.121   1.310   2.458  0.4433  0.0882 -0.2198
 1634SOL    HW116535   2.215   1.327   2.472  0.8073 -0.1011 -2.2971
 1634SOL    HW216536   2.105   1.384   2.399 -1.1036 -2.1350 -2.6257
 1635SOL     OW16537   0.811   4.207   7.769 -0.2367 -0.4850  0.0288
 1635SOL    HW116538   0.735   4.262   7.788  1.5486  1.4976  1.3725
 1635SOL    HW216539   0.870   4.252   7.828 -0.5395  0.8684 -0.6997
 1636SOL     OW16540   2.623   3.158   3.627 -0.0785  0.3585 -0.7426
 1636SOL    HW116541   2.605   3.191   3.715  0.8090 -1.7515  0.2037
 1636SOL    HW216542   2.534   3.127   3.614  0.3022 -0.1229 -2.1424
 1637SOL     OW16543   2.038   0.275   8.204 -0.3037 -0.2214  0.0302
 1637SOL    HW116544   2.032   0.259   8.298  0.7170 -0.8397 -0.0035
 1637SOL    HW216545   2.111   0.338   8.211  0.2216 -0.9849  1.4786
 1638SOL     OW16546   0.865   4.438   3.379  0.3385 -0.3317 -0.4021
 1638SOL    HW116547   0.917   4.450   3.459 -1.6314  0.0165  0.8106
 1638SOL    HW216548   0.930   4.418   3.311  0.5481 -0.1132 -0.2666
 1639SOL     OW16549   4.069   4.531   3.976  0.5396  0.1683 -0.1050
 1639SOL    HW116550   4.115   4.447   3.979 -3.3759 -2.0012  0.6236
 1639SOL    HW216551   4.117   4.579   3.909  0.1197  0.5128 -0.1591
 1640SOL     OW16552   2.927   1.936  11.822  0.0380 -0.5782 -0.5362
 1640SOL    HW116553   2.953   2.026  11.844  1.0881 -0.9838 -0.1217
 1640SOL    HW216554   2.999   1.886  11.860  1.7736  1.2505 -1.4008
 1641SOL     OW16555   3.243   3.210  11.916 -0.1058  0.0186  0.5722
 1641SOL    HW116556   3.187   3.275  11.959  1.3772  1.2495  0.6453
 1641SOL    HW216557   3.173   3.171  11.863 -0.3619  0.0072  0.9192
 1642SOL     OW16558   3.220   2.353  13.936  0.1887  0.2563  0.3543
 1642SOL    HW116559   3.278   2.406  13.991 -3.5941  2.4327  2.2425
 1642SOL    HW216560   3.146   2.340  13.996 -0.4062 -0.2505 -0.4986
 1643SOL     OW16561   4.120   4.650   5.991 -0.5507 -0.3897 -0.4418
 1643SOL    HW116562   4.202   4.657   6.040  0.2070 -4.5120 -1.0287
 1643SOL    HW216563   4.122   4.728   5.936  2.2575 -0.3601 -0.3006
 1644SOL     OW16564   0.290   1.084   6.808 -0.5932 -0.5169 -0.0520
 1644SOL    HW116565   0.370   1.091   6.861  0.5077  1.2031 -1.9636
 1644SOL    HW216566   0.327   1.125   6.730 -1.5459  1.3241  0.4683
 1645SOL     OW16567   2.079   2.901   5.691 -0.3793  0.2089  0.1282
 1645SOL    HW116568   2.152   2.882   5.632 -0.9460 -2.0673  0.1888
 1645SOL    HW216569   2.054   2.987   5.656  0.9248  0.8095  0.6638
 1646SOL     OW16570   2.863   1.996   5.597 -0.0220  0.8355 -0.5237
 1646SOL    HW116571   2.916   2.073   5.578  0.0062  0.2646 -2.7315
 1646SOL    HW216572   2.841   1.997   5.690  3.1712  0.2716  0.2104
 1647SOL     OW16573   4.188   0.033   2.887  0.1683  0.2498 -0.1752
 1647SOL    HW116574   4.247   0.001   2.955  0.4171 -1.5063 -1.2107
 1647SOL    HW216575   4.172   4.687   2.838  1.8711 -1.0270  1.3572
 1648SOL     OW16576   4.359   2.715   1.367 -0.1165  0.2425 -0.2786
 1648SOL    HW116577   4.380   2.625   1.343  0.8668  0.2905  0.3990
 1648SOL    HW216578   4.396   2.728   1.455  0.9242  0.6789 -0.7838
 1649SOL     OW16579   3.921   2.804   1.868 -0.0794 -0.6708 -0.5972
 1649SOL    HW116580   3.932   2.899   1.873  2.2270 -0.9286 -0.8528
 1649SOL    HW216581   3.826   2.796   1.874  0.0332 -2.1345 -0.6960
 1650SOL     OW16582   0.867   4.499   6.815  0.4985 -0.0456  0.0628
 1650SOL    HW116583   0.928   4.573   6.807  1.2772 -0.6797  0.1227
 1650SOL    HW216584   0.860   4.481   6.721 -3.5615 -1.1893  0.6117
 1651SOL     OW16585   1.059   3.288   5.107 -0.0855  0.1056  0.2066
 1651SOL    HW116586   1.109   3.364   5.138 -0.2397  0.9773 -1.6110
 1651SOL    HW216587   1.025   3.256   5.190  1.3176 -0.9255  0.3760
 1652SOL     OW16588   2.415   4.452   1.781  0.1692 -0.1820  0.0219
 1652SOL    HW116589   2.411   4.391   1.707  1.3699 -1.2513  0.8552
 1652SOL    HW216590   2.481   4.412   1.837  1.1014  1.1919 -0.1114
 1653SOL     OW16591   4.513   1.423   3.137 -0.1715  0.2413  0.1936
 1653SOL    HW116592   4.446   1.490   3.120 -2.6058 -1.6998  2.0376
 1653SOL    HW216593   4.521   1.395   3.046 -3.6168  1.5246 -0.4997
 1654SOL     OW16594   3.677   4.248   2.840  0.3284 -0.5647  0.5734
 1654SOL    HW116595   3.707   4.157   2.843  1.1336 -0.2298  2.4762
 1654SOL    HW216596   3.587   4.237   2.809  0.8535 -0.9410 -0.8146
 1655SOL     OW16597   2.139   1.960   1.565 -0.0943  0.0703  0.2778
 1655SOL    HW116598   2.080   2.003   1.502 -1.1101 -1.4546  0.1947
 1655SOL    HW216599   2.225   1.970   1.526 -0.5965  2.0276 -0.3318
 1656SOL     OW16600   1.539   2.043  17.584  0.1585 -0.3796  0.3439
 1656SOL    HW116601   1.469   2.084  17.533  1.1844 -0.1197 -0.8457
 1656SOL    HW216602   1.622   2.073  17.547 -1.0871  0.6665 -1.5817
 1657SOL     OW16603   2.907   2.284   8.119 -0.2932 -0.0249 -0.0211
 1657SOL    HW116604   2.874   2.370   8.093 -0.3456 -0.4303 -1.2785
 1657SOL    HW216605   2.887   2.286   8.213  0.6693 -1.1317  0.2011
 1658SOL     OW16606   3.321   4.539   5.095  0.1759 -0.3905 -0.2349
 1658SOL    HW116607   3.288   4.533   5.184  2.9696  0.1117  0.8022
 1658SOL    HW216608   3.348   4.630   5.088 -0.5824 -0.0384  1.3385
 1659SOL     OW16609   4.662   4.508   8.682 -0.0084 -0.1165  0.2854
 1659SOL    HW116610   4.693   4.598   8.695  0.4103 -0.0698 -0.9615
 1659SOL    HW216611   4.732   4.474   8.625  0.2253  0.9991 -0.0886
 1660SOL     OW16612   3.646   3.291   6.675 -0.3524  0.3657 -0.3613
 1660SOL    HW116613   3.591   3.259   6.746  1.3120 -0.5320  0.5338
 1660SOL    HW216614   3.689   3.207   6.659  1.6603  1.4779 -0.7840
 1661SOL     OW16615   0.050   3.330   2.359  0.1128  0.6636 -0.4033
 1661SOL    HW116616   0.002   3.407   2.328  0.8441  1.5003  0.5548
 1661SOL    HW216617   4.715   3.287   2.410 -0.2054 -0.9271 -2.1800
 1662SOL     OW16618   1.520   2.472   7.811  0.0635  0.5285  0.2437
 1662SOL    HW116619   1.528   2.530   7.887  1.0254 -1.4941  1.6815
 1662SOL    HW216620   1.474   2.397   7.850 -0.6493  0.3145 -0.9993
 1663SOL     OW16621   3.128   0.060   6.283 -0.3936  0.6118  0.1809
 1663SOL    HW116622   3.082   4.723   6.239 -2.6389  2.1348  0.0724
 1663SOL    HW216623   3.072   0.087   6.356 -1.7407 -0.4871 -0.4428
 1664SOL     OW16624   3.686   1.890   5.492  0.0435  0.5914  0.7944
 1664SOL    HW116625   3.697   1.876   5.398 -0.7543  0.3121  0.7444
 1664SOL    HW216626   3.598   1.926   5.501  0.0132  0.4756  0.9605
 1665SOL     OW16627   3.587   3.174   3.774  0.7998 -0.2921  0.2326
 1665SOL    HW116628   3.627   3.102   3.821 -1.6990 -1.1780  0.9822
 1665SOL    HW216629   3.624   3.175   3.685  0.8026 -0.6439  0.2304
 1666SOL     OW16630   3.520   0.076   7.552  0.0324 -0.0915  0.0624
 1666SOL    HW116631   3.571   0.098   7.474  0.5031  1.5485  0.8457
 1666SOL    HW216632   3.593   0.054   7.609  0.4157 -2.1430 -1.2020
 1667SOL     OW16633   0.750   3.099  15.865  0.1686 -0.2934 -0.2001
 1667SOL    HW116634   0.829   3.150  15.848  1.9613 -3.1065 -0.2254
 1667SOL    HW216635   0.786   3.043  15.934 -0.8072 -1.3915 -0.5794
 1668SOL     OW16636   3.738   4.485   1.545 -0.4862  0.0311  0.2399
 1668SOL    HW116637   3.665   4.424   1.535  0.2347 -0.4918 -1.8410
 1668SOL    HW216638   3.802   4.416   1.560 -2.5256 -1.9213  0.0281
 1669SOL     OW16639   1.560   0.738  16.353 -0.1435  0.0344 -0.1361
 1669SOL    HW116640   1.545   0.809  16.290 -1.4871 -0.4113 -0.3171
 1669SOL    HW216641   1.592   0.670  16.294  1.4711 -0.7145  1.6139
 1670SOL     OW16642   2.145   1.475   5.637  0.0536  0.2420 -0.0977
 1670SOL    HW116643   2.087   1.551   5.644 -0.1073  0.1953 -0.8735
 1670SOL    HW216644   2.091   1.396   5.628 -0.7275  1.0504 -2.5819
 1671SOL     OW16645   4.063   2.006   1.132  0.0307 -0.2495  0.2958
 1671SOL    HW116646   4.111   1.973   1.057  1.8029 -1.3198  1.8868
 1671SOL    HW216647   3.986   2.050   1.095  0.9687  2.1468  1.1543
 1672SOL     OW16648   0.234   0.197   8.549 -0.0960 -0.0775  0.1431
 1672SOL    HW116649   0.314   0.150   8.573 -0.9689 -1.2402  0.7959
 1672SOL    HW216650   0.172   0.136   8.589 -1.5632  1.0175 -0.4756
 1673SOL     OW16651   0.066   0.689   2.303  0.1285  0.0640  0.5882
 1673SOL    HW116652   0.152   0.685   2.344  1.8147  0.1962 -2.9499
 1673SOL    HW216653   0.091   0.688   2.211  0.9661 -2.4242  0.8461
 1674SOL     OW16654   2.919   2.026   8.846 -0.6985  0.3317 -0.2035
 1674SOL    HW116655   2.870   2.007   8.926  1.0221 -0.1173  0.7560
 1674SOL    HW216656   2.950   1.941   8.814  1.1589  0.7693  0.4264
 1675SOL     OW16657   1.063   0.331   7.091  0.3271  0.3042 -0.3224
 1675SOL    HW116658   1.090   0.376   7.171  2.9220  0.7096 -1.4353
 1675SOL    HW216659   0.971   0.326   7.116  0.0321  0.9594 -1.2855
 1676SOL     OW16660   2.211   0.784   9.224  0.4842  0.0624 -0.3450
 1676SOL    HW116661   2.158   0.782   9.144 -1.7626  0.4125  1.1358
 1676SOL    HW216662   2.148   0.730   9.272 -0.8813 -0.0950 -2.3101
 1677SOL     OW16663   3.931   1.409   3.190  0.1085 -0.1235 -0.1253
 1677SOL    HW116664   3.954   1.324   3.151  0.4019  0.7387 -1.8089
 1677SOL    HW216665   3.938   1.397   3.285 -2.0612  0.2252  0.0726
 1678SOL     OW16666   2.259   3.819   1.806  0.1664  0.0395 -0.1161
 1678SOL    HW116667   2.275   3.750   1.741  2.7452 -1.1517  1.8181
 1678SOL    HW216668   2.262   3.899   1.754 -2.6543 -1.1305 -2.0882
 1679SOL     OW16669   0.592   1.847   7.538 -0.6067  0.2291  0.5147
 1679SOL    HW116670   0.677   1.889   7.555 -1.1036  1.7231 -0.6349
 1679SOL    HW216671   0.578   1.878   7.448  1.1136 -1.2304 -0.2739
 1680SOL     OW16672   2.923   0.032  14.273  0.5117 -0.2424  0.0005
 1680SOL    HW116673   2.832   0.005  14.289  0.6467 -1.2660 -0.9833
 1680SOL    HW216674   2.913   0.090  14.197  0.4181 -3.6944 -2.6030
 1681SOL     OW16675   1.885   4.234   6.183  0.5073 -0.2379 -0.2145
 1681SOL    HW116676   1.911   4.172   6.115  0.1371 -0.9553  0.2995
 1681SOL    HW216677   1.872   4.311   6.127  1.0857  0.3187  0.4224
 1682SOL     OW16678   1.871   1.804   9.391  0.4874 -0.1557  0.0172
 1682SOL    HW116679   1.947   1.770   9.345  0.7851  0.5262  0.0084
 1682SOL    HW216680   1.904   1.888   9.423 -0.0752 -0.6496  1.9413
 1683SOL     OW16681   1.568   0.751   6.124  0.0945 -0.1969 -0.1838
 1683SOL    HW116682   1.621   0.831   6.125 -0.9952  0.5128  0.7937
 1683SOL    HW216683   1.631   0.686   6.155  0.3797 -0.7458 -1.9341
 1684SOL     OW16684   3.623   4.139   6.758 -0.6726  0.6121  0.7506
 1684SOL    HW116685   3.584   4.052   6.755 -0.3008  0.4496  0.6141
 1684SOL    HW216686   3.675   4.137   6.839  1.4428 -0.6794 -0.6507
 1685SOL     OW16687   0.407   1.450   2.127  0.0579  0.4117 -0.3735
 1685SOL    HW116688   0.423   1.410   2.213  0.3256 -0.3144 -0.7636
 1685SOL    HW216689   0.480   1.416   2.075  0.0180  1.8707 -1.4011
 1686SOL     OW16690   4.640   4.664  15.044  0.2981 -0.0125 -0.1704
 1686SOL    HW116691   4.550   4.632  15.048  0.2546  0.0002 -1.0809
 1686SOL    HW216692   4.672   4.624  14.963  0.0846 -1.9079  0.6805
 1687SOL     OW16693   4.455   2.674  14.573  0.6614  0.4462 -0.6487
 1687SOL    HW116694   4.495   2.615  14.637  0.6302  0.2339 -0.8251
 1687SOL    HW216695   4.399   2.613  14.526 -1.9520  2.1606  0.2164
 1688SOL     OW16696   1.948   4.264   4.755  0.5262 -0.4362 -0.1553
 1688SOL    HW116697   1.922   4.351   4.783  0.6363 -0.3967 -0.1789
 1688SOL    HW216698   2.010   4.245   4.825  1.4117 -2.2243 -1.4268
 1689SOL     OW16699   1.232   4.123   7.080 -0.0018 -0.5457  0.2602
 1689SOL    HW116700   1.225   4.143   7.173 -0.3029  1.8934 -0.2959
 1689SOL    HW216701   1.309   4.066   7.077 -0.5025 -1.3748  3.1568
 1690SOL     OW16702   0.477   2.763  14.927 -0.1767 -0.2514 -0.1364
 1690SOL    HW116703   0.435   2.848  14.941  0.6342 -0.1633  1.7761
 1690SOL    HW216704   0.453   2.743  14.837  0.5226 -1.0751 -0.1399
 1691SOL     OW16705   1.497   0.252  15.945  0.1461  0.2016  0.1019
 1691SOL    HW116706   1.544   0.335  15.956 -0.1803  0.2458  1.1394
 1691SOL    HW216707   1.523   0.239  15.853 -0.8495  2.6992 -0.5143
 1692SOL     OW16708   1.938   0.460   4.343  0.5783  0.2972  0.3233
 1692SOL    HW116709   1.855   0.502   4.324  0.2188  0.9478  3.4325
 1692SOL    HW216710   1.995   0.485   4.270  2.3788 -0.2857  1.5203
 1693SOL     OW16711   4.586   0.183  15.122 -0.2129 -0.0168  1.0089
 1693SOL    HW116712   4.556   0.093  15.107  0.1268  0.1573 -0.6187
 1693SOL    HW216713   4.672   0.179  15.164 -0.3577 -5.0552  0.7992
 1694SOL     OW16714   0.226   2.322   6.047 -0.4675  0.3740 -0.1274
 1694SOL    HW116715   0.205   2.415   6.045  1.1728  0.8206  2.8773
 1694SOL    HW216716   0.314   2.329   6.084 -0.6288 -1.6090  0.6482
 1695SOL     OW16717   3.422   1.658   8.490 -0.0465  0.6165 -0.1390
 1695SOL    HW116718   3.384   1.584   8.442  0.8386  2.0888 -3.0729
 1695SOL    HW216719   3.518   1.653   8.484 -0.1172  1.6495 -1.9278
 1696SOL     OW16720   3.034   1.531   3.997 -0.2881 -0.0158 -0.5378
 1696SOL    HW116721   2.958   1.583   3.973 -0.3261  0.5859  0.9308
 1696SOL    HW216722   3.095   1.553   3.927  0.9859 -1.4505  0.1276
 1697SOL     OW16723   2.580   2.225   0.655 -0.2593  0.1050 -0.7749
 1697SOL    HW116724   2.610   2.301   0.606 -0.3218  0.4969 -0.2073
 1697SOL    HW216725   2.647   2.157   0.641  1.1062  1.0599  0.9826
 1698SOL     OW16726   4.666   0.295   4.302  0.7741  0.9512  0.1460
 1698SOL    HW116727   4.667   0.390   4.287 -0.7791  1.0656  0.7379
 1698SOL    HW216728   4.727   0.261   4.237 -0.2248  1.1633 -0.8979
 1699SOL     OW16729   3.030   4.370   9.789 -0.1028 -0.4290 -0.1332
 1699SOL    HW116730   3.062   4.387   9.878 -0.5894 -0.4903  0.0515
 1699SOL    HW216731   3.087   4.298   9.759  0.5985  0.1709 -0.2342
 1700SOL     OW16732   3.330   2.052  15.681  0.2888 -0.5627 -0.0010
 1700SOL    HW116733   3.419   2.045  15.645  1.3611  1.0547  2.3008
 1700SOL    HW216734   3.356   2.021  15.768  2.6884 -0.0859 -0.5502
 1701SOL     OW16735   1.433   0.587   4.695 -0.2423 -0.2828  0.1330
 1701SOL    HW116736   1.485   0.614   4.771  1.6177  0.3045 -1.3416
 1701SOL    HW216737   1.490   0.613   4.623  1.3362  0.1131  1.5289
 1702SOL     OW16738   2.391   0.009   2.260 -0.4411  0.1534 -0.0350
 1702SOL    HW116739   2.360   0.038   2.174  1.7965 -0.9805 -1.2408
 1702SOL    HW216740   2.485   0.027   2.261 -0.3437 -0.2655 -1.5300
 1703SOL     OW16741   2.034   2.938   4.502  0.0281  0.1610 -0.3805
 1703SOL    HW116742   2.092   2.867   4.475  0.5424 -0.4573  2.3643
 1703SOL    HW216743   2.087   3.000   4.552  1.3017 -0.8159 -0.5119
 1704SOL     OW16744   1.483   0.550   7.756  0.1062 -0.1296 -0.0172
 1704SOL    HW116745   1.495   0.639   7.788  0.0543  0.1918 -0.8948
 1704SOL    HW216746   1.564   0.508   7.786  0.4050 -0.6191 -1.4849
 1705SOL     OW16747   0.926   1.449  16.349 -0.0927  0.2424 -0.4007
 1705SOL    HW116748   0.896   1.445  16.258  1.5309  0.6751 -0.9608
 1705SOL    HW216749   0.902   1.365  16.388  1.8366 -0.1068  0.0515
 1706SOL     OW16750   3.739   1.904   5.783 -0.1180 -0.1773 -0.3560
 1706SOL    HW116751   3.724   1.816   5.816  2.4289 -0.8437 -1.0182
 1706SOL    HW216752   3.715   1.902   5.690 -2.0472  0.8541  0.1039
 1707SOL     OW16753   0.320   1.760  16.331  0.4198 -0.0904 -0.5944
 1707SOL    HW116754   0.268   1.807  16.265 -0.7030  1.1591  1.1718
 1707SOL    HW216755   0.385   1.707  16.285  0.3419  0.3547 -1.2154
 1708SOL     OW16756   3.413   0.482   6.813  0.3870 -0.2097 -0.5599
 1708SOL    HW116757   3.426   0.563   6.864 -0.0918 -1.3507  1.3628
 1708SOL    HW216758   3.329   0.502   6.772  0.1020  0.5555  0.3996
 1709SOL     OW16759   0.609   1.812  12.051 -0.2873  0.1052  0.4205
 1709SOL    HW116760   0.528   1.766  12.070 -0.6438  0.9058  0.8341
 1709SOL    HW216761   0.580   1.903  12.063  0.5054  0.3884  0.2171
 1710SOL     OW16762   0.774   1.526  12.732 -0.2743 -0.3729 -0.5091
 1710SOL    HW116763   0.757   1.432  12.744 -0.2204 -0.3859 -0.5325
 1710SOL    HW216764   0.749   1.530  12.640 -0.3283 -0.6761 -0.5083
 1711SOL     OW16765   0.941   3.782   5.985 -0.7145 -0.6799  0.4796
 1711SOL    HW116766   1.007   3.786   6.055 -0.4439 -2.5071  0.3486
 1711SOL    HW216767   0.877   3.845   6.015  1.2069  0.8681  1.3165
 1712SOL     OW16768   1.292   2.510   2.361  0.5512 -0.2023 -0.0822
 1712SOL    HW116769   1.337   2.427   2.379  1.0540 -0.0383 -0.6099
 1712SOL    HW216770   1.361   2.575   2.370 -0.6951  1.3276 -1.5160
 1713SOL     OW16771   0.403   0.608   8.012  0.2820  0.1055  0.0056
 1713SOL    HW116772   0.477   0.601   8.072  1.2712  1.0994 -1.0992
 1713SOL    HW216773   0.436   0.672   7.949  1.1681 -1.3279 -0.9980
 1714SOL     OW16774   0.912   4.328   9.513 -0.0815 -0.0065  0.3835
 1714SOL    HW116775   0.856   4.333   9.591  1.3111  1.1353  1.3212
 1714SOL    HW216776   0.890   4.242   9.477  0.6642 -0.6802  1.5437
 1715SOL     OW16777   1.015   4.343  14.224  0.8549  0.0450 -0.0186
 1715SOL    HW116778   1.082   4.402  14.258  1.0430 -0.3576  0.3172
 1715SOL    HW216779   0.951   4.366  14.291  0.1792  0.5160 -0.8280
 1716SOL     OW16780   0.525   2.011   4.206  0.3639  0.2076  0.4395
 1716SOL    HW116781   0.580   2.066   4.262  2.7105 -2.3961  0.7045
 1716SOL    HW216782   0.584   1.941   4.178  0.2116 -0.9135  2.9273
 1717SOL     OW16783   0.793   0.864   2.531  0.2204 -0.4110  0.4478
 1717SOL    HW116784   0.827   0.953   2.523  0.4427 -0.5748 -0.4583
 1717SOL    HW216785   0.789   0.853   2.626 -1.5277 -0.3460  0.3756
 1718SOL     OW16786   2.648   2.922   9.589  0.7952 -0.6311 -0.6296
 1718SOL    HW116787   2.644   3.007   9.633  1.1693 -1.3748  0.8248
 1718SOL    HW216788   2.557   2.893   9.589  0.8500 -0.8344 -1.9083
 1719SOL     OW16789   4.097   3.027   2.207 -0.2999 -0.0069  0.1817
 1719SOL    HW116790   4.085   2.966   2.280 -2.1070 -0.1551 -0.2430
 1719SOL    HW216791   4.135   3.109   2.238 -0.6586  0.2267  0.0076
 1720SOL     OW16792   1.124   4.244   4.551 -0.0410  0.2045  0.3470
 1720SOL    HW116793   1.179   4.305   4.600 -1.7060  1.9445  0.0371
 1720SOL    HW216794   1.086   4.193   4.623  0.4999 -1.1949 -0.3524
 1721SOL     OW16795   4.713   1.508   3.934  0.6334  0.1037 -0.2094
 1721SOL    HW116796   4.649   1.439   3.915  1.5452 -0.2256 -2.0483
 1721SOL    HW216797   4.676   1.551   4.011  2.1298  0.9622  0.0300
 1722SOL     OW16798   1.107   4.502   5.469  0.4295  0.0586 -0.2078
 1722SOL    HW116799   1.060   4.503   5.386 -0.5989  0.7708  0.3760
 1722SOL    HW216800   1.169   4.429   5.460  0.0714 -0.2550 -0.1287
 1723SOL     OW16801   2.365   3.054   3.503 -0.4755  0.0963 -0.4325
 1723SOL    HW116802   2.353   3.148   3.502 -0.7701  0.0542 -1.4897
 1723SOL    HW216803   2.302   3.019   3.439  0.7804  0.9636 -2.1434
 1724SOL     OW16804   0.052   1.714  17.310  0.6278 -0.1554 -0.1881
 1724SOL    HW116805   0.062   1.777  17.380  0.1882 -0.9477  0.5944
 1724SOL    HW216806   0.018   1.642  17.364 -0.5471 -1.1053 -2.1757
 1725SOL     OW16807   2.535   2.570   2.277 -0.0262  0.0191 -0.0449
 1725SOL    HW116808   2.479   2.509   2.325  2.5059 -1.3007  1.1747
 1725SOL    HW216809   2.597   2.517   2.228 -0.9889 -1.6623  0.5772
 1726SOL     OW16810   1.839   1.006   9.535 -0.0104 -0.1753  0.1825
 1726SOL    HW116811   1.817   0.976   9.446 -4.2661  0.5897  0.9811
 1726SOL    HW216812   1.879   1.089   9.510 -1.1549 -0.0046 -1.1006
 1727SOL     OW16813   0.149   1.681  13.158  0.1976  0.2170  0.3534
 1727SOL    HW116814   0.085   1.719  13.098 -0.9865 -0.6181  1.0818
 1727SOL    HW216815   0.187   1.602  13.121  0.9799  1.3811 -1.3089
 1728SOL     OW16816   3.672   1.503   3.752  0.0224  0.0235 -0.3050
 1728SOL    HW116817   3.737   1.468   3.691 -1.1719  0.2384 -1.7273
 1728SOL    HW216818   3.670   1.435   3.818 -1.3801 -1.0837 -1.4948
 1729SOL     OW16819   0.907   0.068   6.396  0.4078  0.4438 -0.2971
 1729SOL    HW116820   0.999   0.088   6.379  0.3029  0.1775 -1.1478
 1729SOL    HW216821   0.854   0.128   6.344  1.2849  2.4182  1.1010
 1730SOL     OW16822   1.447   3.446   9.229 -0.1563 -0.0460  0.5459
 1730SOL    HW116823   1.480   3.378   9.288 -1.9298 -0.1876  1.3991
 1730SOL    HW216824   1.485   3.524   9.268  0.0133  1.3839 -2.4942
 1731SOL     OW16825   0.110   1.711   3.349  0.4791  0.2093  0.0029
 1731SOL    HW116826   0.185   1.689   3.294  0.4506  1.1496 -0.4001
 1731SOL    HW216827   0.045   1.696   3.281  1.8755  1.0387 -1.5075
 1732SOL     OW16828   2.086   0.382  14.500  0.1452 -0.0771  0.1534
 1732SOL    HW116829   2.123   0.465  14.529  2.4829 -1.6203  1.5997
 1732SOL    HW216830   2.157   0.322  14.524  0.3265 -0.1308 -0.5298
 1733SOL     OW16831   0.106   2.990  13.898  0.6014 -0.3001 -0.4019
 1733SOL    HW116832   0.107   2.907  13.946 -2.0774 -0.3328 -0.3973
 1733SOL    HW216833   0.114   3.050  13.973 -2.9703 -1.2147  0.7429
 1734SOL     OW16834   3.687   3.625   2.096 -0.5468 -0.1310  0.1388
 1734SOL    HW116835   3.630   3.682   2.148  0.4619  2.2555 -1.3632
 1734SOL    HW216836   3.761   3.683   2.078 -0.1322 -0.7070 -0.0273
 1735SOL     OW16837   4.531   2.689   2.802 -0.3051 -0.3475  0.5478
 1735SOL    HW116838   4.560   2.598   2.795 -0.9448 -0.7031  2.5540
 1735SOL    HW216839   4.594   2.734   2.747 -1.5391 -0.0393 -0.6270
 1736SOL     OW16840   0.137   4.032   7.298 -0.6579  0.1703  0.3760
 1736SOL    HW116841   0.062   4.075   7.339 -1.5143 -1.0242  0.0667
 1736SOL    HW216842   0.104   3.942   7.297 -0.1381 -0.0260  0.6693
 1737SOL     OW16843   3.595   4.082   8.447  0.0645 -0.1211 -0.0844
 1737SOL    HW116844   3.527   4.028   8.489 -0.7206  0.7050 -0.2953
 1737SOL    HW216845   3.652   4.109   8.519 -0.3712  0.5774 -0.0073
 1738SOL     OW16846   3.728   2.976   4.670 -0.8291  0.1566 -0.1058
 1738SOL    HW116847   3.681   2.965   4.588  2.7987 -2.8902 -1.7683
 1738SOL    HW216848   3.789   2.902   4.671  0.6717  1.3849 -2.2365
 1739SOL     OW16849   2.575   3.909   0.165 -0.4108 -0.4475  0.5324
 1739SOL    HW116850   2.523   3.967   0.110 -1.0968 -0.9577  0.6380
 1739SOL    HW216851   2.522   3.887   0.242  0.1086 -0.4035  0.8993
 1740SOL     OW16852   4.383   1.886   3.323  0.0003  0.2007  0.3661
 1740SOL    HW116853   4.303   1.834   3.334 -0.7670  1.4832  0.8153
 1740SOL    HW216854   4.439   1.873   3.400  1.7967  2.4986 -0.5570
 1741SOL     OW16855   0.825   4.459  10.638  0.5755  0.0679 -0.4020
 1741SOL    HW116856   0.804   4.480  10.547 -2.7975 -2.5294 -0.2015
 1741SOL    HW216857   0.746   4.487  10.683  0.7242  1.5193 -1.0378
 1742SOL     OW16858   2.185   1.716   4.209 -0.3796  0.7522 -0.4570
 1742SOL    HW116859   2.138   1.639   4.176  0.2992  0.5240 -0.8885
 1742SOL    HW216860   2.129   1.792   4.191 -2.1824 -0.4426  0.0342
 1743SOL     OW16861   0.224   0.691   5.945  0.5591 -0.2595  0.1875
 1743SOL    HW116862   0.131   0.704   5.926  1.3349  1.6267 -2.4462
 1743SOL    HW216863   0.263   0.662   5.863  1.0684  0.2806  0.2350
 1744SOL     OW16864   0.134   3.371   5.944  0.1791 -0.1589 -0.0858
 1744SOL    HW116865   0.057   3.359   6.000  0.3298 -0.4571  0.0544
 1744SOL    HW216866   0.175   3.455   5.963 -2.3254  0.3081  3.2887
 1745SOL     OW16867   1.569   1.670   4.785 -0.3466  0.1506  0.1489
 1745SOL    HW116868   1.655   1.663   4.826  0.2976  0.8040 -1.0641
 1745SOL    HW216869   1.593   1.628   4.703  0.5446  0.3325  0.3197
 1746SOL     OW16870   4.181   1.154   6.393  0.8789 -0.2563 -0.1069
 1746SOL    HW116871   4.273   1.144   6.417  0.6460 -2.2187 -0.0248
 1746SOL    HW216872   4.185   1.242   6.355  0.0121 -0.5179 -0.8289
 1747SOL     OW16873   1.632   3.574  13.966 -0.6312  0.5478  0.3518
 1747SOL    HW116874   1.672   3.542  13.885  0.7140  0.4516  1.0533
 1747SOL    HW216875   1.695   3.641  13.993  0.8917 -0.3969 -0.8867
 1748SOL     OW16876   2.907   1.419   6.635 -0.3347  0.5866  0.3558
 1748SOL    HW116877   2.816   1.440   6.657 -0.7703 -1.8228  0.8086
 1748SOL    HW216878   2.886   1.327   6.621  1.7466  0.2871 -0.7665
 1749SOL     OW16879   0.964   3.995   9.333  0.4721 -0.1177  0.1724
 1749SOL    HW116880   0.943   3.904   9.314  0.8644  0.1431 -1.5060
 1749SOL    HW216881   0.879   4.022   9.366  0.5973  0.2852  0.1648
 1750SOL     OW16882   3.747   0.662   7.888 -0.2085 -0.4180 -0.0720
 1750SOL    HW116883   3.675   0.669   7.951  0.8436  1.6186  0.9118
 1750SOL    HW216884   3.703   0.628   7.811 -0.6021 -0.4126  0.1512
 1751SOL     OW16885   0.927   0.167   8.949 -0.6066 -0.3655  0.0542
 1751SOL    HW116886   0.860   0.236   8.954  0.6678  0.5598  4.1494
 1751SOL    HW216887   0.889   0.106   8.885 -0.9380 -0.1279  0.0239
 1752SOL     OW16888   3.144   3.994   3.574  0.3851  0.0395  0.5336
 1752SOL    HW116889   3.164   3.971   3.665 -0.3807 -3.2961 -0.1578
 1752SOL    HW216890   3.098   4.077   3.583 -0.4781 -0.3881 -0.0220
 1753SOL     OW16891   3.814   4.539   7.984 -0.3626  0.1457  0.4476
 1753SOL    HW116892   3.733   4.591   7.982 -0.1459  0.4851  0.5020
 1753SOL    HW216893   3.813   4.518   7.890  0.8250 -3.2800  1.1835
 1754SOL     OW16894   2.886   2.666   3.434 -0.3456 -1.1321 -0.2309
 1754SOL    HW116895   2.862   2.727   3.504 -0.1351 -0.0615 -1.1027
 1754SOL    HW216896   2.926   2.727   3.372 -1.4864  0.3057  0.4482
 1755SOL     OW16897   0.756   3.123  15.588  0.0904 -0.3311  0.4073
 1755SOL    HW116898   0.735   3.216  15.597 -0.0470 -0.1898 -1.3036
 1755SOL    HW216899   0.760   3.088  15.677 -0.4567  0.2384  0.6589
 1756SOL     OW16900   3.424   1.581  11.653 -0.0618  0.0979 -0.2589
 1756SOL    HW116901   3.511   1.599  11.618 -0.1117 -3.5601 -2.2861
 1756SOL    HW216902   3.397   1.513  11.592  2.2419  0.8333 -2.0645
 1757SOL     OW16903   2.623   1.220  16.960  0.1433  0.0717 -0.1482
 1757SOL    HW116904   2.584   1.268  16.887 -1.4468  0.2874  0.8471
 1757SOL    HW216905   2.598   1.130  16.942  2.8707 -0.5549 -0.8157
 1758SOL     OW16906   2.560   2.234  11.723  0.0826 -0.5937 -0.2191
 1758SOL    HW116907   2.520   2.320  11.737 -2.7735 -1.5127 -2.6554
 1758SOL    HW216908   2.624   2.236  11.794 -0.9168  1.2052  0.6245
 1759SOL     OW16909   0.400   4.590   0.330 -0.0839 -0.5333 -0.3848
 1759SOL    HW116910   0.397   4.501   0.294  0.7779 -0.8565  0.3581
 1759SOL    HW216911   0.418   4.640   0.250 -1.3059  2.5737  1.2764
 1760SOL     OW16912   2.612   3.021   2.685  0.3994 -0.1791 -0.5840
 1760SOL    HW116913   2.521   3.041   2.665 -0.8371 -2.3042  2.9219
 1760SOL    HW216914   2.634   3.106   2.725  1.7292 -0.6305 -0.3389
 1761SOL     OW16915   1.836   4.622   8.415 -0.0334  0.6385  0.3037
 1761SOL    HW116916   1.892   4.565   8.468  1.4830  0.6677 -1.2711
 1761SOL    HW216917   1.749   4.613   8.454  0.3298 -3.1148  0.2711
 1762SOL     OW16918   0.892   0.400  17.059 -0.5152  0.5574  0.1585
 1762SOL    HW116919   0.856   0.410  16.971 -0.6320  0.7460  0.2282
 1762SOL    HW216920   0.898   0.493  17.079  1.7212 -0.0145  2.1536
 1763SOL     OW16921   0.520   1.627   6.371 -0.1848 -0.2402 -0.1364
 1763SOL    HW116922   0.538   1.719   6.392  0.3971 -0.1954 -0.8220
 1763SOL    HW216923   0.585   1.582   6.426  0.1225  0.3553 -0.0078
 1764SOL     OW16924   3.404   4.441  17.026 -0.1683  0.2273  0.7750
 1764SOL    HW116925   3.490   4.480  17.046 -0.1976  0.4023  0.5666
 1764SOL    HW216926   3.358   4.487  17.095  2.1094  3.6475  0.0337
 1765SOL     OW16927   1.283   4.179   3.838  0.3541 -0.1990 -0.2583
 1765SOL    HW116928   1.209   4.207   3.784  0.4952 -1.5177 -1.1321
 1765SOL    HW216929   1.294   4.263   3.882  1.8291 -0.5927  0.1182
 1766SOL     OW16930   0.018   0.089   6.438 -0.1247 -0.6959  0.1817
 1766SOL    HW116931   0.071   0.164   6.465 -0.4743 -0.1433 -0.6710
 1766SOL    HW216932   0.083   0.026   6.467  0.0902 -0.5092  0.1068
 1767SOL     OW16933   2.190   2.876   9.257 -0.4602 -0.3242  0.1698
 1767SOL    HW116934   2.099   2.876   9.287 -0.9145 -0.2901 -1.2037
 1767SOL    HW216935   2.165   2.827   9.178 -1.3811  0.2306  0.1175
 1768SOL     OW16936   4.679   3.894   8.699  0.5510  0.0324  0.0765
 1768SOL    HW116937   4.633   3.961   8.749  1.3654  0.4867  0.2306
 1768SOL    HW216938   4.633   3.817   8.732  0.0954  0.9181  1.5074
 1769SOL     OW16939   2.352   0.238   7.910 -0.1061  0.0023  0.2023
 1769SOL    HW116940   2.429   0.251   7.966  0.9554  0.6631 -1.3619
 1769SOL    HW216941   2.391   0.166   7.861 -1.9119 -1.1101  0.4121
 1770SOL     OW16942   1.608   0.115   3.915  0.3010  0.4452 -0.0836
 1770SOL    HW116943   1.624   0.034   3.963 -0.2578 -1.6390 -3.4641
 1770SOL    HW216944   1.622   0.079   3.828 -0.1983 -0.8178  0.3550
 1771SOL     OW16945   4.213   0.278   2.700  0.5432  0.4211  0.4212
 1771SOL    HW116946   4.285   0.327   2.740 -0.3534  0.7118  1.6999
 1771SOL    HW216947   4.208   0.199   2.754 -0.3994  1.0545  1.2677
 1772SOL     OW16948   3.285   2.246   5.422 -0.3128 -0.1030 -0.9813
 1772SOL    HW116949   3.228   2.209   5.490  2.3741  1.1721  1.9291
 1772SOL    HW216950   3.237   2.324   5.393 -1.2347 -0.1373  0.4557
 1773SOL     OW16951   0.760   2.405   5.718 -0.1010  0.6548  1.0095
 1773SOL    HW116952   0.680   2.456   5.736  0.3456  1.4677  0.6993
 1773SOL    HW216953   0.811   2.434   5.794 -1.0470 -1.1902  2.3633
 1774SOL     OW16954   2.679   4.125   1.286  0.2740 -0.0923  0.2632
 1774SOL    HW116955   2.756   4.069   1.282  1.1277  1.0923  0.3362
 1774SOL    HW216956   2.703   4.192   1.223  0.2116 -1.2592 -0.9913
 1775SOL     OW16957   3.704   4.161   3.149  0.0508 -0.3564 -0.1800
 1775SOL    HW116958   3.778   4.211   3.186  0.2788  0.4964 -1.7794
 1775SOL    HW216959   3.737   4.136   3.063 -1.8032 -1.3743 -0.5841
 1776SOL     OW16960   0.635   2.349   7.074 -0.0297 -0.0740 -0.0054
 1776SOL    HW116961   0.603   2.438   7.061  1.5174  0.6085  0.7735
 1776SOL    HW216962   0.555   2.302   7.095  0.4707 -0.6513  0.6229
 1777SOL     OW16963   4.585   2.686   8.729 -0.1401  0.1616 -0.4281
 1777SOL    HW116964   4.575   2.775   8.764  0.9205  0.2871 -0.4308
 1777SOL    HW216965   4.510   2.652   8.777 -0.6080  1.1872 -0.4357
 1778SOL     OW16966   0.912   1.199  16.444  0.3064 -0.4532  0.7382
 1778SOL    HW116967   0.990   1.149  16.469  2.4244  2.4269 -0.0092
 1778SOL    HW216968   0.869   1.138  16.384  0.7027 -0.6494  0.6556
 1779SOL     OW16969   4.541   0.411   7.136 -0.2120  0.4030  0.4185
 1779SOL    HW116970   4.520   0.322   7.107  1.8932  0.0091  0.1132
 1779SOL    HW216971   4.562   0.458   7.055  0.6182  0.4112  0.6355
 1780SOL     OW16972   2.849   3.444  10.069 -0.1921  0.7986 -0.2178
 1780SOL    HW116973   2.844   3.483   9.982 -1.7244  0.4994 -0.2518
 1780SOL    HW216974   2.859   3.527  10.116 -4.2516 -1.0682  3.8694
 1781SOL     OW16975   0.134   4.379   4.033 -0.4347 -0.2333 -0.0119
 1781SOL    HW116976   0.080   4.458   4.040  1.7648  1.2415  0.3740
 1781SOL    HW216977   0.179   4.401   3.952  0.4127  0.6477  0.6901
 1782SOL     OW16978   0.579   3.523  11.192  0.6619 -0.0278  0.6335
 1782SOL    HW116979   0.545   3.460  11.255 -1.0197  1.4107  1.1673
 1782SOL    HW216980   0.517   3.593  11.213 -2.0617 -2.2836  0.0724
 1783SOL     OW16981   4.333   1.383  15.598 -0.2165  0.4825 -0.1267
 1783SOL    HW116982   4.335   1.454  15.533  1.4481 -2.0675 -2.8518
 1783SOL    HW216983   4.253   1.408  15.644  0.5946 -0.9593  2.0501
 1784SOL     OW16984   3.977   2.415   4.333  0.1437  0.2745 -0.1850
 1784SOL    HW116985   3.964   2.427   4.427 -0.9923  0.9939 -0.4294
 1784SOL    HW216986   4.011   2.326   4.324  0.0625  0.2437 -0.1880
 1785SOL     OW16987   1.962   2.106   5.726  0.4461  0.0816 -0.2127
 1785SOL    HW116988   1.874   2.140   5.708  0.7147  2.0158  2.0424
 1785SOL    HW216989   1.999   2.192   5.747  3.8160 -1.7697  1.3993
 1786SOL     OW16990   1.049   2.739  14.893 -0.3093 -0.5471  0.0184
 1786SOL    HW116991   1.080   2.650  14.880 -2.0030 -0.8349 -2.0624
 1786SOL    HW216992   1.000   2.729  14.975 -1.2280 -1.3621 -0.6215
 1787SOL     OW16993   2.900   0.285   9.031 -0.1597 -0.1423  0.2198
 1787SOL    HW116994   2.892   0.254   9.122  2.5504 -2.6553 -0.3891
 1787SOL    HW216995   2.816   0.275   8.988  0.0549  1.7021 -0.6453
 1788SOL     OW16996   3.470   2.227  12.422  0.3468 -0.9734  0.1972
 1788SOL    HW116997   3.563   2.240  12.442  0.0893  1.8032 -0.4449
 1788SOL    HW216998   3.427   2.304  12.458 -0.3569 -0.4384 -1.7932
 1789SOL     OW16999   0.079   3.288   9.033  0.3537  0.4089  0.4105
 1789SOL    HW117000   0.057   3.353   9.099  0.6401  1.1374 -0.2099
 1789SOL    HW217001   4.731   3.290   8.982  0.0387  0.6772  0.9288
 1790SOL     OW17002   2.558   0.840  15.323  0.4965  0.0380  0.8397
 1790SOL    HW117003   2.551   0.889  15.405  2.4970  0.4560  0.7500
 1790SOL    HW217004   2.530   0.753  15.348  1.0514 -0.4605 -0.2633
 1791SOL     OW17005   2.561   1.550   9.939  0.1780 -0.3400  0.0003
 1791SOL    HW117006   2.637   1.527   9.993 -0.4210  0.3672  1.1440
 1791SOL    HW217007   2.554   1.643   9.961  3.0527 -1.1176  4.2386
 1792SOL     OW17008   3.059   0.518   9.124 -0.4562  1.2682 -0.6409
 1792SOL    HW117009   3.017   0.454   9.067 -0.1954 -0.0883  0.6919
 1792SOL    HW217010   3.078   0.455   9.193 -0.2492  1.9198 -0.1082
 1793SOL     OW17011   3.629   0.617   7.653 -0.3292 -0.3694 -0.0604
 1793SOL    HW117012   3.572   0.540   7.649 -1.0616  0.1590  0.0970
 1793SOL    HW217013   3.697   0.606   7.587  0.0283 -0.4339  0.3168
 1794SOL     OW17014   1.011   0.725  12.434  0.4045  0.0440 -0.3966
 1794SOL    HW117015   0.979   0.668  12.364 -0.4425  0.2115 -0.1476
 1794SOL    HW217016   0.952   0.697  12.505  1.8945 -0.4579  0.6543
 1795SOL     OW17017   3.896   1.978   2.946 -0.5415 -0.0102  0.0434
 1795SOL    HW117018   3.988   1.991   2.919 -0.4346 -1.0659 -0.0788
 1795SOL    HW217019   3.899   1.892   2.988 -0.1803  0.7559  1.5828
 1796SOL     OW17020   2.222   0.622   8.892  0.8111  0.1639 -0.1509
 1796SOL    HW117021   2.193   0.713   8.880  0.0243  0.1123  1.3027
 1796SOL    HW217022   2.314   0.638   8.915  0.5246  1.5862 -0.0176
 1797SOL     OW17023   0.299   1.457   8.106  0.4284  0.1382  0.3381
 1797SOL    HW117024   0.333   1.490   8.023 -1.8543  2.8998  0.5107
 1797SOL    HW217025   0.236   1.524   8.131  1.7630  1.1767  0.8841
 1798SOL     OW17026   2.494   0.847   7.513 -0.3772 -0.1521 -0.3595
 1798SOL    HW117027   2.454   0.934   7.509 -0.8247 -0.2597  1.8005
 1798SOL    HW217028   2.466   0.819   7.601 -1.9294  1.9350 -0.1931
 1799SOL     OW17029   1.652   2.804   7.511 -0.3124 -0.2281 -0.0643
 1799SOL    HW117030   1.628   2.890   7.546  0.0026 -1.1860  2.4963
 1799SOL    HW217031   1.567   2.790   7.467 -0.2424  0.2990 -0.3666
 1800SOL     OW17032   2.373   4.583   9.065  0.5272  0.0444  0.5548
 1800SOL    HW117033   2.315   4.649   9.103 -0.7206 -0.4664 -0.4518
 1800SOL    HW217034   2.394   4.522   9.136  0.0553  1.5586  2.0007
 1801SOL     OW17035   3.762   0.854   0.405 -0.6068 -0.2113  0.1006
 1801SOL    HW117036   3.691   0.802   0.367 -1.0408 -0.2511  0.9702
 1801SOL    HW217037   3.771   0.908   0.327 -1.0152  0.3647  0.4517
 1802SOL     OW17038   4.478   1.882  11.659 -0.1934 -0.0969 -0.0760
 1802SOL    HW117039   4.446   1.927  11.581 -0.5543 -0.7935 -0.3289
 1802SOL    HW217040   4.571   1.900  11.675 -0.0985 -1.8988  1.3976
 1803SOL     OW17041   4.576   2.575   9.357  0.0594  0.3726 -0.0495
 1803SOL    HW117042   4.666   2.553   9.332  0.7668  1.0994  1.8019
 1803SOL    HW217043   4.558   2.629   9.281  0.2789  2.6108  1.4974
 1804SOL     OW17044   3.318   4.579   1.983 -0.0763  0.1731  0.0415
 1804SOL    HW117045   3.365   4.583   1.900 -1.2575  0.3157 -0.6195
 1804SOL    HW217046   3.378   4.526   2.036  0.4356  0.2099 -0.4992
 1805SOL     OW17047   4.313   1.913   2.382 -0.4523  0.1644  0.6460
 1805SOL    HW117048   4.327   1.882   2.293 -3.0108 -1.0039  0.6532
 1805SOL    HW217049   4.383   1.977   2.394  0.5931 -0.6145 -1.4187
 1806SOL     OW17050   3.557   4.714   9.854  0.7221  0.5486 -0.6896
 1806SOL    HW117051   3.593   4.638   9.807 -2.3846 -2.1213  1.2251
 1806SOL    HW217052   3.563   0.034   9.775  2.9202  1.2961 -0.0052
 1807SOL     OW17053   2.092   2.796   0.274 -0.0077  0.1047 -0.1805
 1807SOL    HW117054   2.173   2.806   0.223 -0.1709  1.5009 -0.1525
 1807SOL    HW217055   2.082   2.883   0.312 -3.0267  0.3318 -1.4800
 1808SOL     OW17056   4.473   4.647   9.645 -0.0465 -0.1726 -0.6380
 1808SOL    HW117057   4.403   4.636   9.581 -0.7853 -0.7952  0.2832
 1808SOL    HW217058   4.419   4.624   9.720  1.6523  0.7435  0.8653
 1809SOL     OW17059   1.241   0.534   6.013  0.4642  0.1148  0.2679
 1809SOL    HW117060   1.256   0.524   6.107  0.4389  0.5101  0.3164
 1809SOL    HW217061   1.300   0.468   5.977 -2.4836 -2.0908 -0.6051
 1810SOL     OW17062   1.325   2.986   4.978  0.0962 -0.5744  0.4639
 1810SOL    HW117063   1.327   2.891   4.987  1.5681 -0.4378  1.6431
 1810SOL    HW217064   1.296   3.011   5.065 -1.4307 -0.0578 -0.1891
 1811SOL     OW17065   2.911   3.227   7.774 -0.2296  0.0870  0.2394
 1811SOL    HW117066   2.834   3.228   7.718  0.9466  6.1560 -1.2436
 1811SOL    HW217067   2.893   3.297   7.836 -1.8100  0.2838 -0.4346
 1812SOL     OW17068   1.865   3.154   3.482  0.5170 -0.1478  0.1093
 1812SOL    HW117069   1.904   3.206   3.412  1.4555 -2.7174 -1.2744
 1812SOL    HW217070   1.776   3.187   3.496  0.1359 -1.1663  0.1181
 1813SOL     OW17071   1.377   2.267  12.781  0.3835  0.3339 -0.2903
 1813SOL    HW117072   1.388   2.362  12.782 -1.0882  0.4998 -2.4628
 1813SOL    HW217073   1.470   2.244  12.778  0.9147  2.3747  0.2151
 1814SOL     OW17074   1.195   2.035   2.478  0.6456  0.3321  0.4603
 1814SOL    HW117075   1.125   2.016   2.416  1.8250  0.9539 -1.0588
 1814SOL    HW217076   1.184   2.128   2.493 -1.2814  0.2847 -0.6840
 1815SOL     OW17077   0.848   1.503  16.099  0.2921 -0.2173  0.5712
 1815SOL    HW117078   0.768   1.548  16.071  0.3591 -0.2867  0.2720
 1815SOL    HW217079   0.835   1.423  16.048 -1.3573  1.2181 -1.2450
 1816SOL     OW17080   3.850   3.650   3.826  0.6323  0.0868 -0.3256
 1816SOL    HW117081   3.868   3.697   3.745 -2.0948 -0.0902 -1.0206
 1816SOL    HW217082   3.890   3.565   3.806  0.7347 -0.3925  1.9684
 1817SOL     OW17083   4.518   4.486  17.360  0.5515 -0.7470 -1.2275
 1817SOL    HW117084   4.461   4.445  17.295 -1.3844  1.1335 -0.6865
 1817SOL    HW217085   4.604   4.482  17.318  1.5136  2.4689  0.4218
 1818SOL     OW17086   2.975   4.481  11.134  0.6475  0.4685  0.4701
 1818SOL    HW117087   2.939   4.530  11.209 -1.9962 -2.5792  1.1950
 1818SOL    HW217088   2.898   4.470  11.078  0.7050  2.1192  0.0641
 1819SOL     OW17089   0.353   3.059   5.271  0.1843  0.0157  0.0668
 1819SOL    HW117090   0.371   3.108   5.190 -1.9524  0.6014 -0.0508
 1819SOL    HW217091   0.267   3.092   5.294 -0.0320 -1.7305  1.7380
 1820SOL     OW17092   2.853   3.649   4.209 -0.3115  0.2439 -0.4218
 1820SOL    HW117093   2.907   3.728   4.202  0.1172 -0.4107 -4.3069
 1820SOL    HW217094   2.918   3.582   4.232 -0.3141  0.0603 -0.9679
 1821SOL     OW17095   1.268   3.558   2.413 -0.5259 -0.2841 -0.1137
 1821SOL    HW117096   1.292   3.492   2.349 -0.7809 -0.7722  0.2920
 1821SOL    HW217097   1.174   3.557   2.393 -0.3642 -1.6933 -0.7997
 1822SOL     OW17098   1.877   1.251   5.673 -0.1012 -0.2970  0.5712
 1822SOL    HW117099   1.959   1.205   5.692  0.3443  0.3374  0.1827
 1822SOL    HW217100   1.872   1.310   5.748 -1.4192  1.6501 -1.0637
 1823SOL     OW17101   2.188   0.489  16.633  0.2082 -0.5698 -0.6298
 1823SOL    HW117102   2.272   0.503  16.590  0.7611 -3.4944 -0.5014
 1823SOL    HW217103   2.190   0.405  16.677 -0.5082 -1.0821 -1.5687
 1824SOL     OW17104   2.758   3.864   7.189 -0.7495  0.2123  0.0840
 1824SOL    HW117105   2.815   3.866   7.265  0.6121  1.0549 -0.9551
 1824SOL    HW217106   2.807   3.843   7.109  1.1327 -2.0701  1.8453
 1825SOL     OW17107   0.481   2.369  12.202  0.1934  0.2547  0.3248
 1825SOL    HW117108   0.470   2.405  12.290  1.3933 -2.2064  1.4712
 1825SOL    HW217109   0.390   2.363  12.173 -0.1413  1.0865  1.2218
 1826SOL     OW17110   2.165   1.248   4.141  0.2577  0.5893 -0.3773
 1826SOL    HW117111   2.237   1.237   4.202 -0.1181  1.6027  0.2418
 1826SOL    HW217112   2.181   1.339   4.116 -0.9936  1.1642  0.9006
 1827SOL     OW17113   2.552   2.571   6.546  0.4133  0.2793  0.1176
 1827SOL    HW117114   2.529   2.624   6.470  0.6864 -0.4523 -0.4666
 1827SOL    HW217115   2.522   2.620   6.623 -1.4804 -0.5119 -0.1159
 1828SOL     OW17116   3.489   1.849   2.981  0.3038 -0.2792 -0.2873
 1828SOL    HW117117   3.426   1.909   3.020 -1.3219 -2.1424 -0.0317
 1828SOL    HW217118   3.435   1.774   2.957  1.2448 -1.0438 -0.0175
 1829SOL     OW17119   1.513   3.532   4.756  0.2974  0.2085  0.3110
 1829SOL    HW117120   1.585   3.500   4.810  0.2209  1.8230  1.3640
 1829SOL    HW217121   1.530   3.626   4.750  1.1715 -0.1886 -3.4851
 1830SOL     OW17122   2.263   2.840   4.787  0.2771  0.2538 -0.1750
 1830SOL    HW117123   2.177   2.797   4.790  0.4474  0.0121  1.3908
 1830SOL    HW217124   2.282   2.848   4.880  1.5834 -0.8166 -0.3668
 1831SOL     OW17125   3.188   1.714   1.889  0.5261 -0.1593 -0.1034
 1831SOL    HW117126   3.233   1.792   1.922  0.7043 -0.8735  1.3480
 1831SOL    HW217127   3.232   1.648   1.943  0.6924 -0.0763 -0.1368
 1832SOL     OW17128   3.158   4.656   7.170 -0.0495  0.1593  0.2092
 1832SOL    HW117129   3.222   4.658   7.241 -0.6782  2.0837  0.7156
 1832SOL    HW217130   3.154   4.562   7.152 -0.1835  0.5943 -2.0305
 1833SOL     OW17131   1.938   3.334   7.881 -0.3178 -0.3003  0.3749
 1833SOL    HW117132   1.854   3.346   7.837 -0.1751  0.3020  0.2592
 1833SOL    HW217133   1.989   3.359   7.803 -0.4890  2.5206  1.1623
 1834SOL     OW17134   4.276   3.178   2.626  0.2698  0.7479  0.3288
 1834SOL    HW117135   4.365   3.157   2.654 -0.7793 -2.1167  1.4848
 1834SOL    HW217136   4.252   3.249   2.686 -0.0574  0.0713  1.0046
 1835SOL     OW17137   1.765   3.703   6.354 -0.3693 -0.2751 -0.2847
 1835SOL    HW117138   1.804   3.630   6.305 -2.0778 -1.5345  0.2000
 1835SOL    HW217139   1.717   3.661   6.425 -0.4557  0.6001  0.1618
 1836SOL     OW17140   3.354   4.609  11.498 -0.2838  0.0012  0.3224
 1836SOL    HW117141   3.418   4.680  11.493  1.0993 -1.2220  0.5760
 1836SOL    HW217142   3.285   4.646  11.444 -2.0446 -2.4792  0.9046
 1837SOL     OW17143   0.280   1.520   4.837  0.7725 -0.0196 -0.2373
 1837SOL    HW117144   0.232   1.590   4.792  1.4679  0.4168 -0.2938
 1837SOL    HW217145   0.274   1.446   4.777  3.1391 -2.2989  2.3475
 1838SOL     OW17146   1.810   2.917   5.440 -0.1552  0.2604 -0.1661
 1838SOL    HW117147   1.893   2.951   5.408 -1.2582 -0.6516 -4.0121
 1838SOL    HW217148   1.783   2.866   5.363  0.6028  0.0925 -0.3151
 1839SOL     OW17149   0.187   0.170  10.263 -0.3173 -0.7869  0.1246
 1839SOL    HW117150   0.228   0.177  10.177  0.2174 -1.3523  0.3298
 1839SOL    HW217151   0.120   0.101  10.262 -1.9541  0.8137  1.1048
 1840SOL     OW17152   0.254   1.919   3.802 -0.2150  0.1119  0.7246
 1840SOL    HW117153   0.216   1.904   3.715  0.6707 -1.2307  0.5543
 1840SOL    HW217154   0.199   1.989   3.835 -1.2582 -1.0975  1.5125
 1841SOL     OW17155   0.280   3.017  10.314  0.3123 -0.4487 -0.2072
 1841SOL    HW117156   0.331   3.097  10.320 -1.6124  0.9439 -2.3683
 1841SOL    HW217157   0.207   3.039  10.372  0.1557  0.1502 -0.6365
 1842SOL     OW17158   0.581   3.380   4.824  0.2219  0.2535  0.1073
 1842SOL    HW117159   0.524   3.449   4.858 -0.1887  0.4616 -1.0073
 1842SOL    HW217160   0.620   3.347   4.906 -1.1207  1.9130  1.4109
 1843SOL     OW17161   3.553   2.468  16.705  0.2036 -0.0317  0.2072
 1843SOL    HW117162   3.607   2.413  16.648  0.1076  1.8939 -1.7395
 1843SOL    HW217163   3.619   2.537  16.710 -0.5000  0.6349  0.1236
 1844SOL     OW17164   4.112   1.970   4.633 -0.5143 -0.1854  0.0177
 1844SOL    HW117165   4.166   2.038   4.593 -0.0236 -1.3631 -1.3041
 1844SOL    HW217166   4.138   1.889   4.590 -0.8697  0.7507 -1.9917
 1845SOL     OW17167   3.414   3.591   0.225  0.1156  0.1462 -0.2021
 1845SOL    HW117168   3.509   3.599   0.215  0.1664  0.9357  0.8446
 1845SOL    HW217169   3.400   3.576   0.319  1.1513  2.5161  0.3347
 1846SOL     OW17170   3.223   4.003   7.680 -0.0246  0.3490 -0.1932
 1846SOL    HW117171   3.150   3.999   7.619 -0.8718  1.0792  0.7850
 1846SOL    HW217172   3.200   3.947   7.753  1.0065  0.3701  0.1549
 1847SOL     OW17173   2.400   3.848   9.472 -0.6487  0.0164  0.0491
 1847SOL    HW117174   2.466   3.883   9.411  1.3723 -0.7594  1.7911
 1847SOL    HW217175   2.328   3.846   9.409 -1.1408 -0.5537  0.6353
 1848SOL     OW17176   4.350   2.742   6.231  0.4234 -0.0648 -0.3458
 1848SOL    HW117177   4.356   2.823   6.282 -1.4746  0.3044 -0.6825
 1848SOL    HW217178   4.443   2.724   6.217  0.8350  2.7738 -1.3021
 1849SOL     OW17179   2.288   3.762   2.471 -0.2923 -0.3392 -0.3287
 1849SOL    HW117180   2.360   3.822   2.454  3.2384 -3.2318  4.5390
 1849SOL    HW217181   2.306   3.702   2.398 -1.8767 -2.6743  1.1829
 1850SOL     OW17182   4.322   4.714   6.181 -0.5405  0.4057 -0.0844
 1850SOL    HW117183   4.395   0.041   6.171 -0.2189 -0.0957 -0.7660
 1850SOL    HW217184   4.303   4.713   6.275 -0.6156 -0.5212 -0.1076
 1851SOL     OW17185   2.076   1.213  13.679  0.1144 -0.3233 -0.0631
 1851SOL    HW117186   2.148   1.167  13.635  0.7598 -0.6209  1.3044
 1851SOL    HW217187   2.116   1.290  13.719 -0.8571  1.0907 -1.8034
 1852SOL     OW17188   2.939   1.735   7.063 -0.6595  0.4723 -0.0102
 1852SOL    HW117189   2.966   1.793   7.134  0.8944 -1.9334  1.3657
 1852SOL    HW217190   3.006   1.669   7.043 -1.7995 -0.6385 -0.1962
 1853SOL     OW17191   4.104   3.731   8.325  0.1719 -0.2296 -0.5334
 1853SOL    HW117192   4.119   3.662   8.260  0.9147  0.7394 -1.3939
 1853SOL    HW217193   4.177   3.785   8.294  0.4908  0.4356  1.4112
 1854SOL     OW17194   3.939   1.482  12.706 -0.2992  0.2398 -0.1738
 1854SOL    HW117195   3.899   1.418  12.647 -0.5711 -0.6314  0.9611
 1854SOL    HW217196   3.856   1.519  12.736 -1.2440 -2.0951  0.1181
 1855SOL     OW17197   1.058   1.951   3.320 -0.3189 -0.6780 -0.5746
 1855SOL    HW117198   1.083   1.878   3.376 -0.6822 -1.4308 -1.4008
 1855SOL    HW217199   1.111   1.929   3.244 -1.6839 -0.9460 -1.4428
 1856SOL     OW17200   3.162   1.011   2.138 -0.5344 -0.3032  0.0283
 1856SOL    HW117201   3.125   1.043   2.220  1.7134 -0.2330  1.0075
 1856SOL    HW217202   3.248   1.049   2.155 -0.6707 -0.2168  0.5183
 1857SOL     OW17203   1.382   0.873  16.566 -0.2833 -0.0286  0.1486
 1857SOL    HW117204   1.299   0.825  16.564 -0.0922 -0.2479 -2.0433
 1857SOL    HW217205   1.426   0.843  16.486  0.6839  1.9907 -0.0716
 1858SOL     OW17206   0.792   4.025   5.338  0.5849  0.0377  0.2639
 1858SOL    HW117207   0.885   4.007   5.354  0.7561 -1.4262 -2.3585
 1858SOL    HW217208   0.760   4.002   5.426 -0.7194  1.7777  0.2436
 1859SOL     OW17209   1.771   4.123   2.592  0.2562 -0.4296 -0.4307
 1859SOL    HW117210   1.698   4.068   2.621  1.1379  0.4062  3.4615
 1859SOL    HW217211   1.769   4.191   2.660 -1.6325 -1.8598  0.9518
 1860SOL     OW17212   2.921   3.429   6.812 -0.4064  0.2558  0.2244
 1860SOL    HW117213   2.928   3.339   6.844 -0.9263 -1.2987 -3.9913
 1860SOL    HW217214   2.973   3.425   6.731 -0.3389 -1.4294  0.3492
 1861SOL     OW17215   0.870   2.680  10.957  0.0938  0.6199  0.4337
 1861SOL    HW117216   0.872   2.667  11.052 -1.5822  1.7450  0.6284
 1861SOL    HW217217   0.923   2.759  10.946 -0.3106  1.0807  1.7154
 1862SOL     OW17218   4.657   1.033  16.878  0.1976 -0.0087 -0.1276
 1862SOL    HW117219   0.004   1.050  16.829 -0.0577 -0.8648 -0.8576
 1862SOL    HW217220   4.635   0.941  16.863 -0.0153  0.1303 -0.6797
 1863SOL     OW17221   4.401   1.743  13.465  0.4242  0.4072  0.7023
 1863SOL    HW117222   4.497   1.742  13.472  0.4190 -0.0842  0.6759
 1863SOL    HW217223   4.370   1.757  13.554 -1.8182  1.2011 -0.1995
 1864SOL     OW17224   4.319   4.361   5.544 -0.1327 -0.5033  0.0141
 1864SOL    HW117225   4.272   4.325   5.620  0.2919 -0.9636  0.0630
 1864SOL    HW217226   4.341   4.284   5.492  2.1564 -0.5304  1.0271
 1865SOL     OW17227   3.513   0.179   6.358 -0.2707  0.0202  0.1694
 1865SOL    HW117228   3.517   0.221   6.443 -1.0588  1.8958 -0.7046
 1865SOL    HW217229   3.484   0.248   6.298  0.9245 -0.4349 -0.9543
 1866SOL     OW17230   2.638   2.868   2.913  0.7726 -0.3311 -0.1085
 1866SOL    HW117231   2.616   2.909   2.829  2.1294 -0.0035 -0.2981
 1866SOL    HW217232   2.552   2.870   2.955  0.2115  0.3456 -1.2678
 1867SOL     OW17233   2.003   0.221   0.148  0.2729  0.2849  0.0225
 1867SOL    HW117234   1.940   0.259   0.087  1.1073 -0.2586 -1.1714
 1867SOL    HW217235   2.082   0.225   0.095  0.3175  2.8364  0.2858
 1868SOL     OW17236   1.615   0.860   2.665  0.0271  0.4031  0.5670
 1868SOL    HW117237   1.702   0.887   2.691 -0.0729 -0.3544  1.6726
 1868SOL    HW217238   1.549   0.908   2.714  1.0519 -0.3737  2.6782
 1869SOL     OW17239   1.125   1.643   4.375 -0.1605 -0.8367  0.3907
 1869SOL    HW117240   1.079   1.565   4.345 -0.6215 -0.3972 -0.0375
 1869SOL    HW217241   1.188   1.645   4.303  2.4802 -0.5206  2.6962
 1870SOL     OW17242   3.201   0.300   2.746 -0.3185 -0.2541 -0.7824
 1870SOL    HW117243   3.134   0.234   2.731  1.1369 -1.9355  0.2074
 1870SOL    HW217244   3.145   0.372   2.716  1.4086  0.8946 -1.2684
 1871SOL     OW17245   0.144   0.187  12.696  0.2998 -0.1294  0.2278
 1871SOL    HW117246   0.177   0.226  12.615 -0.6478 -0.2533 -0.2273
 1871SOL    HW217247   0.227   0.146  12.718  0.1788 -0.1366  0.6658
 1872SOL     OW17248   3.789   0.411   4.200  0.4822  0.2565 -0.0297
 1872SOL    HW117249   3.876   0.445   4.221  1.5143 -1.8805 -0.8453
 1872SOL    HW217250   3.740   0.443   4.276 -0.1076 -2.1254  0.5982
 1873SOL     OW17251   3.866   1.410   6.267 -0.0032 -0.2446 -0.0416
 1873SOL    HW117252   3.805   1.419   6.194 -1.4894 -1.2239  1.0915
 1873SOL    HW217253   3.888   1.503   6.276  0.1637 -0.4365  1.4231
 1874SOL     OW17254   2.741   3.557   6.626 -1.2233  0.2839  0.1752
 1874SOL    HW117255   2.824   3.546   6.673 -1.6302 -1.8282  0.4193
 1874SOL    HW217256   2.778   3.598   6.548  2.9014 -0.6610  1.6077
 1875SOL     OW17257   4.454   0.887   6.414  0.5898 -0.1714  0.6824
 1875SOL    HW117258   4.547   0.892   6.391  0.8127 -1.1389  1.3713
 1875SOL    HW217259   4.469   0.830   6.490  0.5366 -2.5854 -1.1382
 1876SOL     OW17260   0.057   1.523   3.551 -0.9763  0.6822 -0.1977
 1876SOL    HW117261   0.059   1.455   3.483  1.3482  1.1234 -0.5687
 1876SOL    HW217262   0.084   1.590   3.488 -0.7551 -2.1225 -3.0933
 1877SOL     OW17263   3.917   0.638   0.584 -0.0068  0.1720  0.0902
 1877SOL    HW117264   3.963   0.565   0.624 -0.0932 -0.6731 -1.3365
 1877SOL    HW217265   3.979   0.705   0.612  1.4361 -1.2684  0.3617
 1878SOL     OW17266   1.016   2.188  12.712 -0.0860 -0.5117  0.1740
 1878SOL    HW117267   1.063   2.108  12.735  0.6777  0.4018  1.8066
 1878SOL    HW217268   0.937   2.158  12.668 -1.1996  1.2906  0.9492
 1879SOL     OW17269   3.173   3.697   7.314 -0.3303  0.3712  0.7107
 1879SOL    HW117270   3.144   3.663   7.229 -0.9634  2.3778  0.1268
 1879SOL    HW217271   3.185   3.624   7.374  0.1651 -2.2499 -2.5364
 1880SOL     OW17272   1.769   3.139   9.942 -0.4138  0.8051 -0.7690
 1880SOL    HW117273   1.854   3.110   9.976 -0.7186  0.4995 -0.2492
 1880SOL    HW217274   1.703   3.073   9.965  1.0053  0.1441  1.4536
 1881SOL     OW17275   4.236   1.290   4.912 -0.3098  0.3502 -0.7053
 1881SOL    HW117276   4.187   1.363   4.950 -0.5960  0.4479 -1.2642
 1881SOL    HW217277   4.323   1.294   4.952 -1.0368  0.5666  0.8367
 1882SOL     OW17278   4.315   3.826  13.440 -0.1448 -0.5431 -0.0043
 1882SOL    HW117279   4.221   3.823  13.426 -0.0029 -0.4914 -0.9819
 1882SOL    HW217280   4.345   3.889  13.374  0.9582 -1.9707 -0.8603
 1883SOL     OW17281   1.725   1.838   3.735 -0.4606  0.3430 -0.2225
 1883SOL    HW117282   1.755   1.890   3.809 -0.7765 -1.3006  1.0527
 1883SOL    HW217283   1.788   1.767   3.739 -0.5590  0.1905 -1.3336
 1884SOL     OW17284   3.019   1.655   9.069 -0.1551  0.1895  0.6050
 1884SOL    HW117285   2.976   1.693   8.993  0.5602 -1.1883 -0.4878
 1884SOL    HW217286   3.062   1.575   9.037 -3.5095 -0.6027 -1.8643
 1885SOL     OW17287   2.459   1.202   8.717 -0.2220 -0.1378  0.7111
 1885SOL    HW117288   2.366   1.183   8.724 -0.0578 -1.0985  0.2819
 1885SOL    HW217289   2.493   1.179   8.803  0.9899  0.1562  0.3239
 1886SOL     OW17290   1.500   4.276   2.699  0.6557 -0.4813 -0.2250
 1886SOL    HW117291   1.522   4.194   2.655 -1.3640 -1.4535  0.5584
 1886SOL    HW217292   1.545   4.331   2.635 -0.4143  0.9117  0.2091
 1887SOL     OW17293   1.775   1.614   4.254 -0.7387 -0.3057 -0.2297
 1887SOL    HW117294   1.798   1.705   4.274 -0.1131 -0.3024 -0.9631
 1887SOL    HW217295   1.850   1.595   4.197 -3.0373  0.4012 -3.4789
 1888SOL     OW17296   0.899   4.675   2.236 -0.2887  0.0342  0.0232
 1888SOL    HW117297   0.841   4.728   2.182  1.6043 -0.5938 -2.6032
 1888SOL    HW217298   0.843   4.642   2.307  0.1485 -0.5144  0.1211
 1889SOL     OW17299   4.280   0.685  11.883 -0.4773 -0.0787 -0.3996
 1889SOL    HW117300   4.198   0.635  11.877  0.6625 -1.9172 -0.6510
 1889SOL    HW217301   4.305   0.687  11.791  0.2398  1.3885 -0.1658
 1890SOL     OW17302   4.064   0.400  17.326 -0.7877 -0.6483 -0.9011
 1890SOL    HW117303   4.001   0.443  17.384  1.6350 -0.1793  1.3815
 1890SOL    HW217304   4.068   0.309  17.354 -0.7592 -0.0806  0.9616
 1891SOL     OW17305   0.465   2.830   0.404 -0.4679  0.3537  0.2809
 1891SOL    HW117306   0.460   2.808   0.311  0.4506 -0.1199  0.3503
 1891SOL    HW217307   0.498   2.920   0.401 -0.9608  0.4432 -2.1660
 1892SOL     OW17308   4.332   0.579   2.512  0.1682 -0.3886  0.0844
 1892SOL    HW117309   4.372   0.516   2.572  4.2591  0.5774 -1.6312
 1892SOL    HW217310   4.399   0.589   2.444 -0.5375  0.0567 -0.5538
 1893SOL     OW17311   3.739   4.040   3.436 -0.4623  0.3122  0.1695
 1893SOL    HW117312   3.679   4.063   3.365 -0.2281  1.8199  0.4752
 1893SOL    HW217313   3.796   3.985   3.383  0.6564 -0.9808  2.7095
 1894SOL     OW17314   1.964   0.004   6.909 -0.0437  0.0343  0.1867
 1894SOL    HW117315   1.956   0.050   6.993 -0.9551  0.9717 -0.4137
 1894SOL    HW217316   2.034   4.678   6.934 -1.4704 -1.8135 -0.2657
 1895SOL     OW17317   4.670   0.127   9.225  0.5758  0.7745  0.2289
 1895SOL    HW117318   0.031   0.122   9.228  0.5068 -1.3091 -0.9493
 1895SOL    HW217319   4.664   0.222   9.224 -0.3316  0.6887 -1.1651
 1896SOL     OW17320   0.435   1.615  16.665  0.1206 -0.3760 -0.0532
 1896SOL    HW117321   0.453   1.707  16.648  0.5012  0.1239  2.9655
 1896SOL    HW217322   0.346   1.618  16.699 -1.3525  1.3652 -4.0697
 1897SOL     OW17323   4.066   0.107   4.315 -0.5466 -0.2214  0.4474
 1897SOL    HW117324   3.971   0.109   4.307 -0.5666 -0.4155  0.6260
 1897SOL    HW217325   4.073   0.087   4.409 -0.5824 -0.2273  0.4486
 1898SOL     OW17326   2.934   1.274   9.039 -0.4198 -0.0050  0.4294
 1898SOL    HW117327   2.988   1.202   9.008  0.3720  0.0163  1.7515
 1898SOL    HW217328   2.984   1.301   9.116 -0.9466  1.3514  0.3090
 1899SOL     OW17329   0.328   4.703   8.702 -0.2823 -0.0199 -0.3818
 1899SOL    HW117330   0.269   4.644   8.749 -1.5358 -0.3656 -2.3693
 1899SOL    HW217331   0.389   4.641   8.661 -0.0426 -1.4411  2.1478
 1900SOL     OW17332   3.201   3.628  13.944 -0.3681  0.2671  0.1564
 1900SOL    HW117333   3.241   3.585  14.019  0.1891 -2.0177 -1.4338
 1900SOL    HW217334   3.164   3.552  13.899 -0.3630  0.5276 -0.2965
 1901SOL     OW17335   4.146   1.605   8.252 -0.1446 -0.9912  0.2036
 1901SOL    HW117336   4.215   1.543   8.275  0.5653 -0.2408  0.0951
 1901SOL    HW217337   4.128   1.646   8.336  0.9553 -0.9156  0.3987
 1902SOL     OW17338   4.076   0.432   8.215 -0.1417 -0.0565  0.3326
 1902SOL    HW117339   4.042   0.490   8.147 -0.5550 -0.6047  0.0756
 1902SOL    HW217340   4.039   0.351   8.179  3.7708 -2.1089  0.9428
 1903SOL     OW17341   1.745   1.351  16.206  0.0342 -0.3962 -0.2667
 1903SOL    HW117342   1.674   1.289  16.190 -1.1406  1.1072 -0.9311
 1903SOL    HW217343   1.796   1.297  16.267  0.1302  0.9265  0.8171
 1904SOL     OW17344   1.011   3.635  10.532 -0.2692 -0.3429 -0.2636
 1904SOL    HW117345   0.989   3.551  10.491 -1.3362 -0.1617 -0.0714
 1904SOL    HW217346   0.951   3.633  10.606  2.4146 -0.0884  1.9051
 1905SOL     OW17347   4.626   4.233   9.652 -0.5055  0.3042  0.5149
 1905SOL    HW117348   4.558   4.171   9.626 -0.3436 -0.0166  0.8449
 1905SOL    HW217349   4.592   4.275   9.731 -1.6310 -0.7004  0.5625
 1906SOL     OW17350   0.866   2.631   7.023  0.4903  0.6029 -0.6532
 1906SOL    HW117351   0.825   2.555   7.063  1.2697 -0.0350 -1.0850
 1906SOL    HW217352   0.938   2.639   7.086 -1.3767 -2.0035  1.8484
 1907SOL     OW17353   1.912   0.780   4.928  0.2603 -0.1417  0.2533
 1907SOL    HW117354   1.833   0.833   4.942  0.8435  0.5801  0.8033
 1907SOL    HW217355   1.959   0.795   5.010 -0.8986 -1.7598  1.2013
 1908SOL     OW17356   2.372   1.751   6.829 -0.0583  1.1585 -0.5184
 1908SOL    HW117357   2.363   1.717   6.740  0.4742  0.4484 -0.2937
 1908SOL    HW217358   2.458   1.791   6.816  0.6689  0.7024  2.8228
 1909SOL     OW17359   2.560   0.032   1.253  0.2889 -0.0621  0.1895
 1909SOL    HW117360   2.623   4.701   1.222  1.3805  1.2885 -0.4351
 1909SOL    HW217361   2.509   0.049   1.174 -0.4381  2.8450  1.2796
 1910SOL     OW17362   2.503   1.198   1.796 -0.1102 -0.3258 -0.8169
 1910SOL    HW117363   2.475   1.113   1.762  0.9591 -1.4252  1.0398
 1910SOL    HW217364   2.582   1.172   1.844 -1.4540  0.9566  2.1313
 1911SOL     OW17365   4.008   2.765   8.518  0.1764  0.5647 -0.4300
 1911SOL    HW117366   4.005   2.817   8.598  3.6438 -0.5878  0.4455
 1911SOL    HW217367   4.046   2.831   8.460 -1.4936  1.8012 -0.1083
 1912SOL     OW17368   4.130   4.584   6.884  0.1110  0.4107  0.5942
 1912SOL    HW117369   4.065   4.514   6.881  2.1321 -1.4616  0.6185
 1912SOL    HW217370   4.074   4.661   6.897 -0.0279  0.2143  1.1331
 1913SOL     OW17371   2.379   3.000   6.938  0.6048  0.0325 -0.3546
 1913SOL    HW117372   2.352   3.086   6.906  2.5026  1.1495  1.0509
 1913SOL    HW217373   2.371   3.026   7.030 -2.5141 -0.8979 -0.3530
 1914SOL     OW17374   3.603   1.804   6.143 -0.1732  0.0461 -0.0431
 1914SOL    HW117375   3.601   1.899   6.132 -1.7698  0.2608  1.9820
 1914SOL    HW217376   3.561   1.784   6.060  0.4288  1.0630 -0.5916
 1915SOL     OW17377   1.424   0.719   5.214 -0.1537 -0.6378 -0.1730
 1915SOL    HW117378   1.350   0.706   5.155  1.1690 -1.9605 -1.5533
 1915SOL    HW217379   1.419   0.811   5.239  0.2176 -1.2802  2.2017
 1916SOL     OW17380   2.845   4.696   7.411 -0.3248  0.0325 -0.3153
 1916SOL    HW117381   2.910   4.722   7.345  2.1905 -0.6139  1.9366
 1916SOL    HW217382   2.828   0.039   7.465 -1.0245 -0.7214  0.5354
 1917SOL     OW17383   3.481   4.550   0.164 -0.1947 -0.9157  0.2830
 1917SOL    HW117384   3.527   4.617   0.114 -0.3775  0.5604  2.0799
 1917SOL    HW217385   3.520   4.563   0.251 -0.4453 -0.6532  0.3562
 1918SOL     OW17386   2.252   3.757  10.874  0.6564 -0.1740 -0.3865
 1918SOL    HW117387   2.238   3.810  10.796  0.6931 -0.8025 -0.8261
 1918SOL    HW217388   2.189   3.687  10.854  0.6196 -0.3217  0.2492
 1919SOL     OW17389   0.303   3.253   4.767  0.6460 -0.0035  0.6410
 1919SOL    HW117390   0.377   3.216   4.719 -0.2818 -1.6811  0.4976
 1919SOL    HW217391   0.228   3.215   4.720  2.2312 -1.1459 -0.9696
 1920SOL     OW17392   3.657   4.639   3.091  0.1319  0.0289 -0.1158
 1920SOL    HW117393   3.701   4.588   3.159 -1.4867  0.2246  1.0567
 1920SOL    HW217394   3.570   4.612   3.118  0.4649 -1.5743 -0.6615
 1921SOL     OW17395   3.650   4.097   3.825  0.1181 -0.2278  0.4039
 1921SOL    HW117396   3.653   4.171   3.765 -2.3988  0.2047  0.8256
 1921SOL    HW217397   3.615   4.035   3.761  0.0500  0.0076  0.2149
 1922SOL     OW17398   1.926   3.814   9.601 -0.3806 -0.2954 -0.2029
 1922SOL    HW117399   1.871   3.893   9.600 -1.7850 -1.3130 -1.4989
 1922SOL    HW217400   1.893   3.765   9.677 -0.2746 -0.5849 -0.3443
 1923SOL     OW17401   1.343   4.388  17.369 -0.1363  0.0601 -0.1365
 1923SOL    HW117402   1.288   4.311  17.365  0.3071 -0.2345 -0.6004
 1923SOL    HW217403   1.298   4.445  17.307  1.2536  1.2806 -0.0371
 1924SOL     OW17404   1.838   1.179  15.816  0.2772 -0.5280  0.3616
 1924SOL    HW117405   1.822   1.096  15.771  1.3057 -0.3194 -0.3867
 1924SOL    HW217406   1.802   1.249  15.761 -0.8611  0.9668  2.9566
 1925SOL     OW17407   2.606   0.473  11.901  0.4000 -0.5587 -0.1007
 1925SOL    HW117408   2.583   0.380  11.900 -2.2244  0.0547  3.1590
 1925SOL    HW217409   2.666   0.475  11.827  0.2820 -0.5424 -0.1968
 1926SOL     OW17410   0.749   2.174   0.524  0.0053 -0.1670 -0.3629
 1926SOL    HW117411   0.690   2.246   0.549 -1.8491 -1.3741 -1.2753
 1926SOL    HW217412   0.835   2.213   0.540  1.1231 -2.7717  0.0125
 1927SOL     OW17413   0.462   4.411   3.974  0.1184 -0.2249  0.5250
 1927SOL    HW117414   0.460   4.356   3.896  0.0089  2.1777 -1.1777
 1927SOL    HW217415   0.551   4.402   4.008 -0.2432  1.2132  1.8299
 1928SOL     OW17416   2.941   2.044   2.533  0.0160 -0.7896  0.7187
 1928SOL    HW117417   2.986   1.962   2.553  1.7110 -0.2239 -0.8300
 1928SOL    HW217418   2.903   2.022   2.448 -0.5255 -0.1879  0.7955
 1929SOL     OW17419   3.051   2.272  13.743 -0.5101 -0.9180  0.0507
 1929SOL    HW117420   3.115   2.309  13.804 -0.2171  1.8662 -1.9742
 1929SOL    HW217421   3.100   2.279  13.661  1.2954  1.8094  1.3843
 1930SOL     OW17422   2.626   0.215   5.342 -0.3820  0.1701 -0.1842
 1930SOL    HW117423   2.609   0.308   5.355  1.1949  0.2029  1.7359
 1930SOL    HW217424   2.545   0.178   5.306 -1.4071  1.3821  0.8885
 1931SOL     OW17425   3.708   2.546   1.878  0.1432  0.2292  0.4376
 1931SOL    HW117426   3.797   2.536   1.912  0.3026 -1.2845 -0.4604
 1931SOL    HW217427   3.716   2.510   1.790 -0.7776  1.0374  0.0129
 1932SOL     OW17428   0.301   1.485   6.426 -0.4735  0.6791  0.1473
 1932SOL    HW117429   0.370   1.546   6.400  0.6562  1.0551  3.9023
 1932SOL    HW217430   0.351   1.440   6.494 -2.0227 -1.4653 -0.1311
 1933SOL     OW17431   1.063   1.310  14.362  0.4419  0.3519 -0.0550
 1933SOL    HW117432   0.989   1.258  14.395  0.1961  1.6054  1.3555
 1933SOL    HW217433   1.121   1.290  14.435  0.3914 -0.0010 -0.1090
 1934SOL     OW17434   3.678   3.800   7.262  0.5858  0.0540  0.2552
 1934SOL    HW117435   3.667   3.835   7.351 -1.8571 -0.2889  0.0913
 1934SOL    HW217436   3.705   3.710   7.282  1.1627  0.0856 -0.3987
 1935SOL     OW17437   2.160   3.098   4.233 -0.4451 -0.0413  0.1290
 1935SOL    HW117438   2.152   3.164   4.164 -1.0545 -1.2166 -0.9398
 1935SOL    HW217439   2.077   3.058   4.205 -1.5339  2.6075 -0.4172
 1936SOL     OW17440   0.182   1.165   5.181  0.2168  0.1311  0.3500
 1936SOL    HW117441   0.251   1.121   5.230 -2.2032 -2.7841  1.0796
 1936SOL    HW217442   0.224   1.175   5.095 -0.1292 -0.7709  0.0814
 1937SOL     OW17443   0.130   4.684   3.276  0.1289  0.3814 -0.0039
 1937SOL    HW117444   0.192   0.015   3.242  2.9810 -0.2701  3.9472
 1937SOL    HW217445   0.178   4.605   3.252  0.1537 -0.1065  1.6786
 1938SOL     OW17446   2.021   2.088   1.755 -0.1603  0.1545  0.4487
 1938SOL    HW117447   2.048   2.028   1.686 -3.1225  0.3674 -0.8811
 1938SOL    HW217448   1.941   2.042   1.780  0.7874 -0.2789  2.6670
 1939SOL     OW17449   4.454   0.380   4.093  0.0677 -0.3912 -0.0081
 1939SOL    HW117450   4.526   0.434   4.125 -0.6910  0.9626 -0.6004
 1939SOL    HW217451   4.412   0.359   4.177 -0.3907  0.0510 -0.1259
 1940SOL     OW17452   3.982   3.281   6.708  0.5524 -0.1053  0.2914
 1940SOL    HW117453   4.025   3.266   6.792 -2.4049  0.7782  1.9813
 1940SOL    HW217454   3.941   3.197   6.690 -0.4059  0.8053 -1.7943
 1941SOL     OW17455   2.753   1.391   8.287  0.4576 -0.8090  0.5545
 1941SOL    HW117456   2.667   1.363   8.257  0.2948  1.3093 -0.9660
 1941SOL    HW217457   2.739   1.375   8.381  1.8169  1.4930  1.1560
 1942SOL     OW17458   2.554   4.364   2.239 -0.5661 -0.1872  0.5553
 1942SOL    HW117459   2.512   4.351   2.324 -1.2160  3.2633  0.7928
 1942SOL    HW217460   2.576   4.276   2.211  0.7361  0.1196  0.6092
 1943SOL     OW17461   0.085   1.897   8.502  0.6455 -0.4199  0.7380
 1943SOL    HW117462   0.050   1.980   8.470  2.8218  0.3923  0.4462
 1943SOL    HW217463   0.128   1.927   8.582  1.9283 -0.0623 -0.0817
 1944SOL     OW17464   4.712   3.484   9.181 -0.2150  0.0211 -0.0911
 1944SOL    HW117465   4.683   3.418   9.245 -0.2689  0.1639  0.0311
 1944SOL    HW217466   4.684   3.565   9.224 -1.1972  0.3045 -1.2853
 1945SOL     OW17467   0.280   3.255  12.952  0.1054 -0.2795  0.0923
 1945SOL    HW117468   0.339   3.329  12.962 -2.0039  1.3027  0.7856
 1945SOL    HW217469   0.329   3.194  13.007  0.5718 -0.3610 -0.4191
 1946SOL     OW17470   2.683   3.370  15.121  0.0046  0.1974  0.2165
 1946SOL    HW117471   2.684   3.397  15.029  0.6853  0.2979  0.2561
 1946SOL    HW217472   2.626   3.433  15.166  1.2190  1.6924 -0.3675
 1947SOL     OW17473   0.639   1.561   1.884 -0.2019 -0.0993 -0.0386
 1947SOL    HW117474   0.610   1.477   1.848 -0.7309 -0.2061  0.6352
 1947SOL    HW217475   0.710   1.536   1.943 -0.7988  3.5086  2.2377
 1948SOL     OW17476   1.812   2.833   9.935  0.1445 -0.0806  0.4582
 1948SOL    HW117477   1.866   2.754   9.935 -1.0056 -0.8509 -1.5098
 1948SOL    HW217478   1.873   2.890   9.982  0.9117  1.6433 -2.6508
 1949SOL     OW17479   3.353   0.359   7.208 -0.0663  0.1309 -0.2246
 1949SOL    HW117480   3.448   0.350   7.217 -0.4044 -1.1725  2.0832
 1949SOL    HW217481   3.326   0.322   7.292  0.2509 -3.1814 -1.6141
 1950SOL     OW17482   2.189   0.323   4.949 -0.1741  0.2260  0.3652
 1950SOL    HW117483   2.117   0.384   4.962 -0.1359  0.0992  1.1740
 1950SOL    HW217484   2.258   0.387   4.933 -1.1622  0.4429 -3.1429
 1951SOL     OW17485   2.302   4.388   1.237 -0.1158  0.1318 -0.2766
 1951SOL    HW117486   2.393   4.372   1.212 -0.4845  0.0940 -1.6242
 1951SOL    HW217487   2.256   4.332   1.174 -0.6090  0.2906 -0.0619
 1952SOL     OW17488   0.006   0.888  16.531  0.5337  0.0321  0.2510
 1952SOL    HW117489   0.035   0.836  16.457 -0.6705  2.3469 -1.8701
 1952SOL    HW217490   4.705   0.965  16.486  2.0621  0.7734  0.3384
 1953SOL     OW17491   4.014   0.943   0.470 -0.7968 -0.3136  0.3021
 1953SOL    HW117492   3.938   0.886   0.458 -0.8126  0.1975 -2.0039
 1953SOL    HW217493   3.987   1.026   0.432  0.1829 -0.2172 -0.2065
 1954SOL     OW17494   2.383   2.877   9.640  0.0400 -0.2410 -0.2092
 1954SOL    HW117495   2.328   2.898   9.715 -0.8050  0.4069 -1.0094
 1954SOL    HW217496   2.354   2.942   9.576 -1.5398 -0.3026  0.4359
 1955SOL     OW17497   2.965   2.637   2.009  0.2693 -0.1229  0.2183
 1955SOL    HW117498   2.869   2.633   2.002  0.3331  0.1707 -0.8986
 1955SOL    HW217499   2.984   2.543   2.007  2.0544  0.2678 -0.5163
 1956SOL     OW17500   0.238   2.218   7.455 -0.4542  0.0106  0.0579
 1956SOL    HW117501   0.247   2.313   7.445 -1.0314  0.3806  3.2399
 1956SOL    HW217502   0.333   2.203   7.449  0.0183  3.3824 -0.8662
 1957SOL     OW17503   4.359   4.123   2.058  0.0968  0.2704  0.3946
 1957SOL    HW117504   4.306   4.106   2.135 -0.2141  1.1319  0.3770
 1957SOL    HW217505   4.310   4.064   2.000  0.8170  1.0771 -1.0328
 1958SOL     OW17506   0.511   1.132   3.773 -0.1499 -0.2523  0.3686
 1958SOL    HW117507   0.584   1.187   3.746 -0.7615  0.0163 -0.7264
 1958SOL    HW217508   0.559   1.055   3.802 -0.8107 -0.5956  0.5478
 1959SOL     OW17509   1.852   2.922   6.288 -0.0045 -0.3585 -0.1802
 1959SOL    HW117510   1.888   2.866   6.219 -0.0802  1.1930 -1.4913
 1959SOL    HW217511   1.933   2.967   6.310  0.2040 -0.7960 -0.0511
 1960SOL     OW17512   3.288   0.327  12.844 -0.1944  0.3491  0.3190
 1960SOL    HW117513   3.306   0.372  12.927 -0.5642 -0.4091  0.8105
 1960SOL    HW217514   3.368   0.274  12.837 -0.9282 -0.2511 -3.2507
 1961SOL     OW17515   0.391   3.213   6.415  0.0387  0.5932 -0.3089
 1961SOL    HW117516   0.381   3.299   6.373  1.8159  0.7201 -0.4932
 1961SOL    HW217517   0.412   3.159   6.339 -0.2320 -0.4967  0.4047
 1962SOL     OW17518   0.426   2.801   4.858  0.0010  0.0757  0.3852
 1962SOL    HW117519   0.394   2.736   4.920 -3.4490 -0.2214 -1.6860
 1962SOL    HW217520   0.371   2.879   4.872 -0.4288 -0.4348  1.5758
 1963SOL     OW17521   1.038   4.477   0.275 -0.1612  0.7838 -0.2402
 1963SOL    HW117522   0.989   4.528   0.210 -2.0403 -2.2892 -1.2199
 1963SOL    HW217523   1.040   4.393   0.230  0.7228 -0.8895  2.8814
 1964SOL     OW17524   4.486   3.184   5.541  0.1129  0.5915 -0.1015
 1964SOL    HW117525   4.533   3.123   5.486 -1.7648 -1.5349  0.6487
 1964SOL    HW217526   4.394   3.162   5.527  0.7270  0.0079 -3.0846
 1965SOL     OW17527   4.097   2.011  16.327 -0.0399  0.1775  0.1005
 1965SOL    HW117528   4.105   2.095  16.372  0.2758  0.4473 -0.4474
 1965SOL    HW217529   4.014   2.010  16.280 -0.9077  1.9286  1.6208
 1966SOL     OW17530   1.930   2.775   9.591 -0.1171 -0.2017 -0.0283
 1966SOL    HW117531   1.877   2.844   9.632 -4.9291 -2.2410 -2.7276
 1966SOL    HW217532   1.930   2.810   9.502 -1.4343  3.0968  1.2661
 1967SOL     OW17533   3.466   2.738   9.931 -0.0091  0.3238  0.6535
 1967SOL    HW117534   3.470   2.663   9.871  3.7344  1.4770 -0.5616
 1967SOL    HW217535   3.378   2.774   9.920  0.0115  0.4226  0.8094
 1968SOL     OW17536   0.061   4.540  15.988  0.1329 -0.5258 -0.1009
 1968SOL    HW117537   0.024   4.594  15.917  0.0791 -1.5939 -0.8877
 1968SOL    HW217538   0.065   4.601  16.062  2.1643 -0.8389  0.0462
 1969SOL     OW17539   2.712   3.001  10.024 -0.0808  0.1245 -0.1412
 1969SOL    HW117540   2.624   3.030  10.002  0.5248  1.5802 -0.6639
 1969SOL    HW217541   2.691   2.912  10.051  2.3120 -0.3157  0.2701
 1970SOL     OW17542   0.806   3.188   2.715 -0.4836 -0.1794  0.0221
 1970SOL    HW117543   0.879   3.183   2.654  0.6681  1.4630  1.2689
 1970SOL    HW217544   0.797   3.095   2.737 -1.8376  0.3784  1.8572
 1971SOL     OW17545   0.738   4.296  13.185 -0.8686 -0.2390  0.0241
 1971SOL    HW117546   0.805   4.248  13.136 -1.1012  1.6142 -2.1124
 1971SOL    HW217547   0.743   4.247  13.267  1.7346 -1.1188 -0.6665
 1972SOL     OW17548   0.546   3.715   0.861 -0.1890  0.3982 -0.0570
 1972SOL    HW117549   0.574   3.739   0.772  0.9046 -0.1776  0.1245
 1972SOL    HW217550   0.610   3.646   0.881 -0.7915  0.3057  1.5307
 1973SOL     OW17551   0.776   4.670   3.196  0.3368 -0.3179  0.5834
 1973SOL    HW117552   0.758   4.581   3.226 -3.0190  0.1814  0.0848
 1973SOL    HW217553   0.821   4.706   3.272  1.8042 -1.8299  0.4265
 1974SOL     OW17554   4.605   0.751   3.972 -0.5553  0.1056 -0.4380
 1974SOL    HW117555   4.694   0.735   3.943 -0.4045 -2.1239  1.2563
 1974SOL    HW217556   4.595   0.675   4.030  3.8794 -1.0296 -1.1825
 1975SOL     OW17557   0.671   2.137  15.147 -0.4743  0.2852  0.5678
 1975SOL    HW117558   0.713   2.200  15.089 -0.1920 -0.4841 -0.0568
 1975SOL    HW217559   0.623   2.083  15.084 -1.5978 -1.2767  2.7858
 1976SOL     OW17560   1.808   1.368  13.178 -0.6755  0.1878  0.0255
 1976SOL    HW117561   1.749   1.432  13.218 -0.4658 -0.6051  1.5937
 1976SOL    HW217562   1.891   1.380  13.225 -0.0866 -1.3547 -0.6159
 1977SOL     OW17563   3.064   1.600   6.767  0.4535  0.3350  0.5984
 1977SOL    HW117564   3.005   1.551   6.709  0.8351 -0.9665  1.3064
 1977SOL    HW217565   3.102   1.528   6.817 -0.2347 -1.5830 -1.6167
 1978SOL     OW17566   4.358   0.024   4.569 -0.1732  0.2661 -0.0697
 1978SOL    HW117567   4.313   0.015   4.485 -1.5587 -1.8700  0.8944
 1978SOL    HW217568   4.431   0.080   4.544  1.2546 -0.8874  1.4984
 1979SOL     OW17569   0.388   1.850   7.726  0.2084 -0.0488  0.6919
 1979SOL    HW117570   0.459   1.853   7.662 -0.7857  0.4561 -0.3885
 1979SOL    HW217571   0.403   1.926   7.781 -0.2560  1.7060 -1.6167
 1980SOL     OW17572   1.355   3.259   0.721  0.0527  0.2609  0.1862
 1980SOL    HW117573   1.294   3.332   0.731  0.2755  0.3979  0.5270
 1980SOL    HW217574   1.424   3.297   0.666 -0.0944  0.6587  0.2829
 1981SOL     OW17575   2.847   0.524   1.598 -0.7837 -0.1529 -0.0556
 1981SOL    HW117576   2.896   0.460   1.650 -1.7952 -0.3156  0.7020
 1981SOL    HW217577   2.887   0.608   1.617  0.9678 -0.7237 -1.1828
 1982SOL     OW17578   0.685   0.397   0.480  0.1321 -0.3001 -0.0523
 1982SOL    HW117579   0.722   0.364   0.562 -1.1977  3.0130  1.8631
 1982SOL    HW217580   0.706   0.323   0.422 -0.5861 -1.3224  1.0020
 1983SOL     OW17581   3.419   3.307   1.946  0.1879 -0.2867 -0.0757
 1983SOL    HW117582   3.504   3.347   1.965 -0.7239  1.2345  0.8380
 1983SOL    HW217583   3.447   3.225   1.905 -0.6528 -0.5724 -0.0659
 1984SOL     OW17584   1.886   2.787  15.490 -0.4444  0.2344 -0.4185
 1984SOL    HW117585   1.897   2.774  15.584 -0.8667  0.8326 -0.2827
 1984SOL    HW217586   1.885   2.882  15.499 -0.4025  0.2553 -0.6352
 1985SOL     OW17587   1.928   0.153   2.097 -0.2754 -0.6571  0.3231
 1985SOL    HW117588   1.912   0.240   2.133  0.0793  0.2822 -1.7914
 1985SOL    HW217589   1.937   0.102   2.178 -1.6482 -1.1025  0.1920
 1986SOL     OW17590   0.719   4.226   6.117  0.2253  0.2466  0.1586
 1986SOL    HW117591   0.646   4.186   6.069  1.5232 -0.8122 -0.9409
 1986SOL    HW217592   0.736   4.298   6.057 -0.6236  0.5328  0.2631
 1987SOL     OW17593   4.505   2.165   6.657 -0.0663 -0.3434  0.1366
 1987SOL    HW117594   4.578   2.125   6.703 -0.5749 -0.4576  0.8335
 1987SOL    HW217595   4.489   2.092   6.597  1.3382 -0.5618  0.0360
 1988SOL     OW17596   4.438   2.586   5.816  0.1439 -0.1779  0.3520
 1988SOL    HW117597   4.383   2.511   5.842  0.5144  0.7668  3.8161
 1988SOL    HW217598   4.404   2.661   5.865  0.9981  0.7303 -0.4523
 1989SOL     OW17599   0.425   4.176   4.183  0.0373  0.4449  0.2701
 1989SOL    HW117600   0.452   4.267   4.167 -2.1449  0.7953 -1.3999
 1989SOL    HW217601   0.348   4.171   4.127 -0.0315  0.0835  0.4008
 1990SOL     OW17602   1.061   2.467  12.842  0.2987 -0.6650 -0.0539
 1990SOL    HW117603   1.041   2.392  12.898  0.5193 -0.3612  0.4293
 1990SOL    HW217604   1.087   2.421  12.763  1.6901  1.9262 -1.1082
 1991SOL     OW17605   1.424   1.913   5.904 -0.8054  0.0398  0.4828
 1991SOL    HW117606   1.396   1.935   5.993 -2.1915  1.3286 -0.2665
 1991SOL    HW217607   1.340   1.906   5.858  0.5171 -1.6651 -1.6744
 1992SOL     OW17608   1.863   1.013   5.316  0.0410 -0.0378 -0.2056
 1992SOL    HW117609   1.833   1.054   5.236  1.4127 -1.2854 -1.3574
 1992SOL    HW217610   1.945   0.983   5.278 -0.2134  1.2309 -1.7074
 1993SOL     OW17611   3.683   2.886   2.786  0.1278  0.1729 -0.5311
 1993SOL    HW117612   3.587   2.891   2.795 -0.0440 -2.4761 -0.9651
 1993SOL    HW217613   3.709   2.938   2.862  0.8983  0.8607 -1.2732
 1994SOL     OW17614   3.111   4.068   6.850 -0.8022  0.0985  0.5828
 1994SOL    HW117615   3.189   4.030   6.891 -1.1090 -0.6669  0.4709
 1994SOL    HW217616   3.152   4.130   6.789 -0.9839 -0.3480  0.0046
 1995SOL     OW17617   4.204   1.507  10.010  1.0228 -0.1347  0.2322
 1995SOL    HW117618   4.216   1.549   9.925 -0.9827 -0.2419 -0.1228
 1995SOL    HW217619   4.264   1.548  10.072  0.4623  3.3164 -1.5207
 1996SOL     OW17620   1.973   0.948  13.860 -0.1700  0.7424  0.6770
 1996SOL    HW117621   1.903   0.945  13.795 -0.7043  0.1949  1.2898
 1996SOL    HW217622   2.033   0.903  13.800  1.4342  0.3358  2.5913
 1997SOL     OW17623   3.842   4.080   1.404 -0.9590  0.0559 -0.1840
 1997SOL    HW117624   3.785   4.039   1.469 -0.1664 -0.1634  0.3687
 1997SOL    HW217625   3.779   4.120   1.344 -0.4463 -1.1218 -1.5268
 1998SOL     OW17626   0.529   0.483   2.403 -0.5283 -0.0122  0.4545
 1998SOL    HW117627   0.494   0.479   2.492  0.5167  1.8065  0.9408
 1998SOL    HW217628   0.534   0.575   2.378  0.3729 -0.6127 -1.5618
 1999SOL     OW17629   2.603   3.953   9.094 -0.2458  0.2548 -0.0003
 1999SOL    HW117630   2.615   3.866   9.055 -0.5608  0.1788  0.0703
 1999SOL    HW217631   2.680   3.995   9.058 -1.8792  4.0486  0.9358
 2000SOL     OW17632   2.161   4.043   1.624 -0.0032  0.3238 -0.1227
 2000SOL    HW117633   2.067   4.035   1.641  0.3939 -3.2211  0.4826
 2000SOL    HW217634   2.152   4.041   1.529  1.7020 -1.0949 -0.2649
 2001SOL     OW17635   0.212   3.904   2.853  0.1035 -0.5035  0.3392
 2001SOL    HW117636   0.239   3.812   2.860  0.2417 -0.4873  0.0342
 2001SOL    HW217637   0.298   3.944   2.840 -0.6644  1.5811  1.6862
 2002SOL     OW17638   2.721   3.562  10.376 -0.0770  0.0493 -0.6456
 2002SOL    HW117639   2.721   3.647  10.419  0.9928 -0.2185 -0.1283
 2002SOL    HW217640   2.745   3.587  10.286  0.6595  0.3296 -0.3679
 2003SOL     OW17641   2.145   4.551   2.277 -1.0342  0.5401 -0.3891
 2003SOL    HW117642   2.126   4.526   2.187 -2.9313 -0.6460  0.3473
 2003SOL    HW217643   2.227   4.598   2.266 -0.1063 -0.8843  0.4337
 2004SOL     OW17644   1.197   1.942   5.043  0.0570 -0.5281 -0.1091
 2004SOL    HW117645   1.146   1.920   4.965 -1.7934  1.7833  0.4299
 2004SOL    HW217646   1.187   1.860   5.091  1.4786 -1.2498 -1.0339
 2005SOL     OW17647   2.753   4.615  10.981 -0.0637 -0.4262  0.2833
 2005SOL    HW117648   2.790   4.633  10.894  2.5078 -2.5275  0.9288
 2005SOL    HW217649   2.724   4.703  11.003  3.9535  0.7740  0.7519
 2006SOL     OW17650   0.646   2.982   5.905 -0.0390  0.1632 -0.3767
 2006SOL    HW117651   0.728   3.002   5.950  0.4277 -3.4131  0.4146
 2006SOL    HW217652   0.609   3.069   5.893 -1.8193 -0.7983 -1.8656
 2007SOL     OW17653   4.521   2.080   2.348 -0.4817 -0.3313  0.2052
 2007SOL    HW117654   4.559   2.075   2.260  0.2464  0.5477  0.4703
 2007SOL    HW217655   4.603   2.114   2.384  0.1308 -1.9188  0.3372
 2008SOL     OW17656   0.890   2.402   4.489 -0.1962  0.4742 -0.1691
 2008SOL    HW117657   0.980   2.421   4.463 -0.3800  1.9342  0.2509
 2008SOL    HW217658   0.906   2.417   4.582 -2.0201 -0.6720  0.3296
 2009SOL     OW17659   4.213   3.518   6.343 -0.5089 -0.0566 -0.2828
 2009SOL    HW117660   4.207   3.613   6.348  0.6891  0.0508 -1.0312
 2009SOL    HW217661   4.201   3.492   6.435  1.9476  0.7368  0.2450
 2010SOL     OW17662   0.656   3.913   9.952  0.1442  0.7169 -0.0452
 2010SOL    HW117663   0.610   3.958   9.881 -1.6165 -1.2199 -0.1226
 2010SOL    HW217664   0.602   3.839   9.978 -0.0488  0.1532 -2.0830
 2011SOL     OW17665   4.090   3.120  17.717 -0.1067  0.5455  0.3548
 2011SOL    HW117666   4.152   3.057   0.019 -1.4389 -0.8419  0.2406
 2011SOL    HW217667   4.038   3.061  17.663  0.1652  2.0041 -1.4680
 2012SOL     OW17668   1.489   4.234   4.580  0.0502 -0.7876 -0.0729
 2012SOL    HW117669   1.520   4.144   4.582 -2.4979 -1.6405  0.8598
 2012SOL    HW217670   1.572   4.282   4.572  0.7180 -1.8259  0.6816
 2013SOL     OW17671   1.488   2.845   2.204 -0.0529 -0.2733  0.0012
 2013SOL    HW117672   1.518   2.788   2.274  1.4694 -0.7222 -1.0277
 2013SOL    HW217673   1.405   2.804   2.179  0.7437 -2.0589  0.3259
 2014SOL     OW17674   2.647   1.638   5.985  0.0966  0.6595  0.6184
 2014SOL    HW117675   2.711   1.611   6.051 -0.9755  1.6586  2.0884
 2014SOL    HW217676   2.564   1.619   6.029 -1.7966  1.0296 -2.7712
 2015SOL     OW17677   4.200   0.483   2.195 -0.1241 -0.3942  0.2896
 2015SOL    HW117678   4.285   0.528   2.205 -0.6481  1.2456 -2.8185
 2015SOL    HW217679   4.198   0.448   2.284 -0.2871 -1.9006 -0.3091
 2016SOL     OW17680   1.964   2.973   1.862  0.3340  0.5497 -0.0312
 2016SOL    HW117681   1.988   2.983   1.954 -0.7603 -0.7110  0.4021
 2016SOL    HW217682   2.038   2.919   1.836  1.2960  0.5760  2.6218
 2017SOL     OW17683   0.915   1.853   7.144 -0.2890  0.3024 -0.2329
 2017SOL    HW117684   0.980   1.855   7.074 -0.1572 -1.0639 -0.1425
 2017SOL    HW217685   0.847   1.800   7.103  0.7219 -1.6644  0.6472
 2018SOL     OW17686   4.501   2.710   3.077 -0.0116 -0.2292  0.1688
 2018SOL    HW117687   4.431   2.732   3.016 -0.2275 -2.4227 -0.3886
 2018SOL    HW217688   4.563   2.684   3.008 -1.6782 -2.3583 -0.5288
 2019SOL     OW17689   2.995   2.489  15.367  0.0374 -0.3145 -0.8576
 2019SOL    HW117690   2.966   2.433  15.295  0.7766 -0.6354 -0.9070
 2019SOL    HW217691   2.947   2.433  15.429  0.5465  1.4474  1.1157
 2020SOL     OW17692   0.789   2.547   3.902  0.3101 -0.1836 -0.3093
 2020SOL    HW117693   0.835   2.521   3.982 -0.7072  2.1157  1.0280
 2020SOL    HW217694   0.818   2.638   3.894 -2.7896  0.6898 -1.5612
 2021SOL     OW17695   0.622   3.158   8.473 -0.0514 -0.2138  0.2273
 2021SOL    HW117696   0.565   3.209   8.415  0.5589  0.5543  0.3171
 2021SOL    HW217697   0.546   3.107   8.502 -0.0412  0.2480  1.0529
 2022SOL     OW17698   2.632   0.435   4.714  0.0458 -0.8105  0.3091
 2022SOL    HW117699   2.667   0.482   4.790 -0.6796 -0.5766  0.5015
 2022SOL    HW217700   2.705   0.382   4.682 -2.0514 -3.3246 -0.2967
 2023SOL     OW17701   1.725   2.377  15.641  0.1393  0.1178  0.1092
 2023SOL    HW117702   1.721   2.283  15.659 -2.1051 -0.1403 -1.7402
 2023SOL    HW217703   1.741   2.411  15.729 -0.5730 -2.5924  1.2778
 2024SOL     OW17704   3.461   2.848   2.275 -0.2809  0.1623  0.6131
 2024SOL    HW117705   3.382   2.889   2.239 -1.9106 -3.4948  0.0571
 2024SOL    HW217706   3.433   2.781   2.336  0.5430 -0.3993  0.3652
 2025SOL     OW17707   0.514   1.030  15.791 -0.6426 -0.3573  0.3244
 2025SOL    HW117708   0.600   1.043  15.831 -0.1763  1.4314 -1.2809
 2025SOL    HW217709   0.534   1.055  15.701  2.2558 -1.1452  0.7636
 2026SOL     OW17710   0.184   4.049   3.523 -0.2178 -0.2532 -0.4041
 2026SOL    HW117711   0.231   3.970   3.495  0.0069 -0.6199  1.0155
 2026SOL    HW217712   0.193   4.101   3.443 -1.2802  0.3772 -0.1110
 2027SOL     OW17713   4.598   3.228  16.272 -0.8679  0.7821 -0.3496
 2027SOL    HW117714   4.564   3.309  16.310 -0.9983 -0.9354  3.2213
 2027SOL    HW217715   4.557   3.252  16.189 -1.6184 -0.4830 -0.3469
 2028SOL     OW17716   2.982   1.498   3.306 -0.5069 -0.2365 -0.0091
 2028SOL    HW117717   3.056   1.437   3.300 -0.2800 -0.2374  2.8527
 2028SOL    HW217718   3.025   1.569   3.353  1.4871 -1.8327  0.5674
 2029SOL     OW17719   2.555   2.008   5.214  0.4894  0.0163 -0.9323
 2029SOL    HW117720   2.492   2.054   5.270 -0.3630 -2.3816  0.0845
 2029SOL    HW217721   2.496   1.935   5.196  0.6073 -0.1559 -0.6273
 2030SOL     OW17722   1.510   1.459  13.139  0.1651  0.3249 -0.0106
 2030SOL    HW117723   1.571   1.524  13.104  0.1221  0.9927  1.1645
 2030SOL    HW217724   1.562   1.379  13.126 -0.7725 -0.6010  1.9574
 2031SOL     OW17725   1.078   3.576  14.084 -0.2667  0.2569 -0.8319
 2031SOL    HW117726   1.068   3.519  14.008  0.6782 -0.2554 -0.5733
 2031SOL    HW217727   1.173   3.565  14.090 -0.3159  0.2927  0.1188
 2032SOL     OW17728   3.922   0.175   2.532 -0.4039 -0.2528 -0.5189
 2032SOL    HW117729   3.899   0.200   2.442  1.6464 -0.6299 -1.1260
 2032SOL    HW217730   3.877   0.093   2.551  2.9540 -2.4133 -2.0319
 2033SOL     OW17731   2.671   0.814  15.073 -0.0532 -0.3010  0.3910
 2033SOL    HW117732   2.651   0.893  15.022  0.4317 -0.7843 -0.5558
 2033SOL    HW217733   2.636   0.835  15.159 -1.4135  2.0290 -0.7198
 2034SOL     OW17734   4.268   3.236   4.643 -0.1315 -0.5793  0.4269
 2034SOL    HW117735   4.263   3.309   4.705  0.8603  0.9050 -1.2380
 2034SOL    HW217736   4.241   3.161   4.696  0.7096 -0.0172  1.6567
 2035SOL     OW17737   4.499   4.304  16.233  0.0500  0.2280 -0.1017
 2035SOL    HW117738   4.453   4.325  16.314  3.2368  0.8089  1.5572
 2035SOL    HW217739   4.587   4.334  16.256  0.4432 -1.8570  1.0797
 2036SOL     OW17740   1.138   4.233   6.292 -0.3441  0.2561 -0.2629
 2036SOL    HW117741   1.192   4.181   6.352  0.9937  2.4895  0.4547
 2036SOL    HW217742   1.181   4.213   6.209  2.4515  0.2789  1.1683
 2037SOL     OW17743   2.514   2.657   1.766 -0.2924 -0.6309  0.4861
 2037SOL    HW117744   2.426   2.674   1.800 -0.5071 -0.6692 -0.0628
 2037SOL    HW217745   2.508   2.689   1.676 -0.5843  0.1414  0.7812
 2038SOL     OW17746   0.322   1.067  17.422  0.4016  0.1342  0.1855
 2038SOL    HW117747   0.368   1.145  17.391 -0.0617  0.0137 -0.7751
 2038SOL    HW217748   0.255   1.049  17.356  0.2417 -0.9710  0.6459
 2039SOL     OW17749   3.277   2.229   1.703 -0.2584  0.2115 -0.1311
 2039SOL    HW117750   3.276   2.323   1.683  0.5458  0.6910  2.0462
 2039SOL    HW217751   3.358   2.230   1.754 -1.3259 -0.5593  1.5567
 2040SOL     OW17752   4.017   3.841   5.188 -0.5009 -0.2749  0.0548
 2040SOL    HW117753   3.980   3.755   5.207  0.9235 -0.2359  3.0281
 2040SOL    HW217754   4.107   3.843   5.220 -0.5317  1.0414  0.0611
 2041SOL     OW17755   0.564   0.585   0.268  0.3327 -0.2896  0.4462
 2041SOL    HW117756   0.625   0.644   0.223  1.1195 -1.4665 -0.0196
 2041SOL    HW217757   0.630   0.552   0.329  1.3828 -1.7714 -1.4836
 2042SOL     OW17758   2.977   4.340   1.291 -0.4559 -0.6025 -0.4679
 2042SOL    HW117759   2.954   4.401   1.360 -0.2991  0.7715 -1.6382
 2042SOL    HW217760   3.071   4.326   1.305 -0.6457 -1.1076  0.2820
 2043SOL     OW17761   2.618   2.049   8.403  0.0751  0.2610  0.6048
 2043SOL    HW117762   2.650   1.995   8.475  0.1531  0.7970  0.9635
 2043SOL    HW217763   2.543   2.001   8.367 -0.9496  1.6181  0.9380
 2044SOL     OW17764   1.181   0.831  12.247  0.5989 -0.0865 -0.3055
 2044SOL    HW117765   1.125   0.798  12.316  2.6115 -0.7624  0.9855
 2044SOL    HW217766   1.261   0.851  12.296 -0.4641  1.0077  0.9621
 2045SOL     OW17767   3.893   2.143   6.795  0.1647  0.2908  0.1918
 2045SOL    HW117768   3.849   2.084   6.856 -0.3932  0.8651  0.3531
 2045SOL    HW217769   3.818   2.183   6.750  1.1245  3.4312  1.3654
 2046SOL     OW17770   0.960   3.391   9.273  0.1488  0.7788 -0.4070
 2046SOL    HW117771   0.909   3.426   9.346 -1.2187  1.0689 -1.4985
 2046SOL    HW217772   0.969   3.297   9.290  1.3786  0.8462 -0.6751
 2047SOL     OW17773   3.795   1.636   2.108  0.0035  0.1226 -0.1293
 2047SOL    HW117774   3.808   1.612   2.200  0.4657  0.2100 -0.1716
 2047SOL    HW217775   3.705   1.666   2.114 -0.6822 -1.9327 -0.4242
 2048SOL     OW17776   2.448   0.569  15.385 -0.1636  0.2616 -0.3026
 2048SOL    HW117777   2.417   0.484  15.415  1.5111 -0.3755 -0.4184
 2048SOL    HW217778   2.537   0.538  15.368 -0.7893 -1.6632 -0.0922
 2049SOL     OW17779   4.602   4.701   3.223 -0.2799 -0.0570  0.2496
 2049SOL    HW117780   4.688   4.678   3.259  0.9237  1.2435 -1.8529
 2049SOL    HW217781   4.551   4.694   3.304  0.7264 -0.6178  0.8281
 2050SOL     OW17782   3.571   4.583   9.205  0.6567  0.5135  0.0916
 2050SOL    HW117783   3.536   4.667   9.176 -0.7942 -0.5815 -1.3060
 2050SOL    HW217784   3.494   4.545   9.247  0.6924 -0.0888 -0.3937
 2051SOL     OW17785   4.276   0.573  17.230  0.2406 -0.2697 -0.0929
 2051SOL    HW117786   4.252   0.623  17.151  1.3552  0.0057 -0.2578
 2051SOL    HW217787   4.195   0.523  17.237 -1.0031  1.6699 -0.3544
 2052SOL     OW17788   1.283   4.537   9.032  0.1059 -0.0078 -0.2937
 2052SOL    HW117789   1.324   4.582   9.105 -1.4987  0.0866  0.5551
 2052SOL    HW217790   1.350   4.471   9.016 -0.4457 -0.5415 -0.4294
 2053SOL     OW17791   1.532   4.357   5.946  0.3943 -0.4970  0.1500
 2053SOL    HW117792   1.611   4.366   5.893  0.2626  1.2072  0.2496
 2053SOL    HW217793   1.550   4.266   5.971 -0.3159 -0.8800 -0.7385
 2054SOL     OW17794   2.216   4.130   8.761 -0.1639  0.1079  0.6085
 2054SOL    HW117795   2.267   4.147   8.682 -3.0378  1.8335 -0.8496
 2054SOL    HW217796   2.240   4.204   8.818  0.6720  1.0341 -0.9664
 2055SOL     OW17797   1.136   0.009   3.122 -0.0086 -1.0439 -0.2892
 2055SOL    HW117798   1.053   0.057   3.121  1.3969  1.4164  1.2506
 2055SOL    HW217799   1.178   0.084   3.165 -0.8290 -0.5608 -0.3194
 2056SOL     OW17800   4.556   0.322   4.721  0.9683 -0.6598  0.3402
 2056SOL    HW117801   4.487   0.283   4.775  0.8892  0.4492  1.0474
 2056SOL    HW217802   4.595   0.246   4.678  0.2774  0.3083 -1.9868
 2057SOL     OW17803   3.658   1.886   5.188  0.1480  0.0879 -0.0818
 2057SOL    HW117804   3.570   1.861   5.157 -0.3078  0.5209  0.8565
 2057SOL    HW217805   3.668   1.969   5.141  0.9581 -1.3933 -2.4998
 2058SOL     OW17806   3.146   1.446   4.678 -0.3345 -0.1312  0.1073
 2058SOL    HW117807   3.209   1.506   4.639  0.5780  0.4371  2.4385
 2058SOL    HW217808   3.068   1.464   4.626 -0.2306  2.6016  0.8862
 2059SOL     OW17809   2.004   4.067  10.733 -0.4266 -0.4728  0.2581
 2059SOL    HW117810   2.078   4.060  10.794 -0.8849  0.0929  0.8805
 2059SOL    HW217811   2.056   4.087  10.655 -2.8157 -1.2844 -1.5131
 2060SOL     OW17812   0.104   0.222   8.051 -0.1957  0.2240 -0.0933
 2060SOL    HW117813   0.143   0.307   8.071 -2.2494  0.9521  0.7704
 2060SOL    HW217814   0.013   0.249   8.057 -1.3033 -3.7992  1.0625
 2061SOL     OW17815   0.997   2.094   4.834 -0.5925  0.5204  0.4712
 2061SOL    HW117816   0.904   2.086   4.855 -0.1516 -1.6558  1.6212
 2061SOL    HW217817   1.022   2.002   4.827 -2.8212 -0.2395  2.5146
 2062SOL     OW17818   2.386   4.322   1.546  0.3545 -0.4009 -0.3802
 2062SOL    HW117819   2.316   4.357   1.492  0.6014  2.5227  1.2272
 2062SOL    HW217820   2.390   4.231   1.515  0.8805 -0.7449  0.6703
 2063SOL     OW17821   1.178   0.089   7.052  0.1301  0.5746  0.1526
 2063SOL    HW117822   1.152   0.181   7.043 -1.7977 -0.1371 -1.6007
 2063SOL    HW217823   1.106   0.053   7.103  2.1686 -0.9282  1.9821
 2064SOL     OW17824   3.192   2.489   1.813 -0.2115 -0.4618  0.0739
 2064SOL    HW117825   3.143   2.479   1.731 -0.5786 -0.2991  0.2766
 2064SOL    HW217826   3.120   2.467   1.872 -0.1957  0.4110  0.4071
 2065SOL     OW17827   2.044   0.767   5.169 -0.2878  0.3510  0.6651
 2065SOL    HW117828   2.045   0.700   5.237  2.8331  1.5895  1.8364
 2065SOL    HW217829   2.115   0.825   5.196  0.1424 -0.0033  0.2931
 2066SOL     OW17830   2.751   2.963   3.918 -0.0650 -0.5448  0.5637
 2066SOL    HW117831   2.790   3.011   3.991  1.2960 -1.6137  0.5547
 2066SOL    HW217832   2.695   3.026   3.873  1.2000 -0.2443 -0.6078
 2067SOL     OW17833   3.580   4.073   2.158 -0.6379 -0.4744 -0.7857
 2067SOL    HW117834   3.503   4.063   2.102 -2.7716  0.2806  2.0470
 2067SOL    HW217835   3.640   4.091   2.086  0.0761  1.6360  0.3394
 2068SOL     OW17836   1.791   1.886   8.743  0.0574  0.3403  0.1840
 2068SOL    HW117837   1.851   1.849   8.808 -1.3303 -1.8123  0.2327
 2068SOL    HW217838   1.834   1.860   8.662 -0.8302  2.1088 -0.8691
 2069SOL     OW17839   0.081   1.617   5.294  0.0933 -0.1754 -0.2872
 2069SOL    HW117840   0.067   1.548   5.229  1.3458 -0.2288 -0.5025
 2069SOL    HW217841   0.131   1.678   5.241 -0.6389 -0.3492 -1.1794
 2070SOL     OW17842   4.372   1.120   6.707 -0.6046  0.1882 -0.3216
 2070SOL    HW117843   4.385   1.106   6.613 -2.6711  1.5910 -0.7967
 2070SOL    HW217844   4.452   1.090   6.752 -0.9204  0.2415  0.2738
 2071SOL     OW17845   2.771   4.500   6.989  0.3797  0.4187 -0.3605
 2071SOL    HW117846   2.689   4.549   6.994  0.1862  0.1005 -0.4125
 2071SOL    HW217847   2.736   4.423   6.944  0.0750  0.0618  0.4901
 2072SOL     OW17848   3.633   4.055  17.515 -0.1657  0.6009  0.4236
 2072SOL    HW117849   3.548   4.037  17.555 -0.1614 -0.3084  0.0461
 2072SOL    HW217850   3.691   4.070  17.589 -0.4751 -1.4278  1.0863
 2073SOL     OW17851   0.080   1.721   0.305  0.3888 -0.7403  0.0677
 2073SOL    HW117852   0.121   1.671   0.376 -0.2205  2.7880  2.9302
 2073SOL    HW217853   0.125   1.804   0.321 -1.4014  0.2353 -0.0130
 2074SOL     OW17854   0.832   3.503  10.722 -0.5780 -0.4351  0.2540
 2074SOL    HW117855   0.751   3.544  10.692  0.0631  1.9700  1.8545
 2074SOL    HW217856   0.816   3.500  10.817  0.5457  0.0688  0.4585
 2075SOL     OW17857   1.238   3.712  14.349  0.3663  0.5070  0.4746
 2075SOL    HW117858   1.313   3.771  14.345  0.7580  0.0404  1.0445
 2075SOL    HW217859   1.185   3.744  14.275  1.7723  0.5170 -0.5422
 2076SOL     OW17860   1.094   3.377   1.584 -0.2700  0.3011 -0.0800
 2076SOL    HW117861   1.058   3.378   1.672  0.3471 -1.0228  0.1824
 2076SOL    HW217862   1.053   3.297   1.551 -0.1283 -1.4642  4.0694
 2077SOL     OW17863   2.529   2.295  17.198  0.5696 -0.0000 -0.3576
 2077SOL    HW117864   2.483   2.325  17.119  0.7906 -0.0767 -0.5156
 2077SOL    HW217865   2.619   2.324  17.185  0.2170  1.3405  0.2043
 2078SOL     OW17866   1.875   2.709   5.641 -0.2081  0.5441 -0.0472
 2078SOL    HW117867   1.882   2.751   5.555  0.3744  1.9564  0.6825
 2078SOL    HW217868   1.960   2.737   5.675 -0.4449  1.2642 -0.0491
 2079SOL     OW17869   1.909   1.150   4.837  0.0476  0.3306  0.3470
 2079SOL    HW117870   1.861   1.177   4.759 -1.1198  0.1140  0.9852
 2079SOL    HW217871   2.000   1.150   4.809 -0.0412  0.4033  0.0589
 2080SOL     OW17872   1.201   0.192   5.326 -0.3350  0.0900  0.1748
 2080SOL    HW117873   1.247   0.271   5.355  0.9897 -0.0985 -1.4215
 2080SOL    HW217874   1.261   0.120   5.347 -0.4782  0.7099  2.6643
 2081SOL     OW17875   2.493   0.591  13.669  0.0942 -0.0394  0.0971
 2081SOL    HW117876   2.586   0.569  13.680  0.5205  1.5665 -0.2760
 2081SOL    HW217877   2.472   0.558  13.581  0.5995  2.2780 -0.8962
 2082SOL     OW17878   1.473   1.406   5.572 -0.3025 -0.4181 -0.1744
 2082SOL    HW117879   1.441   1.486   5.614 -1.2293 -0.8066 -0.1562
 2082SOL    HW217880   1.564   1.433   5.556 -1.1145  2.0799 -0.5611
 2083SOL     OW17881   2.883   2.418   5.206  1.3018  0.5214 -0.6266
 2083SOL    HW117882   2.971   2.384   5.192  0.5712 -2.0625  1.0930
 2083SOL    HW217883   2.904   2.512   5.203 -3.8458  1.7035  0.8800
 2084SOL     OW17884   4.638   2.239  13.546  0.4817  0.8935 -0.7866
 2084SOL    HW117885   4.666   2.248  13.455  2.9020 -0.4294 -0.1879
 2084SOL    HW217886   4.691   2.162  13.569 -0.8822  0.2887  0.3019
 2085SOL     OW17887   2.159   4.723   1.355  0.4870 -0.1549  0.1844
 2085SOL    HW117888   2.155   4.657   1.286  1.3482  0.6434 -0.6335
 2085SOL    HW217889   2.156   4.670   1.434 -0.5562  0.6605  0.6923
 2086SOL     OW17890   3.948   2.166   4.060  0.0415  0.1486  0.1469
 2086SOL    HW117891   3.910   2.181   4.146  1.5645 -0.3348  0.8993
 2086SOL    HW217892   3.893   2.097   4.023 -1.2877  0.9754  0.6159
 2087SOL     OW17893   3.384   0.232   6.981  0.1212  0.1916  0.2901
 2087SOL    HW117894   3.386   0.315   6.933  1.2735  0.6426  1.1080
 2087SOL    HW217895   3.354   0.273   7.063  0.8004  0.0586  0.6115
 2088SOL     OW17896   3.952   1.894   6.419 -0.6273 -0.1711 -0.1679
 2088SOL    HW117897   4.025   1.944   6.381  0.0357 -1.7692 -0.9743
 2088SOL    HW217898   3.928   1.824   6.359 -1.8679 -0.2506  0.4389
 2089SOL     OW17899   3.611   2.052   6.131 -0.2041  0.2938 -0.1155
 2089SOL    HW117900   3.567   2.098   6.203  0.3205 -2.3492  1.9254
 2089SOL    HW217901   3.602   2.115   6.060 -1.0266 -0.7511 -0.9379
 2090SOL     OW17902   0.018   0.514   1.303  0.1199  0.2701  0.1468
 2090SOL    HW117903   0.040   0.421   1.298  2.4366  0.6597  3.3797
 2090SOL    HW217904   0.099   0.557   1.331 -0.5067  1.6144 -0.1143
 2091SOL     OW17905   0.239   4.146   4.974  0.2892 -0.1248  0.1689
 2091SOL    HW117906   0.157   4.096   4.969 -0.3960  1.0776 -0.4859
 2091SOL    HW217907   0.230   4.205   4.899  0.7369  0.3694  0.5077
 2092SOL     OW17908   0.906   2.184   2.935 -0.4211  0.0192  0.8710
 2092SOL    HW117909   0.969   2.198   3.005 -0.7685 -0.1441  1.2129
 2092SOL    HW217910   0.824   2.169   2.981 -0.2939 -0.2465  1.0072
 2093SOL     OW17911   2.771   1.039  17.732  0.6069 -0.0179 -0.5494
 2093SOL    HW117912   2.809   0.981  17.667 -0.0172 -1.0024 -0.0307
 2093SOL    HW217913   2.824   1.007   0.070  0.2242  0.9626  0.1573
 2094SOL     OW17914   3.010   4.294   4.444 -0.1489  0.0320  0.1115
 2094SOL    HW117915   3.039   4.375   4.403 -0.9202 -0.1327 -0.7608
 2094SOL    HW217916   2.943   4.340   4.496 -1.3700 -2.0771  0.4142
 2095SOL     OW17917   1.705   4.298  12.086  0.2778  0.1539 -0.6424
 2095SOL    HW117918   1.728   4.340  12.169  1.8481 -1.3491 -0.3130
 2095SOL    HW217919   1.780   4.337  12.040  0.1886  1.5281  0.3774
 2096SOL     OW17920   2.503   1.395   8.546 -0.4156  0.0705  0.2929
 2096SOL    HW117921   2.425   1.364   8.500 -0.3436  1.5805 -0.8635
 2096SOL    HW217922   2.495   1.336   8.620 -2.7540  1.7440  1.3697
 2097SOL     OW17923   3.648   3.843   6.545 -0.0080  0.0495  0.2252
 2097SOL    HW117924   3.706   3.772   6.518  0.7099  0.4342  0.7704
 2097SOL    HW217925   3.616   3.825   6.633 -1.7782 -1.4566 -0.7120
 2098SOL     OW17926   0.010   4.405  16.368 -0.3536  0.7606 -0.0283
 2098SOL    HW117927   0.068   4.329  16.367  2.3909  2.8466  1.5566
 2098SOL    HW217928   0.062   4.485  16.365 -0.2422  0.6407 -1.4881
 2099SOL     OW17929   4.312   1.027  15.207 -0.4610 -0.0582  0.6111
 2099SOL    HW117930   4.274   1.097  15.260 -1.1893 -0.1374  0.1910
 2099SOL    HW217931   4.257   0.949  15.212 -0.6028 -0.1225 -1.7738
 2100SOL     OW17932   0.529   1.726   9.726 -0.5053 -0.1457  0.1513
 2100SOL    HW117933   0.612   1.750   9.766 -0.2339 -1.0644  0.1416
 2100SOL    HW217934   0.524   1.632   9.741 -0.8657  0.1168  1.6101
 2101SOL     OW17935   2.225   4.493  12.832  0.5918 -0.1511  0.1670
 2101SOL    HW117936   2.179   4.524  12.754 -1.0133  0.9415  1.5426
 2101SOL    HW217937   2.289   4.564  12.840  2.2847 -1.5882 -0.5150
 2102SOL     OW17938   3.133   0.690  13.556  0.0191  0.6056 -0.4033
 2102SOL    HW117939   3.194   0.617  13.552  0.0482  0.6864 -1.3745
 2102SOL    HW217940   3.150   0.734  13.639 -2.6780  0.3108  0.2910
 2103SOL     OW17941   1.118   2.461   1.020 -0.3238  0.4014  0.3799
 2103SOL    HW117942   1.038   2.448   0.970  0.7286 -1.3280 -0.8537
 2103SOL    HW217943   1.184   2.493   0.958 -0.3125 -0.2663  0.0478
 2104SOL     OW17944   4.277   2.399   5.917  0.4547 -0.7257 -0.6233
 2104SOL    HW117945   4.260   2.424   6.007 -3.7883 -0.0976 -1.6019
 2104SOL    HW217946   4.194   2.358   5.893  0.3353 -0.9691  0.2383
 2105SOL     OW17947   1.734   0.713   8.824 -0.1744  0.7319  0.6115
 2105SOL    HW117948   1.819   0.697   8.866  0.3698  0.9227 -0.4077
 2105SOL    HW217949   1.684   0.663   8.888  0.1157  0.4631  0.6314
 2106SOL     OW17950   2.388   0.411  13.858  0.1720 -0.0123  0.2783
 2106SOL    HW117951   2.379   0.485  13.798  0.1818 -0.5760 -0.4137
 2106SOL    HW217952   2.470   0.432  13.902 -0.1176  0.6323  0.5133
 2107SOL     OW17953   0.752   2.899   2.688 -0.0660  0.0136  0.5904
 2107SOL    HW117954   0.814   2.852   2.743  0.5248  1.1017  0.8313
 2107SOL    HW217955   0.762   2.856   2.603  2.8094 -1.5787  1.7366
 2108SOL     OW17956   3.422   0.406  14.064 -0.0508  0.4462  0.0793
 2108SOL    HW117957   3.396   0.350  14.137 -1.8530  0.2499 -0.7156
 2108SOL    HW217958   3.402   0.493  14.099 -0.9058  0.5850 -0.7241
 2109SOL     OW17959   3.170   1.937   5.125 -0.1000  0.0685 -0.4194
 2109SOL    HW117960   3.118   1.972   5.053  0.2815 -3.3741 -2.3606
 2109SOL    HW217961   3.102   1.920   5.190  0.3027 -1.2188 -0.3333
 2110SOL     OW17962   3.219   4.200   9.696  0.3352 -0.0375  0.1346
 2110SOL    HW117963   3.171   4.119   9.677 -0.0644  0.3906 -0.6593
 2110SOL    HW217964   3.288   4.198   9.630 -1.3842  1.5008 -1.6922
 2111SOL     OW17965   2.883   0.586   9.652 -0.5233  0.2656 -0.3824
 2111SOL    HW117966   2.835   0.632   9.584 -2.9839 -1.9176 -0.1217
 2111SOL    HW217967   2.824   0.584   9.727  0.8155 -0.2551  0.6694
 2112SOL     OW17968   3.368   1.731  12.140 -0.0152  0.0824  0.4479
 2112SOL    HW117969   3.451   1.733  12.092 -0.4037  0.8866 -0.1997
 2112SOL    HW217970   3.384   1.788  12.215  1.8958  0.5489 -0.3185
 2113SOL     OW17971   4.134   2.875   5.261 -0.9632 -0.2203 -0.2503
 2113SOL    HW117972   4.081   2.949   5.229 -0.6470  0.6581  1.2297
 2113SOL    HW217973   4.206   2.870   5.199 -0.5165  0.5820  0.1988
 2114SOL     OW17974   0.313   4.166   5.284 -0.3077  0.3120 -0.0744
 2114SOL    HW117975   0.301   4.207   5.199  1.1438  0.1183 -0.3582
 2114SOL    HW217976   0.315   4.073   5.264  1.5138  0.2725  0.2944
 2115SOL     OW17977   0.049   4.571  14.835  0.3430  0.0283  0.2723
 2115SOL    HW117978   0.063   4.579  14.741  2.4288  1.3357  0.6880
 2115SOL    HW217979   0.044   4.475  14.841  2.4251 -0.0528  0.7838
 2116SOL     OW17980   2.606   2.207   4.741 -0.8845 -0.4218 -0.0664
 2116SOL    HW117981   2.645   2.286   4.778  0.1023 -0.8437 -0.1958
 2116SOL    HW217982   2.513   2.226   4.731 -0.6778  0.5646 -0.0885
 2117SOL     OW17983   3.801   1.131   7.753  0.7425 -0.0799  0.0151
 2117SOL    HW117984   3.872   1.067   7.753  0.2993 -0.5692 -0.2866
 2117SOL    HW217985   3.725   1.086   7.716  1.1891 -0.0006 -1.0030
 2118SOL     OW17986   3.342   0.647   8.713  0.0008 -0.1212  0.4852
 2118SOL    HW117987   3.293   0.609   8.640  0.0363  0.3157  0.2363
 2118SOL    HW217988   3.432   0.624   8.689  0.1099  0.2828  0.5007
 2119SOL     OW17989   3.178   4.066   8.666 -0.0105 -0.1240 -0.0274
 2119SOL    HW117990   3.185   4.086   8.759 -2.1774 -1.5982  0.4383
 2119SOL    HW217991   3.120   4.139   8.646  0.1961  0.6758  2.3505
 2120SOL     OW17992   3.856   1.852   8.291 -0.1297 -0.0585 -0.1041
 2120SOL    HW117993   3.796   1.926   8.281 -2.5247 -1.7399  1.6753
 2120SOL    HW217994   3.930   1.911   8.301  0.9109 -1.3447 -0.1510
 2121SOL     OW17995   3.962   1.527  15.032 -0.2978 -0.6709  0.6616
 2121SOL    HW117996   4.051   1.562  15.038 -1.1692  1.6669 -0.2605
 2121SOL    HW217997   3.964   1.448  15.086  0.2802 -1.6870 -0.8170
 2122SOL     OW17998   3.692   4.384   1.874  0.1253  0.9096 -0.6472
 2122SOL    HW117999   3.730   4.412   1.791  2.3130 -0.1446  0.0090
 2122SOL    HW218000   3.677   4.465   1.922  2.0344  1.0710 -0.3149
 2123SOL     OW18001   1.278   3.045   3.685  0.1429 -0.2720 -0.3940
 2123SOL    HW118002   1.252   3.026   3.595  2.2949  0.2021 -1.1211
 2123SOL    HW218003   1.261   3.139   3.693  0.6757 -0.2718  0.7802
 2124SOL     OW18004   4.682   1.338   4.533 -0.4702  0.1241 -0.0950
 2124SOL    HW118005   4.596   1.339   4.490 -0.5620 -1.1862  0.0479
 2124SOL    HW218006   4.719   1.275   4.472 -1.1119  0.1209 -0.4851
 2125SOL     OW18007   4.030   4.572   4.244 -0.4448  0.0490  0.3369
 2125SOL    HW118008   4.025   4.586   4.149 -2.3454 -1.6822  0.1922
 2125SOL    HW218009   4.008   4.658   4.282  0.6444  0.1220  0.7959
 2126SOL     OW18010   2.073   2.760  11.883  0.0434  0.1381 -0.4256
 2126SOL    HW118011   2.092   2.844  11.841 -0.3274 -0.1216 -1.1168
 2126SOL    HW218012   2.147   2.747  11.942 -1.2819 -0.9803  0.9843
 2127SOL     OW18013   0.966   2.180   5.436 -0.2458 -0.0180 -0.3468
 2127SOL    HW118014   0.957   2.164   5.530 -0.6264  2.9026  0.1268
 2127SOL    HW218015   1.051   2.141   5.416 -0.2032  0.5501 -1.2777
 2128SOL     OW18016   3.281   3.505  15.855  0.0472  0.2336 -0.1756
 2128SOL    HW118017   3.307   3.470  15.940  2.5812  1.3052 -0.5091
 2128SOL    HW218018   3.194   3.467  15.844 -0.6194  1.2303  1.7135
 2129SOL     OW18019   2.888   1.763   2.872  0.1135 -0.2118  0.3820
 2129SOL    HW118020   2.964   1.730   2.919  1.3398  0.4770 -1.1025
 2129SOL    HW218021   2.832   1.780   2.948  1.2664 -0.5664  1.3004
 2130SOL     OW18022   2.248   2.517   7.311 -0.2118 -0.5763 -0.2832
 2130SOL    HW118023   2.197   2.445   7.347 -0.7952 -0.0509 -0.0670
 2130SOL    HW218024   2.186   2.565   7.256  1.3431 -0.5005 -1.9929
 2131SOL     OW18025   4.571   2.157   3.044 -0.4925  0.1018 -0.1385
 2131SOL    HW118026   4.579   2.152   3.139 -0.2198  3.5194 -0.0098
 2131SOL    HW218027   4.508   2.227   3.034 -2.0074 -1.0247  1.4769
 2132SOL     OW18028   0.129   0.430   3.557  0.0138 -0.5370 -0.0301
 2132SOL    HW118029   0.162   0.403   3.643 -1.6214 -2.6554 -0.0535
 2132SOL    HW218030   0.047   0.471   3.583  0.6526 -0.0355  1.1817
 2133SOL     OW18031   0.757   3.135   4.190 -0.1302 -0.0165  0.5187
 2133SOL    HW118032   0.745   3.200   4.260 -0.4978  2.7728 -2.1370
 2133SOL    HW218033   0.701   3.167   4.119 -1.0040  2.3742  2.2743
 2134SOL     OW18034   3.106   2.879  12.030 -0.1037  0.1421  0.2170
 2134SOL    HW118035   3.089   2.787  12.049 -0.5530  0.5676  1.8897
 2134SOL    HW218036   3.026   2.898  11.980  3.1239  2.3321 -4.0944
 2135SOL     OW18037   1.779   3.462   4.867 -0.4285  0.4494 -0.1891
 2135SOL    HW118038   1.783   3.386   4.809 -0.0611  0.0960  0.2931
 2135SOL    HW218039   1.851   3.518   4.838  0.8764 -1.7168 -1.1215
 2136SOL     OW18040   0.373   0.100  14.573  0.1318  0.8401 -0.3129
 2136SOL    HW118041   0.428   0.029  14.541 -0.8989  0.6392 -1.6544
 2136SOL    HW218042   0.321   0.106  14.493  1.7566  0.4988 -1.3893
 2137SOL     OW18043   4.283   0.891   3.791  0.2158  0.3994 -0.0509
 2137SOL    HW118044   4.340   0.845   3.730  0.9471 -0.4469  1.2697
 2137SOL    HW218045   4.215   0.827   3.812 -0.0162  1.5498  2.6740
 2138SOL     OW18046   1.565   3.372   4.536  0.2724  0.4305 -0.1856
 2138SOL    HW118047   1.650   3.415   4.523  1.0502 -1.1687 -0.3524
 2138SOL    HW218048   1.548   3.420   4.618  1.0790  2.5595 -1.2602
 2139SOL     OW18049   0.452   3.618  10.864  0.5166 -0.2650 -0.6003
 2139SOL    HW118050   0.412   3.664  10.938  0.0488 -0.2673 -0.8515
 2139SOL    HW218051   0.367   3.587  10.832 -0.3991 -0.0215  1.5549
 2140SOL     OW18052   0.659   4.657   1.579  0.1203  0.2080  0.5418
 2140SOL    HW118053   0.681   4.564   1.592 -0.4131  0.1622  1.1230
 2140SOL    HW218054   0.564   4.655   1.573  0.1997  1.8033 -0.9686
 2141SOL     OW18055   4.017   0.114  14.667 -0.0591 -0.2416 -0.1815
 2141SOL    HW118056   4.075   0.137  14.594  0.0872 -1.8654 -0.5862
 2141SOL    HW218057   3.942   0.089  14.613 -0.8486 -0.9941  1.2533
 2142SOL     OW18058   0.121   4.158   9.524  0.4565 -0.4022  0.2057
 2142SOL    HW118059   0.167   4.122   9.600  0.4333 -0.2338  0.3006
 2142SOL    HW218060   0.057   4.216   9.566 -1.8210 -2.8609  0.1533
 2143SOL     OW18061   2.653   2.715  15.895 -0.3888 -0.4266  0.6395
 2143SOL    HW118062   2.674   2.676  15.810  1.3177 -3.3839  2.4011
 2143SOL    HW218063   2.690   2.804  15.896  1.0903 -1.0462  2.2002
 2144SOL     OW18064   3.539   0.822   7.249 -0.6642 -0.0015 -0.0462
 2144SOL    HW118065   3.519   0.803   7.341  0.6557 -0.7343  0.1025
 2144SOL    HW218066   3.450   0.848   7.228 -0.0211  0.9383 -1.6427
 2145SOL     OW18067   1.746   2.296   6.233 -0.4238 -0.2417  0.5154
 2145SOL    HW118068   1.715   2.250   6.155 -0.2348  2.3673 -1.0887
 2145SOL    HW218069   1.680   2.362   6.250  0.7545  1.3543 -1.1943
 2146SOL     OW18070   4.013   1.463  17.469 -0.4276  0.1947 -0.5077
 2146SOL    HW118071   4.108   1.474  17.461 -0.6380  1.7870 -0.6664
 2146SOL    HW218072   4.005   1.378  17.425 -0.4026 -0.5102  0.8581
 2147SOL     OW18073   3.860   0.346   6.084 -0.4055  0.6491 -0.0186
 2147SOL    HW118074   3.908   0.266   6.106 -0.3045  0.8193  0.3779
 2147SOL    HW218075   3.924   0.405   6.045  0.6785 -0.2239  0.4125
 2148SOL     OW18076   3.660   2.942   8.657  0.1078  0.1267 -0.1950
 2148SOL    HW118077   3.568   2.923   8.638  0.4748 -0.5143 -1.3206
 2148SOL    HW218078   3.708   2.945   8.575 -0.3246  0.1758 -0.4445
 2149SOL     OW18079   2.707   0.045   7.689 -0.3674  0.2950 -0.0095
 2149SOL    HW118080   2.762   0.054   7.767 -1.4107  2.1028  0.5194
 2149SOL    HW218081   2.736   0.121   7.639  3.3185 -0.7241  0.6336
 2150SOL     OW18082   1.524   1.485   2.178  0.9023  0.3285  1.1860
 2150SOL    HW118083   1.549   1.515   2.091 -0.8492 -1.9807 -0.1189
 2150SOL    HW218084   1.608   1.455   2.211  2.1309 -0.5513 -2.7683
 2151SOL     OW18085   0.956   1.400   0.551  0.0123  0.0726 -0.2078
 2151SOL    HW118086   0.971   1.486   0.590  0.4043 -0.8947  1.8060
 2151SOL    HW218087   0.886   1.369   0.608 -0.6624  0.0392 -1.0597
 2152SOL     OW18088   4.044   2.385  17.540  0.0884  0.2256 -0.2535
 2152SOL    HW118089   3.998   2.448  17.485  1.5223  2.0608  0.6858
 2152SOL    HW218090   4.000   2.397  17.625  1.5297 -2.7869  0.9275
 2153SOL     OW18091   2.340   3.148   1.903  0.0561  0.5213 -0.2539
 2153SOL    HW118092   2.325   3.221   1.963 -1.3117 -0.8904  1.1432
 2153SOL    HW218093   2.300   3.177   1.821 -2.4881 -1.3872  0.2980
 2154SOL     OW18094   1.676   2.606   4.171 -0.4229  0.1649  0.0524
 2154SOL    HW118095   1.754   2.661   4.175 -0.8989  0.9946 -1.9413
 2154SOL    HW218096   1.647   2.577   4.258 -0.7049 -0.8434 -0.3767
 2155SOL     OW18097   4.601   1.506  11.660  0.1582  0.3517 -0.4383
 2155SOL    HW118098   4.671   1.483  11.599 -0.1536  0.6568 -0.9067
 2155SOL    HW218099   4.542   1.544  11.595 -2.4793 -0.9353  1.2269
 2156SOL     OW18100   3.558   0.733   8.071 -0.0413 -0.6227 -0.1460
 2156SOL    HW118101   3.571   0.818   8.114  1.5765 -1.0506  0.2305
 2156SOL    HW218102   3.485   0.738   8.010 -0.2008  4.0720  0.4646
 2157SOL     OW18103   4.169   2.836   3.399 -0.0760  0.5202 -0.5979
 2157SOL    HW118104   4.170   2.854   3.305 -1.0549 -1.3406 -0.9654
 2157SOL    HW218105   4.079   2.811   3.421 -0.1324  1.2829  0.0276
 2158SOL     OW18106   2.207   2.481   2.105 -0.5415  0.0551  0.2245
 2158SOL    HW118107   2.196   2.504   2.013 -0.9108 -0.1561  0.2138
 2158SOL    HW218108   2.271   2.550   2.122  0.4932 -0.3935 -1.9447
 2159SOL     OW18109   0.071   3.187   8.308 -0.0803  0.1391  0.4264
 2159SOL    HW118110   0.133   3.130   8.262 -1.0836  0.2489 -1.0637
 2159SOL    HW218111   0.113   3.191   8.394 -0.2135 -3.0172  0.6632
 2160SOL     OW18112   2.917   2.191  12.521  0.3124  0.1022 -0.1236
 2160SOL    HW118113   2.969   2.260  12.479 -1.5200 -0.2884 -3.0418
 2160SOL    HW218114   2.974   2.141  12.579  1.7961  0.3100 -1.4056
 2161SOL     OW18115   4.359   2.533   8.048 -0.1056 -0.4033  0.4569
 2161SOL    HW118116   4.409   2.463   8.006  3.5662  1.3071  1.9554
 2161SOL    HW218117   4.324   2.487   8.124 -0.4049 -0.6908  0.1427
 2162SOL     OW18118   3.646   4.235   4.584 -0.1043  0.3457  0.4977
 2162SOL    HW118119   3.609   4.147   4.587 -0.5880  0.5109 -0.3902
 2162SOL    HW218120   3.641   4.258   4.677 -1.4614  1.5585  0.1334
 2163SOL     OW18121   1.044   1.660  13.473 -0.1837 -0.0810 -1.0319
 2163SOL    HW118122   1.000   1.611  13.542 -1.4574  1.4782 -0.7483
 2163SOL    HW218123   1.008   1.628  13.390 -0.9731  1.8718 -1.4303
 2164SOL     OW18124   3.806   0.082   1.002  0.4798  0.1753  0.1270
 2164SOL    HW118125   3.721   0.114   1.033 -0.4048 -3.7487  1.7961
 2164SOL    HW218126   3.868   0.124   1.063  2.0454  0.3955 -1.6225
 2165SOL     OW18127   1.397   1.298  12.117  0.3546  0.1418 -0.2777
 2165SOL    HW118128   1.382   1.373  12.175  1.1351 -0.1039  0.2420
 2165SOL    HW218129   1.307   1.273  12.096 -1.0244  2.2172  3.1008
 2166SOL     OW18130   3.164   1.437   8.815 -0.0300 -0.5352 -0.6610
 2166SOL    HW118131   3.157   1.346   8.786 -0.2888 -0.4017 -1.0165
 2166SOL    HW218132   3.229   1.426   8.884 -3.2355 -1.5726  2.1979
 2167SOL     OW18133   2.184   3.162   8.496  0.3859  0.1521 -0.4910
 2167SOL    HW118134   2.136   3.144   8.577  2.9470  1.9729  1.4323
 2167SOL    HW218135   2.268   3.117   8.506 -0.2057 -0.7685  0.3499
 2168SOL     OW18136   2.611   3.539   6.115 -0.1745 -0.2816  0.5001
 2168SOL    HW118137   2.662   3.475   6.066 -2.4665 -1.7526  0.0509
 2168SOL    HW218138   2.647   3.528   6.203  3.6059  2.8674 -0.6529
 2169SOL     OW18139   3.330   4.330   7.403  0.0256  0.3215 -0.1721
 2169SOL    HW118140   3.400   4.382   7.442  1.2040  0.8606 -3.0032
 2169SOL    HW218141   3.258   4.385   7.433  0.4645  0.3294  0.8775
 2170SOL     OW18142   3.701   1.032   0.599 -0.0316  0.4096 -0.3007
 2170SOL    HW118143   3.737   0.965   0.541 -1.7864 -0.5746 -0.2566
 2170SOL    HW218144   3.630   0.983   0.642 -1.2733  1.5273 -1.0568
 2171SOL     OW18145   2.509   4.142   9.844  0.0103 -0.1995  0.5454
 2171SOL    HW118146   2.453   4.096   9.906  0.1046  0.2858  0.9967
 2171SOL    HW218147   2.525   4.071   9.783 -0.8790  1.8155 -2.0437
 2172SOL     OW18148   1.484   3.635   0.541  0.3902  0.6846  0.1077
 2172SOL    HW118149   1.558   3.586   0.576  1.0399  1.2876 -0.4294
 2172SOL    HW218150   1.421   3.589   0.596  0.9906  1.9544  1.8459
 2173SOL     OW18151   3.163   0.469  10.002 -0.1123  0.1751 -0.1988
 2173SOL    HW118152   3.098   0.405  10.031 -2.4606  2.5308 -0.2740
 2173SOL    HW218153   3.200   0.498  10.086  0.3168  1.4436 -0.8320
 2174SOL     OW18154   3.562   0.478   8.213 -0.2095 -0.0640  0.3568
 2174SOL    HW118155   3.528   0.436   8.134 -0.7547 -2.3495  1.7790
 2174SOL    HW218156   3.611   0.546   8.168 -1.4951  0.1990 -0.6501
 2175SOL     OW18157   2.951   1.441   7.939 -0.1911 -0.2941  0.6216
 2175SOL    HW118158   2.900   1.522   7.929 -0.5206 -0.0064  4.6191
 2175SOL    HW218159   3.038   1.472   7.963  0.1142 -0.5876 -0.0941
 2176SOL     OW18160   3.669   1.080  16.890  0.5479 -0.2494  0.4581
 2176SOL    HW118161   3.709   1.001  16.927  1.1310 -1.0048 -1.8138
 2176SOL    HW218162   3.583   1.077  16.932  1.2097  0.3708  1.8596
 2177SOL     OW18163   3.681   0.270   7.687  0.8678 -0.0990 -0.4816
 2177SOL    HW118164   3.738   0.288   7.612 -0.2322 -2.0371 -1.7753
 2177SOL    HW218165   3.713   0.182   7.706  0.8396  0.1040  0.5451
 2178SOL     OW18166   4.190   4.347   9.824  0.2153  0.1711 -0.4912
 2178SOL    HW118167   4.213   4.259   9.853 -1.8484  0.6487  2.6334
 2178SOL    HW218168   4.202   4.337   9.729 -2.0050 -0.4313 -0.7023
 2179SOL     OW18169   0.069   2.299   4.622 -0.2553 -0.3328 -0.0689
 2179SOL    HW118170   0.057   2.213   4.663 -2.0856  0.0261  0.1296
 2179SOL    HW218171   4.722   2.345   4.644  0.7649  1.0570  0.7947
 2180SOL     OW18172   2.444   3.089   9.084  0.4889  0.0424 -0.1039
 2180SOL    HW118173   2.445   3.083   9.180 -3.0926  0.7795 -0.0253
 2180SOL    HW218174   2.453   2.996   9.063 -1.5797  0.1621 -1.4951
 2181SOL     OW18175   3.220   3.916   3.824  0.3902 -0.2215  0.4063
 2181SOL    HW118176   3.252   3.830   3.851 -1.5508  0.3902  4.6866
 2181SOL    HW218177   3.231   3.975   3.899 -1.0935 -0.7126  0.9992
 2182SOL     OW18178   0.131   4.260   6.109  0.0869  0.1926 -0.0845
 2182SOL    HW118179   0.063   4.194   6.121  0.1637 -0.1209 -1.4513
 2182SOL    HW218180   0.075   4.336   6.093  0.7464  0.7378  0.1966
 2183SOL     OW18181   3.095   3.775   8.881  0.2617  0.0383 -0.1825
 2183SOL    HW118182   3.053   3.740   8.803  1.5531 -0.9925 -0.4279
 2183SOL    HW218183   3.112   3.693   8.927 -3.8250 -0.9283 -0.3491
 2184SOL     OW18184   2.312   0.790   5.957  0.4023  0.1088 -0.3099
 2184SOL    HW118185   2.381   0.835   6.006  1.3308 -0.9970 -0.5912
 2184SOL    HW218186   2.360   0.723   5.907  1.2725  1.0514 -0.7435
 2185SOL     OW18187   2.632   0.325   8.494  0.6051 -0.3340  0.2518
 2185SOL    HW118188   2.555   0.354   8.543  0.3955 -1.5844  0.6587
 2185SOL    HW218189   2.700   0.336   8.560  1.0433  2.5098 -0.6877
 2186SOL     OW18190   2.723   2.543   3.015 -0.2103 -0.2023 -0.2486
 2186SOL    HW118191   2.750   2.463   3.060  0.9338  0.2744 -0.0720
 2186SOL    HW218192   2.633   2.556   3.045 -0.1978 -0.4815 -0.0891
 2187SOL     OW18193   3.294   1.823   1.512 -0.2342 -0.6092  0.0851
 2187SOL    HW118194   3.231   1.881   1.470 -0.6489 -2.1615 -1.4296
 2187SOL    HW218195   3.364   1.884   1.534 -1.1111  0.0057  1.1921
 2188SOL     OW18196   1.242   3.639   9.225  0.6825 -0.1999 -0.1498
 2188SOL    HW118197   1.279   3.697   9.290  0.9426  0.0720 -0.5372
 2188SOL    HW218198   1.314   3.579   9.205  1.6602  1.0395 -0.3740
 2189SOL     OW18199   1.570   1.127   2.960  0.0218  0.2753  0.2917
 2189SOL    HW118200   1.648   1.112   2.908  0.3012  1.0151  0.5097
 2189SOL    HW218201   1.608   1.189   3.022  0.7784 -0.8267  0.9260
 2190SOL     OW18202   3.560   3.467   7.218  0.3418 -0.1513 -0.5341
 2190SOL    HW118203   3.489   3.428   7.268 -1.7607 -0.2176 -3.5630
 2190SOL    HW218204   3.518   3.470   7.131 -0.3869 -1.5000 -0.2333
 2191SOL     OW18205   3.788   4.589   4.483  0.1049  0.4888  0.6482
 2191SOL    HW118206   3.882   4.605   4.499 -0.1670  2.7345 -0.0835
 2191SOL    HW218207   3.782   4.494   4.474 -0.7732  0.7394 -1.4008
 2192SOL     OW18208   2.286   2.751   8.041  0.1745  0.3810  0.1188
 2192SOL    HW118209   2.228   2.684   8.077 -0.2361  0.7541  0.1599
 2192SOL    HW218210   2.255   2.810   8.109 -0.7436  0.9681 -0.8024
 2193SOL     OW18211   3.291   3.668   7.698  0.2752 -0.3966 -0.2215
 2193SOL    HW118212   3.334   3.630   7.622  1.2750 -2.6052  1.4370
 2193SOL    HW218213   3.197   3.652   7.684  0.1663 -0.9390  1.0655
 2194SOL     OW18214   2.655   2.263   7.395  0.1769  0.0259 -0.1099
 2194SOL    HW118215   2.638   2.216   7.477  0.3236  0.4231  0.1497
 2194SOL    HW218216   2.570   2.284   7.357  0.2354 -2.7675 -1.7934
 2195SOL     OW18217   3.481   0.669   7.009 -0.2471 -0.1612 -0.5901
 2195SOL    HW118218   3.519   0.752   6.981  2.4332 -1.2151 -0.1077
 2195SOL    HW218219   3.541   0.655   7.083 -0.3339 -0.9265 -0.6715
 2196SOL     OW18220   1.018   0.780   0.139  0.1241  0.3144 -0.1532
 2196SOL    HW118221   0.928   0.782   0.171 -0.2252  2.4286 -1.2962
 2196SOL    HW218222   1.026   0.867   0.100  0.6702  0.1982 -0.2950
 2197SOL     OW18223   1.139   4.492   9.390 -0.3757 -0.3160  0.1172
 2197SOL    HW118224   1.193   4.419   9.358 -1.3582 -1.4002  0.9202
 2197SOL    HW218225   1.074   4.444   9.442 -0.4312  0.0500  0.3884
 2198SOL     OW18226   3.881   3.552   2.368  0.3491 -0.5078 -0.0713
 2198SOL    HW118227   3.847   3.576   2.282  1.4887 -1.1782 -0.7174
 2198SOL    HW218228   3.803   3.514   2.408 -1.2481  2.0466 -0.7813
 2199SOL     OW18229   0.156   1.716   2.349 -0.0501 -0.3452  0.0974
 2199SOL    HW118230   0.243   1.754   2.342 -0.5796  0.6023 -1.3165
 2199SOL    HW218231   0.184   1.627   2.327  1.8082  0.3352 -0.2693
 2200SOL     OW18232   2.220   2.047   4.298 -0.2081  0.9730  0.3060
 2200SOL    HW118233   2.270   2.102   4.238 -0.8584  1.9377  0.6585
 2200SOL    HW218234   2.154   2.024   4.232  1.4658 -0.3833 -0.8972
 2201SOL     OW18235   1.693   4.179   1.621 -0.4732 -0.0180  1.0770
 2201SOL    HW118236   1.731   4.163   1.534 -2.5502 -4.0408  0.9297
 2201SOL    HW218237   1.601   4.185   1.595 -0.6897 -2.0896  1.4141
 2202SOL     OW18238   4.722   4.079   8.912  0.2828 -0.1379 -0.0287
 2202SOL    HW118239   4.647   4.133   8.887  0.6776  0.2832 -0.2986
 2202SOL    HW218240   0.062   4.139   8.914  0.9395 -0.7921 -4.2050
 2203SOL     OW18241   2.851   0.092   9.560 -0.3462 -0.4282  0.1133
 2203SOL    HW118242   2.827   0.099   9.652  0.9657  0.3796  0.3955
 2203SOL    HW218243   2.916   0.022   9.564  0.6363  0.4193 -0.7300
 2204SOL     OW18244   2.161   0.234  16.737  0.2327  0.1321 -0.0447
 2204SOL    HW118245   2.171   0.205  16.827 -1.7200  1.4403  0.5905
 2204SOL    HW218246   2.228   0.184  16.690  0.6028  0.6866 -0.1201
 2205SOL     OW18247   1.937   1.862   6.215  0.3575  0.3527  0.5390
 2205SOL    HW118248   1.925   1.954   6.192 -0.2839 -0.0025 -0.5196
 2205SOL    HW218249   2.031   1.848   6.206  0.3250 -0.2083  1.0290
 2206SOL     OW18250   4.618   4.556   6.525  0.0953  0.4089 -0.2787
 2206SOL    HW118251   4.620   4.534   6.618  1.6567  1.4236 -0.0702
 2206SOL    HW218252   4.603   4.651   6.523 -1.2712  0.1733 -1.3739
 2207SOL     OW18253   3.851   3.892   2.394  0.0204  0.3265 -0.2348
 2207SOL    HW118254   3.945   3.895   2.409  0.3444 -0.0587 -2.1914
 2207SOL    HW218255   3.817   3.945   2.466  1.0142  0.9159 -0.1964
 2208SOL     OW18256   2.884   1.252  16.059 -0.3068  0.6739 -1.0556
 2208SOL    HW118257   2.906   1.319  15.995  0.5136  2.2315  0.8528
 2208SOL    HW218258   2.794   1.232  16.035 -0.0600  0.2685 -1.6410
 2209SOL     OW18259   4.607   3.281  17.444 -0.1299 -0.5682  0.1717
 2209SOL    HW118260   4.542   3.217  17.473 -1.1208  0.1381 -0.4762
 2209SOL    HW218261   4.583   3.360  17.493 -0.9543 -0.2274 -0.7638
 2210SOL     OW18262   4.712   0.354  16.939  0.9368  0.4773 -0.0921
 2210SOL    HW118263   4.639   0.412  16.956  0.4252 -0.2665  0.2419
 2210SOL    HW218264   0.043   0.414  16.902 -0.6245  1.5802 -1.0094
 2211SOL     OW18265   3.577   1.650   4.327 -0.6254 -0.4737 -0.5566
 2211SOL    HW118266   3.515   1.720   4.345 -0.4099 -0.2547 -0.6788
 2211SOL    HW218267   3.528   1.611   4.254 -2.5317  1.1011 -0.1226
 2212SOL     OW18268   2.956   3.903   7.015 -0.9135 -0.0466  0.4555
 2212SOL    HW118269   3.023   3.955   6.970 -0.9315  0.0598  0.5521
 2212SOL    HW218270   2.978   3.931   7.104  1.5209  0.6496 -0.3739
 2213SOL     OW18271   0.421   3.023   8.580  0.0711  0.1572 -0.4166
 2213SOL    HW118272   0.333   2.994   8.556 -0.2333  1.5817 -1.0201
 2213SOL    HW218273   0.404   3.031   8.674 -3.7358  2.5676 -1.3159
 2214SOL     OW18274   2.655   2.020  15.166  0.5901 -0.1172  0.7364
 2214SOL    HW118275   2.604   1.941  15.184 -0.0435  0.5937  2.0409
 2214SOL    HW218276   2.598   2.086  15.203 -0.9461 -1.1465  0.2266
 2215SOL     OW18277   1.693   2.800   9.049 -0.2519 -0.2176  0.2915
 2215SOL    HW118278   1.635   2.760   8.984 -1.1439  2.1232 -0.3605
 2215SOL    HW218279   1.644   2.802   9.131  2.3044  2.9369  1.7546
 2216SOL     OW18280   1.349   2.725   3.429 -0.2500 -0.3752  0.2731
 2216SOL    HW118281   1.331   2.632   3.441 -1.0704 -0.2526  0.0204
 2216SOL    HW218282   1.361   2.742   3.522 -1.2205  1.9291 -0.0249
 2217SOL     OW18283   1.770   4.074   9.594  0.0789  0.1041  0.7580
 2217SOL    HW118284   1.775   4.094   9.688  1.7908 -0.7039  0.8515
 2217SOL    HW218285   1.734   4.154   9.558 -0.4116 -0.5083 -0.0958
 2218SOL     OW18286   0.813   3.852   4.446 -0.1591 -0.2518  0.1548
 2218SOL    HW118287   0.866   3.777   4.473 -0.9348 -0.6739  0.5074
 2218SOL    HW218288   0.768   3.867   4.529 -1.0384 -0.5468 -0.2634
 2219SOL     OW18289   2.392   1.921  10.798  0.3845  0.0056  0.4244
 2219SOL    HW118290   2.409   1.833  10.763  0.3581  0.2479 -0.2052
 2219SOL    HW218291   2.443   1.910  10.878  0.8054  0.7325  0.2619
 2220SOL     OW18292   2.659   3.050   8.300  0.3012 -0.2366 -0.2612
 2220SOL    HW118293   2.697   2.977   8.349  1.8243  0.9258  0.2683
 2220SOL    HW218294   2.673   3.016   8.211  1.2809 -0.5002 -0.0106
 2221SOL     OW18295   0.176   2.602   6.025 -0.6424 -0.5401 -0.1040
 2221SOL    HW118296   0.216   2.660   5.959 -0.2117 -0.3340  0.3410
 2221SOL    HW218297   0.100   2.577   5.972  0.0560 -2.7377 -0.0725
 2222SOL     OW18298   3.740   1.103   4.202  0.7678  0.1708  0.2287
 2222SOL    HW118299   3.719   1.175   4.262  0.2665 -0.1822  0.4872
 2222SOL    HW218300   3.828   1.121   4.171 -0.8485  3.5478 -2.3681
 2223SOL     OW18301   0.981   1.512   1.639 -0.2952 -0.3747 -0.2327
 2223SOL    HW118302   0.959   1.431   1.594  0.8272 -1.3977  1.0326
 2223SOL    HW218303   0.901   1.562   1.628  0.2908  0.1880 -1.8540
 2224SOL     OW18304   3.358   1.606   9.258  0.1474  0.4736  0.4474
 2224SOL    HW118305   3.421   1.655   9.205  0.6077 -0.1507  0.4144
 2224SOL    HW218306   3.327   1.665   9.326 -0.8740 -0.0309  0.4109
 2225SOL     OW18307   2.657   3.292   7.639 -0.0654 -0.1107  0.1376
 2225SOL    HW118308   2.700   3.228   7.582  2.3661 -0.3275  2.2193
 2225SOL    HW218309   2.582   3.240   7.669 -0.9908  0.3376 -1.4002
 2226SOL     OW18310   1.119   0.301   4.503  0.1142 -0.1949  0.3490
 2226SOL    HW118311   1.204   0.307   4.547 -0.3198  1.7643  0.9426
 2226SOL    HW218312   1.115   0.386   4.459 -2.9076  0.1651  1.3357
 2227SOL     OW18313   3.061   1.970  14.017  0.1800 -0.3411  0.1691
 2227SOL    HW118314   2.989   2.018  13.976  0.8392  1.6789  1.3422
 2227SOL    HW218315   3.038   1.877  14.016 -0.7849 -0.1138  2.0369
 2228SOL     OW18316   4.572   3.727   8.365 -0.2026 -0.3674 -0.1463
 2228SOL    HW118317   4.660   3.764   8.370  0.3308 -1.4931 -1.1617
 2228SOL    HW218318   4.519   3.758   8.438  0.8249  0.7017  0.1367
 2229SOL     OW18319   2.255   4.594  16.429 -0.0457  0.0552  0.0238
 2229SOL    HW118320   2.348   4.572  16.434  0.0165  0.6249  1.3725
 2229SOL    HW218321   2.260   4.686  16.404 -2.0162  0.1866  0.0925
 2230SOL     OW18322   4.585   0.433  10.427  0.2775  0.0438 -0.0060
 2230SOL    HW118323   4.557   0.346  10.400  0.7573 -0.0443 -0.2191
 2230SOL    HW218324   4.663   0.453  10.375 -0.9136 -0.8352 -2.1628
 2231SOL     OW18325   3.142   2.200   6.763  0.0262  0.0259  0.1038
 2231SOL    HW118326   3.094   2.271   6.805  0.7955 -0.3741  1.6482
 2231SOL    HW218327   3.165   2.141   6.835 -0.7445  1.3180  1.4044
 2232SOL     OW18328   1.855   1.192   7.865  0.3722 -0.0392  1.0456
 2232SOL    HW118329   1.817   1.110   7.898  0.4626 -1.5815 -2.7552
 2232SOL    HW218330   1.783   1.240   7.825 -0.4193  0.0440  2.5403
 2233SOL     OW18331   3.476   2.153  13.684  0.2476 -0.1694 -0.3292
 2233SOL    HW118332   3.462   2.063  13.714  0.6864  0.0802  0.6406
 2233SOL    HW218333   3.383   2.176  13.676  0.2951  0.0591 -0.2318
 2234SOL     OW18334   0.197   3.243   6.611  0.2079  0.0821 -0.1513
 2234SOL    HW118335   0.221   3.334   6.626 -1.7923  0.6789 -0.4644
 2234SOL    HW218336   0.242   3.227   6.528  0.6809 -1.3724  0.3899
 2235SOL     OW18337   1.022   4.718  10.469  0.3563  0.7896 -0.3349
 2235SOL    HW118338   0.961   0.026  10.530  1.7275  0.1015  1.5479
 2235SOL    HW218339   0.962   4.675  10.409  1.0222 -1.2247  0.4499
 2236SOL     OW18340   2.643   3.084   6.554 -0.3330  0.2426  0.6797
 2236SOL    HW118341   2.699   3.161   6.566  0.9726 -0.4470 -0.8434
 2236SOL    HW218342   2.707   3.019   6.583 -1.6405 -1.1701  0.3303
 2237SOL     OW18343   3.338   0.890   4.233 -0.6562  0.5037 -0.2883
 2237SOL    HW118344   3.427   0.875   4.263 -0.2019  2.8660 -0.5289
 2237SOL    HW218345   3.329   0.977   4.270  1.5657  0.5292  0.1670
 2238SOL     OW18346   0.734   0.585   3.068  0.4002  0.2775 -0.1418
 2238SOL    HW118347   0.820   0.596   3.028  0.1502 -0.2579 -0.8344
 2238SOL    HW218348   0.740   0.643   3.143 -0.7092  0.3454 -0.1034
 2239SOL     OW18349   1.416   4.582  13.119 -0.1604 -0.0803  0.0196
 2239SOL    HW118350   1.341   4.547  13.071  1.8592 -1.3448 -2.2254
 2239SOL    HW218351   1.488   4.565  13.059  2.0900  1.0830  2.3857
 2240SOL     OW18352   0.774   0.314   5.320  0.0398  0.4621 -0.1171
 2240SOL    HW118353   0.837   0.290   5.252 -0.1660 -1.1128  0.2415
 2240SOL    HW218354   0.820   0.391   5.352 -0.4491  0.8588 -0.3570
 2241SOL     OW18355   1.079   4.419  10.289  0.5838 -0.9831 -0.1018
 2241SOL    HW118356   1.079   4.364  10.211 -2.7204 -1.2094  0.0571
 2241SOL    HW218357   1.053   4.353  10.353 -0.2185  0.2472  0.8179
 2242SOL     OW18358   3.284   0.802   7.192  0.2953 -0.3393 -0.1146
 2242SOL    HW118359   3.265   0.710   7.176 -1.3058  0.3300 -2.1019
 2242SOL    HW218360   3.263   0.835   7.105  3.6094  0.7008 -0.5363
 2243SOL     OW18361   1.374   1.961   2.038  0.1403  0.1551  0.4150
 2243SOL    HW118362   1.334   2.047   2.032 -0.4609 -0.1214  0.4622
 2243SOL    HW218363   1.392   1.949   2.132 -1.3157 -0.7430  0.5825
 2244SOL     OW18364   2.842   1.438  14.932  0.3218  0.3571  0.6203
 2244SOL    HW118365   2.880   1.453  15.019  0.2125  2.9448  0.2058
 2244SOL    HW218366   2.875   1.348  14.923 -1.5193 -0.1792 -0.5230
 2245SOL     OW18367   0.911   2.292  13.037 -0.4206 -0.4744 -0.3677
 2245SOL    HW118368   0.885   2.300  13.129 -2.5450 -4.7513 -0.6073
 2245SOL    HW218369   0.830   2.258  13.000  0.0273  1.0767 -2.7669
 2246SOL     OW18370   0.668   3.449  10.929 -0.8222  0.3292 -0.6212
 2246SOL    HW118371   0.646   3.478  11.018  0.7828  0.8613 -0.3960
 2246SOL    HW218372   0.592   3.488  10.885 -1.5558  0.3631  0.6780
 2247SOL     OW18373   2.873   0.236  15.820  0.4445 -0.3568  0.2044
 2247SOL    HW118374   2.794   0.186  15.840 -1.1690  2.2055  0.1526
 2247SOL    HW218375   2.887   0.288  15.899 -0.8777  0.4463 -0.0831
 2248SOL     OW18376   3.173   3.653   0.124 -0.4894  0.4278  1.0041
 2248SOL    HW118377   3.266   3.638   0.143  0.6285  0.4642 -4.3360
 2248SOL    HW218378   3.145   3.645   0.215 -0.2381 -0.9878  0.9607
 2249SOL     OW18379   2.448   3.051   1.363  0.0436 -0.3495  0.4162
 2249SOL    HW118380   2.485   3.138   1.376 -1.6624  0.0618  2.4201
 2249SOL    HW218381   2.387   3.066   1.291  0.9533  0.8035 -0.0998
 2250SOL     OW18382   1.655   2.786   3.064  0.2564  0.2457  0.8650
 2250SOL    HW118383   1.746   2.771   3.038  0.3276  2.6713 -0.3318
 2250SOL    HW218384   1.610   2.747   2.990  0.8599  1.6418 -0.2351
 2251SOL     OW18385   0.647   0.665   1.047  0.4530  0.4856  0.2834
 2251SOL    HW118386   0.552   0.656   1.039  0.3604  1.1909  0.6158
 2251SOL    HW218387   0.682   0.586   1.006 -0.4081  0.8804 -1.2116
 2252SOL     OW18388   2.768   2.718   9.761  0.0538  0.4785 -0.3602
 2252SOL    HW118389   2.707   2.786   9.733 -2.0461 -0.4827  1.9072
 2252SOL    HW218390   2.717   2.643   9.792  1.2985 -0.7850 -1.3583
 2253SOL     OW18391   0.927   0.347   6.750 -0.4668  0.3033 -0.1232
 2253SOL    HW118392   0.842   0.301   6.748  0.8909 -2.2699  1.3864
 2253SOL    HW218393   0.920   0.416   6.684 -1.0949 -2.1540 -2.6302
 2254SOL     OW18394   1.134   2.794   2.937 -0.2290  0.0231 -0.4794
 2254SOL    HW118395   1.190   2.788   3.014  0.4720 -1.2216 -1.0801
 2254SOL    HW218396   1.100   2.704   2.930  0.5723 -0.2629 -0.7672
 2255SOL     OW18397   3.968   3.828  14.057 -0.6674  0.1641 -0.3571
 2255SOL    HW118398   3.880   3.815  14.092 -0.7502 -0.4706 -0.8007
 2255SOL    HW218399   3.972   3.916  14.095 -1.1405  0.1230 -0.2104
 2256SOL     OW18400   3.410   1.102   0.507 -0.4915  0.0680 -0.4447
 2256SOL    HW118401   3.503   1.083   0.515 -0.4971  0.6042  1.0073
 2256SOL    HW218402   3.403   1.197   0.522 -2.3833 -0.3863  1.6160
 2257SOL     OW18403   0.732   3.397  12.808 -0.1207 -0.2780  0.0745
 2257SOL    HW118404   0.812   3.387  12.859  0.2357  0.9519 -0.2375
 2257SOL    HW218405   0.751   3.311  12.770  0.3584 -0.3073  0.3763
 2258SOL     OW18406   1.144   0.146   2.116  0.0757 -0.1466 -0.2946
 2258SOL    HW118407   1.195   0.080   2.069 -0.8675 -0.0719 -1.4262
 2258SOL    HW218408   1.057   0.108   2.117 -1.2214  2.6819 -3.8561
 2259SOL     OW18409   2.730   1.883   8.667  0.0321  0.1016 -0.1527
 2259SOL    HW118410   2.789   1.842   8.605  0.2095 -0.5046  0.4105
 2259SOL    HW218411   2.786   1.938   8.722  0.1372 -0.0186 -0.1418
 2260SOL     OW18412   1.315   2.179   9.583  0.6120 -0.4579  0.3345
 2260SOL    HW118413   1.297   2.223   9.499 -0.7304 -0.7076  0.4945
 2260SOL    HW218414   1.274   2.242   9.642 -0.5042 -1.5723  0.7552
 2261SOL     OW18415   1.138   4.188   9.316  0.4591  0.6952 -0.2011
 2261SOL    HW118416   1.155   4.183   9.222 -1.0386  3.5522 -0.6023
 2261SOL    HW218417   1.084   4.109   9.322  1.5244  0.0644  1.4839
 2262SOL     OW18418   4.167   2.027   6.302  1.1142  0.1635  0.0503
 2262SOL    HW118419   4.218   2.108   6.303  0.0974  0.8205 -1.1116
 2262SOL    HW218420   4.142   2.024   6.210  0.8473 -2.0950  0.1996
 2263SOL     OW18421   2.160   1.277   3.676 -0.3258 -0.7222 -0.2238
 2263SOL    HW118422   2.186   1.190   3.705  1.0084 -0.8708 -1.9255
 2263SOL    HW218423   2.122   1.256   3.591 -0.2390  0.8991 -0.6639
 2264SOL     OW18424   3.293   1.204   3.726 -0.1905  0.3501 -0.1600
 2264SOL    HW118425   3.264   1.180   3.638 -0.8161 -1.7939  0.6322
 2264SOL    HW218426   3.259   1.131   3.778  0.0576  1.4629  1.5629
 2265SOL     OW18427   3.799   2.590  17.097 -0.3441  0.2159  0.4820
 2265SOL    HW118428   3.822   2.498  17.083  0.0538  0.5655 -1.1952
 2265SOL    HW218429   3.880   2.637  17.114 -0.3555  1.1883 -2.1985
 2266SOL     OW18430   2.869   4.362   8.073  0.3029  0.0076  0.2870
 2266SOL    HW118431   2.938   4.335   8.012  1.5991 -0.8710  2.1364
 2266SOL    HW218432   2.833   4.275   8.092 -0.7523  0.4680  0.3817
 2267SOL     OW18433   1.051   3.844   5.717 -0.1443 -0.2920  0.1549
 2267SOL    HW118434   1.146   3.840   5.730  0.0411  2.1938 -0.3432
 2267SOL    HW218435   1.023   3.783   5.785 -2.3002  0.4631 -0.0487
 2268SOL     OW18436   2.908   0.859   6.643 -0.3906  0.2076 -0.1006
 2268SOL    HW118437   2.883   0.768   6.624 -0.5551  0.3666 -0.6288
 2268SOL    HW218438   3.001   0.837   6.656 -0.2220 -0.9087 -3.3058
 2269SOL     OW18439   3.528   4.732   3.930  0.4575  0.0845 -0.3624
 2269SOL    HW118440   3.542   4.643   3.963 -1.5220 -0.6570 -1.5069
 2269SOL    HW218441   3.558   0.057   3.999  1.9982 -0.8466 -0.2371
 2270SOL     OW18442   4.016   0.515   2.880 -0.3924  0.7146  0.4553
 2270SOL    HW118443   4.026   0.476   2.793  0.6831  0.5554  0.6425
 2270SOL    HW218444   3.960   0.450   2.922 -0.0843 -0.9050 -1.6635
 2271SOL     OW18445   1.105   2.646   1.209  0.0609  0.1911  0.5571
 2271SOL    HW118446   1.018   2.680   1.187  0.1879 -0.2218 -0.5880
 2271SOL    HW218447   1.112   2.568   1.154 -1.7165  0.1824  0.3463
 2272SOL     OW18448   2.251   3.666   8.328  0.5005  0.2977  0.3326
 2272SOL    HW118449   2.258   3.592   8.388 -0.0176 -0.0514 -0.0398
 2272SOL    HW218450   2.264   3.630   8.240 -2.5062 -0.0934  0.0745
 2273SOL     OW18451   4.234   3.626  11.693 -0.4263 -0.3881 -0.4980
 2273SOL    HW118452   4.260   3.537  11.717 -3.1836 -1.3592 -1.0780
 2273SOL    HW218453   4.187   3.645  11.774 -0.3594 -1.8291 -0.1256
 2274SOL     OW18454   2.940   1.608   5.748 -0.0461 -0.0888  0.2462
 2274SOL    HW118455   2.922   1.661   5.670 -1.1069  0.4816  0.8730
 2274SOL    HW218456   2.851   1.572   5.752  0.1172 -0.2111  2.7017
 2275SOL     OW18457   4.130   4.220   3.671 -0.1053  1.0973  0.1713
 2275SOL    HW118458   4.048   4.235   3.623  0.2749 -0.7948 -1.0576
 2275SOL    HW218459   4.093   4.191   3.754  1.5889 -3.5400 -0.7298
 2276SOL     OW18460   1.612   0.186  13.051 -0.1831  0.1256  0.0381
 2276SOL    HW118461   1.636   0.104  13.008  1.7070  1.2097 -0.9464
 2276SOL    HW218462   1.517   0.190  13.039  0.0423  2.9215 -0.6598
 2277SOL     OW18463   1.023   0.577   4.012 -0.0136  0.2011 -0.8547
 2277SOL    HW118464   0.993   0.659   4.053 -3.4383 -0.3764 -2.1727
 2277SOL    HW218465   0.935   0.544   3.993  0.1453  0.8891 -2.7520
 2278SOL     OW18466   0.046   0.723   6.364  0.4378  0.0447  0.2536
 2278SOL    HW118467   0.076   0.791   6.424 -0.7142 -0.0453  0.9223
 2278SOL    HW218468   4.698   0.699   6.405  1.1690 -1.3889  0.8835
 2279SOL     OW18469   2.510   3.823   1.496  0.4640 -0.0378  0.3732
 2279SOL    HW118470   2.553   3.741   1.520  0.6120 -0.0413  0.1016
 2279SOL    HW218471   2.421   3.796   1.517 -0.5539  0.3000 -3.4196
 2280SOL     OW18472   0.900   4.378   4.413 -0.1886 -0.0647 -0.0456
 2280SOL    HW118473   0.909   4.454   4.471 -1.4926 -0.0438  0.1211
 2280SOL    HW218474   0.991   4.348   4.418 -0.9230 -2.0687  1.0629
 2281SOL     OW18475   3.506   0.643   4.712 -0.0597 -0.1358  0.6120
 2281SOL    HW118476   3.570   0.708   4.683  1.1788 -1.9077 -0.5697
 2281SOL    HW218477   3.502   0.677   4.801 -0.1931 -2.4958  1.5069
 2282SOL     OW18478   0.798   2.861   7.188  0.1590 -0.1945 -0.3231
 2282SOL    HW118479   0.714   2.828   7.155  0.3219  0.1929 -1.1334
 2282SOL    HW218480   0.802   2.928   7.120  0.8337 -0.2458 -0.3348
 2283SOL     OW18481   0.647   1.745   2.588  0.4019  0.1519  0.5486
 2283SOL    HW118482   0.618   1.833   2.565 -0.2174  0.2803  1.8111
 2283SOL    HW218483   0.586   1.690   2.538  0.2718  1.6193 -0.9003
 2284SOL     OW18484   2.065   4.590   2.558  0.3588 -0.2323  0.1417
 2284SOL    HW118485   2.115   4.634   2.488  0.4127  2.1518  1.6782
 2284SOL    HW218486   2.099   4.502   2.547  1.2795  0.3730 -1.9144
 2285SOL     OW18487   2.936   0.514  17.456 -0.2965 -0.2133  0.2614
 2285SOL    HW118488   2.893   0.573  17.394  0.0071 -0.8134 -0.5219
 2285SOL    HW218489   2.859   0.499  17.511  1.8585 -2.4802  2.6320
 2286SOL     OW18490   1.925   2.599   9.802  0.0064 -0.2076 -0.2284
 2286SOL    HW118491   1.896   2.660   9.735 -0.1619 -0.6292 -0.5364
 2286SOL    HW218492   2.019   2.607   9.782  0.1170  0.8575  0.7172
 2287SOL     OW18493   0.299   1.199  15.916 -0.0745 -0.4080  0.1773
 2287SOL    HW118494   0.322   1.135  15.849 -0.0823 -0.6314  0.3871
 2287SOL    HW218495   0.373   1.202  15.976  1.3552  0.1136 -1.6163
 2288SOL     OW18496   2.847   3.135   2.041 -0.3520  0.0982  0.5099
 2288SOL    HW118497   2.932   3.092   2.042 -0.2891  0.2769  1.9229
 2288SOL    HW218498   2.794   3.061   2.012  0.6603 -1.8716  3.6714
 2289SOL     OW18499   4.410   1.928   0.893 -0.0700 -0.0111  0.1651
 2289SOL    HW118500   4.331   1.954   0.845  0.3673  1.5938  0.3189
 2289SOL    HW218501   4.372   1.860   0.949 -1.2451  0.1521 -0.4291
 2290SOL     OW18502   3.462   1.450  13.723  0.0509  0.1237  0.2079
 2290SOL    HW118503   3.371   1.459  13.696 -0.4434 -2.5720  0.9198
 2290SOL    HW218504   3.488   1.540  13.702  1.1593 -0.3634 -0.5339
 2291SOL     OW18505   0.851   2.916   7.806 -0.0227 -0.1211  0.0595
 2291SOL    HW118506   0.904   2.910   7.885  1.5270  0.3413 -0.9563
 2291SOL    HW218507   0.900   2.975   7.749  1.0792 -1.5257 -0.4394
 2292SOL     OW18508   1.671   3.891   5.086 -0.8700  0.1898 -0.4259
 2292SOL    HW118509   1.658   3.967   5.029  2.8356  2.2058  1.3866
 2292SOL    HW218510   1.641   3.913   5.174 -1.1506 -0.9186 -0.2429
 2293SOL     OW18511   3.959   1.755   0.319  0.4585 -0.6229  0.0336
 2293SOL    HW118512   3.992   1.666   0.333 -0.3107 -1.4533 -3.4573
 2293SOL    HW218513   3.956   1.759   0.223 -0.0697 -3.1923 -0.0621
 2294SOL     OW18514   1.743   0.751   3.864 -0.0159  0.2272  0.0980
 2294SOL    HW118515   1.688   0.730   3.789  0.3059  0.2842 -0.1552
 2294SOL    HW218516   1.677   0.794   3.919  1.1439  0.4862  1.3074
 2295SOL     OW18517   3.621   3.891   9.277 -0.4527 -0.3667  0.0218
 2295SOL    HW118518   3.585   3.803   9.286  0.4727 -0.6213  1.1523
 2295SOL    HW218519   3.689   3.877   9.211  0.5149  1.4619  0.6118
 2296SOL     OW18520   4.691   0.763   6.106  0.0790 -0.1239 -0.1373
 2296SOL    HW118521   4.689   0.858   6.114  1.0081 -0.0091 -1.3521
 2296SOL    HW218522   4.716   0.732   6.193 -0.3974 -1.2186 -0.3829
 2297SOL     OW18523   2.211   0.514   8.219  0.5625 -0.5676  0.2414
 2297SOL    HW118524   2.270   0.587   8.235  0.8890 -0.5937 -0.8546
 2297SOL    HW218525   2.139   0.565   8.182  1.0901 -0.7295 -0.9963
 2298SOL     OW18526   1.172   1.073  16.500  0.4546 -0.3433 -0.3405
 2298SOL    HW118527   1.191   1.119  16.582 -2.2279  0.3949 -0.1492
 2298SOL    HW218528   1.246   1.012  16.497 -0.0768 -0.9325 -1.3752
 2299SOL     OW18529   0.887   2.724   0.598  0.1484 -0.2359  0.1646
 2299SOL    HW118530   0.869   2.648   0.542  1.2303 -0.0261 -0.4650
 2299SOL    HW218531   0.935   2.773   0.530 -0.9377  0.0899 -0.3805
 2300SOL     OW18532   2.954   0.642   1.125 -0.4332 -0.5940  0.3338
 2300SOL    HW118533   2.937   0.603   1.211 -0.2936 -0.4282  0.4378
 2300SOL    HW218534   2.994   0.723   1.157 -1.8924  0.1406  0.3314
 2301SOL     OW18535   4.648   1.849   5.701  0.1279  0.6749 -0.8022
 2301SOL    HW118536   4.690   1.856   5.615 -1.4729  1.2167 -1.5502
 2301SOL    HW218537   4.556   1.845   5.673  0.2655  1.3064 -1.3755
 2302SOL     OW18538   2.653   1.485   5.418  0.1240  0.3035 -0.3699
 2302SOL    HW118539   2.616   1.425   5.483  0.9116 -0.0377 -0.2277
 2302SOL    HW218540   2.628   1.442   5.336  0.4765  0.2631 -0.4572
 2303SOL     OW18541   0.705   1.131   9.326  0.2708 -0.8451  0.3948
 2303SOL    HW118542   0.708   1.063   9.393 -1.7691 -0.9309  0.3986
 2303SOL    HW218543   0.696   1.077   9.247 -1.8184 -0.8392  0.6266
 2304SOL     OW18544   1.868   4.224   9.153 -0.1899 -0.4978 -0.1838
 2304SOL    HW118545   1.843   4.307   9.112 -0.4343 -0.6266 -0.2937
 2304SOL    HW218546   1.959   4.217   9.125 -0.1995 -0.9750 -0.0876
 2305SOL     OW18547   2.514   2.062  15.419 -1.0588 -0.5757  0.4516
 2305SOL    HW118548   2.571   2.078  15.495 -0.7141 -0.8253  0.2459
 2305SOL    HW218549   2.475   1.977  15.438 -1.9482 -0.4806 -0.9483
 2306SOL     OW18550   0.672   0.824   9.236 -0.1094  0.0324  0.2925
 2306SOL    HW118551   0.688   0.859   9.148  1.2319  0.7345  0.8027
 2306SOL    HW218552   0.577   0.838   9.232  0.0447  1.6238  2.0842
 2307SOL     OW18553   0.083   1.860   5.911  0.0247  0.0674 -0.4163
 2307SOL    HW118554   0.081   1.955   5.915  1.5558  0.1175 -1.1232
 2307SOL    HW218555   0.022   1.851   5.838  0.0121 -2.4768 -0.0988
 2308SOL     OW18556   3.637   0.045   9.486  0.0844  0.1144 -0.1189
 2308SOL    HW118557   3.554   4.734   9.497  0.0229 -0.0694 -1.3349
 2308SOL    HW218558   3.624   0.122   9.542  2.0239  0.6117 -0.3408
 2309SOL     OW18559   2.968   4.018   9.350 -0.1600  0.2687  0.0706
 2309SOL    HW118560   3.061   4.017   9.373 -0.0322  0.7837 -0.4230
 2309SOL    HW218561   2.928   3.978   9.427  1.9230 -1.8166  0.0749
 2310SOL     OW18562   1.723   0.398   4.650 -0.0205  0.0401  0.1311
 2310SOL    HW118563   1.665   0.392   4.726 -0.4843 -1.7533 -0.3648
 2310SOL    HW218564   1.746   0.306   4.634 -0.5044  0.1383 -1.1177
 2311SOL     OW18565   2.940   0.915   4.296  0.1075  0.2793 -0.7014
 2311SOL    HW118566   2.846   0.911   4.313 -0.0400 -2.7655 -2.1121
 2311SOL    HW218567   2.968   0.883   4.382  1.6469 -0.3452 -1.4383
 2312SOL     OW18568   4.501   0.601   9.107  0.3202  0.8349 -0.0640
 2312SOL    HW118569   4.435   0.670   9.117  1.4648  1.9849 -0.2909
 2312SOL    HW218570   4.459   0.536   9.162 -0.4706 -1.1413 -3.0382
 2313SOL     OW18571   3.823   1.400  10.502  0.8602 -0.5796 -0.3430
 2313SOL    HW118572   3.886   1.344  10.457  0.7446 -0.3053 -0.8401
 2313SOL    HW218573   3.754   1.345  10.465 -0.1835 -0.7356  1.8129
 2314SOL     OW18574   3.203   0.688  15.564  0.2923 -0.0887 -0.5553
 2314SOL    HW118575   3.242   0.775  15.555  0.4042 -0.0835 -0.0229
 2314SOL    HW218576   3.274   0.637  15.604  1.4319  1.9049 -0.0318
 2315SOL     OW18577   4.377   1.034   3.454  0.1278 -0.1513 -0.1245
 2315SOL    HW118578   4.445   0.974   3.423 -1.6750 -1.9137 -0.7453
 2315SOL    HW218579   4.332   1.043   3.369 -1.6424  2.1464  1.0634
 2316SOL     OW18580   0.427   2.777  12.626  0.0921 -0.0849  0.7373
 2316SOL    HW118581   0.368   2.740  12.560  2.4833  0.0102 -1.4636
 2316SOL    HW218582   0.431   2.709  12.694 -3.0671 -0.5188  0.4965
 2317SOL     OW18583   3.192   3.857  16.970  0.0203  0.1610 -0.0495
 2317SOL    HW118584   3.158   3.900  16.892  0.5763  0.6327 -0.0320
 2317SOL    HW218585   3.136   3.893  17.039 -0.1202  0.2686 -0.2207
 2318SOL     OW18586   3.008   0.818   1.500 -0.5728 -0.1286 -0.4324
 2318SOL    HW118587   3.071   0.865   1.555 -0.5103  0.3482 -0.9125
 2318SOL    HW218588   2.933   0.836   1.556 -0.9154 -1.3250 -0.5016
 2319SOL     OW18589   0.743   3.793   2.594 -0.8720 -0.2127 -0.4085
 2319SOL    HW118590   0.771   3.880   2.566  0.1300 -0.6046 -0.6353
 2319SOL    HW218591   0.826   3.745   2.593  0.2455  1.7435 -1.4239
 2320SOL     OW18592   3.436   4.584  12.131 -0.2151  0.5691  0.1335
 2320SOL    HW118593   3.484   4.642  12.072 -1.7014 -0.7975 -2.4321
 2320SOL    HW218594   3.471   4.498  12.107  1.4853  1.2335  0.2398
 2321SOL     OW18595   3.106   4.449   3.407  0.1826 -0.1784 -0.7533
 2321SOL    HW118596   3.065   4.457   3.493  1.7714 -1.3382  0.0970
 2321SOL    HW218597   3.183   4.397   3.428  0.1985  0.2155  0.1767
 2322SOL     OW18598   2.286   1.130   8.263  0.1256 -0.1635  0.4934
 2322SOL    HW118599   2.203   1.088   8.284 -1.1406  2.2017  0.2863
 2322SOL    HW218600   2.338   1.050   8.258  1.0800  0.4048  1.3989
 2323SOL     OW18601   3.020   3.503   5.643  0.1203 -0.4921 -0.4336
 2323SOL    HW118602   3.096   3.560   5.629  0.0253 -0.2301  0.1389
 2323SOL    HW218603   3.021   3.456   5.559  0.2483  0.7895 -1.1398
 2324SOL     OW18604   0.791   0.644   8.476  0.5822  0.1084  0.1118
 2324SOL    HW118605   0.703   0.668   8.504  0.7617 -0.1945  0.9555
 2324SOL    HW218606   0.768   0.583   8.406 -0.6683  1.4198 -0.6163
 2325SOL     OW18607   3.378   3.310  14.706  0.7463  0.6396 -0.2136
 2325SOL    HW118608   3.441   3.378  14.731  0.5329  1.0581 -0.8341
 2325SOL    HW218609   3.385   3.246  14.778  1.3700 -1.1936 -1.9061
 2326SOL     OW18610   3.827   2.927   8.171  0.0404  0.0627 -0.6727
 2326SOL    HW118611   3.843   2.993   8.239  2.8089 -1.6556  0.3366
 2326SOL    HW218612   3.913   2.886   8.172 -0.4789 -1.0403 -0.7542
 2327SOL     OW18613   2.360   3.808   7.748 -0.1682  0.0425  0.1218
 2327SOL    HW118614   2.267   3.826   7.761 -0.1718 -0.2870  0.5537
 2327SOL    HW218615   2.373   3.813   7.653 -0.2559  1.0650  0.1666
 2328SOL     OW18616   3.956   4.125   8.477  0.5539 -0.5543 -0.1079
 2328SOL    HW118617   3.960   4.197   8.413  0.6030 -0.7027 -0.2706
 2328SOL    HW218618   3.923   4.054   8.423  0.7617 -1.5167  1.0342
 2329SOL     OW18619   3.022   4.055   4.553 -0.2175  0.1854 -0.5260
 2329SOL    HW118620   3.033   4.148   4.534  0.4566  0.3474  0.6887
 2329SOL    HW218621   2.937   4.045   4.510 -0.1019 -2.4333 -0.1676
 2330SOL     OW18622   2.992   3.434   6.507  0.3668 -0.3581 -0.0676
 2330SOL    HW118623   3.079   3.468   6.483  0.8738 -1.1988  0.5700
 2330SOL    HW218624   2.949   3.471   6.430  1.3285  0.7085 -0.1045
 2331SOL     OW18625   1.903   3.990  17.611 -0.0758  0.1432 -0.0393
 2331SOL    HW118626   1.889   4.028  17.698 -0.4810  0.1119 -0.0902
 2331SOL    HW218627   1.843   4.040  17.556  1.7676  1.9489 -0.4117
 2332SOL     OW18628   4.280   2.814  15.226  0.0404  0.1750  0.3162
 2332SOL    HW118629   4.270   2.855  15.312 -1.4619 -1.8775  1.1190
 2332SOL    HW218630   4.236   2.736  15.259 -1.7376  0.7549 -0.6730
 2333SOL     OW18631   3.975   0.350  10.803 -0.4218  0.0906  0.5372
 2333SOL    HW118632   4.051   0.335  10.747 -1.1220 -0.3219 -0.2838
 2333SOL    HW218633   3.998   0.440  10.827 -0.6450  0.3575 -0.2527
 2334SOL     OW18634   2.188   3.187  10.132  0.1193 -0.4803  0.1131
 2334SOL    HW118635   2.195   3.275  10.170  1.1987 -1.1357  1.4385
 2334SOL    HW218636   2.272   3.150  10.159 -0.1000 -0.6792  0.5230
 2335SOL     OW18637   1.966   3.081   7.147 -0.4935 -0.1255  0.0056
 2335SOL    HW118638   2.033   3.032   7.099 -0.8882  2.3186 -3.0527
 2335SOL    HW218639   2.014   3.162   7.162  1.1305 -1.0450 -0.2170
 2336SOL     OW18640   4.583   0.548   6.897  0.0711  0.3774 -0.3402
 2336SOL    HW118641   4.490   0.538   6.880 -0.0433  1.8996 -0.6455
 2336SOL    HW218642   4.623   0.490   6.832 -2.1997 -2.2172  0.5872
 2337SOL     OW18643   2.356   2.997  10.907 -0.3600 -0.3364  0.4342
 2337SOL    HW118644   2.431   3.032  10.859 -2.1168  0.4868 -1.6630
 2337SOL    HW218645   2.402   2.991  10.991  1.6385  2.6138 -0.4134
 2338SOL     OW18646   3.692   1.359   6.027 -0.0666  0.5112 -0.2383
 2338SOL    HW118647   3.635   1.327   5.958  0.7604  1.2540 -1.2544
 2338SOL    HW218648   3.640   1.434   6.057 -0.7795 -0.4823  1.0154
 2339SOL     OW18649   3.361   4.106  14.458  0.0428 -0.0092  0.9819
 2339SOL    HW118650   3.321   4.028  14.498  0.5680 -0.9218 -0.2600
 2339SOL    HW218651   3.283   4.160  14.451  0.7608  0.5370 -2.8008
 2340SOL     OW18652   4.663   2.331   5.169  0.0241  0.0441 -0.8451
 2340SOL    HW118653   4.729   2.276   5.126  0.7266 -1.9615  2.8400
 2340SOL    HW218654   4.587   2.282   5.139  1.9376 -2.4877 -1.5762
 2341SOL     OW18655   2.528   4.215   4.638  0.3805  0.5512 -0.3435
 2341SOL    HW118656   2.585   4.143   4.611 -1.0111 -0.9206  0.6023
 2341SOL    HW218657   2.453   4.162   4.665 -0.3526  2.2730  0.9923
 2342SOL     OW18658   2.713   1.704  11.550 -0.3824  0.1032 -0.3359
 2342SOL    HW118659   2.675   1.638  11.608 -1.4019  0.7945 -0.2007
 2342SOL    HW218660   2.692   1.782  11.603  2.6864  1.4386 -1.1304
 2343SOL     OW18661   0.082   0.837   8.134  0.1388  0.2655 -0.4107
 2343SOL    HW118662   0.160   0.885   8.109  1.1882 -0.7911  0.8141
 2343SOL    HW218663   0.112   0.827   8.224 -0.1490  1.3301 -0.1995
 2344SOL     OW18664   2.501   2.661   7.261 -0.5791  0.7768 -0.4451
 2344SOL    HW118665   2.478   2.747   7.297  4.3923  0.2341  4.0966
 2344SOL    HW218666   2.419   2.612   7.269  0.3478 -0.4816  1.3529
 2345SOL     OW18667   1.569   1.697  16.799 -0.2804 -0.4711  0.1062
 2345SOL    HW118668   1.634   1.741  16.743  1.1549 -1.7238  0.7815
 2345SOL    HW218669   1.494   1.737  16.756 -0.0457 -0.0907  0.0407
 2346SOL     OW18670   2.584   3.307   8.197 -0.8844  0.0491 -0.8522
 2346SOL    HW118671   2.550   3.356   8.271  0.0268 -0.5927 -0.0245
 2346SOL    HW218672   2.617   3.237   8.253  0.3574 -1.4138 -3.4201
 2347SOL     OW18673   1.124   0.858   9.284 -0.1911 -0.0942  0.1795
 2347SOL    HW118674   1.100   0.857   9.191  2.4848  0.9931 -0.5517
 2347SOL    HW218675   1.068   0.790   9.321  0.5982 -1.6618 -1.5230
 2348SOL     OW18676   0.312   3.732   6.203  0.8801  0.3427  0.6680
 2348SOL    HW118677   0.308   3.669   6.131 -1.7937  2.2425 -0.8664
 2348SOL    HW218678   0.303   3.816   6.158 -1.1436 -1.2178 -1.8086
 2349SOL     OW18679   0.082   0.738   4.808  0.1932  0.3260 -0.0575
 2349SOL    HW118680   0.014   0.714   4.745  0.4945 -2.6548  0.7357
 2349SOL    HW218681   0.081   0.671   4.876 -2.2916  0.2403 -0.1999
 2350SOL     OW18682   0.275   1.569   7.816 -0.1670  0.1324  0.3406
 2350SOL    HW118683   0.215   1.610   7.879  1.0583  0.3125  1.3928
 2350SOL    HW218684   0.319   1.648   7.784 -0.0482  0.1286  0.4954
 2351SOL     OW18685   3.644   0.267   7.259  0.3702  0.1327 -0.4324
 2351SOL    HW118686   3.705   0.282   7.332  0.3233 -1.9732  0.0401
 2351SOL    HW218687   3.632   0.173   7.264 -2.2630  0.5365  1.0032
 2352SOL     OW18688   1.448   3.708   8.998 -0.2130  0.4639 -0.3489
 2352SOL    HW118689   1.487   3.712   9.085  0.5299  2.6248 -0.7686
 2352SOL    HW218690   1.522   3.758   8.963  1.2594 -0.6989  1.1101
 2353SOL     OW18691   0.147   2.816   9.222  0.4782  0.0641 -0.0500
 2353SOL    HW118692   0.210   2.855   9.283  0.1679  0.5316 -0.0317
 2353SOL    HW218693   0.114   2.741   9.272  1.6894 -0.8803 -0.6568
 2354SOL     OW18694   4.553   0.812   3.364 -0.5120  0.2385 -0.6869
 2354SOL    HW118695   4.571   0.718   3.369  1.3028  0.6847  1.1269
 2354SOL    HW218696   4.560   0.806   3.269 -0.2051 -1.1000 -0.5790
 2355SOL     OW18697   4.683   0.410  12.294  1.0390 -0.3642  0.1596
 2355SOL    HW118698   4.699   0.362  12.212 -1.1716  2.3604 -1.8339
 2355SOL    HW218699   4.629   0.347  12.341  1.8366 -0.7142  0.6004
 2356SOL     OW18700   3.391   3.944  14.745 -0.3232 -0.1123 -0.3401
 2356SOL    HW118701   3.323   3.932  14.678 -2.8212 -0.4355  2.2715
 2356SOL    HW218702   3.352   4.007  14.806  1.6007  0.7030  0.0531
 2357SOL     OW18703   3.986   0.381   0.988 -0.1465  0.3605  0.0586
 2357SOL    HW118704   4.028   0.447   0.934 -0.3253  1.2388  0.9876
 2357SOL    HW218705   3.892   0.400   0.992 -0.4225 -1.1129  0.6363
 2358SOL     OW18706   3.194   1.127   3.474  0.8657 -0.1893  0.5754
 2358SOL    HW118707   3.129   1.145   3.406  0.1126 -0.5118  1.2172
 2358SOL    HW218708   3.267   1.089   3.424 -0.1251 -1.6097  0.2155
 2359SOL     OW18709   2.356   4.570  10.965 -0.2744 -0.0317  0.1658
 2359SOL    HW118710   2.333   4.563  10.873 -0.9778  2.6785  0.1203
 2359SOL    HW218711   2.301   4.639  11.003 -1.1965  0.4979 -2.1349
 2360SOL     OW18712   4.406   2.038  15.593  0.4128  1.1229 -0.2221
 2360SOL    HW118713   4.469   2.067  15.528  0.2514  1.7811 -0.0849
 2360SOL    HW218714   4.322   2.055  15.551  0.6663 -0.0967 -1.2286
 2361SOL     OW18715   1.658   0.886  14.421  0.3570  0.6542  0.0028
 2361SOL    HW118716   1.642   0.797  14.391 -1.5002 -0.0385  3.0527
 2361SOL    HW218717   1.744   0.912  14.387  0.7553  1.6559  1.8031
 2362SOL     OW18718   0.817   2.835  17.128 -0.5248 -0.1090 -0.2706
 2362SOL    HW118719   0.725   2.844  17.103 -0.6416  0.7328  0.4451
 2362SOL    HW218720   0.813   2.838  17.223  1.9924  1.9187 -0.2396
 2363SOL     OW18721   3.747   0.884   3.421 -0.0136 -0.1522  0.1033
 2363SOL    HW118722   3.687   0.922   3.357 -0.2751  3.0698  2.2601
 2363SOL    HW218723   3.819   0.946   3.406  1.8845 -2.2227  0.6130
 2364SOL     OW18724   2.144   0.662  16.840  0.2321  0.0369 -0.6876
 2364SOL    HW118725   2.165   0.597  16.773 -1.7491 -0.4336 -0.8352
 2364SOL    HW218726   2.051   0.645  16.851  0.9807 -3.5517  0.2810
 2365SOL     OW18727   0.386   3.058  13.130  0.1714  0.1536 -0.3695
 2365SOL    HW118728   0.352   3.104  13.207 -0.6442  2.6775 -2.2217
 2365SOL    HW218729   0.343   2.973  13.141 -0.8369  0.8368  0.9281
 2366SOL     OW18730   1.347   2.000  12.899 -0.2568 -0.0504  0.4956
 2366SOL    HW118731   1.344   2.093  12.875 -0.0210  0.8688  3.9760
 2366SOL    HW218732   1.280   2.011  12.966 -0.6881 -0.1131  0.0774
 2367SOL     OW18733   1.902   1.503   3.025 -0.5831  0.1572  0.4095
 2367SOL    HW118734   1.903   1.598   3.024  1.1558  0.1434 -0.1544
 2367SOL    HW218735   1.991   1.490   3.060  0.2825  1.7870 -1.1674
 2368SOL     OW18736   2.244   0.483   0.602 -0.3454 -0.1215  0.0859
 2368SOL    HW118737   2.254   0.421   0.530 -0.0946 -1.1093  0.9740
 2368SOL    HW218738   2.331   0.523   0.609  0.3226 -1.1880 -2.2380
 2369SOL     OW18739   2.165   0.227   2.890  0.1539 -0.4708 -0.5300
 2369SOL    HW118740   2.101   0.240   2.960  0.9069  2.3817 -0.3694
 2369SOL    HW218741   2.202   0.314   2.874  1.6750 -0.2542  4.1091
 2370SOL     OW18742   4.382   0.752   5.540 -0.4015  0.4271 -0.3365
 2370SOL    HW118743   4.460   0.807   5.551  1.6264 -2.3281 -0.9572
 2370SOL    HW218744   4.330   0.797   5.473  3.5841  3.2896 -1.5716
 2371SOL     OW18745   0.709   4.686  16.044  0.2563  0.3290 -0.1323
 2371SOL    HW118746   0.700   4.627  16.119  1.5368  0.2926 -0.0142
 2371SOL    HW218747   0.793   4.730  16.061  0.2084 -1.5174  4.9621
 2372SOL     OW18748   0.283   1.172   4.928 -0.2936 -0.1454 -0.7222
 2372SOL    HW118749   0.379   1.163   4.929 -0.2823  0.2705  2.6910
 2372SOL    HW218750   0.270   1.239   4.861 -1.2083 -1.9352 -2.3295
 2373SOL     OW18751   3.503   0.912   5.748 -0.0170  0.0270  0.0995
 2373SOL    HW118752   3.488   0.827   5.708  2.3123 -0.8666  1.1490
 2373SOL    HW218753   3.474   0.962   5.671  1.6784  2.1763  0.8647
 2374SOL     OW18754   4.007   0.513   4.559  0.2726  0.2164 -0.0215
 2374SOL    HW118755   4.095   0.477   4.572  0.7087  0.6446 -1.7817
 2374SOL    HW218756   4.020   0.556   4.474  2.0814 -1.3587 -0.5550
 2375SOL     OW18757   3.829   1.050   6.524  0.0871 -0.5367  0.5751
 2375SOL    HW118758   3.908   1.085   6.566  0.0038 -0.2765  0.5121
 2375SOL    HW218759   3.826   1.106   6.447  0.4972 -0.3248  0.7117
 2376SOL     OW18760   4.587   4.401   6.980  0.0203  0.7795 -0.2610
 2376SOL    HW118761   4.507   4.444   7.010 -1.0973 -0.4714 -1.3728
 2376SOL    HW218762   4.650   4.452   7.031 -1.6976  2.1917  0.4469
 2377SOL     OW18763   1.431   2.178   4.238 -0.1235  0.2034 -0.2849
 2377SOL    HW118764   1.375   2.102   4.254  1.6208 -1.0586 -0.2631
 2377SOL    HW218765   1.510   2.144   4.281  0.5120 -0.5303 -2.0613
 2378SOL     OW18766   0.421   4.710   3.822  0.2414 -0.2307 -0.1980
 2378SOL    HW118767   0.412   4.630   3.875  3.6777 -0.8790 -0.5689
 2378SOL    HW218768   0.496   0.021   3.860 -0.6986  1.2825 -0.1413
 2379SOL     OW18769   2.551   0.461   1.590  0.1567 -0.2950 -0.2579
 2379SOL    HW118770   2.500   0.410   1.527 -0.8197  3.4119 -2.4347
 2379SOL    HW218771   2.640   0.427   1.577  0.0031 -1.6880  2.1904
 2380SOL     OW18772   1.475   3.565   8.203 -0.1983 -0.4023 -0.2435
 2380SOL    HW118773   1.412   3.608   8.145  0.7453 -0.6608 -1.4608
 2380SOL    HW218774   1.414   3.516   8.258 -0.4247  1.1398  0.8744
 2381SOL     OW18775   3.866   2.256   3.375 -0.0275 -0.0871 -0.0207
 2381SOL    HW118776   3.930   2.233   3.442  1.0190  0.7843 -0.7192
 2381SOL    HW218777   3.861   2.177   3.321 -0.2648 -0.7369  0.9577
 2382SOL     OW18778   4.545   0.435   0.159  0.4088 -0.7159 -0.4580
 2382SOL    HW118779   4.477   0.433   0.092  0.3558 -0.7011 -0.4042
 2382SOL    HW218780   4.521   0.511   0.212  3.1305  0.8247 -1.4264
 2383SOL     OW18781   4.079   4.058   1.610 -0.4594 -0.4571 -0.6317
 2383SOL    HW118782   4.167   4.055   1.570  0.0943 -0.8974  0.6352
 2383SOL    HW218783   4.033   3.990   1.562 -0.8926 -0.9698  0.5277
 2384SOL     OW18784   4.410   0.130   8.074 -0.8927  0.5659 -0.3199
 2384SOL    HW118785   4.421   0.222   8.049 -0.8452 -0.0665 -2.5885
 2384SOL    HW218786   4.481   0.117   8.137 -2.7620  1.9981  2.1161
 2385SOL     OW18787   3.806   3.059   7.407 -0.6663 -0.4821  0.2488
 2385SOL    HW118788   3.742   2.998   7.442  0.1965 -1.8721 -0.5675
 2385SOL    HW218789   3.747   3.106   7.349  0.0382  0.2654  0.1434
 2386SOL     OW18790   3.304   2.540  13.206  0.5988 -0.2776  0.2292
 2386SOL    HW118791   3.267   2.628  13.212 -0.4641 -0.7826  1.0860
 2386SOL    HW218792   3.394   2.556  13.235  1.2180  0.3387 -2.0319
 2387SOL     OW18793   1.846   4.357   6.596 -0.0591  0.1521 -0.1025
 2387SOL    HW118794   1.838   4.440   6.549  3.0306  0.8675  0.6526
 2387SOL    HW218795   1.786   4.372   6.669  1.9943 -2.2005  2.0545
 2388SOL     OW18796   0.688   4.322   6.920 -0.1107 -0.3459 -0.0366
 2388SOL    HW118797   0.705   4.271   6.842  2.2045  0.3772 -0.0204
 2388SOL    HW218798   0.733   4.405   6.901 -1.7923  0.3384 -0.9865
 2389SOL     OW18799   2.308   1.977   9.908  0.4277  0.2540 -0.3784
 2389SOL    HW118800   2.395   1.953   9.940  0.4109 -2.4467 -2.3580
 2389SOL    HW218801   2.239   1.950   9.969  0.9060 -0.1900 -0.0314
 2390SOL     OW18802   3.107   0.632   9.438 -0.0482 -0.2504  0.0387
 2390SOL    HW118803   3.122   0.540   9.415 -0.9218 -0.4963  0.4797
 2390SOL    HW218804   3.013   0.628   9.454 -0.0301  0.5907  0.3338
 2391SOL     OW18805   2.153   4.310   2.434  0.2219 -0.5706 -0.2569
 2391SOL    HW118806   2.154   4.388   2.380  0.1125 -0.5167 -0.1819
 2391SOL    HW218807   2.063   4.280   2.420 -0.4785  0.2084  2.5219
 2392SOL     OW18808   3.368   2.448   7.950  0.1345  0.2141  0.3021
 2392SOL    HW118809   3.441   2.386   7.960 -2.1387 -2.4202  0.6163
 2392SOL    HW218810   3.336   2.456   8.040  1.3685 -2.9982  1.0406
 2393SOL     OW18811   0.344   3.120  11.426 -0.1146  0.5537  0.2590
 2393SOL    HW118812   0.296   3.062  11.366  0.0619  1.5983 -0.8934
 2393SOL    HW218813   0.300   3.116  11.511 -1.7682 -2.0935 -0.7238
 2394SOL     OW18814   1.898   2.021  12.189  0.2021 -0.5458  0.4193
 2394SOL    HW118815   1.973   2.022  12.249  0.7651  2.1442 -0.3492
 2394SOL    HW218816   1.880   2.113  12.208  1.8457 -0.2307  0.4289
 2395SOL     OW18817   0.456   1.574   5.046 -0.1980  0.5157 -0.5252
 2395SOL    HW118818   0.407   1.572   4.964 -2.0730  2.2754  0.5629
 2395SOL    HW218819   0.433   1.500   5.101  0.6351  0.8309  0.2478
 2396SOL     OW18820   1.811   2.010  11.490  0.1858  0.7223  0.3701
 2396SOL    HW118821   1.853   2.068  11.426 -0.0732 -0.7012 -1.0817
 2396SOL    HW218822   1.860   1.930  11.472  3.8063  2.9105  0.6501
 2397SOL     OW18823   1.215   3.506   5.292  0.0443  0.2404 -0.2280
 2397SOL    HW118824   1.236   3.454   5.370 -1.1471  0.0474 -0.0355
 2397SOL    HW218825   1.298   3.535   5.253 -0.7978  1.4719 -1.1251
 2398SOL     OW18826   0.828   0.499   3.411  0.2459 -0.0519 -0.1899
 2398SOL    HW118827   0.842   0.405   3.422  0.3920  0.0803  0.7160
 2398SOL    HW218828   0.766   0.509   3.483  1.0441  0.5884  0.4166
 2399SOL     OW18829   1.711   0.596  11.917 -0.0722  0.6376  0.0089
 2399SOL    HW118830   1.675   0.684  11.921 -1.3182  0.1878 -1.2778
 2399SOL    HW218831   1.706   0.562  12.007  1.9572  2.2754  0.7127
 2400SOL     OW18832   1.233   4.457   4.689  0.0178 -0.9686  0.6198
 2400SOL    HW118833   1.236   4.413   4.774  0.7816  0.8979  1.5649
 2400SOL    HW218834   1.307   4.516   4.696  0.9527 -2.1438  0.6440
 2401SOL     OW18835   4.306   4.355   1.715 -0.0756  0.4680 -0.1748
 2401SOL    HW118836   4.290   4.450   1.717 -1.0525  0.2892  0.8182
 2401SOL    HW218837   4.401   4.350   1.727 -0.0237  2.1947  0.1456
 2402SOL     OW18838   0.776   1.849  17.032  0.1713  0.2795  0.4644
 2402SOL    HW118839   0.818   1.858  17.117  0.6435 -1.9310  0.4835
 2402SOL    HW218840   0.850   1.879  16.979 -2.6128  1.5389 -2.6803
 2403SOL     OW18841   3.484   3.145   4.246  0.6529 -0.2962  0.3686
 2403SOL    HW118842   3.578   3.129   4.246  0.9401  1.3542 -1.9647
 2403SOL    HW218843   3.464   3.102   4.163 -0.9893  0.9441  0.1133
 2404SOL     OW18844   1.581   3.249   2.275 -0.6326 -0.2432 -0.8820
 2404SOL    HW118845   1.594   3.245   2.370 -0.6181 -2.2838 -0.9763
 2404SOL    HW218846   1.486   3.265   2.270 -0.8206 -0.5904  1.4832
 2405SOL     OW18847   4.016   1.250  10.415 -0.7218  0.0994  0.5166
 2405SOL    HW118848   3.978   1.171  10.453 -2.9051  0.8804  0.0058
 2405SOL    HW218849   4.109   1.231  10.421 -1.1235 -1.5654  1.3228
 2406SOL     OW18850   2.900   1.437   7.211  0.2061 -0.2383  0.5678
 2406SOL    HW118851   2.930   1.349   7.236  0.7377  0.1141  1.1696
 2406SOL    HW218852   2.971   1.475   7.160 -0.1779 -1.1502 -0.6316
 2407SOL     OW18853   0.233   2.806   7.416 -0.4924  0.2482  0.4196
 2407SOL    HW118854   0.304   2.868   7.399 -0.8493  0.7153  0.6589
 2407SOL    HW218855   0.205   2.838   7.501  0.6409 -0.2126  0.9704
 2408SOL     OW18856   3.227   4.397   6.158 -0.4729  0.2697 -0.2435
 2408SOL    HW118857   3.313   4.390   6.117 -0.4385 -1.0354  0.0426
 2408SOL    HW218858   3.169   4.355   6.095  0.4906 -1.9982  0.4040
 2409SOL     OW18859   4.092   2.548   0.326 -0.9905  0.4308  0.2229
 2409SOL    HW118860   4.048   2.572   0.407  0.8024  2.1451  0.6815
 2409SOL    HW218861   4.111   2.635   0.292 -1.2738  0.3453 -0.1650
 2410SOL     OW18862   2.284   0.426   6.965 -0.1924 -0.2021 -0.4562
 2410SOL    HW118863   2.262   0.416   7.058 -2.0304 -0.8867 -0.9684
 2410SOL    HW218864   2.304   0.334   6.946 -0.6039 -0.3969  0.0715
 2411SOL     OW18865   3.942   1.940  14.400  0.3125 -0.5719 -0.0554
 2411SOL    HW118866   3.856   1.948  14.441  1.6144 -1.6584  2.8831
 2411SOL    HW218867   3.953   2.026  14.358  0.8746 -0.2721  0.7178
 2412SOL     OW18868   0.496   1.051   8.519 -0.6801 -0.1192  0.3060
 2412SOL    HW118869   0.414   1.098   8.535  0.2144  0.4426  3.2808
 2412SOL    HW218870   0.479   1.032   8.427 -0.5746 -0.1681  0.2965
 2413SOL     OW18871   1.695   2.909   3.864 -0.9772  0.3316 -0.4672
 2413SOL    HW118872   1.665   2.971   3.799 -0.2976  1.2465  0.0897
 2413SOL    HW218873   1.638   2.932   3.938 -1.3051 -2.4860  0.1693
 2414SOL     OW18874   3.561   4.191  10.041  0.4771 -0.0649  0.3312
 2414SOL    HW118875   3.505   4.257  10.001 -1.1742 -1.7164 -0.0879
 2414SOL    HW218876   3.587   4.144   9.962 -0.2554 -0.8322  0.5428
 2415SOL     OW18877   2.514   1.728   4.469  0.2446  0.5935  0.2170
 2415SOL    HW118878   2.488   1.703   4.380 -3.0636  2.2442  0.7095
 2415SOL    HW218879   2.494   1.821   4.465 -0.9336  0.4061  1.7314
 2416SOL     OW18880   2.960   3.237  14.713 -0.5164  0.4421  0.2260
 2416SOL    HW118881   3.012   3.158  14.699 -1.6749  0.1620 -2.4152
 2416SOL    HW218882   3.028   3.299  14.688 -0.6501  0.9523  1.1231
 2417SOL     OW18883   3.141   3.701  10.285  0.3789  0.0562  0.0151
 2417SOL    HW118884   3.235   3.707  10.266  0.4240 -1.8000 -0.3307
 2417SOL    HW218885   3.146   3.608  10.309 -4.2312 -0.1247  0.1851
 2418SOL     OW18886   0.934   3.309   8.065  0.2246  0.5817  0.0748
 2418SOL    HW118887   0.850   3.316   8.112  1.0172  1.4497  1.3771
 2418SOL    HW218888   0.976   3.395   8.072 -1.1768  1.3390 -0.6920
 2419SOL     OW18889   4.661   0.945   5.083 -0.5161 -0.1769 -0.5485
 2419SOL    HW118890   0.003   0.956   5.141 -1.2176  0.0700  0.3165
 2419SOL    HW218891   4.680   1.016   5.021 -0.5009  1.4925  1.3599
 2420SOL     OW18892   4.319   0.503   4.521 -0.3983 -0.2182  0.6302
 2420SOL    HW118893   4.316   0.506   4.617  0.7042 -0.2085  0.6621
 2420SOL    HW218894   4.322   0.596   4.499 -1.1647 -0.4950 -0.6550
 2421SOL     OW18895   1.667   1.560  15.492 -0.5421 -0.2715 -0.0442
 2421SOL    HW118896   1.625   1.603  15.567  0.7401  0.7409  0.0878
 2421SOL    HW218897   1.594   1.510  15.453 -0.3252 -2.1961  1.9922
 2422SOL     OW18898   2.661   1.317   7.320 -0.5384 -0.1882 -0.3680
 2422SOL    HW118899   2.686   1.258   7.391 -1.2902  1.8065  1.5074
 2422SOL    HW218900   2.750   1.329   7.288 -0.1343 -0.9346  0.4757
 2423SOL     OW18901   2.381   2.987   1.626  0.6987  0.2055  0.7703
 2423SOL    HW118902   2.410   2.979   1.535 -0.7277 -0.9702  0.4234
 2423SOL    HW218903   2.335   3.071   1.624  0.3031  0.0247  2.2710
 2424SOL     OW18904   4.067   0.512   3.438 -0.4514 -0.0908  0.2726
 2424SOL    HW118905   4.134   0.555   3.385 -0.2168 -0.1152  0.5489
 2424SOL    HW218906   4.131   0.458   3.485 -0.6518 -0.9240 -0.4342
 2425SOL     OW18907   0.618   3.716   9.243 -0.2950 -0.1168 -0.1966
 2425SOL    HW118908   0.610   3.620   9.238 -0.0819 -0.1458  0.0281
 2425SOL    HW218909   0.695   3.718   9.186 -0.7548 -3.2364 -0.9608
 2426SOL     OW18910   2.202   4.169   9.854 -0.3201  0.5793  0.1053
 2426SOL    HW118911   2.228   4.081   9.880 -0.8948  0.9635  1.9703
 2426SOL    HW218912   2.186   4.159   9.760  0.8275  1.8042 -0.2268
 2427SOL     OW18913   0.508   4.031   2.014 -0.0216 -0.0613  0.0084
 2427SOL    HW118914   0.437   3.975   2.045  1.4383 -0.7646  2.1086
 2427SOL    HW218915   0.553   3.980   1.947  0.5124  0.4474 -0.0207
 2428SOL     OW18916   1.239   0.798   4.107 -0.6003 -0.0596  0.0818
 2428SOL    HW118917   1.260   0.719   4.056 -2.4319 -0.0959 -0.6142
 2428SOL    HW218918   1.144   0.795   4.103 -0.5700 -1.2516  0.0696
 2429SOL     OW18919   1.361   1.917   4.524  0.2526  0.3841 -0.2848
 2429SOL    HW118920   1.380   1.882   4.437  4.2270  1.0757  0.2803
 2429SOL    HW218921   1.290   1.979   4.509  0.4806  1.4798  2.9966
 2430SOL     OW18922   1.138   3.936  16.184  0.2758 -0.4751  0.0478
 2430SOL    HW118923   1.179   3.914  16.101  1.0765  1.2944 -0.0383
 2430SOL    HW218924   1.134   3.846  16.216  3.1171 -0.1512  1.2901
 2431SOL     OW18925   3.820   2.853  17.345  0.1469  0.3432  0.4222
 2431SOL    HW118926   3.729   2.826  17.343  0.0338  0.9898 -3.4538
 2431SOL    HW218927   3.811   2.925  17.282  3.5727 -1.2842 -1.9264
 2432SOL     OW18928   2.859   4.486   1.501 -0.6814  0.2114  0.2101
 2432SOL    HW118929   2.867   4.531   1.585 -1.3455 -0.1991  0.4865
 2432SOL    HW218930   2.789   4.423   1.515 -0.2978 -0.1936  0.3074
 2433SOL     OW18931   4.248   3.944   5.800 -0.1769  0.0500  0.2303
 2433SOL    HW118932   4.301   3.876   5.757  2.2433  2.0252  0.1067
 2433SOL    HW218933   4.178   3.897   5.845 -1.0025  0.5096 -0.5552
 2434SOL     OW18934   4.702   4.346  16.623 -0.3095  0.1085  0.0686
 2434SOL    HW118935   4.623   4.291  16.622  0.4735 -0.9912 -1.2270
 2434SOL    HW218936   4.712   4.362  16.529  0.4859 -0.8863 -0.0070
 2435SOL     OW18937   2.706   1.836   0.965  0.8578  0.0752  0.9947
 2435SOL    HW118938   2.771   1.904   0.946 -1.0661  1.6510  0.1418
 2435SOL    HW218939   2.767   1.762   0.963 -2.1612 -2.3014 -2.4132
 2436SOL     OW18940   0.226   4.628  14.152 -0.4395 -0.2925 -0.1925
 2436SOL    HW118941   0.279   4.565  14.201  1.3376  0.0504 -1.6832
 2436SOL    HW218942   0.178   4.568  14.095 -2.7242  1.3434 -0.0038
 2437SOL     OW18943   3.223   3.580   2.903 -0.7787  0.3552 -0.3537
 2437SOL    HW118944   3.238   3.619   2.816 -0.3583 -0.1135 -0.4892
 2437SOL    HW218945   3.184   3.653   2.951 -0.0786  0.4106  0.1190
 2438SOL     OW18946   2.811   0.799   5.838 -0.8450 -0.2318 -0.3336
 2438SOL    HW118947   2.750   0.726   5.827 -0.1837 -1.2106  2.5068
 2438SOL    HW218948   2.780   0.862   5.773  0.8765  0.6375 -0.3240
 2439SOL     OW18949   1.446   4.153   9.326  0.2271 -0.5075 -0.2490
 2439SOL    HW118950   1.354   4.179   9.337  0.8767  1.3070  0.8664
 2439SOL    HW218951   1.451   4.061   9.352  0.0461  0.1038  1.9495
 2440SOL     OW18952   2.830   0.189   7.899  0.1979 -0.2511  0.2002
 2440SOL    HW118953   2.911   0.237   7.882 -0.1882 -0.1508 -1.3223
 2440SOL    HW218954   2.765   0.259   7.908 -1.0513 -1.4892  0.6562
 2441SOL     OW18955   0.813   1.615   3.771  0.0551 -0.4281 -0.4745
 2441SOL    HW118956   0.766   1.689   3.810  0.1413 -0.6482  0.0444
 2441SOL    HW218957   0.849   1.572   3.849 -1.7131 -1.6436 -0.3165
 2442SOL     OW18958   1.892   2.811  16.330  0.1875 -0.4019  0.2442
 2442SOL    HW118959   1.913   2.889  16.279  0.0713 -1.0977 -0.8866
 2442SOL    HW218960   1.940   2.829  16.411 -1.3012 -1.1762  1.3024
 2443SOL     OW18961   2.758   0.338   5.645  0.1374 -0.0133  0.7026
 2443SOL    HW118962   2.808   0.361   5.723  0.1365 -0.8627  0.9593
 2443SOL    HW218963   2.813   0.304   5.574 -1.1119 -1.5431  0.4626
 2444SOL     OW18964   3.329   3.127   6.981  0.2138 -0.3425  0.0339
 2444SOL    HW118965   3.418   3.159   6.963  0.8906 -1.7364  0.8416
 2444SOL    HW218966   3.335   3.107   7.075 -0.9370 -2.9980 -0.4538
 2445SOL     OW18967   0.461   1.797   4.439 -0.4722 -0.1824  0.2754
 2445SOL    HW118968   0.480   1.708   4.469 -1.4406  0.4024  2.6129
 2445SOL    HW218969   0.422   1.776   4.354 -3.2191  0.0569  1.4842
 2446SOL     OW18970   4.711   3.779   3.981  0.1580 -0.1859  0.4080
 2446SOL    HW118971   0.004   3.801   3.892 -1.0962  0.6711  0.2371
 2446SOL    HW218972   4.637   3.723   3.958 -2.4233  2.8856  1.2793
 2447SOL     OW18973   1.276   1.831  13.707 -0.2484  0.0448 -0.5829
 2447SOL    HW118974   1.281   1.914  13.754  0.3685 -0.0250 -0.5276
 2447SOL    HW218975   1.357   1.824  13.657  1.0772 -0.9041  1.6589
 2448SOL     OW18976   2.589   0.244  11.687 -0.4835  0.1005 -0.1084
 2448SOL    HW118977   2.526   0.185  11.646 -0.7330  0.1196  0.2462
 2448SOL    HW218978   2.672   0.196  11.687 -0.8608 -0.5410  0.6346
 2449SOL     OW18979   0.178   4.193  15.604  0.1997 -0.3129 -0.4964
 2449SOL    HW118980   0.201   4.219  15.515 -2.3820  0.3790 -0.9591
 2449SOL    HW218981   0.160   4.284  15.627  0.5132 -0.2335 -0.5619
 2450SOL     OW18982   1.218   0.438   6.889 -0.4489  0.7469  0.4076
 2450SOL    HW118983   1.212   0.504   6.959 -1.4206 -1.0682  2.0324
 2450SOL    HW218984   1.150   0.375   6.914  1.7029 -1.2327  1.2084
 2451SOL     OW18985   0.539   2.592   7.269 -0.0982 -0.4907 -0.6599
 2451SOL    HW118986   0.527   2.581   7.175 -1.0794  2.6349 -0.8957
 2451SOL    HW218987   0.461   2.548   7.302  1.2475 -0.5891  2.4306
 2452SOL     OW18988   3.312   3.914   2.159  0.3296  0.0564  0.6587
 2452SOL    HW118989   3.292   3.834   2.110  1.1573 -2.0113  3.7486
 2452SOL    HW218990   3.235   3.970   2.153  0.6052  0.2234 -1.6508
 2453SOL     OW18991   0.278   1.649   5.650  0.6887  0.6655  0.5416
 2453SOL    HW118992   0.324   1.707   5.589  1.2799  0.8102  1.1216
 2453SOL    HW218993   0.293   1.709   5.723 -1.1400  0.3539  1.1523
 2454SOL     OW18994   0.514   2.466   8.624 -0.5852  0.3037  0.1302
 2454SOL    HW118995   0.571   2.541   8.610 -2.7253  1.4627 -2.5442
 2454SOL    HW218996   0.433   2.506   8.592  0.1783  2.5714  1.0530
 2455SOL     OW18997   2.563   1.269   7.915 -0.3106  0.1402 -0.5205
 2455SOL    HW118998   2.473   1.240   7.934 -0.8463  0.6941 -2.1524
 2455SOL    HW218999   2.546   1.358   7.885 -1.5298  0.2269  0.4133
 2456SOL     OW19000   1.251   1.896   1.259  0.1403  0.2397  0.2123
 2456SOL    HW119001   1.274   1.921   1.348 -2.7234  2.3031  0.3841
 2456SOL    HW219002   1.309   1.948   1.204  0.2755 -0.3337 -0.1922
 2457SOL     OW19003   4.713   2.970   2.952  0.0784  0.3821 -0.3999
 2457SOL    HW119004   0.004   2.914   2.878 -1.2854 -1.0577  0.2095
 2457SOL    HW219005   0.061   2.957   2.999 -1.0173  0.5414  1.6062
 2458SOL     OW19006   2.686   0.602   9.832 -0.6185 -0.6015  0.0508
 2458SOL    HW119007   2.591   0.607   9.827 -0.4404  0.2393 -2.5753
 2458SOL    HW219008   2.706   0.653   9.910 -0.9170  0.1150 -0.3391
 2459SOL     OW19009   3.400   0.038  10.808 -0.6204 -0.0525  0.8583
 2459SOL    HW119010   3.328   4.717  10.836  1.1173 -2.4967  0.5481
 2459SOL    HW219011   3.448   4.708  10.756 -1.3911 -1.0488  1.3811
 2460SOL     OW19012   1.033   2.826   3.341 -0.4416 -0.0120 -0.0103
 2460SOL    HW119013   0.973   2.886   3.298 -0.2972 -0.4939 -0.8902
 2460SOL    HW219014   0.996   2.817   3.428  0.9617 -1.5923  0.4391
 2461SOL     OW19015   3.380   2.557   3.473 -0.0401  0.5667  0.2871
 2461SOL    HW119016   3.332   2.630   3.513  0.5958  0.3327  1.5021
 2461SOL    HW219017   3.339   2.474   3.496 -0.0283  0.7148  0.8556
 2462SOL     OW19018   1.162   2.551  11.191 -0.0890  0.3025  0.2410
 2462SOL    HW119019   1.177   2.535  11.284 -0.2672 -2.4671 -0.2056
 2462SOL    HW219020   1.075   2.592  11.195 -0.7026 -1.0931  1.0583
 2463SOL     OW19021   4.475   0.397   2.717 -0.4355 -0.0284  0.1133
 2463SOL    HW119022   4.515   0.314   2.743 -0.5134 -0.3821 -0.9024
 2463SOL    HW219023   4.541   0.451   2.762 -0.7801 -0.5323  1.2204
 2464SOL     OW19024   1.521   2.756   9.783 -0.1685 -0.0759  0.0449
 2464SOL    HW119025   1.590   2.710   9.831  0.5744 -0.1409 -1.0801
 2464SOL    HW219026   1.463   2.783   9.855 -2.1636  0.6305 -1.8163
 2465SOL     OW19027   3.763   2.254   1.890  0.1406  0.5527 -0.2224
 2465SOL    HW119028   3.835   2.314   1.911  1.8543 -1.7349  0.4244
 2465SOL    HW219029   3.746   2.211   1.974 -1.7779 -1.3219 -1.6056
 2466SOL     OW19030   3.250   2.961  13.554  0.1071  0.3933 -0.5983
 2466SOL    HW119031   3.183   2.893  13.541 -0.9694  1.1265  1.0876
 2466SOL    HW219032   3.321   2.939  13.493  0.2248 -1.4726  0.2105
 2467SOL     OW19033   1.985   1.013   3.085 -0.1820 -0.7839  0.1003
 2467SOL    HW119034   2.022   0.937   3.130 -1.6317 -2.1967 -1.0908
 2467SOL    HW219035   1.932   1.050   3.157 -0.0489  1.4374 -0.9435
 2468SOL     OW19036   0.966   0.088   7.774 -0.9031 -0.9156  0.2757
 2468SOL    HW119037   0.905   0.158   7.751  1.0997  0.7921  0.1127
 2468SOL    HW219038   0.922   0.065   7.856 -0.4448 -0.4079  0.6721
 2469SOL     OW19039   4.294   1.593   6.856 -0.0130 -0.1059  0.9195
 2469SOL    HW119040   4.232   1.665   6.849 -0.4406 -0.5465  0.2146
 2469SOL    HW219041   4.246   1.514   6.883 -0.8289 -0.3145 -1.1377
 2470SOL     OW19042   0.296   1.360   2.574  0.2211 -0.0288 -0.3832
 2470SOL    HW119043   0.362   1.356   2.505 -0.9214  1.9570 -1.5935
 2470SOL    HW219044   0.294   1.454   2.594 -2.5119 -0.0226 -0.6560
 2471SOL     OW19045   2.272   4.041   2.675  0.2131 -0.1766 -0.2209
 2471SOL    HW119046   2.184   4.053   2.639  1.5818  2.4380 -2.7211
 2471SOL    HW219047   2.283   4.116   2.734 -0.4789 -2.1643  2.4092
 2472SOL     OW19048   2.584   1.029   4.609  0.2632  0.1914  0.0223
 2472SOL    HW119049   2.524   1.091   4.650 -0.8697 -0.8510 -0.0619
 2472SOL    HW219050   2.531   0.994   4.537  0.5103 -2.2998  1.0709
 2473SOL     OW19051   1.942   0.562   4.764 -0.3516  0.5134 -0.0947
 2473SOL    HW119052   1.870   0.501   4.751  1.4879 -1.2224 -2.0536
 2473SOL    HW219053   1.914   0.615   4.839  0.4684 -1.2125  1.4251
 2474SOL     OW19054   4.334   3.697   5.673 -0.0605 -0.7468  0.0595
 2474SOL    HW119055   4.283   3.661   5.601  0.5342  1.7031 -1.5879
 2474SOL    HW219056   4.405   3.634   5.683  0.2566 -0.5199 -0.7675
 2475SOL     OW19057   1.204   4.552  10.548 -0.1299  0.2069  0.0230
 2475SOL    HW119058   1.196   4.493  10.473  0.0437 -1.3164  1.2041
 2475SOL    HW219059   1.150   4.625  10.517 -0.6636  0.0925  0.7066
 2476SOL     OW19060   2.341   2.533   7.654 -0.4758  0.3256 -0.2583
 2476SOL    HW119061   2.318   2.537   7.561  0.8416  0.2425 -0.5918
 2476SOL    HW219062   2.387   2.449   7.656 -0.9115  0.0488 -1.4379
 2477SOL     OW19063   1.554   4.662   1.980 -0.4983 -0.5802 -0.8240
 2477SOL    HW119064   1.569   0.013   1.939 -0.2085 -0.0063  0.4568
 2477SOL    HW219065   1.591   4.686   2.065 -2.1074  0.3754 -0.3858
 2478SOL     OW19066   3.454   0.132   7.843 -0.1170  0.2637 -0.1979
 2478SOL    HW119067   3.527   0.072   7.860  0.3133  1.3619  1.8332
 2478SOL    HW219068   3.426   0.107   7.755 -2.3717  1.5588  0.1585
 2479SOL     OW19069   1.302   3.825  13.323  1.1391  0.5547  0.5005
 2479SOL    HW119070   1.379   3.778  13.290  0.8468 -1.1046  2.2253
 2479SOL    HW219071   1.344   3.902  13.360 -0.0583  1.5595 -0.2209
 2480SOL     OW19072   1.895   4.040   7.655 -0.5577 -0.5558  0.4013
 2480SOL    HW119073   1.864   4.130   7.666  1.8057 -0.1769  4.0505
 2480SOL    HW219074   1.963   4.034   7.723 -0.4583  1.3408  0.4539
 2481SOL     OW19075   2.927   4.610   0.969  0.3322 -0.0277 -0.4018
 2481SOL    HW119076   2.999   4.615   0.906  1.4421 -1.8774  0.7030
 2481SOL    HW219077   2.859   4.652   0.917  1.6720 -1.1179 -3.0313
 2482SOL     OW19078   3.540   4.597  13.262 -0.1636  0.5619 -0.1919
 2482SOL    HW119079   3.630   4.570  13.244 -0.5613 -0.6548 -0.3474
 2482SOL    HW219080   3.509   4.540  13.332 -1.6713  2.5098  0.7325
 2483SOL     OW19081   1.805   3.348   2.154 -0.5847  0.2718 -0.0474
 2483SOL    HW119082   1.728   3.307   2.191  0.0698 -0.8825  0.0253
 2483SOL    HW219083   1.771   3.378   2.069  2.1026 -0.1649 -1.2687
 2484SOL     OW19084   3.696   2.284   1.400  0.4438  0.5582  0.3623
 2484SOL    HW119085   3.602   2.287   1.415  0.3835 -1.6376  0.4519
 2484SOL    HW219086   3.686   2.269   1.306  1.6383  0.4757  0.2474
 2485SOL     OW19087   0.891   1.625   4.976 -0.2657 -0.2907  0.3673
 2485SOL    HW119088   0.947   1.549   4.964 -1.3355 -1.0376  0.1027
 2485SOL    HW219089   0.817   1.590   4.927 -0.2092  1.0433 -0.6966
 2486SOL     OW19090   3.315   1.953   2.376 -0.0110  0.7642 -0.2715
 2486SOL    HW119091   3.401   1.971   2.416  0.2747  0.7660 -0.8905
 2486SOL    HW219092   3.267   2.031   2.406 -0.4157 -0.9637  3.5556
 2487SOL     OW19093   3.527   3.914   4.289 -0.0334 -0.0680  0.5735
 2487SOL    HW119094   3.436   3.898   4.310 -0.1714  0.2846  0.2486
 2487SOL    HW219095   3.509   3.990   4.233 -0.0919 -0.5086 -0.0005
 2488SOL     OW19096   0.911   0.536   6.498  0.4544  0.0586 -0.0191
 2488SOL    HW119097   0.991   0.578   6.530 -0.1229 -0.1786  1.7036
 2488SOL    HW219098   0.943   0.465   6.442  1.2508  1.2354 -1.0578
 2489SOL     OW19099   1.053   1.911   6.070  0.3565  0.2935 -0.2427
 2489SOL    HW119100   1.098   1.828   6.083 -0.6927 -0.6064 -2.3134
 2489SOL    HW219101   0.982   1.901   6.133  1.6243  0.0378  1.1368
 2490SOL     OW19102   3.784   3.650  13.758 -0.4937  0.6263 -0.2007
 2490SOL    HW119103   3.706   3.606  13.724 -1.3343  0.1923  2.2650
 2490SOL    HW219104   3.845   3.577  13.750 -1.4231 -0.0239 -1.3469
 2491SOL     OW19105   2.800   1.189   2.182  0.4093  0.0309  0.4493
 2491SOL    HW119106   2.711   1.164   2.206 -0.0376 -0.0741 -1.3269
 2491SOL    HW219107   2.805   1.284   2.193  1.4100 -0.0179  0.4292
 2492SOL     OW19108   0.156   3.553   7.499 -0.5785  0.0082 -0.1797
 2492SOL    HW119109   0.061   3.548   7.511 -0.4621 -2.2834 -0.2188
 2492SOL    HW219110   0.159   3.648   7.488 -3.0538  0.0992 -0.1391
 2493SOL     OW19111   3.389   0.246   2.143 -0.0376  0.0578 -0.3018
 2493SOL    HW119112   3.455   0.300   2.099  0.8108  0.5324  1.5802
 2493SOL    HW219113   3.317   0.260   2.080  0.4649 -0.0492 -0.9008
 2494SOL     OW19114   2.973   2.397   4.235  0.9472 -0.0954  0.1822
 2494SOL    HW119115   2.940   2.407   4.145 -0.8155  0.2732  0.8577
 2494SOL    HW219116   3.059   2.439   4.225  1.2690 -1.1178 -1.3808
 2495SOL     OW19117   4.471   1.807  15.363 -0.9466 -0.1776 -0.6089
 2495SOL    HW119118   4.546   1.798  15.305  0.6573  0.8081  1.3266
 2495SOL    HW219119   4.507   1.875  15.420  0.5711 -1.4671 -0.0638
 2496SOL     OW19120   2.251   3.764   3.423  0.8333 -0.3557 -0.2074
 2496SOL    HW119121   2.308   3.718   3.362  2.2109  2.2505 -0.8684
 2496SOL    HW219122   2.237   3.843   3.370 -3.7252 -1.2203 -0.2955
 2497SOL     OW19123   3.784   0.941   9.640  0.2801 -0.4088 -0.6477
 2497SOL    HW119124   3.762   1.035   9.635 -0.4925 -0.5469  0.2691
 2497SOL    HW219125   3.738   0.908   9.562 -2.4397  0.6172  0.5293
 2498SOL     OW19126   4.299   2.130   3.443  0.1771 -0.1160  0.2847
 2498SOL    HW119127   4.337   2.056   3.394  1.9770  0.3498  0.9800
 2498SOL    HW219128   4.334   2.125   3.532  2.0443 -3.4534 -0.6296
 2499SOL     OW19129   1.058   3.549   9.060 -0.9416  0.6289 -0.1406
 2499SOL    HW119130   1.019   3.492   9.126  3.0792  0.0153  1.7574
 2499SOL    HW219131   1.122   3.588   9.120 -0.4485  3.5690 -2.5870
 2500SOL     OW19132   4.532   3.238   9.196  0.2383  0.1093 -0.3967
 2500SOL    HW119133   4.571   3.199   9.118  2.0215 -0.3429  0.7190
 2500SOL    HW219134   4.439   3.228   9.173 -0.6406 -0.6251  3.4969
 2501SOL     OW19135   2.842   1.991   6.335 -0.5129 -0.3050  0.1809
 2501SOL    HW119136   2.845   2.051   6.261 -1.0554 -1.5839 -0.8676
 2501SOL    HW219137   2.834   2.054   6.407  1.7069  1.8145 -1.4314
 2502SOL     OW19138   1.041   4.695   6.838  0.6983 -0.1497 -0.5331
 2502SOL    HW119139   1.120   4.679   6.889 -0.2180 -3.1425 -0.0580
 2502SOL    HW219140   1.070   0.028   6.776  0.8655  0.1910 -0.0858
 2503SOL     OW19141   3.500   3.028   1.916  0.6455  0.9708 -0.3537
 2503SOL    HW119142   3.531   2.954   1.864  0.1187 -0.1215  0.8984
 2503SOL    HW219143   3.585   3.057   1.950 -0.0427 -1.0501  3.0622
 2504SOL     OW19144   4.355   2.472   6.969  0.4936 -0.1141  0.1225
 2504SOL    HW119145   4.290   2.406   6.943  0.6644  0.6031 -2.1079
 2504SOL    HW219146   4.393   2.429   7.046  0.4964  0.6522  0.5435
 2505SOL     OW19147   4.451   4.129   4.714 -0.2253  0.1883  0.0194
 2505SOL    HW119148   4.379   4.191   4.704 -0.1458  0.7774  2.9081
 2505SOL    HW219149   4.434   4.066   4.645 -1.3540  0.4251  0.0828
 2506SOL     OW19150   4.616   0.372   8.295  0.4228  0.6192  0.2919
 2506SOL    HW119151   4.588   0.428   8.223  0.2009 -0.1192 -0.2039
 2506SOL    HW219152   4.671   0.423   8.353 -0.6778 -0.2572  2.1211
 2507SOL     OW19153   1.030   3.603   4.921 -0.3510  0.2614 -0.1739
 2507SOL    HW119154   1.124   3.587   4.907  0.0763  1.6699  1.0594
 2507SOL    HW219155   1.028   3.681   4.976  0.8751 -0.6856  1.2019
 2508SOL     OW19156   1.228   3.032   3.423 -0.0106  0.0435 -0.3787
 2508SOL    HW119157   1.187   2.948   3.402 -1.3943 -0.2079  3.3659
 2508SOL    HW219158   1.173   3.090   3.372  1.3325  1.4643 -0.2281
 2509SOL     OW19159   1.210   4.347  13.150  0.3209 -0.0860  0.1615
 2509SOL    HW119160   1.164   4.394  13.220 -0.5725 -0.7503  0.0236
 2509SOL    HW219161   1.266   4.288  13.201  0.0150  1.3841  2.2250
 2510SOL     OW19162   0.353   3.924   8.098 -0.2857  0.1152  0.1616
 2510SOL    HW119163   0.406   3.850   8.069 -0.3749  0.3304 -0.5461
 2510SOL    HW219164   0.318   3.893   8.182  3.6820 -3.0936  0.6327
 2511SOL     OW19165   0.976   2.344   6.450  0.0562  0.2341 -0.2887
 2511SOL    HW119166   0.999   2.257   6.418 -0.9403  0.4052 -1.4772
 2511SOL    HW219167   0.887   2.322   6.475  0.3958 -0.3595  0.3824
 2512SOL     OW19168   0.414   2.211   6.397 -0.1549 -0.2496  0.5505
 2512SOL    HW119169   0.321   2.191   6.392 -0.1313  0.0728 -1.5835
 2512SOL    HW219170   0.441   2.228   6.306  2.1816 -1.2747  1.0523
 2513SOL     OW19171   4.308   2.855   5.040 -0.2610 -0.5904 -0.1305
 2513SOL    HW119172   4.394   2.824   5.065  0.5320  1.8606  0.2230
 2513SOL    HW219173   4.257   2.776   5.020 -1.4306 -0.7515  3.3832
 2514SOL     OW19174   0.924   3.728   8.111  0.2768 -0.0134 -0.0642
 2514SOL    HW119175   0.902   3.715   8.019  0.8770  0.0612 -0.2184
 2514SOL    HW219176   0.852   3.779   8.148 -1.3259 -1.4839 -1.1709
 2515SOL     OW19177   1.681   2.087   4.362 -0.8162  0.1457  0.6189
 2515SOL    HW119178   1.746   2.073   4.431 -0.1493  0.0260 -0.0296
 2515SOL    HW219179   1.699   2.023   4.293 -0.1787 -0.0497  0.9690
 2516SOL     OW19180   2.496   1.255  12.603  0.1693  0.4942 -0.0280
 2516SOL    HW119181   2.561   1.195  12.640  0.7154  0.1981 -1.4531
 2516SOL    HW219182   2.487   1.211  12.518  0.9685 -0.5411  0.4307
 2517SOL     OW19183   0.382   0.324  11.826  0.3185  0.1592  0.1816
 2517SOL    HW119184   0.296   0.290  11.851  1.0893 -0.6218  1.7566
 2517SOL    HW219185   0.435   0.281  11.893 -0.7316 -1.1506  0.1880
 2518SOL     OW19186   4.408   3.629   1.753 -0.0886  0.1461  0.5118
 2518SOL    HW119187   4.372   3.678   1.826  2.0113  0.3360  1.4061
 2518SOL    HW219188   4.357   3.672   1.684  1.2119 -0.4923 -0.8411
 2519SOL     OW19189   4.512   3.066   4.894  0.4063  0.2497 -0.1933
 2519SOL    HW119190   4.430   3.022   4.872  0.2658  0.2669  0.3090
 2519SOL    HW219191   4.509   3.135   4.827  2.0910  0.8453  0.3348
 2520SOL     OW19192   4.729   0.031   7.451 -0.8764  0.8354  0.3173
 2520SOL    HW119193   0.074   0.019   7.504 -0.9697  2.3004  0.8000
 2520SOL    HW219194   4.668   4.708   7.497 -0.9242  0.6540  0.0309
 2521SOL     OW19195   2.600   2.760  10.073  0.3801 -0.0068  0.1062
 2521SOL    HW119196   2.612   2.680  10.123 -2.2201  0.9124  2.1901
 2521SOL    HW219197   2.505   2.761  10.063  0.2202 -3.4581  1.2732
 2522SOL     OW19198   1.046   3.526  15.096  0.5692 -0.1316  0.3448
 2522SOL    HW119199   1.072   3.571  15.016  0.7033 -0.8642 -0.0270
 2522SOL    HW219200   0.950   3.528  15.101  0.4384 -1.9480 -1.3350
 2523SOL     OW19201   2.450   3.119   6.130 -0.7158  0.4806  0.2857
 2523SOL    HW119202   2.368   3.154   6.164  0.1641  1.1089  1.7440
 2523SOL    HW219203   2.512   3.172   6.180 -1.3235 -0.4820  2.0693
 2524SOL     OW19204   1.457   2.204  12.417  0.3887 -0.0115  0.2989
 2524SOL    HW119205   1.509   2.164  12.346  0.9036  1.4971 -0.1882
 2524SOL    HW219206   1.372   2.204  12.372 -0.7259  0.4975  2.4558
 2525SOL     OW19207   4.058   4.311   4.294 -0.2823 -0.2800 -0.3797
 2525SOL    HW119208   4.057   4.403   4.267 -2.0337  0.1271  1.0754
 2525SOL    HW219209   3.983   4.309   4.354 -0.5130 -1.6559 -0.7084
 2526SOL     OW19210   4.527   0.952  15.638  0.4092 -0.0868 -0.1183
 2526SOL    HW119211   4.615   0.956  15.601 -0.1697 -1.5912 -1.6799
 2526SOL    HW219212   4.521   0.858  15.657  0.6480  0.0332  0.5422
 2527SOL     OW19213   3.931   1.500   8.505 -0.5191  0.0081 -0.0503
 2527SOL    HW119214   3.970   1.554   8.574  1.1111 -2.0048  0.6338
 2527SOL    HW219215   3.998   1.431   8.501 -0.6178 -0.0499 -0.6359
 2528SOL     OW19216   2.362   1.997   6.673 -0.6830  0.4082  0.0788
 2528SOL    HW119217   2.391   1.954   6.593 -0.2251 -0.7369  0.8650
 2528SOL    HW219218   2.443   1.988   6.724 -0.6803 -1.4439 -0.2727
 2529SOL     OW19219   4.266   0.159   3.496 -0.2090  0.2226 -0.3929
 2529SOL    HW119220   4.190   0.203   3.458 -0.9904 -0.7655  0.0243
 2529SOL    HW219221   4.233   0.083   3.543  0.5764 -0.1253 -0.4131
 2530SOL     OW19222   1.508   3.528   2.537  0.0978 -0.0906 -0.2317
 2530SOL    HW119223   1.563   3.452   2.519  0.4275 -0.5025  2.5042
 2530SOL    HW219224   1.436   3.504   2.478  0.4892  0.3417 -0.8908
 2531SOL     OW19225   1.794   2.812   4.355  0.4372  0.1897  0.8399
 2531SOL    HW119226   1.747   2.762   4.422  2.1138 -2.1366  0.2588
 2531SOL    HW219227   1.845   2.869   4.413 -0.7175  1.1275  0.9338
 2532SOL     OW19228   3.633   0.581   9.259  0.0807 -0.1561 -0.2643
 2532SOL    HW119229   3.726   0.599   9.269 -0.5000  1.7607  1.6288
 2532SOL    HW219230   3.595   0.650   9.312  1.9401 -1.5013  2.8112
 2533SOL     OW19231   3.840   3.166   6.960 -0.0705  1.0762  0.1038
 2533SOL    HW119232   3.853   3.082   7.005  0.1047  1.1259  0.1439
 2533SOL    HW219233   3.883   3.231   7.016  1.4423 -1.0516  1.4413
 2534SOL     OW19234   2.556   4.278   8.947  0.2692 -0.1998  0.0874
 2534SOL    HW119235   2.559   4.206   8.884  0.4366 -0.6820  0.6524
 2534SOL    HW219236   2.473   4.321   8.929  0.4154  0.7194  1.5781
 2535SOL     OW19237   2.230   2.140   1.922  0.6191 -0.0154 -0.0070
 2535SOL    HW119238   2.294   2.086   1.876  0.1596 -0.6102  0.0442
 2535SOL    HW219239   2.156   2.089   1.890  0.0495  0.1925  0.9626
 2536SOL     OW19240   4.322   4.141   5.228 -0.0326 -0.6774 -0.0546
 2536SOL    HW119241   4.241   4.192   5.226 -1.1168 -2.3525  0.0180
 2536SOL    HW219242   4.301   4.079   5.157 -1.1092  1.7174 -1.8561
 2537SOL     OW19243   0.278   0.869   6.973  0.0349  0.1395  0.3420
 2537SOL    HW119244   0.208   0.818   6.933  1.0150  0.0255 -1.2191
 2537SOL    HW219245   0.272   0.945   6.916  0.9771  0.7655  1.0927
 2538SOL     OW19246   4.015   2.612   2.703 -0.5310 -0.7210  0.1141
 2538SOL    HW119247   4.098   2.624   2.657 -0.0251 -1.3542  0.8510
 2538SOL    HW219248   3.956   2.623   2.629  0.1942 -3.9029 -0.9446
 2539SOL     OW19249   4.579   1.133   2.643  0.4334 -0.7054  0.2879
 2539SOL    HW119250   4.609   1.062   2.585 -1.8996 -0.9142 -0.6478
 2539SOL    HW219251   4.649   1.190   2.611 -1.4413  0.8149 -1.0291
 2540SOL     OW19252   0.984   3.665   5.299  0.3002 -0.0746 -0.5180
 2540SOL    HW119253   0.991   3.731   5.230 -0.3728  1.7022  1.1322
 2540SOL    HW219254   1.068   3.619   5.305  1.4443  1.3960 -4.9263
 2541SOL     OW19255   2.334   3.930   7.062  0.7130 -0.1257  0.5654
 2541SOL    HW119256   2.279   3.891   6.994  1.8287 -2.3821  0.9520
 2541SOL    HW219257   2.281   3.907   7.139 -1.0178 -1.8342 -1.1322
 2542SOL     OW19258   2.296   2.396   4.194  0.3986  0.0353  0.4020
 2542SOL    HW119259   2.368   2.382   4.132  0.0438  0.4026 -0.0905
 2542SOL    HW219260   2.334   2.357   4.273 -3.3863 -1.2586  1.5751
 2543SOL     OW19261   4.031   1.948   3.501 -0.2313  0.5875 -0.4317
 2543SOL    HW119262   4.115   1.904   3.514  0.0911  1.2327 -0.3229
 2543SOL    HW219263   4.048   2.033   3.541 -0.4643 -0.0510  1.0300
 2544SOL     OW19264   4.240   0.664   9.732  0.1373  0.0535  0.3952
 2544SOL    HW119265   4.264   0.756   9.734  0.3134 -0.0356  2.3045
 2544SOL    HW219266   4.304   0.636   9.667 -1.5291 -1.1379 -0.7416
 2545SOL     OW19267   2.108   0.291   7.650 -0.2984  0.0255  0.0047
 2545SOL    HW119268   2.068   0.296   7.736 -3.0477  1.3744 -1.3478
 2545SOL    HW219269   2.127   0.384   7.635 -0.3497  0.3428  1.8920
 2546SOL     OW19270   1.605   3.567   9.606  0.3319  0.0965 -0.3181
 2546SOL    HW119271   1.607   3.489   9.550 -0.1266 -0.3797  0.3386
 2546SOL    HW219272   1.633   3.632   9.541  0.2035  1.6668  1.1891
 2547SOL     OW19273   1.366   2.039   3.939  0.0392  0.4208  0.5352
 2547SOL    HW119274   1.356   2.016   4.031 -1.4002 -0.9871  0.0173
 2547SOL    HW219275   1.457   2.068   3.948  0.6421 -1.3770  0.3046
 2548SOL     OW19276   2.089   2.363   1.290 -0.8749  0.0921 -0.2970
 2548SOL    HW119277   2.066   2.441   1.340  0.7175  0.4919 -0.1878
 2548SOL    HW219278   2.041   2.296   1.338 -1.2562  0.5089 -0.0965
 2549SOL     OW19279   0.315   0.353  13.762 -0.5403  0.4026  0.3331
 2549SOL    HW119280   0.324   0.350  13.667 -0.4543  0.2922  0.3449
 2549SOL    HW219281   0.268   0.271  13.778  0.5659 -0.7701 -2.4915
 2550SOL     OW19282   1.499   4.678   6.789 -0.2631  0.2072  0.6019
 2550SOL    HW119283   1.487   0.037   6.808  0.6502  0.7912 -1.8012
 2550SOL    HW219284   1.478   4.637   6.873  0.3279 -0.5734  0.3709
 2551SOL     OW19285   2.447   3.896   4.224  0.4634 -0.1020 -0.0839
 2551SOL    HW119286   2.510   3.966   4.210  1.7562 -1.8974 -3.1351
 2551SOL    HW219287   2.497   3.816   4.207 -0.0040 -0.1790 -1.0800
 2552SOL     OW19288   4.537   0.791   8.749  0.1863  0.1993 -0.0030
 2552SOL    HW119289   4.543   0.729   8.675 -1.2698  2.6165 -2.1593
 2552SOL    HW219290   4.443   0.780   8.763  0.4580 -0.7027  1.0601
 2553SOL     OW19291   2.587   1.508  16.447 -0.2134  0.4656 -0.1820
 2553SOL    HW119292   2.610   1.489  16.537  0.6092  0.7828 -0.3220
 2553SOL    HW219293   2.515   1.570  16.457 -1.3229 -0.7854 -0.4664
 2554SOL     OW19294   1.754   1.519   9.074  0.0551 -0.3669 -0.1850
 2554SOL    HW119295   1.702   1.598   9.061  0.7211  0.1824  0.4533
 2554SOL    HW219296   1.803   1.508   8.993  1.1252 -1.4943  0.5938
 2555SOL     OW19297   2.357   0.944   3.405  0.1039 -0.3366  0.5525
 2555SOL    HW119298   2.315   0.917   3.323  0.6628  1.4987 -0.3527
 2555SOL    HW219299   2.347   0.862   3.453 -1.9632 -0.5892 -0.2877
 2556SOL     OW19300   4.464   2.238   6.076 -0.4102 -0.5662 -0.6272
 2556SOL    HW119301   4.498   2.319   6.116 -2.4262 -0.3085  0.5562
 2556SOL    HW219302   4.460   2.274   5.988  0.7096  2.7438  0.6396
 2557SOL     OW19303   1.946   4.542  15.720 -0.5169  0.5595  0.2818
 2557SOL    HW119304   1.998   4.616  15.687 -1.9359  1.6339  0.4453
 2557SOL    HW219305   1.889   4.520  15.647  0.1939  0.3679 -0.2062
 2558SOL     OW19306   0.889   1.307   7.353  0.1090  0.2849 -0.4759
 2558SOL    HW119307   0.972   1.276   7.317  1.2703  1.4042  1.2497
 2558SOL    HW219308   0.867   1.379   7.294  2.2737  1.2583 -0.1046
 2559SOL     OW19309   1.684   0.906   7.592  0.0218 -0.2677  0.1048
 2559SOL    HW119310   1.713   0.861   7.671  0.2020 -0.2685  0.0373
 2559SOL    HW219311   1.734   0.865   7.522  0.2692  0.9390 -0.4230
 2560SOL     OW19312   0.590   3.565   6.973 -0.3399  0.4105 -0.0390
 2560SOL    HW119313   0.622   3.604   6.892 -1.2396 -4.2991 -2.6508
 2560SOL    HW219314   0.526   3.633   6.992 -0.8667 -0.0849 -0.0466
 2561SOL     OW19315   2.799   4.505   3.649  0.2737  0.4437 -0.1661
 2561SOL    HW119316   2.732   4.541   3.591 -0.8182  0.1815  0.9516
 2561SOL    HW219317   2.739   4.465   3.711  0.5939  1.8921  1.0846
 2562SOL     OW19318   2.602   3.373   1.772  0.6986  0.1751 -0.6707
 2562SOL    HW119319   2.579   3.391   1.681  1.2574  0.3902 -0.7683
 2562SOL    HW219320   2.584   3.279   1.773  0.4217  0.2285  0.5105
 2563SOL     OW19321   1.743   0.073   7.559  0.1120  0.8441  0.0282
 2563SOL    HW119322   1.808   0.069   7.489 -0.2366 -2.3653 -0.1364
 2563SOL    HW219323   1.665   0.085   7.504  1.0532  2.2850 -0.9806
 2564SOL     OW19324   1.011   3.384   1.857 -0.2284  0.1716 -0.0044
 2564SOL    HW119325   1.098   3.423   1.857 -1.1664  2.2535 -1.2152
 2564SOL    HW219326   0.968   3.440   1.922  0.5173 -0.7253  1.2863
 2565SOL     OW19327   4.236   1.201  15.417 -0.1242  0.0409 -0.2301
 2565SOL    HW119328   4.158   1.186  15.469  0.3031  2.2716  1.0538
 2565SOL    HW219329   4.290   1.268  15.459  0.5013 -0.6878  0.1203
 2566SOL     OW19330   1.826   0.627  14.810  0.0079  0.3143  0.3519
 2566SOL    HW119331   1.919   0.605  14.805 -0.2235 -0.3123 -1.3852
 2566SOL    HW219332   1.814   0.675  14.728  0.6561  0.8756  0.5822
 2567SOL     OW19333   4.702   2.719   7.601 -0.3257  0.0792  0.4174
 2567SOL    HW119334   4.702   2.692   7.693  0.2091 -0.1633  0.3477
 2567SOL    HW219335   0.006   2.807   7.601 -0.4908  0.1562  1.8983
 2568SOL     OW19336   0.639   0.268   5.843 -0.3587  0.1295  0.0305
 2568SOL    HW119337   0.670   0.190   5.798 -1.8124  0.0844 -0.9125
 2568SOL    HW219338   0.569   0.236   5.900 -1.8378 -0.3804 -2.0358
 2569SOL     OW19339   1.858   0.764   8.583  0.0060 -0.1303 -0.2707
 2569SOL    HW119340   1.856   0.668   8.578 -0.3588  0.0008 -2.2525
 2569SOL    HW219341   1.817   0.764   8.670  0.2681  1.4895 -0.1550
 2570SOL     OW19342   4.454   2.370   7.200 -0.1204  0.2338 -0.3788
 2570SOL    HW119343   4.473   2.443   7.258 -0.5986 -1.0485  1.4239
 2570SOL    HW219344   4.391   2.324   7.257 -1.0053  3.3681  1.1513
 2571SOL     OW19345   1.114   0.222   9.427 -0.4672 -0.1763  0.3571
 2571SOL    HW119346   1.113   0.135   9.387 -1.3899  0.5271 -1.1557
 2571SOL    HW219347   1.022   0.250   9.428 -1.2654 -2.8329  1.0205
 2572SOL     OW19348   3.199   0.862   8.793 -0.6313 -0.6362 -0.0475
 2572SOL    HW119349   3.161   0.869   8.705  0.0299  3.0604 -0.0361
 2572SOL    HW219350   3.253   0.785   8.778 -1.4064 -1.0911 -0.5477
 2573SOL     OW19351   1.030   3.534  15.718 -0.4648  0.2690  0.3911
 2573SOL    HW119352   0.934   3.529  15.714 -0.4929  2.4195 -1.6718
 2573SOL    HW219353   1.052   3.447  15.686  1.6595  0.6823  0.7682
 2574SOL     OW19354   1.292   2.722   5.035 -0.2728  0.4537  0.0863
 2574SOL    HW119355   1.252   2.659   5.095 -2.0550  0.9931 -0.5355
 2574SOL    HW219356   1.230   2.708   4.964  0.4954  0.3437 -0.5574
 2575SOL     OW19357   1.832   1.846   6.461  0.0211  0.1285  0.1750
 2575SOL    HW119358   1.812   1.940   6.456  1.3408  0.4620  1.2234
 2575SOL    HW219359   1.872   1.846   6.375 -3.5690 -1.1301 -1.5047
 2576SOL     OW19360   2.894   4.433   5.363 -0.1920  0.1179  0.5692
 2576SOL    HW119361   2.949   4.442   5.440  0.6296  0.7029 -0.0857
 2576SOL    HW219362   2.816   4.420   5.416  1.0769 -0.8135  2.1730
 2577SOL     OW19363   2.888   2.422   2.764  0.2646 -0.1659 -0.4606
 2577SOL    HW119364   2.883   2.462   2.678 -1.0689  0.2706 -0.1821
 2577SOL    HW219365   2.978   2.438   2.792  0.7213 -0.5537 -1.7404
 2578SOL     OW19366   4.174   4.073  10.583 -0.3232 -0.0661 -0.4945
 2578SOL    HW119367   4.115   4.001  10.559  0.5513 -1.5800  1.8402
 2578SOL    HW219368   4.181   4.064  10.678  0.0208  0.8929 -0.4290
 2579SOL     OW19369   4.358   1.923   8.316 -0.3645 -0.3100  0.4692
 2579SOL    HW119370   4.388   1.898   8.228  0.9566  1.0317  0.5284
 2579SOL    HW219371   4.380   1.842   8.363 -0.5843 -0.0819  0.9675
 2580SOL     OW19372   2.876   3.843  12.302 -0.1591 -0.1830 -0.5708
 2580SOL    HW119373   2.860   3.889  12.220  1.0176 -0.1075 -0.7522
 2580SOL    HW219374   2.828   3.761  12.288 -2.5739  1.5423 -2.4269
 2581SOL     OW19375   4.122   0.097   9.971 -0.3497  0.2212 -0.0811
 2581SOL    HW119376   4.115   0.181   9.925 -1.2688 -0.2916 -0.8870
 2581SOL    HW219377   4.087   0.042   9.902 -0.7264  0.8841 -0.4230
 2582SOL     OW19378   4.610   3.363  15.521 -0.4777  0.4709 -0.2662
 2582SOL    HW119379   4.555   3.418  15.466 -1.4003 -1.7417 -1.5568
 2582SOL    HW219380   4.636   3.291  15.464  0.4680  0.9194 -0.3886
 2583SOL     OW19381   3.950   2.563  10.896  0.3517 -0.4399 -0.1599
 2583SOL    HW119382   3.910   2.541  10.981  3.4671 -0.4459  1.3354
 2583SOL    HW219383   3.886   2.520  10.839 -1.3632  0.3761  1.1463
 2584SOL     OW19384   4.002   1.760  10.420  0.4379 -0.3370  0.2389
 2584SOL    HW119385   4.000   1.839  10.366 -0.0044  0.1921  1.0371
 2584SOL    HW219386   4.055   1.699  10.369  1.1614  1.2132 -0.8638
 2585SOL     OW19387   4.396   0.371   9.215 -0.1363  0.0977 -0.3969
 2585SOL    HW119388   4.367   0.329   9.296 -0.9992  0.5384 -0.4734
 2585SOL    HW219389   4.337   0.329   9.152 -0.5248  1.7286 -1.1184
 2586SOL     OW19390   0.699   2.041   6.054 -0.0882 -0.4367 -0.1203
 2586SOL    HW119391   0.769   2.097   6.088  0.1875 -0.2262 -1.0277
 2586SOL    HW219392   0.677   2.096   5.979  0.8966 -0.2618 -0.2870
 2587SOL     OW19393   0.270   1.042   8.982  0.0287 -0.3940  0.0746
 2587SOL    HW119394   0.222   0.979   8.928 -0.4833 -0.5224  0.6722
 2587SOL    HW219395   0.356   1.002   8.995 -0.9623 -1.5163  3.3491
 2588SOL     OW19396   3.520   2.422   8.977 -0.0571  0.5135 -0.5452
 2588SOL    HW119397   3.427   2.402   8.990  0.2424 -0.9952 -0.7108
 2588SOL    HW219398   3.536   2.444   9.069 -0.9073 -0.9405 -0.0513
 2589SOL     OW19399   1.432   3.558   5.138  0.1572 -0.0986  0.6355
 2589SOL    HW119400   1.500   3.497   5.108  0.1697  1.0890 -1.7486
 2589SOL    HW219401   1.365   3.556   5.071 -1.1303  3.2747  1.8170
 2590SOL     OW19402   3.572   1.646  15.742 -0.9025 -0.0703  0.2027
 2590SOL    HW119403   3.631   1.584  15.785  1.4565  2.9244  1.3966
 2590SOL    HW219404   3.627   1.694  15.679  1.6167 -1.6590  1.1977
 2591SOL     OW19405   3.219   3.294  16.860 -0.2972 -0.5941  0.6783
 2591SOL    HW119406   3.200   3.381  16.827  3.0856 -0.1002  0.0436
 2591SOL    HW219407   3.132   3.254  16.856 -0.4316 -0.0818 -1.5548
 2592SOL     OW19408   1.751   3.797   7.950 -0.4747 -0.1455 -0.2794
 2592SOL    HW119409   1.843   3.818   7.968 -0.2513  0.0856 -1.7088
 2592SOL    HW219410   1.715   3.835   8.030 -0.1165  0.8618 -0.5967
 2593SOL     OW19411   0.927   4.308   9.210  0.2185 -0.4500 -0.6480
 2593SOL    HW119412   0.992   4.281   9.275 -1.3671  1.6642  1.8297
 2593SOL    HW219413   0.852   4.255   9.237  0.0250 -0.0245 -0.3512
 2594SOL     OW19414   0.696   4.725   8.825  0.2792 -0.0038 -0.8072
 2594SOL    HW119415   0.690   4.723   8.730 -0.0259 -0.1125 -0.7859
 2594SOL    HW219416   0.668   0.078   8.855 -0.1401 -0.3137 -0.3041
 2595SOL     OW19417   4.711   2.687   4.329  0.0315 -0.4266  0.0854
 2595SOL    HW119418   0.062   2.686   4.286 -0.1442 -1.8874 -0.2555
 2595SOL    HW219419   4.669   2.765   4.294  3.5332  0.5613 -1.8629
 2596SOL     OW19420   3.504   3.005   4.017  0.5774  0.1458  0.1191
 2596SOL    HW119421   3.574   2.956   3.973  0.2281 -0.1479 -0.1035
 2596SOL    HW219422   3.504   3.078   3.956  0.2288 -0.1978 -0.2860
 2597SOL     OW19423   0.289   3.743   0.962  0.3422  0.0118 -0.5455
 2597SOL    HW119424   0.274   3.656   1.001 -0.8891 -0.7513 -2.7617
 2597SOL    HW219425   0.379   3.730   0.932 -0.2540  2.1229 -3.2175
 2598SOL     OW19426   3.830   0.377   3.027 -0.3479  0.3861 -0.1151
 2598SOL    HW119427   3.796   0.383   3.116 -0.7859 -0.8713 -0.1983
 2598SOL    HW219428   3.754   0.384   2.970  0.2924 -3.1504 -1.3863
 2599SOL     OW19429   2.453   2.818   9.317  0.3526 -0.4313 -0.0041
 2599SOL    HW119430   2.361   2.811   9.290 -0.1762  0.4015  1.5940
 2599SOL    HW219431   2.457   2.908   9.348 -1.5514 -0.5512  0.5799
 2600SOL     OW19432   2.898   0.137   1.505  0.0665 -0.2093 -0.1505
 2600SOL    HW119433   2.973   0.196   1.513  1.7747 -2.3009 -0.7669
 2600SOL    HW219434   2.896   0.133   1.410  0.5412  1.8280 -0.2615
 2601SOL     OW19435   3.238   1.778  11.748 -0.0559  0.2709  0.2918
 2601SOL    HW119436   3.312   1.717  11.737  0.9462  1.4755  0.3982
 2601SOL    HW219437   3.201   1.747  11.831  0.6068 -0.7154  0.2276
 2602SOL     OW19438   1.864   2.276   9.132  0.0180  0.2238 -0.2096
 2602SOL    HW119439   1.859   2.244   9.222  2.9235 -0.3755 -0.2725
 2602SOL    HW219440   1.940   2.225   9.102  1.0793  1.8376 -0.2322
 2603SOL     OW19441   1.014   4.642   0.038 -0.0808 -0.0853 -0.1664
 2603SOL    HW119442   0.933   4.689   0.018  0.3153  0.3098 -0.8617
 2603SOL    HW219443   1.079   4.698  17.731  0.0418  0.6672  1.0029
 2604SOL     OW19444   1.113   4.423   1.249 -0.3648  0.3032 -0.3356
 2604SOL    HW119445   1.108   4.333   1.282  0.1712  0.8037  1.1049
 2604SOL    HW219446   1.023   4.454   1.238 -0.4805 -0.2574 -0.9733
 2605SOL     OW19447   4.624   2.958  14.161  0.1619 -0.6361  0.6062
 2605SOL    HW119448   4.577   3.003  14.231  1.4685  2.0481 -0.2253
 2605SOL    HW219449   4.612   2.864  14.169 -0.8266 -0.6731 -1.1055
 2606SOL     OW19450   3.515   1.337   2.927 -0.0940  0.4230  0.1692
 2606SOL    HW119451   3.443   1.285   2.961  0.0430  0.9699  1.3263
 2606SOL    HW219452   3.564   1.352   3.008 -0.3281  0.9637  0.2088
 2607SOL     OW19453   3.275   2.790   7.809 -0.3781  0.3864 -0.2006
 2607SOL    HW119454   3.355   2.831   7.841  0.2720 -0.6582 -0.5041
 2607SOL    HW219455   3.222   2.869   7.799  1.3360  1.5206 -0.2847
 2608SOL     OW19456   4.481   1.283   5.035  0.3273  0.1041  0.0325
 2608SOL    HW119457   4.550   1.233   4.991 -0.1452  0.7525 -1.4464
 2608SOL    HW219458   4.516   1.343   5.100  0.8221 -2.1005  1.8182
 2609SOL     OW19459   0.302   1.455  13.087  0.1645 -0.1135  0.6017
 2609SOL    HW119460   0.294   1.361  13.072 -1.2756  0.8308 -4.5825
 2609SOL    HW219461   0.393   1.479  13.067 -0.1329 -0.9493 -1.7530
 2610SOL     OW19462   3.684   1.834   3.160 -0.2794 -0.0861  0.0801
 2610SOL    HW119463   3.740   1.763   3.128 -0.4101 -0.7120  1.2079
 2610SOL    HW219464   3.618   1.827   3.091 -0.6513 -0.3800  0.4650
 2611SOL     OW19465   4.177   3.477   6.617  0.4997  0.4175 -0.3683
 2611SOL    HW119466   4.173   3.392   6.659  0.9383  0.6118  0.0618
 2611SOL    HW219467   4.151   3.537   6.686 -0.4689  0.7510 -1.0282
 2612SOL     OW19468   0.039   0.656  16.883 -0.1231  0.6515 -0.6537
 2612SOL    HW119469   0.094   0.597  16.832 -1.2574 -0.6413 -0.3523
 2612SOL    HW219470   0.104   0.725  16.899  0.0382 -0.1364  2.0503
 2613SOL     OW19471   1.096   2.043  14.390 -0.3824 -0.5025 -0.2107
 2613SOL    HW119472   1.112   2.137  14.394 -1.1059 -0.3928  0.1370
 2613SOL    HW219473   1.187   2.019  14.408 -0.9939 -0.8701  2.3615
 2614SOL     OW19474   3.530   3.145  12.366 -0.7397 -0.0949  0.7526
 2614SOL    HW119475   3.518   3.104  12.452  0.3639 -0.8315  0.5452
 2614SOL    HW219476   3.520   3.239  12.385 -0.2080  0.4453 -1.6127
 2615SOL     OW19477   1.716   1.726   0.241  0.1812  0.1935  0.1308
 2615SOL    HW119478   1.798   1.772   0.255  1.0007 -1.2221 -0.0291
 2615SOL    HW219479   1.653   1.797   0.228  0.1258  0.2343  0.6112
 2616SOL     OW19480   2.089   4.309   3.329  0.5126  0.8546 -0.4465
 2616SOL    HW119481   2.126   4.286   3.414  1.6807  1.4387 -0.7968
 2616SOL    HW219482   2.016   4.370   3.343  0.8085  0.5308  2.4850
 2617SOL     OW19483   0.140   0.731  14.879  0.1086  0.1834  0.3138
 2617SOL    HW119484   0.195   0.763  14.950  0.9445 -0.3336 -0.0947
 2617SOL    HW219485   0.055   0.709  14.916  0.0028  1.5128  0.8558
 2618SOL     OW19486   3.307   2.386   2.635 -0.1446  0.4130  0.2932
 2618SOL    HW119487   3.396   2.400   2.603  0.0579  0.6507  0.9538
 2618SOL    HW219488   3.255   2.433   2.571  3.2104  3.1309 -0.4420
 2619SOL     OW19489   4.423   0.160   7.746  0.3695 -0.6977 -0.5539
 2619SOL    HW119490   4.338   0.191   7.714  0.3070  0.3869  0.6693
 2619SOL    HW219491   4.405   0.106   7.823 -0.6303 -2.0988 -1.7590
 2620SOL     OW19492   1.715   0.293   8.455  0.7962 -0.0631  0.1309
 2620SOL    HW119493   1.695   0.236   8.529 -2.8695  0.4644 -0.5006
 2620SOL    HW219494   1.721   0.227   8.386 -0.8603 -0.7691  0.6750
 2621SOL     OW19495   0.900   4.076  16.156  0.4887 -0.3647  0.3798
 2621SOL    HW119496   0.861   3.991  16.138 -1.0681 -0.2688  3.1956
 2621SOL    HW219497   0.992   4.050  16.164  0.6368 -0.5232 -2.0342
 2622SOL     OW19498   2.772   2.038   0.577 -0.1345  0.4734 -0.3244
 2622SOL    HW119499   2.730   1.953   0.563 -3.2283  1.7813  0.9080
 2622SOL    HW219500   2.806   2.061   0.491  0.2060  2.1217  0.2549
 2623SOL     OW19501   1.135   0.506   8.538 -0.0542  0.0823  0.3153
 2623SOL    HW119502   1.197   0.486   8.608  0.0733  0.8712  0.4268
 2623SOL    HW219503   1.190   0.492   8.462  0.7063  3.3983  0.2300
 2624SOL     OW19504   1.900   3.272   9.460  0.3345  0.7768 -1.3045
 2624SOL    HW119505   1.866   3.339   9.401 -1.1917  0.6630 -0.5387
 2624SOL    HW219506   1.853   3.197   9.425  0.6835  0.9159 -2.0578
 2625SOL     OW19507   2.663   4.695   4.138 -0.1663 -0.1812 -0.7059
 2625SOL    HW119508   2.664   0.049   4.176 -1.7915 -0.9420  1.0952
 2625SOL    HW219509   2.742   4.655   4.175 -0.1961  0.3085 -0.1049
 2626SOL     OW19510   1.411   2.486   7.327 -0.3839  1.1639  0.4444
 2626SOL    HW119511   1.503   2.490   7.301 -1.4718  0.3831 -3.4618
 2626SOL    HW219512   1.409   2.422   7.399  0.6912  0.1330 -0.4314
 2627SOL     OW19513   1.436   0.555   3.572  0.1103 -0.0481 -0.0810
 2627SOL    HW119514   1.379   0.530   3.644  2.2681 -0.8057  1.3614
 2627SOL    HW219515   1.516   0.516   3.606 -0.2686  0.2995  1.2160
 2628SOL     OW19516   0.368   1.687  14.556 -0.1790  0.0077 -0.0541
 2628SOL    HW119517   0.356   1.634  14.635  1.6730 -1.4057 -0.7064
 2628SOL    HW219518   0.403   1.620  14.497  0.1857 -1.3000  1.6287
 2629SOL     OW19519   3.034   2.571   8.246 -0.2292 -0.1891 -0.1733
 2629SOL    HW119520   2.955   2.543   8.200 -1.5506  0.9055  1.4264
 2629SOL    HW219521   3.003   2.593   8.334  0.0135 -2.1052  0.3883
 2630SOL     OW19522   1.563   1.778   1.281  0.5862 -0.3668  0.4245
 2630SOL    HW119523   1.578   1.684   1.272  1.1818 -0.1228 -1.0135
 2630SOL    HW219524   1.468   1.783   1.277  0.6221 -0.6704 -0.7048
 2631SOL     OW19525   3.126   1.421   2.115 -0.7050  0.5316  0.2392
 2631SOL    HW119526   3.057   1.447   2.176 -1.3335  0.3011 -0.3760
 2631SOL    HW219527   3.097   1.334   2.086  3.0726 -0.5574 -0.2920
 2632SOL     OW19528   2.893   1.699  11.333 -0.0023 -0.0160 -0.1423
 2632SOL    HW119529   2.968   1.703  11.392  1.2875  0.5801 -1.8237
 2632SOL    HW219530   2.824   1.686  11.398  0.4521 -0.8596  0.1735
 2633SOL     OW19531   0.055   0.120   0.310 -0.1067 -0.1422  0.0606
 2633SOL    HW119532   4.726   0.076   0.366  1.8440 -0.5098  1.9519
 2633SOL    HW219533   0.118   0.156   0.373  0.5919  0.0277 -0.7381
 2634SOL     OW19534   1.421   3.877   7.874 -0.0111  0.2364  0.4476
 2634SOL    HW119535   1.495   3.875   7.812 -0.0924 -1.6664  0.3927
 2634SOL    HW219536   1.405   3.971   7.877 -2.2681 -0.1529  0.9180
 2635SOL     OW19537   1.480   4.572   4.703  0.1007 -0.2380 -0.2049
 2635SOL    HW119538   1.549   4.577   4.637  1.9171 -1.1829  1.6000
 2635SOL    HW219539   1.516   4.510   4.767 -1.9695 -0.6144  0.6002
 2636SOL     OW19540   3.351   1.195   6.078  0.0690  0.3608  0.1346
 2636SOL    HW119541   3.297   1.167   6.152  1.0356  0.3077  0.8144
 2636SOL    HW219542   3.352   1.291   6.085  1.0599  0.4789 -1.5082
 2637SOL     OW19543   3.520   2.820   4.228 -0.0623 -0.6348  0.0086
 2637SOL    HW119544   3.553   2.855   4.311 -2.8766  3.1596 -0.4612
 2637SOL    HW219545   3.557   2.880   4.162 -0.9960  1.3796  1.3030
 2638SOL     OW19546   1.982   3.362   3.309 -0.6195  0.3663  0.0630
 2638SOL    HW119547   2.020   3.422   3.373 -3.1251 -0.4560  2.3207
 2638SOL    HW219548   1.972   3.424   3.236  0.9182 -1.3455 -1.6065
 2639SOL     OW19549   1.828   2.745  17.076  0.2780  0.3183 -0.0997
 2639SOL    HW119550   1.915   2.706  17.073 -0.5550 -1.6062  1.0031
 2639SOL    HW219551   1.824   2.779  16.986  3.3247  1.8247  0.3480
 2640SOL     OW19552   4.589   0.137   2.499  0.0513  0.0711  0.0483
 2640SOL    HW119553   4.573   0.210   2.439  2.1542 -0.9133 -1.6884
 2640SOL    HW219554   4.684   0.132   2.508 -0.2484 -2.9725  1.3659
 2641SOL     OW19555   3.101   1.756  15.038 -0.4379 -0.5078 -0.0722
 2641SOL    HW119556   3.016   1.743  14.995  0.0489 -0.8821 -0.9345
 2641SOL    HW219557   3.100   1.850  15.057  0.9758 -0.7551  1.2032
 2642SOL     OW19558   2.609   0.182  11.980 -0.2839 -0.6015 -0.0990
 2642SOL    HW119559   2.636   0.112  11.921  3.1154  0.1676  0.5657
 2642SOL    HW219560   2.683   0.196  12.039 -0.8237  4.6073 -0.7006
 2643SOL     OW19561   3.448   3.548  14.570 -0.0182 -0.2454 -0.0319
 2643SOL    HW119562   3.505   3.612  14.612  1.0876 -0.8434 -0.6342
 2643SOL    HW219563   3.367   3.598  14.576 -0.6675 -1.3442  0.4257
 2644SOL     OW19564   3.608   3.368  16.012  0.0721  0.2035 -0.2592
 2644SOL    HW119565   3.615   3.406  16.100  0.0882 -1.3388  0.4240
 2644SOL    HW219566   3.626   3.446  15.959  0.1146  0.0967 -0.4020
 2645SOL     OW19567   1.478   4.328   9.132  0.4295  0.6871 -0.1476
 2645SOL    HW119568   1.547   4.390   9.156  0.0150  0.8801  0.5565
 2645SOL    HW219569   1.458   4.286   9.216 -1.6064  0.6869 -0.6556
 2646SOL     OW19570   3.601   2.681   3.881  0.3874 -0.1293 -0.1512
 2646SOL    HW119571   3.691   2.707   3.897 -0.3346  2.0753  0.3575
 2646SOL    HW219572   3.589   2.689   3.786  2.0866  2.1395 -0.1782
 2647SOL     OW19573   0.339   4.237   2.789 -0.4229  0.2129 -0.0736
 2647SOL    HW119574   0.312   4.230   2.698  1.8761  0.7890 -0.8149
 2647SOL    HW219575   0.408   4.303   2.796  0.0920 -0.5436  1.9433
 2648SOL     OW19576   3.527   2.710   5.592  0.5435  0.0301 -0.6623
 2648SOL    HW119577   3.599   2.666   5.547 -0.8430 -3.5350  0.5958
 2648SOL    HW219578   3.581   2.770   5.643  0.0069 -1.4762  1.6930
 2649SOL     OW19579   0.071   0.266   2.032 -0.1486 -0.4212 -0.2545
 2649SOL    HW119580   0.054   0.357   2.006 -2.6460 -0.8097 -0.0050
 2649SOL    HW219581   0.160   0.253   1.999  0.1402 -2.1214  1.1845
 2650SOL     OW19582   2.669   0.718   3.558 -0.3968  0.2595 -0.3032
 2650SOL    HW119583   2.763   0.710   3.543 -0.2336 -0.3207  1.0307
 2650SOL    HW219584   2.640   0.756   3.475  1.9311  0.5647 -0.9705
 2651SOL     OW19585   2.990   3.341   8.059  0.1219  0.2232  0.3869
 2651SOL    HW119586   2.975   3.247   8.058 -0.2731  0.2891 -1.0752
 2651SOL    HW219587   3.080   3.343   8.093 -0.0597  1.3230  0.7986
 2652SOL     OW19588   1.014   2.978  16.705 -0.0832  0.3304  0.0288
 2652SOL    HW119589   0.992   3.002  16.795  0.9257  2.0067 -0.1595
 2652SOL    HW219590   1.053   3.060  16.676  0.9753  0.3094  1.3733
 2653SOL     OW19591   0.317   0.955   6.356  0.0711  0.4624  0.1647
 2653SOL    HW119592   0.292   0.994   6.440 -1.6350  1.8303 -0.9870
 2653SOL    HW219593   0.409   0.945   6.379 -0.1006 -0.7346  0.3657
 2654SOL     OW19594   4.637   3.498   1.772 -0.5648 -0.5041  0.0066
 2654SOL    HW119595   4.607   3.411   1.798  1.1605 -0.9842  0.3561
 2654SOL    HW219596   4.554   3.545   1.772  0.0586  0.6048  0.1046
 2655SOL     OW19597   2.815   1.416   9.473  0.5214  0.2335  0.0645
 2655SOL    HW119598   2.796   1.468   9.395 -0.8361  0.6797  0.6805
 2655SOL    HW219599   2.870   1.474   9.526  3.4869 -1.5527 -1.0780
 2656SOL     OW19600   4.613   2.211  14.703  0.6736 -0.1388  0.4476
 2656SOL    HW119601   4.709   2.219  14.707  0.3704  3.1225  0.8046
 2656SOL    HW219602   4.608   2.152  14.628 -1.4345  0.7048 -0.0795
 2657SOL     OW19603   1.180   4.275   4.895 -0.3320 -0.3187  0.0300
 2657SOL    HW119604   1.090   4.245   4.879  0.3070 -1.7130 -0.9452
 2657SOL    HW219605   1.237   4.208   4.855  0.1576  0.5965 -0.7963
 2658SOL     OW19606   1.248   4.331  12.887  0.6182 -0.3533  1.1148
 2658SOL    HW119607   1.336   4.295  12.900  0.1053 -1.8189  0.5196
 2658SOL    HW219608   1.221   4.338  12.978 -1.7995  1.5477  0.2399
 2659SOL     OW19609   2.209   1.828   6.233 -0.4754  0.0712 -0.3480
 2659SOL    HW119610   2.220   1.879   6.154 -4.7429  2.7263  0.7611
 2659SOL    HW219611   2.215   1.886   6.309 -1.1695 -1.3934  0.8466
 2660SOL     OW19612   1.332   0.903   3.630  0.2315 -0.6439 -0.2752
 2660SOL    HW119613   1.305   0.813   3.649  1.3602 -0.5270  1.9354
 2660SOL    HW219614   1.268   0.944   3.688  0.2948 -0.2657 -0.4751
 2661SOL     OW19615   3.375   2.301   6.676  0.0790  0.7177 -0.4048
 2661SOL    HW119616   3.294   2.259   6.706  1.1033 -1.2797 -0.3745
 2661SOL    HW219617   3.346   2.386   6.645 -0.2066  0.9138  0.4016
 2662SOL     OW19618   1.091   2.409   6.762 -0.4055  0.4812 -0.0289
 2662SOL    HW119619   0.997   2.413   6.777 -0.8153 -4.1138 -1.4398
 2662SOL    HW219620   1.109   2.331   6.711  2.5875  0.6087  0.7991
 2663SOL     OW19621   2.131   0.829   8.537  0.7528  0.1603  0.0144
 2663SOL    HW119622   2.151   0.868   8.622  0.3916  0.2198  0.0716
 2663SOL    HW219623   2.045   0.789   8.546  0.7587 -0.3257 -2.1957
 2664SOL     OW19624   2.704   2.912   0.820 -0.0409 -0.1420  0.3147
 2664SOL    HW119625   2.641   2.871   0.879  0.7588 -1.5087  0.1997
 2664SOL    HW219626   2.717   2.992   0.872  2.1510 -0.2999  0.0225
 2665SOL     OW19627   4.243   2.725   3.843 -0.1072 -0.0418  0.3475
 2665SOL    HW119628   4.210   2.772   3.919 -4.2634  0.1674 -1.5871
 2665SOL    HW219629   4.252   2.795   3.779 -0.8052  1.2964  1.7356
 2666SOL     OW19630   2.401   2.574  14.739 -0.1666 -0.2719 -0.2544
 2666SOL    HW119631   2.384   2.522  14.661  0.3053  1.2653 -1.3923
 2666SOL    HW219632   2.314   2.566  14.776 -0.5245  1.6004 -0.6743
 2667SOL     OW19633   3.861   3.158  16.682  0.0411 -0.3318  0.3396
 2667SOL    HW119634   3.789   3.206  16.721 -0.4278 -0.4083 -0.4334
 2667SOL    HW219635   3.930   3.165  16.748 -0.2048 -1.1790  0.6790
 2668SOL     OW19636   4.118   2.172  12.469 -0.4584 -0.3040 -0.5210
 2668SOL    HW119637   4.119   2.205  12.558 -2.5244  0.0543 -0.6303
 2668SOL    HW219638   4.213   2.173  12.451 -0.2587  0.5664  0.6455
 2669SOL     OW19639   1.301   1.726   2.692 -0.3608  0.0844 -0.1636
 2669SOL    HW119640   1.286   1.634   2.669  2.0650 -0.2664 -0.3174
 2669SOL    HW219641   1.226   1.752   2.745 -1.8837 -2.3305 -1.1322
 2670SOL     OW19642   2.031   1.546   4.070  0.3353  0.6835  0.0581
 2670SOL    HW119643   1.988   1.462   4.058  1.0904  0.2502  0.3417
 2670SOL    HW219644   2.112   1.533   4.020 -0.0528  1.0908 -0.6678
 2671SOL     OW19645   0.700   3.847   3.609 -0.0968  0.2832  0.5334
 2671SOL    HW119646   0.639   3.781   3.643  1.5419 -1.9330 -0.7651
 2671SOL    HW219647   0.679   3.841   3.516 -0.7225 -0.7274  0.7378
 2672SOL     OW19648   0.317   1.876   6.424 -0.2441 -0.0970  0.6319
 2672SOL    HW119649   0.234   1.846   6.388 -0.1368  0.5297 -0.1303
 2672SOL    HW219650   0.353   1.918   6.346 -0.8753  0.7605  0.8115
 2673SOL     OW19651   2.008   0.570   1.000 -0.3515  0.2994  0.3530
 2673SOL    HW119652   1.985   0.490   0.953 -0.4542  0.4777  0.1001
 2673SOL    HW219653   1.976   0.639   0.943  3.0318  0.0712 -1.8624
 2674SOL     OW19654   4.241   0.625   3.273  0.0378  0.3422  0.4544
 2674SOL    HW119655   4.331   0.607   3.246 -0.6994 -1.0059 -1.1281
 2674SOL    HW219656   4.187   0.635   3.195 -0.0668 -0.1718  0.4571
 2675SOL     OW19657   2.724   1.123   1.934  0.3210  0.2071  0.7691
 2675SOL    HW119658   2.796   1.164   1.886  0.3714  0.2065  0.8444
 2675SOL    HW219659   2.744   1.143   2.025  0.8404 -0.2488  0.7617
 2676SOL     OW19660   1.884   2.378   7.303 -0.0107  0.4593 -0.8533
 2676SOL    HW119661   1.831   2.332   7.368 -0.7417 -1.0108 -2.4808
 2676SOL    HW219662   1.872   2.326   7.223  0.1481  0.5102 -0.9118
 2677SOL     OW19663   4.681   3.797  15.108 -0.1273 -0.3203 -0.6651
 2677SOL    HW119664   4.641   3.713  15.128 -0.2255 -0.0865  0.1100
 2677SOL    HW219665   4.608   3.859  15.110  0.8719  0.9111 -1.3929
 2678SOL     OW19666   2.506   4.066   5.621 -0.2809  0.1080 -0.3009
 2678SOL    HW119667   2.427   4.060   5.675  0.4256 -2.1622  0.4698
 2678SOL    HW219668   2.565   4.064   5.696 -3.3448 -0.0752  2.0763
 2679SOL     OW19669   0.075   3.764  14.342 -0.4004  0.1368 -0.2159
 2679SOL    HW119670   0.031   3.692  14.298  1.7283 -2.1136  1.3141
 2679SOL    HW219671   0.139   3.782  14.273 -0.4755  0.0186 -0.3162
 2680SOL     OW19672   0.024   2.075   7.538 -0.2354  0.1514  0.3357
 2680SOL    HW119673   4.709   2.041   7.463  1.2684 -0.6503 -0.2888
 2680SOL    HW219674   0.107   2.103   7.501  0.5024 -2.7706 -0.1853
 2681SOL     OW19675   4.388   2.350   3.115 -0.2139 -0.3270  0.7102
 2681SOL    HW119676   4.378   2.410   3.189 -1.0867  0.7574 -0.2993
 2681SOL    HW219677   4.306   2.303   3.133  0.4957 -1.6199  0.6276
 2682SOL     OW19678   4.060   2.926   7.816  0.6103  0.6847 -0.0236
 2682SOL    HW119679   4.141   2.976   7.801  0.6339  0.6613  0.0263
 2682SOL    HW219680   3.999   3.000   7.812  0.0138  0.1791 -0.2524
 2683SOL     OW19681   1.602   3.412   7.967 -0.0309  0.3694 -0.6007
 2683SOL    HW119682   1.564   3.460   8.040  1.6104 -1.1848  1.2660
 2683SOL    HW219683   1.554   3.447   7.892  1.6446 -2.3614 -2.9540
 2684SOL     OW19684   4.000   3.203   4.846 -0.6263  0.1575 -0.0601
 2684SOL    HW119685   3.909   3.188   4.823 -0.0306  0.5869 -2.7770
 2684SOL    HW219686   4.028   3.111   4.846 -1.2073 -0.0213  2.0484
 2685SOL     OW19687   4.577   1.529   7.342  0.0131  0.1214  0.2277
 2685SOL    HW119688   4.487   1.547   7.367  0.3469 -0.7982  2.1728
 2685SOL    HW219689   4.572   1.526   7.247  1.0853 -2.1981  0.2337
 2686SOL     OW19690   1.882   3.210   4.465 -0.0015 -0.4761  0.5783
 2686SOL    HW119691   1.912   3.127   4.429  0.2538 -1.0319  2.0445
 2686SOL    HW219692   1.941   3.219   4.540 -0.8922  2.5014  0.9433
 2687SOL     OW19693   0.506   1.072   8.222 -0.5182  0.3978 -0.1351
 2687SOL    HW119694   0.576   1.132   8.199 -0.1947 -0.2450 -0.8176
 2687SOL    HW219695   0.426   1.124   8.230 -0.1278  0.7795  1.3029
 2688SOL     OW19696   4.025   2.296   5.877  0.5383  0.1213  0.2978
 2688SOL    HW119697   3.973   2.291   5.957 -2.4016 -1.8767 -1.7315
 2688SOL    HW219698   4.044   2.206   5.851 -2.1499  0.8391 -4.1487
 2689SOL     OW19699   1.011   0.257   3.158  0.3267  0.0615 -0.6116
 2689SOL    HW119700   1.007   0.262   3.253  0.2389 -1.2565 -0.5428
 2689SOL    HW219701   0.926   0.296   3.139 -0.3804 -1.0849  0.1543
 2690SOL     OW19702   1.197   1.611   7.438  0.1198  0.0116  0.0696
 2690SOL    HW119703   1.114   1.659   7.445  0.2596  0.1194  0.9128
 2690SOL    HW219704   1.165   1.554   7.368 -0.0465 -0.7905  0.8012
 2691SOL     OW19705   1.941   2.514  16.335  0.7190 -0.3677 -0.4228
 2691SOL    HW119706   1.911   2.601  16.312 -0.5689 -0.5291  0.6569
 2691SOL    HW219707   2.012   2.499  16.272 -0.1403  0.1306 -1.5015
 2692SOL     OW19708   4.562   2.360   9.126 -0.0090 -0.1691  0.6777
 2692SOL    HW119709   4.519   2.308   9.195 -0.4830  0.2973  0.7292
 2692SOL    HW219710   4.647   2.317   9.115  0.0592  0.2334 -0.3249
 2693SOL     OW19711   3.340   4.028  12.806 -0.0706  0.0204 -0.1745
 2693SOL    HW119712   3.405   4.097  12.804 -0.6446  0.5481 -0.7954
 2693SOL    HW219713   3.265   4.087  12.811 -1.1349 -1.0186 -3.8380
 2694SOL     OW19714   2.917   2.302   2.300 -0.0210 -1.0147 -0.1536
 2694SOL    HW119715   2.893   2.211   2.282 -0.4930 -0.5759 -1.8056
 2694SOL    HW219716   3.010   2.298   2.274 -0.3685 -0.8803 -1.4172
 2695SOL     OW19717   0.897   2.884   6.100 -0.1293  0.4392 -0.2802
 2695SOL    HW119718   0.858   2.797   6.109  1.4508 -0.0165  1.9993
 2695SOL    HW219719   0.901   2.912   6.191  0.3285  0.8749 -0.4370
 2696SOL     OW19720   2.812   2.243   8.370  0.2171 -0.0835 -0.3682
 2696SOL    HW119721   2.854   2.271   8.451 -0.9765  0.4517  0.0580
 2696SOL    HW219722   2.758   2.171   8.404  0.4840  0.3588  0.9867
 2697SOL     OW19723   2.817   4.021   6.296 -0.5818 -0.7143 -0.0500
 2697SOL    HW119724   2.868   4.000   6.374 -1.7817 -0.2097  0.8952
 2697SOL    HW219725   2.850   3.968   6.224 -2.2007 -1.6337 -0.1241
 2698SOL     OW19726   0.095   3.449   6.453 -0.8857 -0.0577  0.5643
 2698SOL    HW119727   0.151   3.525   6.434 -0.2382 -0.9097 -0.9628
 2698SOL    HW219728   0.027   3.491   6.506 -0.1093 -0.0086  1.5235
 2699SOL     OW19729   3.793   3.523   0.648  0.0165 -0.1350 -0.4060
 2699SOL    HW119730   3.839   3.460   0.593  0.5522  0.0559 -0.1846
 2699SOL    HW219731   3.821   3.602   0.602  0.8143 -0.5691 -0.6657
 2700SOL     OW19732   2.802   2.249  11.987 -0.3719 -0.0749 -0.0965
 2700SOL    HW119733   2.790   2.162  12.024 -2.3403 -0.4449 -1.6518
 2700SOL    HW219734   2.878   2.234  11.931 -0.7819  0.4300 -0.7774
 2701SOL     OW19735   2.550   4.698   2.764 -0.7595 -0.1064 -0.0452
 2701SOL    HW119736   2.578   4.732   2.679  0.8177 -0.0402  0.5077
 2701SOL    HW219737   2.455   4.689   2.754 -0.5074 -1.4165 -1.2019
 2702SOL     OW19738   1.895   3.103   6.023  0.7293 -0.8947 -0.0959
 2702SOL    HW119739   1.836   3.071   5.955 -1.5182 -0.1690  1.5101
 2702SOL    HW219740   1.978   3.086   5.979  0.8277  1.4058 -0.7893
 2703SOL     OW19741   0.401   3.105   9.618 -0.2220  0.5064 -0.7606
 2703SOL    HW119742   0.476   3.164   9.605  1.2308 -1.3974 -0.9742
 2703SOL    HW219743   0.451   3.026   9.638 -0.6269  0.6721  0.8774
 2704SOL     OW19744   2.569   0.299   6.076 -0.2669 -0.1436  0.0102
 2704SOL    HW119745   2.638   0.354   6.114  0.6353 -1.8298  0.7922
 2704SOL    HW219746   2.533   0.257   6.154 -0.4729 -0.5472 -0.3019
 2705SOL     OW19747   2.002   4.308   2.961 -0.0040 -0.6107  0.0570
 2705SOL    HW119748   2.009   4.266   3.047  0.9603  1.0507  0.8031
 2705SOL    HW219749   2.035   4.235   2.908 -0.4761  0.7051 -2.0252
 2706SOL     OW19750   1.063   2.831  14.444 -0.5748 -0.4955 -0.1957
 2706SOL    HW119751   1.135   2.894  14.452  2.5824 -3.9313 -1.2726
 2706SOL    HW219752   1.001   2.876  14.500 -2.6326 -4.1037  0.4260
 2707SOL     OW19753   3.794   2.330   6.371 -0.2270 -0.2219 -0.3833
 2707SOL    HW119754   3.712   2.321   6.323 -0.2497  2.0592 -0.8061
 2707SOL    HW219755   3.792   2.253   6.427  0.0265 -0.5812 -0.8719
 2708SOL     OW19756   0.763   3.898   8.265 -0.0467 -0.3787  0.3717
 2708SOL    HW119757   0.797   3.929   8.349 -0.3534  1.3404 -0.1351
 2708SOL    HW219758   0.730   3.981   8.231  2.3121  0.5997  0.5124
 2709SOL     OW19759   4.562   1.264   3.879  0.1846  0.2402  0.5205
 2709SOL    HW119760   4.562   1.254   3.784 -1.8027  0.2083  0.5312
 2709SOL    HW219761   4.469   1.258   3.901 -0.2913  0.3558 -1.4767
 2710SOL     OW19762   2.791   0.139   4.839 -0.3668 -0.4112 -0.7495
 2710SOL    HW119763   2.852   0.163   4.909 -2.2951 -2.5165  1.6621
 2710SOL    HW219764   2.809   0.201   4.768  1.3411 -0.0984 -0.0263
 2711SOL     OW19765   2.237   1.841  15.772  0.0763  0.7719  0.3534
 2711SOL    HW119766   2.283   1.924  15.790  0.0454  0.7093  0.7262
 2711SOL    HW219767   2.209   1.843  15.680  0.2089  1.6865  0.3330
 2712SOL     OW19768   4.732   2.461   9.706 -0.9001 -0.2536 -0.9130
 2712SOL    HW119769   0.069   2.417   9.659  0.8917  0.3260  1.2445
 2712SOL    HW219770   4.720   2.543   9.658  2.9811  1.6862  1.4943
 2713SOL     OW19771   0.940   0.700   1.710 -0.1389 -0.6360  0.3293
 2713SOL    HW119772   1.023   0.687   1.664 -0.4043  4.1500 -1.5249
 2713SOL    HW219773   0.895   0.618   1.692 -0.3269 -0.4751  0.0713
 2714SOL     OW19774   4.273   2.245   7.378 -0.0951  0.2003 -0.1350
 2714SOL    HW119775   4.300   2.155   7.398 -0.1105 -0.0595 -1.2738
 2714SOL    HW219776   4.178   2.239   7.386 -0.1420  1.3282  0.1477
 2715SOL     OW19777   4.029   0.086   0.593  0.0196 -0.1425 -0.3335
 2715SOL    HW119778   4.092   0.037   0.540 -1.5753 -0.9532 -1.4932
 2715SOL    HW219779   4.071   0.171   0.582 -0.0417 -0.1163 -0.3630
 2716SOL     OW19780   4.248   1.683   4.849 -0.0561  0.4586 -0.1307
 2716SOL    HW119781   4.165   1.637   4.840  0.7196 -1.2661  1.5838
 2716SOL    HW219782   4.244   1.722   4.761 -0.1237  1.8247  0.4738
 2717SOL     OW19783   4.540   4.555   7.806  0.4389 -0.1412  0.3357
 2717SOL    HW119784   4.615   4.516   7.763  1.1704 -0.7351  2.1343
 2717SOL    HW219785   4.577   4.643   7.819  0.4069 -0.0543 -0.1855
 2718SOL     OW19786   3.916   0.168  10.545  0.2635 -0.3306  0.6328
 2718SOL    HW119787   4.002   0.204  10.566  0.6867 -0.0951 -1.5036
 2718SOL    HW219788   3.929   0.088  10.495 -1.5494  0.3325 -0.8868
 2719SOL     OW19789   4.192   2.455   9.377 -0.0610  0.2202  0.0816
 2719SOL    HW119790   4.229   2.503   9.303 -0.7335  0.6716  0.0325
 2719SOL    HW219791   4.267   2.440   9.433  1.2889  0.3300 -1.7026
 2720SOL     OW19792   4.686   2.761   5.398 -0.3615  0.2663 -0.8899
 2720SOL    HW119793   4.694   2.689   5.336 -2.3477  0.4362 -1.3630
 2720SOL    HW219794   0.042   2.764   5.430 -0.2527 -1.3243 -1.0483
 2721SOL     OW19795   2.034   4.356  10.060 -0.0030  0.0720  0.1805
 2721SOL    HW119796   1.981   4.432  10.036  2.4825  1.8945  0.4582
 2721SOL    HW219797   2.066   4.324   9.976  2.7603  0.1567  1.1935
 2722SOL     OW19798   2.307   4.238  12.821 -0.4637  0.2562  0.1947
 2722SOL    HW119799   2.288   4.332  12.817 -0.3896  0.2246 -0.9176
 2722SOL    HW219800   2.382   4.229  12.763 -0.1072  2.0749  0.3690
 2723SOL     OW19801   2.264   2.057  11.201  0.2902  0.4501 -0.0571
 2723SOL    HW119802   2.247   2.111  11.124 -1.1851 -0.5108 -0.4029
 2723SOL    HW219803   2.267   2.127  11.267 -1.2144 -2.1000  2.7352
 2724SOL     OW19804   1.772   2.431   7.747 -0.0757 -0.0425 -0.3957
 2724SOL    HW119805   1.790   2.498   7.681  0.8126 -2.0634 -2.1852
 2724SOL    HW219806   1.678   2.437   7.764  0.4794  4.0615  1.3053
 2725SOL     OW19807   2.989   3.746   5.365 -0.3432  0.1093 -0.0159
 2725SOL    HW119808   3.005   3.810   5.434  0.6655 -0.4811  0.2861
 2725SOL    HW219809   3.052   3.677   5.384 -0.3216 -0.5062 -2.2985
 2726SOL     OW19810   3.745   2.540   4.186 -0.3370  0.0421 -0.4816
 2726SOL    HW119811   3.792   2.553   4.103  0.2646 -0.0813 -0.1620
 2726SOL    HW219812   3.817   2.513   4.244 -2.6845 -0.7270  2.0454
 2727SOL     OW19813   2.661   4.607   5.432  0.7350  0.9471  0.2388
 2727SOL    HW119814   2.653   4.659   5.511 -1.9107  1.1575 -0.1692
 2727SOL    HW219815   2.638   4.665   5.359 -0.7107 -0.5334 -0.5186
 2728SOL     OW19816   1.718   3.740   2.405  0.0278 -0.1471 -0.4048
 2728SOL    HW119817   1.684   3.816   2.359 -1.1747 -0.9545 -0.8598
 2728SOL    HW219818   1.657   3.674   2.370  0.4003 -0.0453 -1.2621
 2729SOL     OW19819   3.309   1.032  15.396  0.1850  0.0281 -0.7121
 2729SOL    HW119820   3.344   0.997  15.478  0.6543  1.4852 -0.2859
 2729SOL    HW219821   3.394   1.031  15.352  0.6965  0.8665  0.2575
 2730SOL     OW19822   1.532   0.476   8.446  0.0262 -0.0974  0.0726
 2730SOL    HW119823   1.528   0.498   8.539  0.4396 -1.5044  0.4159
 2730SOL    HW219824   1.592   0.402   8.444 -2.7223 -2.3807  0.8588
 2731SOL     OW19825   1.615   4.398   2.007  0.1945 -0.1579  0.2241
 2731SOL    HW119826   1.679   4.364   1.945 -0.1674  0.0769 -0.2786
 2731SOL    HW219827   1.625   4.493   2.005  0.0287 -0.1295  0.7428
 2732SOL     OW19828   0.193   0.630   4.197  0.3598  0.1892 -0.2546
 2732SOL    HW119829   0.204   0.579   4.277  1.4137  1.0867  0.1722
 2732SOL    HW219830   0.223   0.714   4.231  0.9373 -0.3120  0.4722
 2733SOL     OW19831   1.375   0.009  16.348  0.5648  0.1119 -0.0063
 2733SOL    HW119832   1.396   0.015  16.255  0.1373 -1.3792 -0.2079
 2733SOL    HW219833   1.399   0.097  16.375  0.3670 -0.3470  1.6899
 2734SOL     OW19834   3.067   1.868  11.554 -0.1357  0.1983 -0.3543
 2734SOL    HW119835   3.116   1.859  11.636  4.7781  0.3593 -3.3281
 2734SOL    HW219836   2.989   1.907  11.595 -0.4502 -1.5325  0.6887
 2735SOL     OW19837   1.931   2.607   3.893 -0.6757 -0.2326 -0.2476
 2735SOL    HW119838   1.926   2.651   3.979  0.7297  1.6318 -1.1091
 2735SOL    HW219839   2.023   2.626   3.871 -0.3909 -0.6854  0.5420
 2736SOL     OW19840   3.332   4.130   8.246  0.1403 -0.6821  0.3713
 2736SOL    HW119841   3.356   4.180   8.324 -0.4865 -0.2593  0.2970
 2736SOL    HW219842   3.379   4.181   8.181 -1.8095  2.3095  1.2570
 2737SOL     OW19843   2.514   1.418  11.426  0.2764 -0.1327 -0.4362
 2737SOL    HW119844   2.484   1.504  11.397 -1.0582 -0.4234  0.1056
 2737SOL    HW219845   2.552   1.441  11.510  1.0448 -1.2446 -0.4775
 2738SOL     OW19846   0.408   1.692   3.922  0.1333 -0.0978 -0.2545
 2738SOL    HW119847   0.366   1.769   3.885 -1.0733 -1.9097 -2.6393
 2738SOL    HW219848   0.365   1.624   3.871 -1.3638  1.3384 -0.9178
 2739SOL     OW19849   1.093   2.608   2.195 -0.3460  0.1497  0.6765
 2739SOL    HW119850   1.100   2.702   2.210  0.1692  0.5162 -1.9118
 2739SOL    HW219851   1.152   2.578   2.264  1.3212  0.0105 -0.8039
 2740SOL     OW19852   1.187   0.456  17.676 -0.2539  0.1816 -0.4652
 2740SOL    HW119853   1.282   0.444  17.677 -0.5590 -2.1122  0.2834
 2740SOL    HW219854   1.173   0.433  17.585  2.5138  0.3009 -0.9269
 2741SOL     OW19855   3.319   0.005   0.451 -0.3994 -0.2705  0.2695
 2741SOL    HW119856   3.362   4.694   0.523  0.4386  1.6075  0.9490
 2741SOL    HW219857   3.241   0.039   0.495  1.0069  1.4795  1.3836
 2742SOL     OW19858   2.135   0.914   8.828 -0.0571  0.4879  0.3266
 2742SOL    HW119859   2.067   0.903   8.895 -1.4194 -1.5853 -1.3522
 2742SOL    HW219860   2.176   0.992   8.864  0.0705  0.1829  0.8342
 2743SOL     OW19861   1.440   4.532  12.822 -0.1046  0.0828 -0.0401
 2743SOL    HW119862   1.421   4.453  12.872  0.9293 -0.8113 -1.0610
 2743SOL    HW219863   1.428   4.489  12.737 -3.0232 -0.0211  0.4070
 2744SOL     OW19864   4.024   2.610   5.829  0.1784 -0.2937 -0.8746
 2744SOL    HW119865   4.019   2.516   5.814  0.7914 -0.3454 -0.7253
 2744SOL    HW219866   3.969   2.608   5.907 -0.2187 -3.0914 -1.2348
 2745SOL     OW19867   3.177   0.354   6.144 -0.0605  0.4366 -0.3846
 2745SOL    HW119868   3.159   0.261   6.159 -2.5406  0.6580 -1.8985
 2745SOL    HW219869   3.222   0.354   6.059  1.0189 -2.6300  0.1857
 2746SOL     OW19870   1.076   1.915  13.419  0.0808 -0.6156  0.3617
 2746SOL    HW119871   1.132   1.887  13.346 -0.0229 -0.0614  0.0706
 2746SOL    HW219872   1.049   1.830  13.454 -1.3585  0.0488  0.8598
 2747SOL     OW19873   3.889   3.973   5.932 -0.0945 -0.1630 -0.0430
 2747SOL    HW119874   3.878   4.013   5.846 -1.5043  0.0312  0.2249
 2747SOL    HW219875   3.849   4.035   5.993 -0.7890  0.7625 -1.4569
 2748SOL     OW19876   3.960   0.050   2.008 -0.2939  0.2048  0.1350
 2748SOL    HW119877   4.035   0.068   1.952  1.0212 -1.6158  1.2914
 2748SOL    HW219878   3.992   4.709   2.059  2.8729  0.6168 -1.2336
 2749SOL     OW19879   0.646   0.990   1.678 -0.2885  0.0835 -0.2100
 2749SOL    HW119880   0.736   0.982   1.708  0.8970  2.3190 -3.1172
 2749SOL    HW219881   0.656   0.974   1.584 -0.0964  1.4747 -0.4294
 2750SOL     OW19882   2.965   1.683  12.190  0.3268  0.1059 -0.0970
 2750SOL    HW119883   2.965   1.711  12.281 -0.9241 -1.9803  0.5298
 2750SOL    HW219884   3.002   1.595  12.199  1.7643  0.5495 -1.6921
 2751SOL     OW19885   2.503   3.100  14.880 -0.3533 -0.0987  0.4158
 2751SOL    HW119886   2.587   3.134  14.910  0.0898 -1.0611  0.2724
 2751SOL    HW219887   2.492   3.136  14.792 -0.2901 -0.1011  0.4070
 2752SOL     OW19888   3.772   1.487   7.025 -0.0076 -0.0392  0.4331
 2752SOL    HW119889   3.727   1.571   7.025  0.4616  0.2214 -1.4615
 2752SOL    HW219890   3.796   1.495   6.933 -0.8120  2.0079  0.4119
 2753SOL     OW19891   3.478   1.760   5.871 -0.3977 -0.1681 -0.4259
 2753SOL    HW119892   3.543   1.694   5.846 -0.7136 -1.9209  3.4568
 2753SOL    HW219893   3.395   1.740   5.827 -0.8257  1.5144 -0.3626
 2754SOL     OW19894   2.871   0.482   1.335  0.1573  0.1327 -0.7898
 2754SOL    HW119895   2.782   0.452   1.316 -0.6170  0.5021  2.2940
 2754SOL    HW219896   2.863   0.528   1.418 -0.1470  1.4570 -1.5590
 2755SOL     OW19897   0.258   1.773  12.900 -0.2007 -0.3616  0.3303
 2755SOL    HW119898   0.292   1.700  12.848  0.4391  1.8252 -2.3625
 2755SOL    HW219899   0.316   1.766  12.976 -0.1636 -2.9511  0.0787
 2756SOL     OW19900   3.039   0.604  14.186 -0.0316  0.4806 -0.1433
 2756SOL    HW119901   3.130   0.580  14.166  0.8807  4.0849 -0.3711
 2756SOL    HW219902   3.039   0.587  14.280 -1.9363  0.7359 -0.1092
 2757SOL     OW19903   3.868   1.204   3.807 -0.3336 -0.4445  0.5515
 2757SOL    HW119904   3.777   1.232   3.795 -0.0132  1.6540  2.9843
 2757SOL    HW219905   3.897   1.214   3.716 -2.1702  2.3010  0.2395
 2758SOL     OW19906   3.098   0.425   6.395 -0.3027  0.6132  0.2541
 2758SOL    HW119907   3.171   0.486   6.384  0.5811 -0.3561  0.7504
 2758SOL    HW219908   3.125   0.356   6.334 -2.6281  0.8730 -1.0914
 2759SOL     OW19909   1.175   1.193   4.284  0.2533  0.9362 -0.5717
 2759SOL    HW119910   1.201   1.139   4.358  0.9295  3.1710  0.8372
 2759SOL    HW219911   1.256   1.195   4.233  1.8898 -1.7049  1.9050
 2760SOL     OW19912   1.365   1.370   9.286  0.4682  0.8026  0.0336
 2760SOL    HW119913   1.431   1.346   9.221 -1.8818 -0.3137 -1.9419
 2760SOL    HW219914   1.304   1.296   9.288  0.1972  0.9839 -1.1122
 2761SOL     OW19915   0.140   2.487   3.119  0.1850  0.3177  0.2949
 2761SOL    HW119916   0.127   2.517   3.029  4.5028  0.2907 -0.3137
 2761SOL    HW219917   0.201   2.417   3.100 -2.0008 -0.4042 -4.0508
 2762SOL     OW19918   4.557   3.273   8.913  0.4094  0.1508 -0.7793
 2762SOL    HW119919   4.499   3.347   8.932 -0.7889 -0.7430 -0.8893
 2762SOL    HW219920   4.496   3.213   8.869 -0.6190 -0.9646  2.1447
 2763SOL     OW19921   4.341   3.418   7.378  0.5518 -0.3054 -0.0846
 2763SOL    HW119922   4.307   3.338   7.418 -0.2985 -0.0251 -0.2255
 2763SOL    HW219923   4.305   3.488   7.434 -1.7879 -0.8111 -0.9318
 2764SOL     OW19924   2.015   1.172   6.272  0.0591  0.4921 -0.1545
 2764SOL    HW119925   2.107   1.160   6.250  0.2042  3.3901 -1.0571
 2764SOL    HW219926   2.022   1.151   6.365  0.3242  2.7347  0.3289
 2765SOL     OW19927   1.101   3.523   8.093  0.1727  0.1953  0.3216
 2765SOL    HW119928   1.182   3.567   8.065 -0.7025  0.1050 -2.3201
 2765SOL    HW219929   1.034   3.586   8.119 -2.9736 -2.6946 -0.8355
 2766SOL     OW19930   0.234   1.163  16.985 -0.7885  1.0111 -0.9283
 2766SOL    HW119931   0.307   1.145  17.044  0.0717 -0.3088 -2.3955
 2766SOL    HW219932   0.260   1.170  16.893  0.3359  2.0032 -0.5386
 2767SOL     OW19933   0.392   3.341   8.451  0.0325  0.0025  0.6250
 2767SOL    HW119934   0.352   3.386   8.376 -2.6113 -2.4681  0.5365
 2767SOL    HW219935   0.318   3.334   8.510  0.6295 -0.4196  1.3190
 2768SOL     OW19936   4.285   3.208   6.328  0.6779  0.4907 -0.6329
 2768SOL    HW119937   4.298   3.220   6.234  0.9553  0.0140 -0.6578
 2768SOL    HW219938   4.199   3.167   6.331  0.7513  0.5368  2.2254
 2769SOL     OW19939   1.270   2.840   6.829 -0.2742  0.0489  0.0252
 2769SOL    HW119940   1.291   2.747   6.836  1.8813  0.4563 -1.0268
 2769SOL    HW219941   1.199   2.845   6.766 -0.4191 -1.6100  0.0614
 2770SOL     OW19942   3.411   0.702   2.332 -0.2684  0.6045 -0.2611
 2770SOL    HW119943   3.455   0.764   2.389 -0.5673  0.4224  0.1635
 2770SOL    HW219944   3.316   0.712   2.342 -0.3082 -0.4251  0.4199
 2771SOL     OW19945   0.111   2.081  13.604  0.1782 -0.6295  0.0856
 2771SOL    HW119946   0.150   2.163  13.635  0.0580  0.2799 -2.1646
 2771SOL    HW219947   0.184   2.022  13.625  0.0338 -0.8972 -0.1678
 2772SOL     OW19948   0.210   0.818  14.242  0.7662 -0.2364  0.0720
 2772SOL    HW119949   0.135   0.873  14.267 -0.8365 -1.6926 -1.5051
 2772SOL    HW219950   0.183   0.790  14.154 -1.6843  1.0179  0.4145
 2773SOL     OW19951   0.287   1.018  15.323  1.0983 -0.0054  0.0105
 2773SOL    HW119952   0.279   1.094  15.265 -1.5873 -1.0737 -1.0046
 2773SOL    HW219953   0.203   1.011  15.368  0.7767  0.3379 -0.5292
 2774SOL     OW19954   1.631   3.139   4.339 -0.3271  0.0145  0.2304
 2774SOL    HW119955   1.694   3.206   4.366 -1.2357  1.2199 -0.6088
 2774SOL    HW219956   1.569   3.145   4.413 -0.3256  3.0843  0.0059
 2775SOL     OW19957   0.120   1.286  11.020  0.2836 -0.2627 -0.2327
 2775SOL    HW119958   0.125   1.206  11.072 -1.1904  0.2994  0.7551
 2775SOL    HW219959   0.046   1.275  10.961 -0.7103 -0.7572  1.1249
 2776SOL     OW19960   2.730   2.921   3.541 -0.3731  0.4653  0.2083
 2776SOL    HW119961   2.683   2.977   3.603 -0.2372 -1.0512  1.6530
 2776SOL    HW219962   2.666   2.887   3.478 -0.6427 -0.1254  0.8144
 2777SOL     OW19963   3.048   2.684   9.709 -0.2937  0.3130  0.2578
 2777SOL    HW119964   3.054   2.599   9.664  1.0926  0.1351  0.7482
 2777SOL    HW219965   2.963   2.683   9.753  0.1949  1.4659  1.2252
 2778SOL     OW19966   1.012   3.573  13.089  0.0314  0.0116 -0.4072
 2778SOL    HW119967   1.006   3.662  13.054  0.5714 -0.1541 -0.9293
 2778SOL    HW219968   1.073   3.576  13.163 -0.0416  0.1211 -0.3515
 2779SOL     OW19969   2.543   1.310   4.347 -0.2959 -1.0113  0.4970
 2779SOL    HW119970   2.499   1.394   4.358 -0.2691 -0.8280 -0.7994
 2779SOL    HW219971   2.623   1.342   4.306 -0.8253  0.9439  0.9934
 2780SOL     OW19972   1.389   2.698  13.569 -0.7296 -0.1875 -0.4859
 2780SOL    HW119973   1.315   2.642  13.596  1.2647 -3.5210 -1.9886
 2780SOL    HW219974   1.343   2.772  13.528  1.8514  0.8429 -1.4766
 2781SOL     OW19975   2.530   0.068   8.247  0.6779  0.1456 -0.0428
 2781SOL    HW119976   2.600   0.058   8.181  1.9516  1.1606  1.1602
 2781SOL    HW219977   2.566   0.032   8.328 -3.0247  1.8316  2.3108
 2782SOL     OW19978   2.931   4.355  10.798 -0.5315  0.1216  0.1791
 2782SOL    HW119979   2.865   4.424  10.794 -0.2460  0.2897 -1.5877
 2782SOL    HW219980   2.870   4.283  10.779  0.5509 -0.4937 -0.9181
 2783SOL     OW19981   3.315   2.065   3.768  0.4254  0.3536  0.1179
 2783SOL    HW119982   3.241   2.014   3.737  1.4757  0.5802 -2.7337
 2783SOL    HW219983   3.280   2.106   3.847 -0.0301  2.9110 -1.3952
 2784SOL     OW19984   0.515   0.112   1.803  0.5800 -0.2889 -0.1076
 2784SOL    HW119985   0.599   0.158   1.800 -0.5248  1.6343 -1.3108
 2784SOL    HW219986   0.542   0.038   1.749 -2.4854 -2.6479  1.5662
 2785SOL     OW19987   1.117   2.705   8.007 -0.2242 -0.4103 -0.3747
 2785SOL    HW119988   1.157   2.682   7.924 -0.6287 -0.8020 -0.4568
 2785SOL    HW219989   1.042   2.646   8.005 -1.3006  0.9635 -0.6984
 2786SOL     OW19990   0.605   0.032  16.360  0.1876 -0.7670  0.0281
 2786SOL    HW119991   0.650   4.687  16.330  2.6524  0.4820  0.4835
 2786SOL    HW219992   0.666   0.105  16.352  0.5998 -0.8908  1.8488
 2787SOL     OW19993   4.301   1.102   2.685  0.3088  0.2007  0.2569
 2787SOL    HW119994   4.289   1.015   2.647  2.2201 -0.9715  2.2954
 2787SOL    HW219995   4.395   1.103   2.705 -0.4957  0.8377  3.9909
 2788SOL     OW19996   4.322   2.150  12.764  0.5507  0.2050  0.2056
 2788SOL    HW119997   4.322   2.059  12.735 -2.1413 -0.7785  3.2806
 2788SOL    HW219998   4.414   2.173  12.750  0.8430 -1.1268 -0.0111
 2789SOL     OW19999   0.418   1.792   5.493  0.1007 -0.1788 -0.2156
 2789SOL    HW120000   0.452   1.742   5.419  1.1139 -1.4020  1.0805
 2789SOL    HW220001   0.499   1.808   5.541 -0.6154  1.5633  0.4249
 2790SOL     OW20002   3.417   1.390  11.477  0.0999  0.2429  0.2793
 2790SOL    HW120003   3.407   1.405  11.383 -0.3168  0.5841  0.3785
 2790SOL    HW220004   3.454   1.301  11.473  0.4103  0.3658  0.4088
 2791SOL     OW20005   1.189   4.399   7.983 -0.2210  0.0747  0.3141
 2791SOL    HW120006   1.215   4.473   7.928 -0.4401  0.2968  0.5136
 2791SOL    HW220007   1.221   4.429   8.068 -0.3371  1.9540 -0.3075
 2792SOL     OW20008   2.454   1.023   2.460 -0.2652 -0.1977 -0.1689
 2792SOL    HW120009   2.549   1.027   2.446 -0.1637 -0.5100  0.4345
 2792SOL    HW220010   2.453   0.927   2.465  0.5907 -0.2986 -1.7791
 2793SOL     OW20011   3.290   2.895   9.142  0.9026 -0.7527 -0.1437
 2793SOL    HW120012   3.331   2.956   9.203 -1.0420 -0.2689  0.6876
 2793SOL    HW220013   3.293   2.939   9.057 -3.7109  0.3491  0.2843
 2794SOL     OW20014   3.649   0.727  14.291  0.4240 -0.2451 -0.7537
 2794SOL    HW120015   3.573   0.782  14.271 -1.5750 -2.4290  0.7888
 2794SOL    HW220016   3.653   0.664  14.219  0.1540  0.0510 -1.0253
 2795SOL     OW20017   3.284   0.158   0.978  0.2520  0.2345 -0.1699
 2795SOL    HW120018   3.220   0.135   1.044 -0.4424  0.1553 -0.8735
 2795SOL    HW220019   3.227   0.199   0.913 -0.3056  2.6137  1.8290
 2796SOL     OW20020   1.997   2.568  16.601 -0.1149 -0.0435 -0.1572
 2796SOL    HW120021   2.002   2.664  16.607 -0.7283  0.0046 -0.4494
 2796SOL    HW220022   1.974   2.557  16.509 -1.4857 -2.6872  0.5235
 2797SOL     OW20023   2.444   1.221  13.816 -0.0114 -0.0719  0.3555
 2797SOL    HW120024   2.366   1.272  13.838  0.2856 -0.3163  2.0108
 2797SOL    HW220025   2.412   1.144  13.769 -1.3969  1.2022 -0.7682
 2798SOL     OW20026   3.548   2.272  13.901  0.2722  0.2484 -0.3659
 2798SOL    HW120027   3.531   2.240  13.812 -1.6656 -0.9942  0.4580
 2798SOL    HW220028   3.470   2.328  13.905  0.1920 -0.0581  1.9388
 2799SOL     OW20029   4.242   2.121   3.967  0.4491 -0.3047 -0.2976
 2799SOL    HW120030   4.246   2.190   4.033 -0.6526 -0.2481 -0.2914
 2799SOL    HW220031   4.149   2.099   3.969 -0.1717  2.4318  0.8948
 2800SOL     OW20032   3.499   3.898   3.972  0.2404 -0.5877  0.0085
 2800SOL    HW120033   3.567   3.860   4.028 -0.2971  0.6551  1.5114
 2800SOL    HW220034   3.532   3.985   3.950 -0.1146 -0.2003  1.0308
 2801SOL     OW20035   2.890   0.569   4.186  0.4733 -0.5464 -0.4439
 2801SOL    HW120036   2.971   0.556   4.236  1.6778  0.3098 -2.1546
 2801SOL    HW220037   2.910   0.555   4.094  1.8491  1.6522 -0.4633
 2802SOL     OW20038   3.843   2.980   4.927  0.6150 -0.7169  0.2070
 2802SOL    HW120039   3.818   2.901   4.975  1.6335 -0.0387  1.8560
 2802SOL    HW220040   3.793   2.967   4.846  1.7420  0.9713 -0.7412
 2803SOL     OW20041   0.393   4.069   3.730 -0.0047  0.1956 -0.2743
 2803SOL    HW120042   0.435   4.155   3.721  1.9244 -0.8249 -0.9356
 2803SOL    HW220043   0.324   4.081   3.665  1.0422  0.4376 -1.3478
 2804SOL     OW20044   0.729   1.542   6.544  0.2644 -0.0703 -0.2140
 2804SOL    HW120045   0.810   1.528   6.496  0.3365  1.6414 -0.5905
 2804SOL    HW220046   0.742   1.634   6.567 -0.2476 -0.1400  0.3548
 2805SOL     OW20047   0.363   2.548   5.030  0.2963  0.7417  0.1398
 2805SOL    HW120048   0.290   2.594   5.072  0.0083  1.3330 -1.0215
 2805SOL    HW220049   0.327   2.523   4.945 -0.1343 -0.5591  0.6885
 2806SOL     OW20050   3.863   0.433   5.260  0.3862  0.1885  0.1034
 2806SOL    HW120051   3.940   0.380   5.282 -1.1130 -1.2554  1.9223
 2806SOL    HW220052   3.900   0.456   5.174  0.7428 -1.1846 -0.1280
 2807SOL     OW20053   3.764   4.240  15.181 -0.9270 -0.2862 -0.6518
 2807SOL    HW120054   3.723   4.322  15.155 -1.2069 -0.5705 -1.0896
 2807SOL    HW220055   3.775   4.251  15.276 -1.1486 -1.7705 -0.4434
 2808SOL     OW20056   2.479   2.489   3.119  0.6618  0.5960 -0.5349
 2808SOL    HW120057   2.461   2.432   3.044  1.9957  1.4227 -1.4904
 2808SOL    HW220058   2.475   2.434   3.198  1.4069  2.4265  0.7699
 2809SOL     OW20059   3.758   1.267  13.250 -0.9077 -0.3861 -0.0010
 2809SOL    HW120060   3.761   1.361  13.270 -0.0115 -0.1340 -1.3050
 2809SOL    HW220061   3.844   1.233  13.274 -0.7538  0.0656  0.0858
 2810SOL     OW20062   1.946   0.077   8.613 -0.3198 -0.2333  0.1176
 2810SOL    HW120063   2.033   0.115   8.603 -0.5804  0.5004  0.6638
 2810SOL    HW220064   1.936   0.029   8.530  1.8711 -0.2562 -0.1314
 2811SOL     OW20065   1.069   3.025   4.695  0.4106 -0.0935 -0.0216
 2811SOL    HW120066   1.060   3.031   4.790 -0.3426 -1.1981 -0.0240
 2811SOL    HW220067   1.001   3.086   4.666  0.3527  0.2860  0.9086
 2812SOL     OW20068   4.070   0.237   3.339 -0.1546 -0.5035 -0.4247
 2812SOL    HW120069   4.057   0.218   3.246  0.6251 -1.3143 -0.3685
 2812SOL    HW220070   4.019   0.317   3.347  0.6403  0.1316 -1.6276
 2813SOL     OW20071   3.089   1.018   3.857 -0.2769 -0.2530 -0.3651
 2813SOL    HW120072   3.087   0.935   3.809 -0.2851  0.0668 -0.9219
 2813SOL    HW220073   3.098   0.981   3.944 -0.3947  1.7925  0.5075
 2814SOL     OW20074   2.482   2.296   7.745  0.2828 -0.4648 -0.0412
 2814SOL    HW120075   2.523   2.218   7.707 -0.0714 -0.5894 -0.1712
 2814SOL    HW220076   2.499   2.286   7.838  1.5687 -0.7843 -0.3121
 2815SOL     OW20077   1.019   1.734   6.720 -0.1373  0.0461  0.4618
 2815SOL    HW120078   1.072   1.811   6.697  0.5405 -0.6465 -0.3020
 2815SOL    HW220079   0.940   1.768   6.762 -0.9697 -0.0791 -1.0040
 2816SOL     OW20080   4.680   2.835   9.942  0.4789  0.1671 -0.2316
 2816SOL    HW120081   4.625   2.871   9.872  0.0690 -1.2895 -0.6628
 2816SOL    HW220082   4.654   2.744   9.926 -0.6354  0.8612 -2.3842
 2817SOL     OW20083   3.317   1.893   4.080  0.2846  0.4086 -0.0091
 2817SOL    HW120084   3.343   1.922   4.168  2.9944  0.2677 -0.7584
 2817SOL    HW220085   3.267   1.820   4.116  1.0313  0.1516  0.5115
 2818SOL     OW20086   2.244   1.296   7.674  0.1238 -1.2465  0.1940
 2818SOL    HW120087   2.180   1.354   7.634  0.9966 -0.3091  0.1636
 2818SOL    HW220088   2.326   1.336   7.643  0.6169 -1.1223  1.6454
 2819SOL     OW20089   1.061   1.876   8.453 -0.1913 -0.3055 -0.1290
 2819SOL    HW120090   1.121   1.904   8.522  0.3664 -1.1651 -0.2542
 2819SOL    HW220091   1.094   1.788   8.435  0.5272 -0.2760  1.0601
 2820SOL     OW20092   2.245   3.818  15.316 -0.4573  0.0681 -0.1984
 2820SOL    HW120093   2.322   3.799  15.369 -0.7134  0.6680  0.3731
 2820SOL    HW220094   2.277   3.896  15.271 -0.1644  0.7306  1.1865
 2821SOL     OW20095   3.949   2.567   4.021 -0.3149  1.0591 -0.4858
 2821SOL    HW120096   4.014   2.528   4.080 -1.2234  0.4148  0.1111
 2821SOL    HW220097   3.955   2.498   3.955 -1.0264 -0.6320  1.2002
 2822SOL     OW20098   1.624   4.731   6.056 -0.0818 -0.7533 -0.4242
 2822SOL    HW120099   1.551   0.011   6.116 -0.4938 -1.5551 -0.7328
 2822SOL    HW220100   1.593   4.662   5.997  0.1324 -0.8010 -0.4823
 2823SOL     OW20101   1.674   1.791   7.184 -0.2422  0.5524  0.6685
 2823SOL    HW120102   1.765   1.802   7.155  0.0764  0.9350  1.8247
 2823SOL    HW220103   1.679   1.838   7.267 -2.1266  0.8027  0.6350
 2824SOL     OW20104   0.135   3.153   5.414 -0.1290 -0.5004  0.6035
 2824SOL    HW120105   0.152   3.242   5.444 -1.7499 -0.1670  0.5576
 2824SOL    HW220106   0.105   3.113   5.495  0.6028 -2.9704 -0.3567
 2825SOL     OW20107   1.551   0.173   9.332 -0.1231  0.2006 -0.2738
 2825SOL    HW120108   1.542   0.195   9.239  2.7690 -1.4901 -0.9221
 2825SOL    HW220109   1.462   0.164   9.367 -0.2085 -0.1504 -0.5862
 2826SOL     OW20110   0.929   2.697   7.662 -0.3400  0.1175 -0.0717
 2826SOL    HW120111   1.016   2.712   7.625 -0.2627  0.5008  0.2619
 2826SOL    HW220112   0.915   2.781   7.707  1.2636  0.8514 -0.9275
 2827SOL     OW20113   0.918   1.419   7.057 -0.1317 -0.4478  0.2761
 2827SOL    HW120114   1.006   1.443   7.085  0.6495 -1.6809 -1.0820
 2827SOL    HW220115   0.873   1.481   7.114 -1.5396 -0.6882 -0.5780
 2828SOL     OW20116   1.429   0.306   2.698 -0.3463  0.2431  0.2309
 2828SOL    HW120117   1.374   0.229   2.686 -1.1694  0.9269 -0.4083
 2828SOL    HW220118   1.477   0.309   2.615 -0.5397 -0.2714  0.0985
 2829SOL     OW20119   2.493   3.481   3.729  0.0570 -0.0667 -0.2451
 2829SOL    HW120120   2.557   3.463   3.798 -1.6637 -0.4689  1.2378
 2829SOL    HW220121   2.519   3.569   3.700 -1.7898  1.0347  1.4479
 2830SOL     OW20122   4.154   2.386  16.241  0.4737 -0.0036  0.0451
 2830SOL    HW120123   4.129   2.479  16.241  0.2410 -0.0615  1.5598
 2830SOL    HW220124   4.101   2.353  16.168 -1.0742  0.0027  1.1401
 2831SOL     OW20125   2.780   1.165   2.989 -0.0495 -0.3295  0.2113
 2831SOL    HW120126   2.864   1.120   2.980 -0.7474 -2.0934  2.4931
 2831SOL    HW220127   2.724   1.105   2.939  0.9413 -0.6678 -0.4784
 2832SOL     OW20128   3.654   0.721   4.950  0.4535 -0.0369 -0.1688
 2832SOL    HW120129   3.656   0.794   5.011  0.3279  0.7303 -1.0911
 2832SOL    HW220130   3.746   0.704   4.932  0.5601  0.4786 -0.1075
 2833SOL     OW20131   1.072   2.952  12.163 -0.0175  0.2748 -0.1173
 2833SOL    HW120132   1.131   2.882  12.135  0.1288 -0.2181  1.4276
 2833SOL    HW220133   1.096   2.962  12.255 -0.5783  1.2932 -0.0840
 2834SOL     OW20134   2.955   0.319   2.078  0.4528  0.7703 -0.0187
 2834SOL    HW120135   2.973   0.228   2.054  1.9157  1.1188 -0.2455
 2834SOL    HW220136   2.933   0.319   2.172 -3.6150 -2.7635 -0.9902
 2835SOL     OW20137   2.883   0.062   6.505  0.3125 -0.0648  0.6414
 2835SOL    HW120138   2.806   0.055   6.448 -0.3006  1.5897  1.2725
 2835SOL    HW220139   2.908   4.703   6.503 -1.2376 -0.4336 -1.5667
 2836SOL     OW20140   3.731   4.129   1.923 -0.9721 -0.1669  0.0223
 2836SOL    HW120141   3.713   4.222   1.908 -2.6113 -0.3338  0.8851
 2836SOL    HW220142   3.820   4.136   1.955 -1.3836  0.1038  1.0947
 2837SOL     OW20143   3.736   0.469   6.271 -0.1732 -0.0374 -0.2525
 2837SOL    HW120144   3.772   0.424   6.195 -2.1501 -0.9215 -0.6527
 2837SOL    HW220145   3.645   0.454   6.245 -0.1390 -1.8064  0.6675
 2838SOL     OW20146   2.276   1.682   2.512 -0.8900 -0.2180  0.3896
 2838SOL    HW120147   2.251   1.738   2.586 -1.5014 -0.4113  0.3294
 2838SOL    HW220148   2.346   1.628   2.549 -0.0685  0.2381 -0.4921
 2839SOL     OW20149   0.016   4.606   4.088  0.1662  0.7664  0.1429
 2839SOL    HW120150   0.100   4.649   4.103  0.8758 -0.0925 -1.3177
 2839SOL    HW220151   4.692   4.682   4.091  0.6287  1.0840  0.8501
 2840SOL     OW20152   0.953   2.477  13.656 -0.3457 -0.5843 -0.4062
 2840SOL    HW120153   0.872   2.467  13.606 -1.1039 -3.0720  1.3145
 2840SOL    HW220154   0.964   2.569  13.682  1.4059 -0.4559 -1.5859
 2841SOL     OW20155   4.073   1.319  10.805  0.3935  0.0450 -0.2273
 2841SOL    HW120156   4.073   1.396  10.749 -2.2588  0.5605  0.4575
 2841SOL    HW220157   4.101   1.242  10.755 -0.9933  0.4945 -1.6845
 2842SOL     OW20158   2.306   4.281   5.269  0.0577  0.2204  0.5019
 2842SOL    HW120159   2.308   4.198   5.316 -1.0744 -0.4914 -0.7043
 2842SOL    HW220160   2.235   4.252   5.212 -1.1546  2.3342  0.9123
 2843SOL     OW20161   0.381   1.848   2.873 -0.0038 -0.2301 -0.6064
 2843SOL    HW120162   0.415   1.936   2.886 -1.2966  0.1087  0.4322
 2843SOL    HW220163   0.295   1.867   2.910 -0.4308 -2.6532 -0.3143
 2844SOL     OW20164   3.709   1.015   7.259  0.2867 -0.0157  0.2428
 2844SOL    HW120165   3.661   0.933   7.262  0.0529  0.2284  3.3265
 2844SOL    HW220166   3.675   1.048   7.176  1.9087  0.2889 -0.3002
 2845SOL     OW20167   0.185   3.044   4.326  0.4006 -0.6500  0.2234
 2845SOL    HW120168   0.166   3.000   4.243  3.4626  0.0052 -0.8309
 2845SOL    HW220169   0.267   3.084   4.297 -0.2594  1.3381  1.1049
 2846SOL     OW20170   4.533   2.542  16.349  0.6459 -0.8036  0.3154
 2846SOL    HW120171   4.469   2.607  16.319  1.1309 -0.6387 -0.3753
 2846SOL    HW220172   4.608   2.551  16.290  2.8847  0.3292  3.3566
 2847SOL     OW20173   4.450   2.140   5.099  0.7803  0.1526  0.3088
 2847SOL    HW120174   4.395   2.135   5.177  0.5089 -0.0965  0.1023
 2847SOL    HW220175   4.511   2.067   5.109  1.3161  0.5927  0.2186
 2848SOL     OW20176   1.090   1.220   6.718 -0.9629 -0.4339  0.9788
 2848SOL    HW120177   1.007   1.254   6.684  0.4950  0.8437 -1.2931
 2848SOL    HW220178   1.118   1.294   6.772 -0.1952 -0.3860  0.5136
 2849SOL     OW20179   2.412   3.482   1.304 -0.5914 -0.1910  0.0610
 2849SOL    HW120180   2.449   3.554   1.253  0.0478 -0.1036  0.6388
 2849SOL    HW220181   2.405   3.418   1.234  1.3591  0.7830 -1.0136
 2850SOL     OW20182   1.466   1.607   3.540  0.2495 -0.0949 -0.8833
 2850SOL    HW120183   1.552   1.588   3.500  0.4858  0.0595 -0.4429
 2850SOL    HW220184   1.460   1.702   3.542  0.6200 -0.0924 -0.0138
 2851SOL     OW20185   1.728   3.078   5.144 -0.4655  0.1849  0.5317
 2851SOL    HW120186   1.692   2.993   5.168  1.7380 -0.8329  0.2292
 2851SOL    HW220187   1.666   3.109   5.077 -0.2200  2.7678  1.4915
 2852SOL     OW20188   1.902   4.657   5.570 -0.2503  0.2518 -0.5643
 2852SOL    HW120189   1.931   4.685   5.483  0.3538  1.1816 -0.0695
 2852SOL    HW220190   1.873   4.569   5.549 -0.0532 -0.3895  1.8533
 2853SOL     OW20191   1.578   1.730   9.046  0.2900  0.2464  0.1629
 2853SOL    HW120192   1.503   1.699   9.098 -1.0291  0.0185 -1.8801
 2853SOL    HW220193   1.623   1.788   9.107  0.2027 -0.5697  1.0111
 2854SOL     OW20194   2.562   1.552   5.013 -0.5807  0.1655 -0.1019
 2854SOL    HW120195   2.510   1.632   5.003  3.0158  2.4859 -0.4474
 2854SOL    HW220196   2.598   1.548   4.925  1.8877 -0.9267  0.9604
 2855SOL     OW20197   0.284   2.932   4.566  0.4506 -0.0222 -0.3152
 2855SOL    HW120198   0.245   2.961   4.484  0.8097 -1.6508 -1.0568
 2855SOL    HW220199   0.355   2.993   4.587 -0.5287  0.8485  0.4745
 2856SOL     OW20200   3.762   0.348   7.924 -0.0417  0.9402  0.3925
 2856SOL    HW120201   3.739   0.333   7.833  2.8021 -1.4907  0.0599
 2856SOL    HW220202   3.676   0.342   7.965 -0.4284  0.1198 -0.5487
 2857SOL     OW20203   2.719   2.215   4.353  0.3305 -0.1170 -0.4588
 2857SOL    HW120204   2.788   2.272   4.320  0.0471  1.7492  2.2115
 2857SOL    HW220205   2.662   2.201   4.277 -1.2998  1.5247  0.4649
 2858SOL     OW20206   2.040   0.579   5.368 -0.0574  0.3402 -0.1704
 2858SOL    HW120207   1.984   0.614   5.437  1.0204 -1.4236  1.6132
 2858SOL    HW220208   2.024   0.484   5.373  2.1521 -0.0433 -0.4941
 2859SOL     OW20209   3.375   0.674   5.673  0.2941 -0.1112  0.3341
 2859SOL    HW120210   3.321   0.600   5.701 -0.1110 -0.1662 -0.5901
 2859SOL    HW220211   3.396   0.651   5.582 -0.1090 -2.4829  0.8364
 2860SOL     OW20212   3.118   3.854  12.088 -0.3715  0.5306 -0.1179
 2860SOL    HW120213   3.052   3.817  12.030 -1.4770  0.7348  1.0217
 2860SOL    HW220214   3.072   3.838  12.170  0.0574 -1.1225 -0.2019
 2861SOL     OW20215   2.591   3.014   3.284 -0.0283  0.3455  0.5281
 2861SOL    HW120216   2.587   3.058   3.200  2.5029 -0.3022  0.0699
 2861SOL    HW220217   2.542   3.073   3.341 -0.7111 -0.2822  0.5850
 2862SOL     OW20218   2.041   4.559   2.022  0.5090  0.5244  0.4939
 2862SOL    HW120219   2.104   4.571   1.951  0.9464 -2.6472  0.3569
 2862SOL    HW220220   1.980   4.630   2.003 -1.7736 -1.2937  1.0316
 2863SOL     OW20221   4.428   2.450   5.560 -0.4420  0.1159 -0.1609
 2863SOL    HW120222   4.427   2.374   5.618  1.0768 -0.0132 -0.3034
 2863SOL    HW220223   4.448   2.521   5.620 -0.0338  0.1386 -0.3256
 2864SOL     OW20224   2.871   0.283   7.256  0.5268 -0.5468 -0.0884
 2864SOL    HW120225   2.879   0.365   7.208  1.3831  0.7185  2.1679
 2864SOL    HW220226   2.914   0.224   7.194  1.9799 -0.6248  0.9866
 2865SOL     OW20227   2.806   3.930  12.049  0.2178  0.1461 -0.1729
 2865SOL    HW120228   2.810   3.997  11.981  3.6912  0.1714  0.0646
 2865SOL    HW220229   2.739   3.875  12.008  1.8589 -1.9910  0.0263
 2866SOL     OW20230   4.213   4.158  10.309 -0.4921  0.3652 -0.1447
 2866SOL    HW120231   4.200   4.086  10.370  0.6617 -1.4084 -1.9700
 2866SOL    HW220232   4.120   4.181  10.303 -0.5355 -0.4343 -2.6288
 2867SOL     OW20233   4.648   3.975   3.241 -0.2322  0.4194  0.2216
 2867SOL    HW120234   4.664   4.069   3.245  2.5219  0.0238 -1.0912
 2867SOL    HW220235   0.005   3.947   3.231 -0.2118 -0.0546  1.7714
 2868SOL     OW20236   3.100   2.988   6.901  0.3678  0.3287  0.2448
 2868SOL    HW120237   3.174   3.046   6.915 -0.5684  1.3962  0.8192
 2868SOL    HW220238   3.062   3.023   6.821  0.1256  0.4107  0.3951
 2869SOL     OW20239   2.280   3.392   2.004  0.1637  0.1494 -0.2266
 2869SOL    HW120240   2.291   3.427   1.916  2.0717  2.1430  0.8092
 2869SOL    HW220241   2.277   3.469   2.060  2.0183  0.6726 -0.8549
 2870SOL     OW20242   4.595   3.597   6.568 -0.4374  0.6289  0.2317
 2870SOL    HW120243   4.542   3.533   6.520 -2.7902  1.0338  2.2392
 2870SOL    HW220244   4.520   3.652   6.594 -0.4236  0.7223  0.0762
 2871SOL     OW20245   1.184   4.378   4.122 -0.2386  0.0659 -0.3829
 2871SOL    HW120246   1.144   4.292   4.111  0.6946 -0.4876  0.5346
 2871SOL    HW220247   1.241   4.349   4.193 -0.7479  1.8625  0.7715
 2872SOL     OW20248   4.136   0.330  12.459  0.0276  0.5793 -0.3663
 2872SOL    HW120249   4.123   0.239  12.433 -0.6861  0.1327  1.5748
 2872SOL    HW220250   4.199   0.354  12.392 -0.2532 -2.1893 -1.6045
 2873SOL     OW20251   3.569   2.004   2.501 -0.5948  0.0536  0.3028
 2873SOL    HW120252   3.569   2.070   2.569  1.3891  0.4299 -0.0598
 2873SOL    HW220253   3.585   1.932   2.562  1.6710 -1.7656 -2.4616
 2874SOL     OW20254   1.527   2.058   8.005 -0.2603  0.0859 -0.3779
 2874SOL    HW120255   1.476   2.096   7.933 -1.4422  0.0219  0.4096
 2874SOL    HW220256   1.460   2.044   8.072  2.2494 -0.1508  2.0851
 2875SOL     OW20257   0.972   4.594   8.798  0.2369  0.2028 -0.3251
 2875SOL    HW120258   0.926   4.603   8.881  0.0689  0.2027 -0.4171
 2875SOL    HW220259   0.897   4.588   8.738 -0.1669 -2.6890  0.4702
 2876SOL     OW20260   1.797   1.589   8.378  0.6835 -0.3234 -0.4309
 2876SOL    HW120261   1.729   1.563   8.315  0.0106  0.4135 -0.0101
 2876SOL    HW220262   1.858   1.516   8.373  2.5633  1.1349  1.6605
 2877SOL     OW20263   3.920   4.056   4.481 -0.2435  0.2438 -0.0353
 2877SOL    HW120264   3.859   4.040   4.409 -0.8622  2.8648 -0.1080
 2877SOL    HW220265   4.006   4.044   4.440 -0.4786  0.4699 -0.6024
 2878SOL     OW20266   0.970   1.406   5.934  0.2944 -0.0972  0.4713
 2878SOL    HW120267   0.876   1.423   5.922  0.1425 -2.2503 -1.2992
 2878SOL    HW220268   0.972   1.323   5.980 -0.9555 -0.5482 -0.2909
 2879SOL     OW20269   0.647   0.128  14.224 -0.1136 -0.2116  0.3867
 2879SOL    HW120270   0.590   0.186  14.172  1.5230  0.5983 -0.4862
 2879SOL    HW220271   0.708   0.196  14.252  1.2911 -1.5408  0.5727
 2880SOL     OW20272   0.432   3.804   9.404  0.8835 -0.6079 -0.0706
 2880SOL    HW120273   0.440   3.745   9.479  2.3734 -0.8620 -0.4334
 2880SOL    HW220274   0.507   3.779   9.351 -1.4439 -2.1492 -2.6602
 2881SOL     OW20275   0.660   1.688   8.694  0.2792  0.6695  0.1149
 2881SOL    HW120276   0.659   1.737   8.776 -0.6116  3.0002 -1.3067
 2881SOL    HW220277   0.723   1.739   8.643  0.0155  2.3997  1.5136
 2882SOL     OW20278   3.588   2.649  12.680  0.3622  0.0085  0.1930
 2882SOL    HW120279   3.675   2.622  12.650 -0.7339  0.2501 -3.2392
 2882SOL    HW220280   3.601   2.742  12.664  0.5424 -0.2051 -0.9054
 2883SOL     OW20281   4.319   3.462   2.260  0.3346 -0.3323 -0.7182
 2883SOL    HW120282   4.288   3.380   2.299  0.8377 -0.3562 -0.3745
 2883SOL    HW220283   4.408   3.475   2.292 -0.3063  1.9045  0.1091
 2884SOL     OW20284   1.282   2.321   6.574  0.6404 -0.6475  0.3788
 2884SOL    HW120285   1.209   2.333   6.513  0.4640  1.9872  1.0894
 2884SOL    HW220286   1.357   2.359   6.529  0.4969 -1.6392 -0.7003
 2885SOL     OW20287   0.072   4.635  14.568  0.4972 -0.7480 -0.6509
 2885SOL    HW120288   0.049   4.576  14.497 -0.9689 -0.9636 -0.0028
 2885SOL    HW220289   0.105   4.713  14.523  0.1014 -1.0132 -1.3914
 2886SOL     OW20290   1.786   3.909   1.098  0.1785 -0.3264 -0.0485
 2886SOL    HW120291   1.814   4.001   1.105  0.1685 -0.2032 -1.6902
 2886SOL    HW220292   1.774   3.886   1.190 -0.5659 -2.1490 -0.6174
 2887SOL     OW20293   2.172   4.243   7.978  0.4068 -0.0749  0.2379
 2887SOL    HW120294   2.102   4.199   8.027  0.7612  1.0158  1.7087
 2887SOL    HW220295   2.183   4.321   8.032  1.4469  0.9469 -1.4304
 2888SOL     OW20296   3.578   0.846   4.330  0.2657  0.3623 -0.0984
 2888SOL    HW120297   3.613   0.880   4.412 -0.4392  1.0506 -0.0794
 2888SOL    HW220298   3.651   0.880   4.278  0.8473 -0.7887 -0.0417
 2889SOL     OW20299   3.647   3.347  16.301 -0.1631 -0.4960 -0.0549
 2889SOL    HW120300   3.633   3.262  16.260 -0.5648  0.8634 -2.7497
 2889SOL    HW220301   3.600   3.347  16.384  0.5484  1.4133  0.3689
 2890SOL     OW20302   1.648   3.808   5.519  0.3653  0.5818 -0.3056
 2890SOL    HW120303   1.647   3.859   5.600 -0.6584 -0.7719  0.5441
 2890SOL    HW220304   1.602   3.730   5.551  0.4275  0.3028 -0.9120
 2891SOL     OW20305   3.015   4.334   3.171 -0.2042 -0.4067  0.6710
 2891SOL    HW120306   3.048   4.366   3.255 -1.6952  1.6750  0.4447
 2891SOL    HW220307   3.037   4.409   3.117 -0.4934  0.4315  1.7245
 2892SOL     OW20308   4.558   0.557   3.275  0.0791 -0.2460 -0.8818
 2892SOL    HW120309   4.639   0.509   3.286 -0.5015 -1.4826 -1.9537
 2892SOL    HW220310   4.558   0.579   3.182 -3.1050  0.5654 -0.7078
 2893SOL     OW20311   4.543   3.731  13.596 -0.4325 -0.1379  0.8774
 2893SOL    HW120312   4.450   3.737  13.577 -0.5321  1.5084  1.9032
 2893SOL    HW220313   4.526   3.738  13.690  0.7299  1.2076  0.9886
 2894SOL     OW20314   2.741   2.457  17.227 -0.3514 -0.1300  0.0576
 2894SOL    HW120315   2.755   2.378  17.280 -0.9459 -0.0480  0.3323
 2894SOL    HW220316   2.704   2.518  17.290  0.9822  0.4210  0.3217
 2895SOL     OW20317   2.037   0.511   5.054  0.1246  0.2505  0.6602
 2895SOL    HW120318   2.040   0.607   5.061  0.5837  0.1913  1.3242
 2895SOL    HW220319   2.101   0.487   5.122  2.4115 -0.5570 -1.7889
 2896SOL     OW20320   4.014   1.412   7.975 -0.1790  0.2388  0.6059
 2896SOL    HW120321   4.086   1.444   7.921  0.0344 -2.5515 -0.7818
 2896SOL    HW220322   3.981   1.493   8.013  2.4648  1.0082  1.2275
 2897SOL     OW20323   0.043   3.441   9.452 -0.2821 -0.5021  0.8111
 2897SOL    HW120324   0.013   3.468   9.538 -3.6534 -1.8353  0.0327
 2897SOL    HW220325   0.071   3.525   9.416 -2.2130 -0.2126 -0.0068
 2898SOL     OW20326   2.004   4.028   4.132  0.4129  0.7043 -0.5356
 2898SOL    HW120327   2.093   3.993   4.136  0.0844  0.2365  2.3529
 2898SOL    HW220328   2.012   4.097   4.066 -0.3535 -0.3579 -1.7599
 2899SOL     OW20329   3.691   3.351   3.959  0.0780  0.3667 -0.0279
 2899SOL    HW120330   3.631   3.416   3.995  0.8114  1.0495 -0.0229
 2899SOL    HW220331   3.633   3.308   3.897 -0.6985  0.2252  0.8003
 2900SOL     OW20332   1.031   3.515  16.936  0.2004  0.1853 -0.1395
 2900SOL    HW120333   0.963   3.581  16.934 -0.9369 -0.9784 -0.1468
 2900SOL    HW220334   1.062   3.528  16.847 -0.1977 -1.5338 -0.5282
 2901SOL     OW20335   0.442   4.559   4.714 -1.0907 -0.5874 -0.1885
 2901SOL    HW120336   0.469   4.568   4.805  1.3833 -0.2007 -0.9588
 2901SOL    HW220337   0.466   4.467   4.701 -0.3808 -0.0500 -2.6765
 2902SOL     OW20338   1.494   0.197   9.656  0.1588 -0.1123 -0.0958
 2902SOL    HW120339   1.512   0.247   9.736 -2.0998  1.1370 -0.3667
 2902SOL    HW220340   1.436   0.257   9.609  1.3895  0.1852 -1.2268
 2903SOL     OW20341   2.294   4.709   2.796  0.3269  0.1600 -0.3351
 2903SOL    HW120342   2.235   4.635   2.812  0.2606 -0.4206 -3.3413
 2903SOL    HW220343   2.236   0.050   2.809  0.3644  0.1688 -0.2175
 2904SOL     OW20344   4.191   2.411  17.191  0.6150  0.5883 -0.2413
 2904SOL    HW120345   4.209   2.441  17.102 -0.7884 -2.5957 -1.5673
 2904SOL    HW220346   4.158   2.490  17.234 -0.3856  1.0113 -1.7872
 2905SOL     OW20347   0.589   3.167   9.104 -0.2112 -0.2488 -0.5001
 2905SOL    HW120348   0.583   3.190   9.011  0.1695 -0.2717 -0.5320
 2905SOL    HW220349   0.583   3.254   9.144 -2.3498 -0.7264  0.2075
 2906SOL     OW20350   0.816   1.887   6.828 -0.0782  0.0363 -0.1841
 2906SOL    HW120351   0.819   1.977   6.860  0.9534 -0.0100 -0.1432
 2906SOL    HW220352   0.794   1.839   6.908 -1.0499 -1.3580 -1.2901
 2907SOL     OW20353   2.303   2.107  12.408 -0.1838  0.2165 -0.0829
 2907SOL    HW120354   2.352   2.027  12.426  0.2902  1.3374  3.5190
 2907SOL    HW220355   2.214   2.075  12.391  0.7675 -2.8721  0.9025
 2908SOL     OW20356   3.086   3.289   5.860  0.8330 -0.1741  0.2279
 2908SOL    HW120357   3.063   3.212   5.807  2.2250  0.4566 -1.2909
 2908SOL    HW220358   3.042   3.358   5.811  1.4174  0.3403  0.4206
 2909SOL     OW20359   2.445   1.669  11.400  0.3072 -0.5397 -0.1480
 2909SOL    HW120360   2.381   1.720  11.450 -0.1739  1.5210 -2.8571
 2909SOL    HW220361   2.518   1.729  11.387 -0.0049  0.0488  0.8044
 2910SOL     OW20362   4.527   3.961   6.752  0.0511  0.3760 -0.1755
 2910SOL    HW120363   4.516   4.056   6.758  0.4949  0.4826 -1.0293
 2910SOL    HW220364   4.439   3.942   6.720  0.0051  0.1429  0.0898
 2911SOL     OW20365   3.277   2.812   6.996  0.6367  0.2114  0.6685
 2911SOL    HW120366   3.223   2.761   7.055 -0.2391 -1.4723 -1.5908
 2911SOL    HW220367   3.210   2.849   6.939  0.4523  0.2330  0.9023
 2912SOL     OW20368   0.795   1.389   9.268 -0.4014 -0.1929 -0.1928
 2912SOL    HW120369   0.857   1.329   9.309 -0.6138 -0.4692 -0.2711
 2912SOL    HW220370   0.716   1.335   9.261 -1.4104  1.4330 -1.2446
 2913SOL     OW20371   3.172   1.585  17.460  0.2481 -0.2186  0.4113
 2913SOL    HW120372   3.214   1.506  17.427 -0.5611 -0.1207 -0.8907
 2913SOL    HW220373   3.224   1.599  17.539 -2.2533 -1.5043  2.2988
 2914SOL     OW20374   2.811   0.988   8.929  0.4330  0.2201 -0.3319
 2914SOL    HW120375   2.802   0.996   9.024 -1.3239 -2.7726 -0.2275
 2914SOL    HW220376   2.824   0.893   8.919 -1.1271 -0.2022  1.3798
 2915SOL     OW20377   3.696   4.238  12.948  0.6025 -0.1268  0.1323
 2915SOL    HW120378   3.646   4.243  12.867  0.4503  0.7342  0.2760
 2915SOL    HW220379   3.628   4.271  13.007  2.3655  0.6581  1.7611
 2916SOL     OW20380   3.928   2.609  17.403  0.1955 -0.3294  0.9823
 2916SOL    HW120381   3.917   2.701  17.379 -3.2661 -0.9200  0.2274
 2916SOL    HW220382   3.841   2.576  17.379  1.9003 -2.7717 -1.9082
 2917SOL     OW20383   1.162   1.019  15.725 -0.3377  0.4025  0.2172
 2917SOL    HW120384   1.136   1.111  15.716  0.4597  0.5355 -0.7997
 2917SOL    HW220385   1.072   0.991  15.739 -0.8971  2.0980  0.0503
 2918SOL     OW20386   3.674   2.341  16.492 -0.0054  0.0944 -0.6326
 2918SOL    HW120387   3.747   2.287  16.523  0.4875  0.5280 -1.0445
 2918SOL    HW220388   3.663   2.312  16.402 -1.5886  1.5174 -0.8931
 2919SOL     OW20389   4.311   1.802  15.688 -0.3022  0.6341  0.2997
 2919SOL    HW120390   4.337   1.745  15.616  2.5406  1.2478  0.8530
 2919SOL    HW220391   4.343   1.889  15.665 -1.9053  0.4647 -2.4971
 2920SOL     OW20392   3.544   3.292   0.404 -0.0724  0.1911  0.1191
 2920SOL    HW120393   3.472   3.264   0.347  0.1073  0.9927 -0.5079
 2920SOL    HW220394   3.613   3.253   0.351  0.3538 -0.1352  0.9184
 2921SOL     OW20395   2.512   1.905   7.466  0.7780 -0.1838 -0.3361
 2921SOL    HW120396   2.462   1.909   7.385  1.9063 -3.4374 -1.1740
 2921SOL    HW220397   2.480   1.984   7.511 -0.8416 -1.5635  0.9609
 2922SOL     OW20398   1.012   1.874   5.545  0.1237 -0.2736  0.0248
 2922SOL    HW120399   0.960   1.795   5.535 -4.1045  2.6423 -0.8265
 2922SOL    HW220400   1.029   1.906   5.456 -0.2695 -1.0246 -0.3166
 2923SOL     OW20401   3.690   3.409  14.240  0.3863  0.1431  0.2420
 2923SOL    HW120402   3.619   3.371  14.291 -0.4744  1.0980 -0.2468
 2923SOL    HW220403   3.670   3.502  14.248 -0.6862 -0.1048  0.4894
 2924SOL     OW20404   4.165   1.725   4.536 -0.4415  0.5200 -0.2221
 2924SOL    HW120405   4.225   1.743   4.463  0.6998  3.5578  1.4464
 2924SOL    HW220406   4.140   1.633   4.528  0.2665  0.4709 -1.7949
 2925SOL     OW20407   0.181   0.302   6.975  0.2097  0.1289  0.4546
 2925SOL    HW120408   0.178   0.397   6.974 -2.3241  0.0643  0.4365
 2925SOL    HW220409   0.170   0.286   7.068 -0.9041  0.7252  0.4281
 2926SOL     OW20410   1.865   0.524   7.566 -0.3414  0.0076 -0.3466
 2926SOL    HW120411   1.827   0.608   7.537  0.6354  1.1219  1.5902
 2926SOL    HW220412   1.959   0.542   7.569 -0.0132 -1.5210 -1.6219
 2927SOL     OW20413   3.552   0.660   8.941 -0.2013  0.1214  0.3870
 2927SOL    HW120414   3.557   0.682   9.034  0.2826 -0.0247  0.3915
 2927SOL    HW220415   3.460   0.684   8.930 -0.0496  0.9359  0.8706
 2928SOL     OW20416   3.618   1.336   7.181  0.1268  0.0295 -0.0830
 2928SOL    HW120417   3.685   1.377   7.125 -1.1349  0.5918 -1.1664
 2928SOL    HW220418   3.678   1.294   7.243 -0.8112 -1.1207  0.0294
 2929SOL     OW20419   1.161   2.423  10.752  0.0994 -0.3669 -0.1000
 2929SOL    HW120420   1.205   2.495  10.797  0.0390 -0.2522 -0.2238
 2929SOL    HW220421   1.084   2.406  10.806 -1.9877  3.1208 -2.0068
 2930SOL     OW20422   1.477   1.667   1.948 -0.0690  0.3851  0.0348
 2930SOL    HW120423   1.449   1.754   1.975 -0.0935  0.7145 -1.0885
 2930SOL    HW220424   1.486   1.685   1.855  4.0265  3.4154  1.0154
 2931SOL     OW20425   2.019   1.818   5.061  0.2554  0.0531 -0.1387
 2931SOL    HW120426   1.975   1.902   5.066  0.0358 -0.2228  2.5119
 2931SOL    HW220427   2.090   1.834   5.123  1.0852  1.5144 -1.4565
 2932SOL     OW20428   0.890   2.610   6.133 -0.0979 -0.0624 -0.0883
 2932SOL    HW120429   0.964   2.598   6.192 -0.7933  0.5248  0.8906
 2932SOL    HW220430   0.931   2.562   6.061 -1.6264 -0.2689 -0.8244
 2933SOL     OW20431   2.570   0.580  12.134  0.0741 -0.8616 -0.7352
 2933SOL    HW120432   2.570   0.549  12.043  1.9851  0.0526 -1.0630
 2933SOL    HW220433   2.626   0.516  12.178  2.3868  1.3578 -0.3853
 2934SOL     OW20434   1.081   3.753   1.789  0.2683  0.1946 -0.0539
 2934SOL    HW120435   1.069   3.790   1.876 -0.1990 -0.6203  0.2342
 2934SOL    HW220436   1.005   3.695   1.793 -0.0765  0.5417 -1.6535
 2935SOL     OW20437   0.430   2.268  13.183 -0.5863 -0.0746 -0.5480
 2935SOL    HW120438   0.513   2.225  13.203  0.2423  2.3150  1.1484
 2935SOL    HW220439   0.376   2.255  13.261  1.1358  0.6567  0.7595
 2936SOL     OW20440   2.165   0.240   1.225 -0.3165  0.7743 -0.1081
 2936SOL    HW120441   2.159   0.172   1.292 -1.6022 -0.7619 -1.7749
 2936SOL    HW220442   2.088   0.226   1.171  0.2573  1.5066 -1.1274
 2937SOL     OW20443   4.405   1.925   4.055 -0.2404  0.1308 -0.6016
 2937SOL    HW120444   4.335   1.977   4.015  1.5019  3.3199  0.4312
 2937SOL    HW220445   4.457   1.995   4.096  0.2817 -1.0612  0.7631
 2938SOL     OW20446   1.739   2.774   6.013 -0.2804  0.1345  0.0759
 2938SOL    HW120447   1.728   2.792   5.919  0.0515 -0.5540 -0.1016
 2938SOL    HW220448   1.652   2.765   6.050  0.2600  0.3724  1.3767
 2939SOL     OW20449   2.148   4.318  16.294  0.7581  0.3625  0.6066
 2939SOL    HW120450   2.107   4.269  16.365 -2.2322 -1.2402 -2.2155
 2939SOL    HW220451   2.142   4.411  16.315  1.0973  0.6882 -0.6848
 2940SOL     OW20452   1.599   1.735   3.072  0.0834  0.0172  0.0006
 2940SOL    HW120453   1.650   1.813   3.050  2.8164 -1.8800 -0.3722
 2940SOL    HW220454   1.557   1.770   3.151  2.4311  0.2951  1.1276
 2941SOL     OW20455   3.073   0.154   1.147  0.0484  0.0919 -1.1314
 2941SOL    HW120456   3.101   0.244   1.161 -0.7849  0.0461  0.7701
 2941SOL    HW220457   2.994   0.164   1.199 -0.0914 -3.1034 -0.7429
 2942SOL     OW20458   1.062   0.444   5.579  0.1711 -0.4607  0.0978
 2942SOL    HW120459   1.083   0.513   5.516 -0.9509  0.8993  1.2231
 2942SOL    HW220460   0.989   0.466   5.637  1.5633 -0.7149  1.9609
 2943SOL     OW20461   1.277   3.829   3.106  0.0576  0.4520  0.3826
 2943SOL    HW120462   1.268   3.742   3.144 -1.5933  0.9390  1.1100
 2943SOL    HW220463   1.278   3.874   3.190  1.1261  1.3951 -0.1443
 2944SOL     OW20464   2.033   0.173   1.741 -1.0145 -0.1085 -0.3102
 2944SOL    HW120465   2.093   0.233   1.784  1.8141 -3.5779  0.5258
 2944SOL    HW220466   2.061   0.194   1.652 -0.9030 -0.2018 -0.2968
 2945SOL     OW20467   1.666   4.058  10.708  0.0397 -0.2499  0.4854
 2945SOL    HW120468   1.579   4.061  10.669  0.2439 -0.5381  0.0052
 2945SOL    HW220469   1.714   4.104  10.639 -0.8256  1.9365  1.3571
 2946SOL     OW20470   4.664   4.520   4.559 -0.6686  0.1633 -0.0549
 2946SOL    HW120471   4.730   4.575   4.517 -0.3636  0.0863  0.3319
 2946SOL    HW220472   4.694   4.535   4.648  1.6498 -0.2367 -0.7841
 2947SOL     OW20473   4.725   3.007   7.238  0.5976  0.3773  0.1061
 2947SOL    HW120474   0.055   3.078   7.246  1.9145 -0.6310 -1.4324
 2947SOL    HW220475   4.702   2.998   7.331 -1.3343  3.4432 -0.0780
 2948SOL     OW20476   3.502   3.492  14.888  0.9282  0.0225 -0.0072
 2948SOL    HW120477   3.413   3.521  14.906  0.5827 -0.4235 -1.0013
 2948SOL    HW220478   3.527   3.565  14.833 -1.1654 -0.3572 -1.4565
 2949SOL     OW20479   3.682   1.707   3.960 -0.1150  0.3343 -0.1047
 2949SOL    HW120480   3.673   1.662   3.876  2.0778 -0.9696  0.3789
 2949SOL    HW220481   3.618   1.778   3.950 -0.5645  0.1870  1.7786
 2950SOL     OW20482   3.622   1.774   7.529 -0.0461  0.6351  0.1165
 2950SOL    HW120483   3.574   1.839   7.479  1.5303  1.2461 -0.6265
 2950SOL    HW220484   3.669   1.822   7.597 -0.8932 -0.8433  1.7413
 2951SOL     OW20485   2.489   2.576   1.074  0.4209  0.3918  0.1876
 2951SOL    HW120486   2.436   2.551   1.150  2.4440 -4.2049  0.0757
 2951SOL    HW220487   2.546   2.499   1.076 -0.0932  0.0889  2.6982
 2952SOL     OW20488   3.087   0.681   2.823  0.3590  0.3136  0.8508
 2952SOL    HW120489   3.105   0.622   2.750 -0.7263  0.0852  0.7674
 2952SOL    HW220490   3.168   0.686   2.873  2.0250 -0.6658 -1.7964
 2953SOL     OW20491   1.364   0.824   6.590 -0.4119  0.4034  0.8832
 2953SOL    HW120492   1.405   0.857   6.510  0.0634 -0.5677  0.7182
 2953SOL    HW220493   1.406   0.892   6.642  0.6669  0.2242  0.2308
 2954SOL     OW20494   0.537   1.314  12.681  0.0903  0.1665  0.2447
 2954SOL    HW120495   0.549   1.294  12.588  0.0131 -1.3240  0.5576
 2954SOL    HW220496   0.603   1.257  12.720  2.0637  3.3556  1.5458
 2955SOL     OW20497   3.228   0.837   8.004 -0.5281 -0.6750  0.4454
 2955SOL    HW120498   3.199   0.910   8.059  0.3953 -0.2680  0.3846
 2955SOL    HW220499   3.163   0.853   7.935  0.5724  0.7837 -0.2312
 2956SOL     OW20500   1.857   3.621   8.545  0.4585 -0.1983 -0.6259
 2956SOL    HW120501   1.888   3.602   8.633 -1.6743 -0.7880 -0.0290
 2956SOL    HW220502   1.796   3.552   8.522 -0.5241  1.2275 -2.2821
 2957SOL     OW20503   4.104   0.825   0.693  0.6207 -0.2334  0.8133
 2957SOL    HW120504   4.188   0.865   0.714  0.2513 -0.1906  2.1832
 2957SOL    HW220505   4.092   0.881   0.616 -0.6216 -0.6659  0.6938
 2958SOL     OW20506   2.608   2.778   4.073 -0.3359 -0.3562 -0.0133
 2958SOL    HW120507   2.668   2.740   4.137 -2.4302 -0.0614  2.1145
 2958SOL    HW220508   2.667   2.843   4.036 -2.6948  1.8994  0.1675
 2959SOL     OW20509   3.233   3.901   4.322 -0.2163  0.0125 -0.2748
 2959SOL    HW120510   3.145   3.864   4.326  1.5039 -4.2730 -2.8094
 2959SOL    HW220511   3.215   3.987   4.361 -2.0755  0.7526 -2.7373
 2960SOL     OW20512   3.679   2.430   2.244  0.0212  0.1241 -0.4105
 2960SOL    HW120513   3.746   2.498   2.240  0.8103 -0.6409 -0.3148
 2960SOL    HW220514   3.727   2.358   2.284 -1.2621 -0.9858 -0.8599
 2961SOL     OW20515   0.576   1.064   7.219  0.0854 -0.1062 -0.0031
 2961SOL    HW120516   0.545   1.154   7.223  0.2172 -0.0042 -1.1321
 2961SOL    HW220517   0.564   1.044   7.126 -2.5574  0.1773  0.2567
 2962SOL     OW20518   2.990   4.072  11.138 -0.4792  0.2650  0.2999
 2962SOL    HW120519   2.938   4.151  11.122 -1.5497 -0.5548 -0.2482
 2962SOL    HW220520   3.065   4.110  11.184 -0.5369 -1.5482  1.8781
 2963SOL     OW20521   2.323   3.519   6.016 -0.5364 -0.2345 -0.2463
 2963SOL    HW120522   2.295   3.602   6.056  0.2264  0.5321 -1.2935
 2963SOL    HW220523   2.417   3.517   6.033 -0.7224 -1.6743  0.5374
 2964SOL     OW20524   3.649   0.185  10.809 -0.5057  0.5075 -0.0292
 2964SOL    HW120525   3.626   0.158  10.720  1.0541 -1.8878  0.2698
 2964SOL    HW220526   3.600   0.114  10.852  0.3215 -0.3758 -0.5436
 2965SOL     OW20527   0.408   3.707   8.820  0.9150  0.2886 -0.0997
 2965SOL    HW120528   0.329   3.666   8.855  2.0592 -3.6167 -2.1165
 2965SOL    HW220529   0.379   3.712   8.729 -0.0030 -0.6305  0.1376
 2966SOL     OW20530   1.303   2.493   2.767  0.8433 -0.9507  0.4613
 2966SOL    HW120531   1.288   2.506   2.861  2.4590 -0.2921  0.6319
 2966SOL    HW220532   1.389   2.452   2.768 -0.0218 -2.6954  2.8608
 2967SOL     OW20533   3.639   4.184   6.190  0.3543  0.4599  0.2128
 2967SOL    HW120534   3.722   4.222   6.160  0.3247 -0.2249 -0.7231
 2967SOL    HW220535   3.589   4.265   6.181 -2.6144 -1.4391 -0.2270
 2968SOL     OW20536   1.482   1.314   9.535 -0.2709 -0.0995 -0.0183
 2968SOL    HW120537   1.446   1.359   9.458  2.3793  0.1634 -1.0967
 2968SOL    HW220538   1.402   1.321   9.587 -0.2265 -1.4543  0.2214
 2969SOL     OW20539   0.995   4.409  15.112 -0.2740 -0.6873 -0.2397
 2969SOL    HW120540   0.938   4.332  15.105 -0.5483 -0.3194 -2.0260
 2969SOL    HW220541   1.014   4.423  15.205 -0.4584  1.7046 -0.5822
 2970SOL     OW20542   4.468   3.333   6.763  0.3347  0.3691 -0.2900
 2970SOL    HW120543   4.375   3.330   6.785  0.5748 -0.2686  0.6311
 2970SOL    HW220544   4.474   3.310   6.670  1.3329  0.0346 -0.1432
 2971SOL     OW20545   0.006   3.103   7.845 -0.3620 -0.5435 -0.0710
 2971SOL    HW120546   0.015   3.040   7.917 -0.3565 -0.7012 -0.2098
 2971SOL    HW220547   0.078   3.164   7.856 -0.5366 -0.3990  0.2803
 2972SOL     OW20548   3.396   3.739   9.163  0.1004  0.1386 -0.2111
 2972SOL    HW120549   3.421   3.780   9.080 -1.6807  2.5812  0.4885
 2972SOL    HW220550   3.332   3.804   9.190 -1.0305 -1.6476  1.4180
 2973SOL     OW20551   2.198   3.799   3.827 -0.0965 -0.3354  0.3892
 2973SOL    HW120552   2.292   3.782   3.817 -0.4994 -3.5502  2.2884
 2973SOL    HW220553   2.203   3.857   3.902 -2.0695  0.0624  0.2238
 2974SOL     OW20554   2.048   0.178   6.704  0.3427 -0.6935  0.1212
 2974SOL    HW120555   2.043   0.214   6.793  0.4631 -0.7155  0.1358
 2974SOL    HW220556   2.021   0.088   6.724 -1.9567 -0.0906 -0.2462
 2975SOL     OW20557   1.964   3.263   6.233  0.1435  0.1179 -0.9124
 2975SOL    HW120558   1.976   3.200   6.303  1.3787  2.4321  0.9411
 2975SOL    HW220559   1.921   3.209   6.166  0.8892  2.0958 -2.9998
 2976SOL     OW20560   0.558   4.019   2.974 -0.4154 -0.3745  0.7552
 2976SOL    HW120561   0.531   3.974   2.894  1.2049  1.2949 -0.7472
 2976SOL    HW220562   0.650   3.997   2.990  0.2214  0.3485 -1.8942
 2977SOL     OW20563   0.125   4.073  12.636 -0.2619  0.0564  0.7625
 2977SOL    HW120564   0.045   4.099  12.681 -0.8951  0.7037 -0.7203
 2977SOL    HW220565   0.128   3.978  12.649 -2.0875 -0.1091 -0.0491
 2978SOL     OW20566   3.876   0.467   8.530  0.6302 -0.6493 -0.6165
 2978SOL    HW120567   3.887   0.514   8.448  0.4467 -0.5743 -0.5976
 2978SOL    HW220568   3.792   0.433   8.498 -1.4973  2.0482  2.1177
 2979SOL     OW20569   1.248   4.708   3.820 -0.8906 -0.0569  0.2666
 2979SOL    HW120570   1.267   0.002   3.910  0.0614  1.9274 -0.5741
 2979SOL    HW220571   1.249   4.612   3.821  3.6780 -0.0559 -1.8871
 2980SOL     OW20572   2.942   1.895   4.194 -0.0051  0.6806  0.1825
 2980SOL    HW120573   2.979   1.979   4.220 -0.6121  0.8032  0.6620
 2980SOL    HW220574   3.019   1.840   4.182  0.4072  1.4657 -0.6798
 2981SOL     OW20575   4.633   2.443   2.023  0.3861  0.1996 -0.5414
 2981SOL    HW120576   4.707   2.437   1.962  0.4994 -2.1899 -0.1390
 2981SOL    HW220577   4.651   2.530   2.060  3.0082 -1.0196  1.0399
 2982SOL     OW20578   2.441   0.868   4.894 -0.2436  0.1037 -0.2105
 2982SOL    HW120579   2.437   0.933   4.964 -0.8096 -0.7571  0.5625
 2982SOL    HW220580   2.411   0.930   4.828 -2.7583 -0.9093 -0.0598
 2983SOL     OW20581   2.931   3.278   1.432  0.5015 -0.3500  0.4265
 2983SOL    HW120582   2.933   3.373   1.437  1.7463 -0.4300  1.1988
 2983SOL    HW220583   2.921   3.258   1.525  0.2035  1.0595  0.6928
 2984SOL     OW20584   2.438   4.481  12.577  0.1582  0.2881 -0.3148
 2984SOL    HW120585   2.360   4.428  12.559  1.5114 -1.3872 -1.1519
 2984SOL    HW220586   2.443   4.485  12.673  0.4318 -0.2511 -0.3083
 2985SOL     OW20587   3.216   2.486   4.197 -0.2053 -0.2078 -0.4213
 2985SOL    HW120588   3.258   2.474   4.112  0.2342 -1.1632 -0.0767
 2985SOL    HW220589   3.296   2.491   4.249 -0.3240  1.8790 -0.4577
 2986SOL     OW20590   4.105   1.380  15.233  0.5927 -0.1169  0.2101
 2986SOL    HW120591   4.129   1.305  15.288 -0.1532  0.0947  0.8363
 2986SOL    HW220592   4.063   1.432  15.302 -0.0547 -0.5731  0.1650
 2987SOL     OW20593   4.177   0.651   1.818 -0.1328 -0.3837 -0.4628
 2987SOL    HW120594   4.116   0.622   1.749 -0.7693 -0.0540 -0.0306
 2987SOL    HW220595   4.109   0.686   1.875  0.2261  0.1865 -0.3950
 2988SOL     OW20596   3.459   0.283  11.412  0.3811  0.0837  0.3039
 2988SOL    HW120597   3.477   0.291  11.318 -0.4863  2.5110  0.3351
 2988SOL    HW220598   3.484   0.193  11.435 -0.7220 -0.3009 -0.0040
 2989SOL     OW20599   1.101   1.985  10.629 -0.1413  0.1918 -0.3607
 2989SOL    HW120600   1.164   2.042  10.673 -1.3597  2.0829 -1.0919
 2989SOL    HW220601   1.134   1.989  10.539  0.4672 -3.2989 -0.3042
 2990SOL     OW20602   4.695   4.027   6.098 -0.8405  0.3890 -0.0446
 2990SOL    HW120603   0.046   4.004   6.061 -1.8944 -3.2968 -0.2079
 2990SOL    HW220604   4.694   3.996   6.188 -1.4376  0.6424  0.0385
 2991SOL     OW20605   4.639   0.911  15.964 -0.0035 -0.3040  0.2073
 2991SOL    HW120606   4.726   0.876  15.946  0.2890  0.2782  0.5006
 2991SOL    HW220607   4.584   0.837  15.936  0.7166 -0.9977  0.6413
 2992SOL     OW20608   2.555   3.690   8.143 -0.3401  0.1516  0.2984
 2992SOL    HW120609   2.474   3.665   8.100  1.1324 -0.0363 -2.3392
 2992SOL    HW220610   2.600   3.606   8.150 -1.4308 -0.3828  0.8140
 2993SOL     OW20611   1.166   4.611   7.773 -0.3653 -0.1944 -0.3641
 2993SOL    HW120612   1.109   4.687   7.780 -1.2793 -1.0718  1.8534
 2993SOL    HW220613   1.092   4.553   7.754  1.2104 -3.3374  3.1256
 2994SOL     OW20614   4.030   3.383   3.342  0.4256  0.0108 -0.3738
 2994SOL    HW120615   4.057   3.297   3.373 -1.8970 -1.1268 -1.5345
 2994SOL    HW220616   3.978   3.354   3.268  0.5360  3.3870 -1.7636
 2995SOL     OW20617   4.287   4.222   8.112 -0.3445 -0.0889  0.4322
 2995SOL    HW120618   4.360   4.230   8.051 -0.0558 -2.7778  0.4342
 2995SOL    HW220619   4.333   4.191   8.190 -0.4696  1.0073  0.9415
 2996SOL     OW20620   3.933   4.226   4.664 -0.2206 -0.1569  0.2986
 2996SOL    HW120621   3.858   4.205   4.721  0.3183 -3.3404 -0.1556
 2996SOL    HW220622   3.907   4.171   4.591 -0.5950 -1.3255  1.3108
 2997SOL     OW20623   3.993   3.667   2.597 -0.0717 -0.3609 -0.0580
 2997SOL    HW120624   3.944   3.644   2.518 -0.9137  0.3392  0.2489
 2997SOL    HW220625   4.048   3.740   2.568 -1.2959  0.3722 -0.5375
 2998SOL     OW20626   2.583   2.692   3.747  0.8652  0.3397  0.1759
 2998SOL    HW120627   2.541   2.640   3.678 -0.0186 -0.3314  1.2041
 2998SOL    HW220628   2.511   2.714   3.807 -0.3194  1.8819 -1.8073
 2999SOL     OW20629   2.426   4.076   1.406  0.0720 -0.2679  0.2780
 2999SOL    HW120630   2.496   4.086   1.341  1.0795 -0.4962  1.3119
 2999SOL    HW220631   2.455   3.994   1.447 -0.1612 -0.8911 -0.8125
 3000SOL     OW20632   3.172   3.256   2.221  0.5229 -0.2724 -0.0464
 3000SOL    HW120633   3.098   3.249   2.282 -0.8351 -1.4250 -1.8372
 3000SOL    HW220634   3.179   3.162   2.204  0.6185 -0.1869 -0.4728
 3001SOL     OW20635   2.488   2.167   6.453 -0.3255  0.5573 -0.3158
 3001SOL    HW120636   2.506   2.074   6.444  2.4510  1.1794 -1.1245
 3001SOL    HW220637   2.424   2.181   6.383 -0.1020  1.1335 -0.4072
 3002SOL     OW20638   2.599   3.530   1.518  0.5198 -0.2310  0.2083
 3002SOL    HW120639   2.531   3.505   1.455  0.6178  0.5472 -0.2049
 3002SOL    HW220640   2.683   3.524   1.474  0.2931  1.4894 -0.4701
 3003SOL     OW20641   1.732   1.273  12.603  0.4424 -0.3985 -0.2769
 3003SOL    HW120642   1.675   1.217  12.656  0.5035 -0.6710 -0.4983
 3003SOL    HW220643   1.805   1.280  12.665  0.6802  2.0129 -0.8492
 3004SOL     OW20644   3.514   4.070   6.466  0.2388  0.2811 -0.2027
 3004SOL    HW120645   3.591   4.046   6.517 -0.6677 -1.1831  0.5109
 3004SOL    HW220646   3.529   4.164   6.464  1.6402  0.0245 -0.8892
 3005SOL     OW20647   1.816   0.272   9.015  0.3530 -0.6480  0.9191
 3005SOL    HW120648   1.764   0.311   9.085 -1.8948  0.7474 -1.5276
 3005SOL    HW220649   1.897   0.320   9.033 -0.0405  0.2759  0.2232
 3006SOL     OW20650   2.903   1.119   6.561  0.1344 -0.3339  0.9018
 3006SOL    HW120651   2.886   1.028   6.587 -0.4526 -0.7011 -0.8144
 3006SOL    HW220652   2.978   1.115   6.502  0.9429  3.2072  1.7311
 3007SOL     OW20653   1.740   2.972   7.277  0.3363  0.3083  0.6158
 3007SOL    HW120654   1.799   2.976   7.202 -1.0207 -0.4926 -0.4849
 3007SOL    HW220655   1.791   3.019   7.343 -0.7843 -0.5636  2.1092
 3008SOL     OW20656   0.448   3.939   0.156  0.0146  0.1209 -0.3703
 3008SOL    HW120657   0.357   3.966   0.143 -1.0647 -1.7354  2.9775
 3008SOL    HW220658   0.460   3.857   0.108  1.1905 -0.6288  1.1958
 3009SOL     OW20659   2.347   4.582   3.817 -0.0759  0.5534  0.0086
 3009SOL    HW120660   2.296   4.553   3.893  0.7932  0.0034  0.3902
 3009SOL    HW220661   2.422   4.635   3.845  1.5251 -2.4441  1.4221
 3010SOL     OW20662   2.482   2.247   3.483  0.2248  0.0467  0.0147
 3010SOL    HW120663   2.442   2.334   3.484 -0.5435 -0.3033 -1.3054
 3010SOL    HW220664   2.433   2.203   3.414  0.3158  1.2703 -0.8273
 3011SOL     OW20665   3.276   1.738  15.517 -0.2045 -0.2747  0.0859
 3011SOL    HW120666   3.358   1.758  15.472 -0.4614  0.1694 -0.1823
 3011SOL    HW220667   3.244   1.828  15.516  1.2955  0.2838  1.5220
 3012SOL     OW20668   4.158   4.270   2.868 -0.2324  0.0332  0.0232
 3012SOL    HW120669   4.068   4.301   2.854 -0.1132 -0.4116 -1.6981
 3012SOL    HW220670   4.165   4.296   2.960 -0.9845 -2.8530  0.8860
 3013SOL     OW20671   2.138   2.501   8.116  0.1423  0.2301  0.3268
 3013SOL    HW120672   2.102   2.518   8.029 -0.1613  0.7148  0.5447
 3013SOL    HW220673   2.130   2.406   8.124 -0.9911  0.3680  0.8772
 3014SOL     OW20674   4.056   2.623   5.227 -0.6152  0.7111  0.2307
 3014SOL    HW120675   4.091   2.582   5.306  0.6588  3.9264  1.3394
 3014SOL    HW220676   4.071   2.709   5.265  1.9905  0.1034  0.6347
 3015SOL     OW20677   1.114   0.570   4.719  0.2766  0.4500  0.3407
 3015SOL    HW120678   1.153   0.531   4.797 -0.4332 -0.0154  0.4551
 3015SOL    HW220679   1.159   0.655   4.718 -1.7231  1.5020 -0.5751
 3016SOL     OW20680   0.537   1.468  12.918  0.4167  0.3595  0.5833
 3016SOL    HW120681   0.548   1.406  12.845 -1.7003 -1.4685  1.8289
 3016SOL    HW220682   0.519   1.548  12.869  1.4028 -0.7622 -1.6037
 3017SOL     OW20683   2.997   1.174   3.288 -0.5265 -0.1238 -0.1977
 3017SOL    HW120684   3.036   1.138   3.208  3.1918  0.5934  1.2755
 3017SOL    HW220685   2.917   1.122   3.288 -0.6746  0.0983 -2.2710
 3018SOL     OW20686   0.944   2.673   4.659 -0.5995 -0.0122  0.1017
 3018SOL    HW120687   0.999   2.613   4.609 -1.0459  0.1184 -0.5559
 3018SOL    HW220688   0.959   2.744   4.596  1.5423  1.7345  2.5805
 3019SOL     OW20689   1.737   3.895   2.901 -0.3249  0.2276 -0.0884
 3019SOL    HW120690   1.747   3.821   2.842 -1.0773  1.3650 -1.6224
 3019SOL    HW220691   1.642   3.907   2.895 -0.6656 -0.9616  2.5350
 3020SOL     OW20692   3.702   2.599   7.482 -0.0768  0.1685  0.6143
 3020SOL    HW120693   3.623   2.552   7.510  0.8604 -2.5701 -1.3507
 3020SOL    HW220694   3.749   2.548   7.416 -1.5787  0.3582 -0.6069
 3021SOL     OW20695   2.373   1.537   4.294  0.2886  0.1200 -0.4785
 3021SOL    HW120696   2.319   1.489   4.357 -1.6026  2.0432 -0.6490
 3021SOL    HW220697   2.318   1.612   4.273  0.9716  0.6761 -0.2813
 3022SOL     OW20698   0.886   1.107  14.461 -0.7351 -0.5607 -0.2795
 3022SOL    HW120699   0.923   1.075  14.544 -3.0398 -1.8153  0.2513
 3022SOL    HW220700   0.901   1.031  14.405  2.1201 -0.1015 -0.1575
 3023SOL     OW20701   3.588   2.502   9.253  0.0616  0.0585  0.3264
 3023SOL    HW120702   3.606   2.596   9.246 -0.6473  0.0678 -1.3622
 3023SOL    HW220703   3.677   2.469   9.244  0.1839  0.0768  1.4396
 3024SOL     OW20704   3.369   1.555   7.026  0.0176  0.1008 -0.2111
 3024SOL    HW120705   3.437   1.526   7.087 -0.2251 -0.8114 -0.3648
 3024SOL    HW220706   3.401   1.566   6.937 -0.0384  1.5190 -0.0474
 3025SOL     OW20707   0.457   0.402   0.104  0.9952 -0.8960 -0.3403
 3025SOL    HW120708   0.362   0.398   0.113  1.0009  2.1729  1.0322
 3025SOL    HW220709   0.477   0.481   0.154  1.1491 -0.0559 -1.7184
 3026SOL     OW20710   0.048   1.901   3.538 -0.4261 -0.1795 -0.5056
 3026SOL    HW120711   0.095   1.980   3.514  1.7319 -0.8462  1.6097
 3026SOL    HW220712   0.080   1.844   3.468  0.6559  1.7645 -1.5820
 3027SOL     OW20713   1.814   2.627  13.344 -0.1674  0.4896  0.1422
 3027SOL    HW120714   1.752   2.561  13.313  0.9499  0.5465 -2.1651
 3027SOL    HW220715   1.819   2.608  13.438  0.8389 -1.3218 -0.2756
 3028SOL     OW20716   3.264   0.579   4.977  0.0649 -0.1543 -0.4761
 3028SOL    HW120717   3.334   0.547   5.034 -1.2661  1.0318  1.7972
 3028SOL    HW220718   3.195   0.545   5.034 -0.6816  1.8430 -0.1792
 3029SOL     OW20719   0.654   1.632   4.858 -0.2726  0.3533 -0.2021
 3029SOL    HW120720   0.596   1.586   4.797  2.4754 -2.8775 -0.3388
 3029SOL    HW220721   0.600   1.614   4.935  0.1850 -0.2744 -0.0296
 3030SOL     OW20722   2.007   1.070   2.438 -0.0205  0.1536  0.0712
 3030SOL    HW120723   2.051   1.155   2.446  1.8517 -1.0004  2.1448
 3030SOL    HW220724   2.052   1.021   2.507 -0.3131 -0.2906 -0.0572
 3031SOL     OW20725   2.326   1.344  16.394 -0.0617  0.1207 -0.5863
 3031SOL    HW120726   2.367   1.430  16.389 -3.5063  1.9179  2.0507
 3031SOL    HW220727   2.302   1.317  16.306  1.4201 -2.5972 -0.1677
 3032SOL     OW20728   3.183   4.328  13.232  0.0548  0.0734  0.0180
 3032SOL    HW120729   3.149   4.418  13.231 -0.8024 -0.2731 -2.2615
 3032SOL    HW220730   3.260   4.349  13.285 -1.3436  0.7525  1.7954
 3033SOL     OW20731   0.026   0.551   1.922  0.0660 -0.3729  0.0229
 3033SOL    HW120732   0.095   0.616   1.937 -0.7720  0.0826  1.8794
 3033SOL    HW220733   4.682   0.605   1.912  0.0317 -0.8313 -2.2460
 3034SOL     OW20734   1.399   3.823   6.264  0.1215  0.3099  0.4445
 3034SOL    HW120735   1.486   3.852   6.290 -0.0478 -0.1201  1.4924
 3034SOL    HW220736   1.412   3.827   6.170 -0.3464 -2.4635  0.2558
 3035SOL     OW20737   2.720   2.768  13.632  0.4293 -0.1319 -0.2194
 3035SOL    HW120738   2.752   2.843  13.582  1.0994  1.7671  3.0364
 3035SOL    HW220739   2.657   2.806  13.694  2.2478  1.7439  0.4895
 3036SOL     OW20740   1.060   3.920   7.746 -0.2287 -0.0176 -0.2671
 3036SOL    HW120741   1.114   3.928   7.668 -2.5998  1.3612 -1.7836
 3036SOL    HW220742   1.034   4.012   7.754 -1.3882 -0.4955  1.4448
 3037SOL     OW20743   0.715   0.302   3.128 -0.3521 -0.3066 -0.4377
 3037SOL    HW120744   0.699   0.322   3.220  0.7311 -0.9539 -0.1124
 3037SOL    HW220745   0.720   0.389   3.088 -0.1112 -0.6968 -1.2554
 3038SOL     OW20746   2.870   1.303  12.918  0.1893  0.1390  0.0668
 3038SOL    HW120747   2.966   1.307  12.914  0.0649  1.2639 -2.2111
 3038SOL    HW220748   2.840   1.356  12.844 -0.5264  0.9226  0.9139
 3039SOL     OW20749   0.684   3.339   8.176  0.0047 -0.3236 -1.0315
 3039SOL    HW120750   0.686   3.426   8.215 -0.6788  0.0050 -1.7380
 3039SOL    HW220751   0.635   3.360   8.096  2.1331  1.0136 -2.0001
 3040SOL     OW20752   4.264   3.685   3.084 -0.2435  0.6950  0.7417
 3040SOL    HW120753   4.347   3.683   3.132 -0.2663 -0.4065  0.7372
 3040SOL    HW220754   4.210   3.682   3.162  1.4095 -1.1845  1.7911
 3041SOL     OW20755   0.133   3.076  16.619  0.8440  0.0789  0.4029
 3041SOL    HW120756   0.081   3.050  16.543  0.8093 -3.5483  1.6602
 3041SOL    HW220757   0.215   3.111  16.583 -0.1324  0.5804 -1.3442
 3042SOL     OW20758   1.883   1.708  15.413 -0.2485 -0.0608 -0.4420
 3042SOL    HW120759   1.828   1.630  15.422  1.5462 -1.1417  1.3291
 3042SOL    HW220760   1.819   1.777  15.429 -0.2973 -0.2806  0.3061
 3043SOL     OW20761   3.435   0.476   2.472  0.4429  0.2220  0.1523
 3043SOL    HW120762   3.468   0.526   2.547 -0.8341  0.4762  0.5509
 3043SOL    HW220763   3.458   0.533   2.399  0.1069  0.4592  0.2340
 3044SOL     OW20764   2.714   1.229   3.467 -0.3203 -0.0992 -0.2558
 3044SOL    HW120765   2.647   1.188   3.521 -0.0233 -0.1640  0.0673
 3044SOL    HW220766   2.794   1.191   3.505 -0.2878 -0.2378 -0.4662
 3045SOL     OW20767   3.206   0.334   3.015  0.2248 -0.1535 -0.0765
 3045SOL    HW120768   3.192   0.425   3.042  0.7896  0.4084 -1.7071
 3045SOL    HW220769   3.226   0.347   2.923  2.4309 -1.1652  0.2694
 3046SOL     OW20770   1.638   2.468   1.470 -0.2723  0.0643  0.5009
 3046SOL    HW120771   1.570   2.531   1.446  0.6435  1.0602  0.4963
 3046SOL    HW220772   1.621   2.401   1.404 -0.5629 -0.5764  1.2197
 3047SOL     OW20773   0.598   0.892   5.122  1.0071  0.2313 -0.3599
 3047SOL    HW120774   0.563   0.831   5.058  0.1120  0.0613  0.3013
 3047SOL    HW220775   0.538   0.864   5.190  1.2681  2.1591  0.6692
 3048SOL     OW20776   4.676   2.152   3.283 -0.1863 -0.1818 -0.6138
 3048SOL    HW120777   4.655   2.220   3.347 -1.4222  0.5312 -1.7802
 3048SOL    HW220778   0.016   2.121   3.336 -0.3500 -1.2141 -0.9891
 3049SOL     OW20779   4.636   2.894   6.007 -0.4041 -0.6409  0.0275
 3049SOL    HW120780   4.624   2.912   5.914  1.3942  0.7673  0.0600
 3049SOL    HW220781   4.668   2.978   6.039 -0.1043 -0.0976 -1.7451
 3050SOL     OW20782   1.985   2.783  15.233 -0.4635  0.3413 -0.1216
 3050SOL    HW120783   1.974   2.778  15.328  0.2376 -0.9330 -0.1020
 3050SOL    HW220784   1.902   2.826  15.211  0.6382  2.5988  0.1345
 3051SOL     OW20785   3.596   0.024  12.008  0.6848 -0.2554  0.3711
 3051SOL    HW120786   3.611   0.117  12.025 -0.5453 -0.2424  1.3612
 3051SOL    HW220787   3.689   0.005  11.994  0.6816  0.8132 -1.1852
 3052SOL     OW20788   4.645   0.729   7.175 -0.2182  0.3405 -0.5496
 3052SOL    HW120789   4.607   0.696   7.257  1.5904  1.1462  0.6244
 3052SOL    HW220790   4.686   0.655   7.130 -1.7276 -0.2526 -0.9432
 3053SOL     OW20791   2.747   0.826   7.411 -0.2244 -0.9715  0.3002
 3053SOL    HW120792   2.660   0.815   7.451 -1.3858 -0.6773 -2.1656
 3053SOL    HW220793   2.785   0.740   7.427 -2.9943 -2.7495 -2.7998
 3054SOL     OW20794   3.327   3.266  12.576 -0.4442 -0.0142  0.6266
 3054SOL    HW120795   3.393   3.216  12.623 -0.6586 -0.0853  0.8557
 3054SOL    HW220796   3.274   3.194  12.543  1.7666 -1.2607 -0.2049
 3055SOL     OW20797   0.374   3.432   6.270  0.2534 -0.4959 -0.1024
 3055SOL    HW120798   0.327   3.515   6.283  1.1990  0.1162 -0.5916
 3055SOL    HW220799   0.455   3.468   6.233  0.0578 -0.4913 -0.5236
 3056SOL     OW20800   2.441   3.733   6.401 -0.3928 -0.0830  0.0003
 3056SOL    HW120801   2.354   3.767   6.424 -1.1804 -1.8057 -0.3779
 3056SOL    HW220802   2.496   3.808   6.380 -0.5752 -0.4092 -1.6567
 3057SOL     OW20803   2.235   3.415   1.528 -0.3535 -0.0092 -0.4984
 3057SOL    HW120804   2.286   3.447   1.454  2.5416 -0.6969  1.1779
 3057SOL    HW220805   2.146   3.410   1.494 -0.5164  2.0124 -0.3471
 3058SOL     OW20806   2.151   1.672   3.423  0.3146 -0.0587 -0.7515
 3058SOL    HW120807   2.187   1.610   3.487  0.8845 -0.7526 -1.7490
 3058SOL    HW220808   2.063   1.684   3.459  1.2478  0.9219  1.2293
 3059SOL     OW20809   2.161   4.564   8.782 -0.3683 -0.0101  0.2005
 3059SOL    HW120810   2.227   4.631   8.766 -1.6375  0.6717 -2.2410
 3059SOL    HW220811   2.118   4.548   8.697 -0.0475  3.7424 -0.6711
 3060SOL     OW20812   0.897   3.889   2.105 -0.9218 -0.2684 -0.0250
 3060SOL    HW120813   0.979   3.848   2.134 -0.4462  0.7995  0.1530
 3060SOL    HW220814   0.832   3.874   2.173 -1.0957 -3.2919 -0.8496
 3061SOL     OW20815   0.403   3.756  15.688  0.4205 -0.3827  0.5428
 3061SOL    HW120816   0.344   3.827  15.662  0.8137  1.1339  3.7521
 3061SOL    HW220817   0.365   3.683  15.640  1.4215 -0.4246 -0.1827
 3062SOL     OW20818   3.630   1.177  11.442 -0.1146 -0.3194 -0.1664
 3062SOL    HW120819   3.702   1.133  11.487 -0.4643  0.1480  0.8482
 3062SOL    HW220820   3.673   1.205  11.361  1.0012 -1.9768 -0.1409
 3063SOL     OW20821   2.510   4.483  16.483 -0.5334  0.6295 -0.0578
 3063SOL    HW120822   2.530   4.413  16.421 -1.2745 -0.8704  1.3979
 3063SOL    HW220823   2.599   4.520  16.489 -1.0953  1.9381  0.1085
 3064SOL     OW20824   0.491   0.960   1.988 -0.2000  0.5207 -0.2477
 3064SOL    HW120825   0.578   0.999   2.001  0.7514 -1.7757  0.1755
 3064SOL    HW220826   0.468   0.983   1.898  3.1184  0.8353 -1.0151
 3065SOL     OW20827   3.155   4.264  14.352 -0.4693  0.2208 -0.4334
 3065SOL    HW120828   3.093   4.303  14.413  0.3716  0.6955  0.1042
 3065SOL    HW220829   3.142   4.328  14.282 -0.3751  0.2231 -0.4485
 3066SOL     OW20830   1.982   2.599   8.515  0.0747  0.4414  0.3199
 3066SOL    HW120831   1.917   2.532   8.534  2.7380 -2.4625 -0.8141
 3066SOL    HW220832   2.053   2.561   8.567  1.6217  1.6834 -0.8405
 3067SOL     OW20833   0.053   3.280   3.411 -0.2552 -0.0786  0.5698
 3067SOL    HW120834   0.027   3.188   3.416  1.6547 -0.6344  0.2378
 3067SOL    HW220835   0.059   3.311   3.501 -0.7859 -2.5067  1.4471
 3068SOL     OW20836   1.804   2.357   2.927 -0.1958 -0.2326  0.1452
 3068SOL    HW120837   1.815   2.312   2.843 -3.7463 -0.2004 -0.3300
 3068SOL    HW220838   1.889   2.322   2.953 -0.7765 -0.4007  1.7898
 3069SOL     OW20839   0.073   3.929   5.234  0.2296  0.1055  0.1484
 3069SOL    HW120840   0.043   3.842   5.260  2.4971 -0.8225 -0.3158
 3069SOL    HW220841   4.732   3.954   5.180 -0.8954  2.2549  2.6677
 3070SOL     OW20842   2.434   3.455   5.753 -0.7074 -0.5442 -0.3623
 3070SOL    HW120843   2.529   3.448   5.745 -0.5321  1.5886 -0.0655
 3070SOL    HW220844   2.426   3.471   5.847  1.1849  2.6486 -0.7507
 3071SOL     OW20845   2.251   2.264   9.693 -0.2558  0.1865 -0.2469
 3071SOL    HW120846   2.316   2.268   9.623 -1.5519  2.2108 -1.3360
 3071SOL    HW220847   2.205   2.347   9.688 -1.7631 -0.6330 -0.0146
 3072SOL     OW20848   0.665   1.025   3.974  0.3687  0.1500  0.3698
 3072SOL    HW120849   0.624   1.107   4.004  0.6718  0.3496  0.2355
 3072SOL    HW220850   0.749   1.044   4.015  0.0176  1.2661  0.5819
 3073SOL     OW20851   3.018   2.893   0.054  0.2515  0.2087 -0.2351
 3073SOL    HW120852   2.936   2.878   0.007 -0.4458  0.9912  0.7594
 3073SOL    HW220853   3.004   2.840   0.132 -0.0275 -1.1175 -1.1921
 3074SOL     OW20854   2.563   1.863   9.621 -0.7003  0.0239 -0.3122
 3074SOL    HW120855   2.586   1.943   9.668  1.9820 -0.7003 -0.4300
 3074SOL    HW220856   2.620   1.866   9.544  2.3681  1.6259  2.0081
 3075SOL     OW20857   1.504   4.230   5.106 -0.0196  0.0265  0.4094
 3075SOL    HW120858   1.564   4.293   5.147 -1.7408  2.2485 -0.4746
 3075SOL    HW220859   1.519   4.151   5.157 -0.4600 -0.2609  0.0898
 3076SOL     OW20860   1.865   4.459   5.993  0.1694 -0.3898 -0.3173
 3076SOL    HW120861   1.931   4.501   5.938  0.3620 -2.3490 -1.5724
 3076SOL    HW220862   1.830   4.533   6.043  0.0913 -0.3476 -0.4357
 3077SOL     OW20863   1.929   1.792  11.166  0.2011  0.3757  0.1273
 3077SOL    HW120864   2.013   1.756  11.136  0.5996  1.2222  0.2212
 3077SOL    HW220865   1.945   1.804  11.259  1.0793  0.9890 -0.0982
 3078SOL     OW20866   0.068   0.345  15.556  0.0217 -0.2727  0.0360
 3078SOL    HW120867   0.029   0.420  15.601 -1.1471  0.2496 -1.8501
 3078SOL    HW220868   0.147   0.317  15.602  0.7787  0.3978 -0.8451
 3079SOL     OW20869   0.691   2.854  12.600 -0.6611 -0.2904 -0.5407
 3079SOL    HW120870   0.744   2.808  12.666 -2.6080 -1.5144  0.1448
 3079SOL    HW220871   0.601   2.828  12.617 -0.5933 -0.2716 -0.1364
 3080SOL     OW20872   4.253   1.851   4.325 -0.0702 -0.8207 -0.1500
 3080SOL    HW120873   4.318   1.872   4.258  1.9625  0.6268  2.2759
 3080SOL    HW220874   4.169   1.844   4.280  0.0905 -0.4750 -0.5031
 3081SOL     OW20875   4.337   4.503   3.871 -0.2119 -0.3504  0.2819
 3081SOL    HW120876   4.423   4.545   3.869 -1.8293  2.8280 -2.5659
 3081SOL    HW220877   4.342   4.421   3.920  0.6746 -1.5707 -1.8578
 3082SOL     OW20878   0.272   2.257   5.437 -0.3838  1.0531 -0.0405
 3082SOL    HW120879   0.325   2.295   5.367  0.1435  0.4081  0.0147
 3082SOL    HW220880   0.244   2.169   5.411 -1.7507  1.1707  1.0517
 3083SOL     OW20881   1.468   0.959   6.790 -0.3099 -0.0300  0.2793
 3083SOL    HW120882   1.455   1.043   6.834  0.4246 -0.3760  1.1554
 3083SOL    HW220883   1.404   0.902   6.834  1.4769 -1.9051  0.4398
 3084SOL     OW20884   4.214   2.515   6.169  0.3376  0.4195  0.0610
 3084SOL    HW120885   4.130   2.524   6.214 -0.3002 -2.9571 -0.4388
 3084SOL    HW220886   4.254   2.602   6.168  1.1387  0.0438 -1.0319
 3085SOL     OW20887   4.178   2.872   4.055 -0.1173  0.1671  0.4077
 3085SOL    HW120888   4.216   2.913   4.133 -0.0609 -0.7680  0.8699
 3085SOL    HW220889   4.088   2.863   4.087 -0.3984 -2.1922 -1.0475
 3086SOL     OW20890   0.412   4.726   9.773  1.1543 -0.9851  0.4564
 3086SOL    HW120891   0.373   4.656   9.825 -1.5252 -0.7437 -1.1780
 3086SOL    HW220892   0.334   0.024   9.727  2.4508  0.9060 -0.3647
 3087SOL     OW20893   0.231   1.539   3.780  0.1950  0.5768 -0.5171
 3087SOL    HW120894   0.165   1.539   3.849 -1.0101 -0.2866 -1.6713
 3087SOL    HW220895   0.181   1.512   3.703 -0.9469 -1.4493  0.9470
 3088SOL     OW20896   2.340   0.226  15.075 -0.3270  0.4182  0.3387
 3088SOL    HW120897   2.324   0.295  15.011  2.9830  0.9880  0.1315
 3088SOL    HW220898   2.409   0.180  15.028  0.0578 -0.0865  1.3987
 3089SOL     OW20899   0.435   1.893  16.571 -0.3813  0.3191 -0.1034
 3089SOL    HW120900   0.364   1.942  16.613 -1.6985 -0.5975 -1.2966
 3089SOL    HW220901   0.389   1.850  16.499  1.5071  0.2318 -1.2577
 3090SOL     OW20902   4.242   0.346   6.167  0.2872 -0.0185  0.1889
 3090SOL    HW120903   4.212   0.385   6.248  3.4710  3.4144 -0.2888
 3090SOL    HW220904   4.334   0.320   6.176 -0.0088 -0.3372  2.1752
 3091SOL     OW20905   1.867   3.111   8.381 -1.4736 -0.0832  0.1782
 3091SOL    HW120906   1.933   3.059   8.336 -1.0973  1.0501 -0.5853
 3091SOL    HW220907   1.794   3.087   8.325 -1.7631 -0.3494  0.6685
 3092SOL     OW20908   1.521   0.177  12.697 -0.0212 -0.0848  0.1568
 3092SOL    HW120909   1.438   0.155  12.656  1.1321 -0.7158 -1.8567
 3092SOL    HW220910   1.509   0.150  12.788  0.8142 -1.7041 -0.2085
 3093SOL     OW20911   1.728   3.357   7.704  0.3330  0.1769 -0.1752
 3093SOL    HW120912   1.724   3.449   7.677 -0.7375 -0.0021 -0.6171
 3093SOL    HW220913   1.636   3.333   7.709 -0.0851  2.0727  1.5841
 3094SOL     OW20914   2.231   0.165   6.506 -0.0277  0.0768 -0.3786
 3094SOL    HW120915   2.175   0.183   6.582  0.4084 -2.4848  0.5541
 3094SOL    HW220916   2.259   0.253   6.482 -0.3346  0.9033  2.3032
 3095SOL     OW20917   0.100   2.054  14.482  0.0631  0.5063 -0.1231
 3095SOL    HW120918   0.123   1.981  14.425  0.7011 -0.0153  0.8173
 3095SOL    HW220919   0.006   2.043  14.471  0.1168  0.1301 -0.1917
 3096SOL     OW20920   1.551   3.002   4.134 -0.5351 -0.1526  0.0449
 3096SOL    HW120921   1.581   3.028   4.221 -1.1417  0.2578  0.1330
 3096SOL    HW220922   1.499   3.079   4.112  1.9705  1.7171  0.7792
 3097SOL     OW20923   1.656   2.355  12.538 -0.0187 -0.2504  0.1901
 3097SOL    HW120924   1.675   2.328  12.628  0.3810  2.0067  0.7964
 3097SOL    HW220925   1.606   2.279  12.511  1.3531 -1.7538  1.8411
 3098SOL     OW20926   0.300   4.693   2.202 -0.2890 -0.3164  0.0716
 3098SOL    HW120927   0.240   0.019   2.247 -0.4895  0.3781 -1.1457
 3098SOL    HW220928   0.240   4.619   2.203  0.8203 -1.2097  2.7978
 3099SOL     OW20929   4.020   1.362   2.137  0.2301  0.5846  0.3725
 3099SOL    HW120930   3.963   1.381   2.062  0.4435 -2.8666 -0.6450
 3099SOL    HW220931   4.109   1.355   2.103 -0.1074  2.5929 -0.9396
 3100SOL     OW20932   1.956   2.270   8.415  0.0705  0.1115 -0.4171
 3100SOL    HW120933   1.930   2.184   8.384 -1.7645  0.4557  0.1361
 3100SOL    HW220934   1.934   2.329   8.342 -1.7844  1.8738  1.5545
 3101SOL     OW20935   0.669   3.889   5.525 -0.2069  0.0382  0.4662
 3101SOL    HW120936   0.619   3.857   5.450 -1.4952 -0.3594  1.5057
 3101SOL    HW220937   0.733   3.818   5.526  2.9134  2.7770 -2.0502
 3102SOL     OW20938   4.406   3.623   7.096  0.0097 -0.0482 -0.1268
 3102SOL    HW120939   4.458   3.546   7.073 -1.4400 -0.9272 -0.4138
 3102SOL    HW220940   4.466   3.694   7.072 -0.2397  0.7915  1.7490
 3103SOL     OW20941   4.671   3.432   8.272 -0.5648  0.1979  0.3190
 3103SOL    HW120942   4.690   3.352   8.321 -1.2200  0.6482  1.3224
 3103SOL    HW220943   4.655   3.493   8.345  0.0358 -0.0120  0.6278
 3104SOL     OW20944   3.358   3.490   9.566 -0.1031  0.4055  0.0416
 3104SOL    HW120945   3.422   3.485   9.637  1.5757 -1.7981 -1.5937
 3104SOL    HW220946   3.390   3.412   9.519 -1.6532  0.2616 -0.7653
 3105SOL     OW20947   3.205   3.417   3.860  0.0626 -1.0530 -0.1765
 3105SOL    HW120948   3.294   3.450   3.860  0.1276 -1.2360  0.3824
 3105SOL    HW220949   3.197   3.381   3.772  1.5975  0.9648 -1.1386
 3106SOL     OW20950   0.643   3.614   7.854 -0.0228  0.0369  0.1971
 3106SOL    HW120951   0.725   3.651   7.821  0.9822 -0.9594  1.5498
 3106SOL    HW220952   0.673   3.523   7.850 -1.0274 -0.3386  1.6389
 3107SOL     OW20953   1.014   0.384  15.431 -0.2535  0.5918  0.0141
 3107SOL    HW120954   0.961   0.313  15.469 -0.9872 -0.3400 -2.7764
 3107SOL    HW220955   0.947   0.447  15.406  0.8327  1.7797  0.1465
 3108SOL     OW20956   2.535   3.191   7.951 -0.7374  0.1941  0.2303
 3108SOL    HW120957   2.558   3.237   8.032 -3.3132  0.4043  0.8379
 3108SOL    HW220958   2.476   3.257   7.914 -1.1054  0.5365  1.4331
 3109SOL     OW20959   2.241   0.862  10.051  0.3338  0.3653 -0.2898
 3109SOL    HW120960   2.169   0.827   9.999  0.8856 -1.7353  0.3628
 3109SOL    HW220961   2.268   0.786  10.103  0.6281 -0.1823 -1.2384
 3110SOL     OW20962   0.971   4.538   9.080 -0.2654  0.0444  0.0124
 3110SOL    HW120963   0.962   4.454   9.125  0.1274 -0.0586 -0.1088
 3110SOL    HW220964   1.061   4.517   9.055  0.3188 -0.6482  2.7229
 3111SOL     OW20965   0.306   0.864   2.176  0.1017 -0.1183 -0.1565
 3111SOL    HW120966   0.233   0.925   2.169  1.9231  2.1307  0.1792
 3111SOL    HW220967   0.381   0.914   2.141 -1.6447  0.9243 -2.3779
 3112SOL     OW20968   3.119   4.650   0.779 -0.5736 -0.8492 -0.1266
 3112SOL    HW120969   3.212   4.655   0.756 -0.2846 -1.6722  0.8608
 3112SOL    HW220970   3.081   4.721   0.728  2.1923 -0.4714 -1.6364
 3113SOL     OW20971   2.595   2.854  16.888  0.6586  0.2677  0.3637
 3113SOL    HW120972   2.644   2.784  16.930  1.5498  1.2192  0.9344
 3113SOL    HW220973   2.516   2.856  16.941 -0.7445 -0.7422 -1.7052
 3114SOL     OW20974   0.206   1.742   8.038  0.5897  0.3717  0.3360
 3114SOL    HW120975   0.274   1.748   8.106  0.6840  0.2440  0.2511
 3114SOL    HW220976   0.172   1.828   8.062 -0.4369 -0.1736  0.8241
 3115SOL     OW20977   0.715   4.688   2.464 -0.3906 -0.0376  0.0029
 3115SOL    HW120978   0.645   4.640   2.421 -0.0357  0.7338 -1.4389
 3115SOL    HW220979   0.677   0.037   2.435  0.8058  0.2394 -0.7756
 3116SOL     OW20980   0.382   1.254   8.802 -0.0545  0.2686 -0.2724
 3116SOL    HW120981   0.345   1.185   8.856  1.2197  1.0381  1.5496
 3116SOL    HW220982   0.350   1.236   8.713 -0.8554 -0.5788  0.1902
 3117SOL     OW20983   0.595   1.454   6.981  0.3499 -0.1451  0.4286
 3117SOL    HW120984   0.572   1.416   7.066 -1.5914  0.8892  0.3788
 3117SOL    HW220985   0.537   1.531   6.984 -2.5523 -2.3613  0.8260
 3118SOL     OW20986   2.031   0.820   4.680 -0.3730  0.0254 -0.2248
 3118SOL    HW120987   2.016   0.725   4.679 -0.6112  0.0619 -0.0689
 3118SOL    HW220988   2.004   0.823   4.772 -0.5256  0.5784 -0.2901
 3119SOL     OW20989   2.295   0.994   0.551 -0.2277 -0.5980  0.6672
 3119SOL    HW120990   2.307   1.078   0.596  3.1241 -0.9614  0.4741
 3119SOL    HW220991   2.202   1.001   0.529  0.4910  1.3886 -1.7567
 3120SOL     OW20992   3.578   2.692   3.614  0.3077  0.0667 -0.4785
 3120SOL    HW120993   3.491   2.724   3.637  0.2919  1.3847 -2.4000
 3120SOL    HW220994   3.550   2.612   3.569 -0.6539 -0.4500  1.0201
 3121SOL     OW20995   0.485   2.079  12.630  0.2543 -0.0654 -0.1723
 3121SOL    HW120996   0.464   2.064  12.538  1.5085 -0.8554 -0.3304
 3121SOL    HW220997   0.397   2.090  12.666 -0.2463 -2.6696 -0.6081
 3122SOL     OW20998   2.100   3.138   7.981 -0.0630 -0.8589 -0.3640
 3122SOL    HW120999   2.032   3.196   7.946 -0.3981 -1.7642 -1.2255
 3122SOL    HW221000   2.147   3.192   8.044 -1.6370 -0.8276  0.7937
 3123SOL     OW21001   2.898   0.854  15.244  0.0653 -0.3700 -0.1361
 3123SOL    HW121002   2.896   0.799  15.322 -0.1802  1.2675  1.0179
 3123SOL    HW221003   2.835   0.813  15.185  1.7078 -0.6289 -1.7099
 3124SOL     OW21004   3.576   1.738  11.497 -0.2354  0.0580 -1.0854
 3124SOL    HW121005   3.579   1.755  11.403 -1.5759 -2.0430 -1.4881
 3124SOL    HW221006   3.515   1.801  11.535 -1.4262 -2.8682  1.8280
 3125SOL     OW21007   0.758   3.507   0.900  0.0928  0.2747  0.1007
 3125SOL    HW121008   0.758   3.520   0.995 -0.4549 -1.4088  0.3297
 3125SOL    HW221009   0.804   3.423   0.903 -0.2834  0.1383  2.5315
 3126SOL     OW21010   0.709   0.443   8.299 -0.1454 -0.0095  0.1264
 3126SOL    HW121011   0.719   0.369   8.358 -1.0250  1.3104  1.9528
 3126SOL    HW221012   0.678   0.389   8.227 -0.0084 -0.3166  0.3001
 3127SOL     OW21013   1.699   1.980   0.530  0.6781  0.2257 -0.0491
 3127SOL    HW121014   1.696   1.899   0.479 -0.6270  0.0296  0.3354
 3127SOL    HW221015   1.606   1.998   0.544  0.8778  1.7024 -0.6442
 3128SOL     OW21016   1.039   3.641   7.113 -0.0786 -0.0034  0.0733
 3128SOL    HW121017   0.977   3.711   7.135  0.0457  0.3873 -0.8499
 3128SOL    HW221018   0.978   3.567   7.116  1.1792 -1.0442  0.0055
 3129SOL     OW21019   0.303   3.842   1.664  0.0734  0.4960  0.0499
 3129SOL    HW121020   0.222   3.824   1.712  0.3192 -0.8880 -0.0534
 3129SOL    HW221021   0.294   3.767   1.605 -1.2563  1.4330 -0.9665
 3130SOL     OW21022   2.576   4.544   6.120 -0.2330  0.2411  0.6432
 3130SOL    HW121023   2.563   4.450   6.115  0.2101  0.0191  3.5025
 3130SOL    HW221024   2.562   4.557   6.214 -0.4662  1.3401  0.4577
 3131SOL     OW21025   4.046   0.194   5.310 -0.0865 -0.0723  0.0198
 3131SOL    HW121026   4.033   0.203   5.216  0.5963  0.2702 -0.0476
 3131SOL    HW221027   4.017   0.104   5.320  1.7565 -0.4382  2.1240
 3132SOL     OW21028   0.170   3.728  11.176 -0.3644 -0.5298 -0.2943
 3132SOL    HW121029   0.129   3.716  11.262  1.8392  2.0678  1.1181
 3132SOL    HW221030   0.106   3.677  11.127  0.9122 -2.0791 -0.3445
 3133SOL     OW21031   2.907   4.215   9.543 -0.6387  0.2000 -0.1623
 3133SOL    HW121032   2.977   4.193   9.481  0.3198  1.1025  0.6071
 3133SOL    HW221033   2.886   4.308   9.534  0.0611  0.4470  0.7144
 3134SOL     OW21034   0.330   1.928   3.273 -0.3836 -0.6296 -0.1684
 3134SOL    HW121035   0.316   1.855   3.213  1.2062 -0.2783 -0.9592
 3134SOL    HW221036   0.417   1.898   3.298  0.1212 -0.5587 -1.8753
 3135SOL     OW21037   2.155   4.087   1.342  0.1074  0.2339 -0.0818
 3135SOL    HW121038   2.173   3.998   1.313 -0.2041  0.0954  0.1489
 3135SOL    HW221039   2.242   4.124   1.359  1.0890 -0.6555 -3.1076
 3136SOL     OW21040   0.474   2.125   4.761 -0.6411 -0.6339 -0.1749
 3136SOL    HW121041   0.470   2.221   4.753  3.2331 -0.3626  0.8077
 3136SOL    HW221042   0.427   2.105   4.680  0.2579  0.2916 -0.9376
 3137SOL     OW21043   1.879   4.705   2.332 -0.6956  0.3559  0.0338
 3137SOL    HW121044   1.964   4.661   2.334  1.0337  3.7628  1.2967
 3137SOL    HW221045   1.860   4.694   2.425 -1.1528 -0.9979 -0.2270
 3138SOL     OW21046   1.126   2.372   7.583 -0.3552 -0.2031 -0.2287
 3138SOL    HW121047   1.057   2.351   7.646 -0.6101  1.2118 -0.0222
 3138SOL    HW221048   1.114   2.467   7.575 -0.5034 -0.1736  0.3451
 3139SOL     OW21049   1.634   2.234   4.907 -0.0359 -0.0093  0.1641
 3139SOL    HW121050   1.611   2.164   4.846  2.0886 -0.9502  0.4686
 3139SOL    HW221051   1.705   2.281   4.864 -0.8528  0.1918 -0.9487
 3140SOL     OW21052   0.257   3.562   7.753  0.6008  0.4518  0.3844
 3140SOL    HW121053   0.230   3.549   7.663 -0.4733 -0.7333  0.8775
 3140SOL    HW221054   0.311   3.641   7.746  2.2083 -0.4964  1.8582
 3141SOL     OW21055   3.518   1.608   2.509 -0.2213  1.2726 -0.2135
 3141SOL    HW121056   3.558   1.605   2.596 -0.5817  0.2847 -0.0736
 3141SOL    HW221057   3.427   1.608   2.538 -0.2597  0.8427 -0.3249
 3142SOL     OW21058   2.680   2.453   0.530 -0.0421 -0.1473  0.3398
 3142SOL    HW121059   2.684   2.541   0.567  1.7587 -0.4519  0.8614
 3142SOL    HW221060   2.773   2.440   0.509 -0.0932  2.2934 -1.4057
 3143SOL     OW21061   0.934   2.429   8.554 -0.3622 -0.5358 -0.6100
 3143SOL    HW121062   0.936   2.416   8.649  0.6835 -0.7554 -0.6635
 3143SOL    HW221063   1.004   2.490   8.534  0.6386 -1.1381  1.0460
 3144SOL     OW21064   1.024   2.886   9.252 -0.1009 -0.1458 -0.3656
 3144SOL    HW121065   1.078   2.828   9.198  1.5177  1.4819 -0.5454
 3144SOL    HW221066   1.022   2.962   9.193  1.3019 -0.7791 -1.2340
 3145SOL     OW21067   2.985   0.980   7.413 -0.0564  0.3069 -0.5033
 3145SOL    HW121068   3.040   0.902   7.407  1.6108  1.4503 -0.1400
 3145SOL    HW221069   2.900   0.940   7.433  0.4520  0.7473  2.4816
 3146SOL     OW21070   4.178   2.981  14.173  0.2042  0.4570 -0.4067
 3146SOL    HW121071   4.099   2.937  14.143  1.0280  0.1309 -2.0614
 3146SOL    HW221072   4.236   2.978  14.097 -1.6875 -0.4206 -1.8059
 3147SOL     OW21073   4.160   1.150   5.890  0.4972 -0.3064 -0.0887
 3147SOL    HW121074   4.245   1.138   5.931 -0.3170  0.8157  1.9366
 3147SOL    HW221075   4.173   1.239   5.856  2.0256  0.8091  3.3935
 3148SOL     OW21076   4.522   3.605   3.854  0.7552  0.4728 -0.1917
 3148SOL    HW121077   4.508   3.513   3.874 -0.1148  0.3268 -1.4510
 3148SOL    HW221078   4.455   3.614   3.787 -0.1943  2.0928  0.9623
 3149SOL     OW21079   4.669   2.437   2.678  0.1417  0.0425  0.2356
 3149SOL    HW121080   4.667   2.461   2.585 -2.2344  0.9140  0.5161
 3149SOL    HW221081   4.675   2.341   2.670 -0.4803  0.0786 -0.6675
 3150SOL     OW21082   3.002   3.146  11.825  0.0009  0.0749 -0.3341
 3150SOL    HW121083   2.925   3.190  11.789 -1.3406 -1.2582  0.9533
 3150SOL    HW221084   2.950   3.071  11.854  0.2106 -0.4065 -1.1804
 3151SOL     OW21085   3.153   0.572  10.265 -0.0637  0.4645  0.1066
 3151SOL    HW121086   3.193   0.514  10.330  1.5525  1.5237  0.0446
 3151SOL    HW221087   3.203   0.652  10.277 -0.5460  0.5263  1.7232
 3152SOL     OW21088   2.325   3.498   5.320 -0.1902 -0.2982  0.4249
 3152SOL    HW121089   2.304   3.493   5.226  0.6859  0.7734  0.1782
 3152SOL    HW221090   2.407   3.450   5.321 -0.1789 -0.3302 -0.9848
 3153SOL     OW21091   1.464   0.315   5.126  0.7299  0.4926 -0.1779
 3153SOL    HW121092   1.410   0.380   5.171  1.3159 -0.2146  1.5484
 3153SOL    HW221093   1.474   0.241   5.187  0.4600 -1.0406 -2.0089
 3154SOL     OW21094   2.679   0.569   3.181 -0.4003  0.2743  0.3458
 3154SOL    HW121095   2.745   0.573   3.112 -2.0051  0.0201 -1.2030
 3154SOL    HW221096   2.669   0.474   3.191 -0.8416  0.1709 -1.1032
 3155SOL     OW21097   2.875   1.141   8.249  0.2725 -0.8443  0.0879
 3155SOL    HW121098   2.846   1.228   8.278  3.0898 -0.0786  0.5558
 3155SOL    HW221099   2.861   1.149   8.154 -1.2763 -2.7175  0.1599
 3156SOL     OW21100   0.743   1.150   3.318 -0.0156 -0.4927  0.7032
 3156SOL    HW121101   0.668   1.093   3.299 -0.6492 -0.3288  2.6962
 3156SOL    HW221102   0.696   1.230   3.345  1.9549  1.3712 -1.4198
 3157SOL     OW21103   1.725   1.421   5.204  0.5148  0.1166 -0.2022
 3157SOL    HW121104   1.765   1.506   5.224 -1.0265  0.7689  0.1704
 3157SOL    HW221105   1.685   1.442   5.119  2.9599  0.9170 -1.1711
 3158SOL     OW21106   0.017   1.163   8.373 -0.0522  0.4171  0.2312
 3158SOL    HW121107   0.037   1.246   8.331 -1.3023  1.0683  0.9377
 3158SOL    HW221108   4.659   1.145   8.354  0.2164 -1.4030  0.6555
 3159SOL     OW21109   0.569   4.483   2.339  0.0237 -0.6521 -0.0595
 3159SOL    HW121110   0.535   4.480   2.249 -0.5632  0.0764  0.1377
 3159SOL    HW221111   0.490   4.469   2.390 -1.5614 -1.0142 -2.5987
 3160SOL     OW21112   0.078   4.423  15.685 -0.1207  0.1226  0.9525
 3160SOL    HW121113   0.016   4.492  15.666  1.0556  1.4774  2.0058
 3160SOL    HW221114   0.095   4.442  15.778  0.7891 -1.0047  1.0184
 3161SOL     OW21115   0.416   4.504  14.280  0.5004 -0.0015 -0.1025
 3161SOL    HW121116   0.430   4.596  14.302  0.0332  0.0481 -0.0199
 3161SOL    HW221117   0.461   4.467  14.356 -0.0475  1.5761  1.0111
 3162SOL     OW21118   3.536   2.916   6.995 -0.6058 -0.0801  0.0789
 3162SOL    HW121119   3.553   2.879   6.909  1.6133 -0.0870  0.5244
 3162SOL    HW221120   3.447   2.882   7.005 -0.5918 -0.4882 -1.1750
 3163SOL     OW21121   3.361   1.836  14.980 -0.1349 -0.2512  0.5540
 3163SOL    HW121122   3.267   1.831  14.963 -0.5362  1.0990  2.3236
 3163SOL    HW221123   3.387   1.746  14.961  0.1242  0.5375 -2.7629
 3164SOL     OW21124   2.980   3.071   5.751 -0.0963 -0.3238 -0.4722
 3164SOL    HW121125   2.992   2.976   5.757  0.7596 -0.0994  1.6196
 3164SOL    HW221126   2.889   3.086   5.777 -0.2794  0.3627 -1.5290
 3165SOL     OW21127   2.820   3.171   4.773 -0.8258 -0.0556  0.4968
 3165SOL    HW121128   2.909   3.145   4.748 -1.8177 -3.1386  0.1166
 3165SOL    HW221129   2.811   3.125   4.857 -2.8542 -0.0097  0.3031
 3166SOL     OW21130   1.501   2.367   8.754  0.3464  0.4759  0.3727
 3166SOL    HW121131   1.501   2.461   8.770 -3.2039  0.4893  0.4471
 3166SOL    HW221132   1.514   2.335   8.844  1.5221 -1.8668 -0.6222
 3167SOL     OW21133   1.453   0.036  16.084 -0.3937 -0.0457 -0.1808
 3167SOL    HW121134   1.485   0.110  16.032  1.9155 -0.0160  1.2633
 3167SOL    HW221135   1.513   4.712  16.038  0.3644  0.4886  0.1263
 3168SOL     OW21136   4.480   4.200   6.172 -0.3258 -0.0754  0.5974
 3168SOL    HW121137   4.520   4.262   6.234  0.9598 -2.1049  1.8244
 3168SOL    HW221138   4.561   4.165   6.134 -0.3524  1.0882 -0.5042
 3169SOL     OW21139   2.799   0.991   7.740 -0.0476  0.0221  0.0826
 3169SOL    HW121140   2.852   0.912   7.752  0.6809  0.7786  1.9046
 3169SOL    HW221141   2.712   0.964   7.771 -0.5320  1.2364 -0.2200
 3170SOL     OW21142   4.107   1.781  15.355 -0.1131  0.2463  0.5972
 3170SOL    HW121143   4.020   1.820  15.348 -0.3158  0.0513  2.1993
 3170SOL    HW221144   4.163   1.857  15.373 -0.1019  0.6024 -0.9103
 3171SOL     OW21145   0.546   1.891   0.766  0.3063 -0.1284  0.7847
 3171SOL    HW121146   0.549   1.913   0.672  1.7251  1.3856  1.1946
 3171SOL    HW221147   0.504   1.805   0.758  1.1170 -0.4564  0.0747
 3172SOL     OW21148   1.964   2.042   4.833  0.0387 -0.2766  0.1946
 3172SOL    HW121149   1.983   2.135   4.828  1.7599 -0.5659  1.0074
 3172SOL    HW221150   1.918   2.040   4.917 -0.7945  2.0427 -0.2173
 3173SOL     OW21151   4.366   3.181   6.076 -0.5475 -0.4528  0.1891
 3173SOL    HW121152   4.350   3.249   6.011  1.2939 -0.2423 -0.0534
 3173SOL    HW221153   4.448   3.148   6.039 -0.2892  1.5930 -1.0298
 3174SOL     OW21154   1.690   1.623   6.577  0.1762  0.0283  0.5482
 3174SOL    HW121155   1.738   1.704   6.559 -0.9436  0.4411 -0.5908
 3174SOL    HW221156   1.674   1.600   6.486  2.1931  0.1045  0.1784
 3175SOL     OW21157   2.941   3.790   9.848 -0.1234  0.2056 -0.6678
 3175SOL    HW121158   2.878   3.862   9.844  1.2800  1.4452 -0.4966
 3175SOL    HW221159   2.886   3.715   9.870  0.0181 -0.0307 -1.1228
 3176SOL     OW21160   4.651   1.277   5.832  0.1869 -0.4653 -0.0131
 3176SOL    HW121161   4.720   1.280   5.898  1.2068 -1.4829 -1.0210
 3176SOL    HW221162   4.634   1.370   5.822  1.5826 -0.3331 -1.1789
 3177SOL     OW21163   0.126   1.990   8.086 -0.1237  0.0400  0.8461
 3177SOL    HW121164   0.173   2.056   8.137 -0.6199 -0.3509  1.8040
 3177SOL    HW221165   0.046   2.040   8.070 -0.7694 -1.0448  0.6620
 3178SOL     OW21166   3.938   2.352   3.855 -0.3138  0.4187  0.0522
 3178SOL    HW121167   3.929   2.283   3.920  0.5725 -0.6930 -1.0066
 3178SOL    HW221168   3.856   2.342   3.806 -0.2969  1.0424 -0.1107
 3179SOL     OW21169   0.777   0.897   6.694  0.0672  1.0431 -0.2235
 3179SOL    HW121170   0.820   0.946   6.624 -1.8277 -1.6897 -3.2906
 3179SOL    HW221171   0.815   0.911   6.781  0.4605  0.7496 -0.3476
 3180SOL     OW21172   2.202   3.548   9.720  0.0067  0.0117  0.3869
 3180SOL    HW121173   2.132   3.494   9.681 -0.2703 -0.4210  1.4882
 3180SOL    HW221174   2.152   3.588   9.790  2.1467  1.4128  1.1090
 3181SOL     OW21175   3.946   4.296   1.567  0.3698  0.0667  0.1442
 3181SOL    HW121176   4.017   4.269   1.626  2.3126  3.0751 -0.8543
 3181SOL    HW221177   3.933   4.212   1.524  2.2312  0.6736 -1.5661
 3182SOL     OW21178   1.491   1.684   2.370 -0.3139 -0.3277 -0.2978
 3182SOL    HW121179   1.485   1.640   2.285 -1.3169  2.0250 -1.4494
 3182SOL    HW221180   1.529   1.612   2.422 -1.0260 -0.8919 -0.5584
 3183SOL     OW21181   1.313   0.050  13.633  0.3146  0.3097 -0.1453
 3183SOL    HW121182   1.332   0.143  13.636 -1.0115  0.6212 -1.0300
 3183SOL    HW221183   1.373   0.019  13.566  0.6447 -1.2144  0.8501
 3184SOL     OW21184   4.041   2.898   8.770 -0.1425 -0.5354  0.3841
 3184SOL    HW121185   3.998   2.828   8.818  1.1892 -0.6141  1.4588
 3184SOL    HW221186   4.124   2.899   8.818 -1.8672  3.0245  3.3343
 3185SOL     OW21187   0.504   1.357   2.368 -0.4032 -0.0820 -0.3351
 3185SOL    HW121188   0.587   1.386   2.406  0.2079 -1.9797 -0.2150
 3185SOL    HW221189   0.510   1.263   2.387  2.0295  0.0126 -0.6959
 3186SOL     OW21190   3.719   1.308   2.711 -0.3042  0.5573 -0.1516
 3186SOL    HW121191   3.661   1.319   2.786  0.1580  0.1439  0.2698
 3186SOL    HW221192   3.657   1.324   2.641  0.7216 -0.0674 -1.2043
 3187SOL     OW21193   3.190   2.925  13.836  0.0434 -0.6744  0.2671
 3187SOL    HW121194   3.108   2.878  13.821 -0.9539  1.2041 -0.1618
 3187SOL    HW221195   3.225   2.940  13.749 -0.8428 -1.3736 -0.2153
 3188SOL     OW21196   1.548   0.383   2.412 -0.7079  0.0902 -0.2907
 3188SOL    HW121197   1.623   0.345   2.458 -0.3032  1.4843  0.2037
 3188SOL    HW221198   1.565   0.346   2.326 -0.7419  0.5109 -0.4762
 3189SOL     OW21199   3.844   0.530   5.778 -0.3843 -0.7987  0.1372
 3189SOL    HW121200   3.845   0.579   5.861 -0.0894 -0.0078 -0.3359
 3189SOL    HW221201   3.918   0.470   5.789 -0.4074 -1.0356 -1.0338
 3190SOL     OW21202   3.494   3.309   3.202  0.3390  0.5536  0.1409
 3190SOL    HW121203   3.476   3.402   3.218 -0.5843  0.0961  1.7900
 3190SOL    HW221204   3.528   3.297   3.114  0.2245  0.3950  0.1181
 3191SOL     OW21205   3.440   4.323   4.397  0.0425 -0.4633  0.0043
 3191SOL    HW121206   3.514   4.282   4.443  1.0812  1.6230  0.1979
 3191SOL    HW221207   3.443   4.404   4.448 -1.9367  0.5839 -1.5484
 3192SOL     OW21208   1.129   2.881  15.868  0.2642  0.0574  0.3426
 3192SOL    HW121209   1.172   2.955  15.826  0.4632  1.1974  2.5504
 3192SOL    HW221210   1.073   2.856  15.795  1.2328  0.8226 -0.6631
 3193SOL     OW21211   0.665   3.327   5.079  0.4868  0.2693 -0.5468
 3193SOL    HW121212   0.675   3.409   5.128  0.9879 -0.1226 -0.0012
 3193SOL    HW221213   0.669   3.265   5.152 -0.8371  3.1916  2.0517
 3194SOL     OW21214   3.730   1.786   4.926 -0.0651  0.5263 -0.0819
 3194SOL    HW121215   3.725   1.806   5.019  0.3934  2.0247 -0.3872
 3194SOL    HW221216   3.814   1.829   4.909 -0.2479  0.3923 -1.3848
 3195SOL     OW21217   2.199   2.257   5.879  0.0249 -0.3855 -0.1309
 3195SOL    HW121218   2.250   2.336   5.896  0.2591  0.0207 -2.5895
 3195SOL    HW221219   2.270   2.204   5.843 -0.0520  0.2790 -1.2871
 3196SOL     OW21220   3.309   1.202   3.090 -0.2063  1.0078  0.2975
 3196SOL    HW121221   3.296   1.111   3.119 -1.8639  1.9912  2.7260
 3196SOL    HW221222   3.229   1.214   3.039 -0.5425 -0.2728  0.5280
 3197SOL     OW21223   3.835   1.260  12.570  0.3558 -0.9048 -0.3357
 3197SOL    HW121224   3.900   1.254  12.501 -3.1047 -1.0799 -3.5585
 3197SOL    HW221225   3.826   1.168  12.596 -2.5439 -0.8219 -1.0853
 3198SOL     OW21226   1.053   3.089  16.296  0.5348  0.8864  0.2539
 3198SOL    HW121227   0.985   3.022  16.291  0.3967  1.1770 -1.8142
 3198SOL    HW221228   1.099   3.085  16.212  1.7997  0.0070  0.9930
 3199SOL     OW21229   3.283   4.238   5.138 -0.0315 -0.2837  0.1026
 3199SOL    HW121230   3.292   4.216   5.231 -1.4089  2.2324  0.8159
 3199SOL    HW221231   3.252   4.328   5.139  1.9452  0.3966 -0.1105
 3200SOL     OW21232   3.464   3.374   4.441 -1.2182  0.5735 -0.0632
 3200SOL    HW121233   3.454   3.321   4.362  1.4700  0.4875 -0.3461
 3200SOL    HW221234   3.559   3.360   4.444 -1.4132  0.0434  3.9148
 3201SOL     OW21235   3.720   2.308   5.627  0.3109 -0.7302  0.0982
 3201SOL    HW121236   3.744   2.265   5.545  0.6438  4.6389 -2.6677
 3201SOL    HW221237   3.724   2.402   5.608 -0.6450 -0.7793 -0.3282
 3202SOL     OW21238   1.237   4.429   8.241 -0.0074  0.0778  0.7546
 3202SOL    HW121239   1.315   4.463   8.199 -0.1620  2.6601  2.5548
 3202SOL    HW221240   1.251   4.474   8.324 -0.9664  2.2707 -0.2600
 3203SOL     OW21241   3.580   3.025   8.369  0.4631  0.6064 -0.1831
 3203SOL    HW121242   3.510   2.959   8.367  3.0722 -2.2243  1.7242
 3203SOL    HW221243   3.649   2.959   8.377 -1.7180 -1.3682  2.4379
 3204SOL     OW21244   2.694   2.966   9.315  0.6460  0.2097 -0.2499
 3204SOL    HW121245   2.788   2.982   9.324  0.5847  0.2042  0.3734
 3204SOL    HW221246   2.668   2.951   9.405 -1.8703  1.9842 -0.6749
 3205SOL     OW21247   4.548   1.807   8.801  0.0470  0.0528 -0.0577
 3205SOL    HW121248   4.474   1.760   8.762 -0.1509  0.3520 -0.0367
 3205SOL    HW221249   4.592   1.741   8.855  1.1568 -0.1877 -1.2528
 3206SOL     OW21250   2.527   4.027   6.529  0.2255 -0.2224  0.0946
 3206SOL    HW121251   2.578   4.105   6.505  0.3451 -0.2084  0.3839
 3206SOL    HW221252   2.581   3.981   6.593 -0.1978  0.3418  0.8643
 3207SOL     OW21253   2.729   4.462   5.060 -0.7887  0.0421  0.7842
 3207SOL    HW121254   2.655   4.457   5.120 -0.2960 -1.1598  1.2831
 3207SOL    HW221255   2.765   4.545   5.089  0.9989 -0.4245 -0.1086
 3208SOL     OW21256   1.435   4.165   1.529 -0.0024  0.6269  1.1019
 3208SOL    HW121257   1.385   4.217   1.591  0.3470  2.6312 -0.3014
 3208SOL    HW221258   1.445   4.090   1.588  1.8297  0.9852  1.2418
 3209SOL     OW21259   1.422   2.858   9.539 -0.3628 -0.3564  0.0892
 3209SOL    HW121260   1.461   2.855   9.626  1.4130 -0.4772 -0.7161
 3209SOL    HW221261   1.444   2.769   9.510 -0.6279  0.2435 -1.9688
 3210SOL     OW21262   0.109   3.029   9.013  0.1813  0.0851  0.2410
 3210SOL    HW121263   0.097   3.120   9.040  2.8395  0.1785  1.0743
 3210SOL    HW221264   0.133   2.997   9.100 -0.1374 -1.8909 -0.4147
 3211SOL     OW21265   0.329   4.313   8.470 -0.3984 -0.0022 -0.3439
 3211SOL    HW121266   0.277   4.388   8.443 -1.9905 -1.1629 -0.5335
 3211SOL    HW221267   0.248   4.265   8.486 -0.2843 -0.4560 -1.0793
 3212SOL     OW21268   2.035   3.535  13.809  0.0891  0.1162 -0.5422
 3212SOL    HW121269   2.064   3.625  13.799  0.2688  0.0650 -0.4731
 3212SOL    HW221270   2.030   3.529  13.904 -1.1418 -1.7761 -0.7290
 3213SOL     OW21271   2.344   4.545  11.254 -0.8585 -0.1624  0.3802
 3213SOL    HW121272   2.396   4.625  11.266 -0.0212 -0.7148  0.4524
 3213SOL    HW221273   2.263   4.585  11.222 -0.2254  0.5074 -0.4158
 3214SOL     OW21274   3.288   0.598   6.284 -0.6811  0.4530  0.1388
 3214SOL    HW121275   3.238   0.672   6.318  0.2157  0.5344  1.2710
 3214SOL    HW221276   3.353   0.639   6.227  0.5587 -1.1928  0.3512
 3215SOL     OW21277   3.181   2.657  11.277 -0.0841 -0.0899  0.0365
 3215SOL    HW121278   3.101   2.640  11.327  0.6642 -0.0695  1.2433
 3215SOL    HW221279   3.179   2.751  11.265 -0.7822 -0.0035  0.8174
 3216SOL     OW21280   0.267   3.166   3.256 -0.1615  0.2505 -0.0665
 3216SOL    HW121281   0.193   3.186   3.313 -0.8575  1.0536 -1.2553
 3216SOL    HW221282   0.269   3.074   3.281  0.8641  0.7063  1.5603
 3217SOL     OW21283   4.661   2.134   3.660  0.6232 -0.0127  0.2844
 3217SOL    HW121284   4.678   2.042   3.638  3.0812  0.7427 -1.0266
 3217SOL    HW221285   4.714   2.154   3.737 -0.5473  0.5927  0.9320
 3218SOL     OW21286   0.389   0.795  15.728  0.0598 -0.4482 -0.4012
 3218SOL    HW121287   0.338   0.787  15.647 -2.8286 -1.5111  1.5567
 3218SOL    HW221288   0.415   0.886  15.737 -1.1625 -0.1698  0.2358
 3219SOL     OW21289   3.951   0.461   8.924  0.0053 -0.0744  0.1636
 3219SOL    HW121290   4.013   0.419   8.865 -0.7767 -1.5413  0.3881
 3219SOL    HW221291   3.871   0.476   8.873  1.9102  2.1379 -2.1678
 3220SOL     OW21292   3.958   1.225   0.270  0.1112  0.0826 -0.0525
 3220SOL    HW121293   4.046   1.243   0.305 -0.4596  0.9804  0.9363
 3220SOL    HW221294   3.933   1.296   0.211  2.9379 -0.3196 -1.7266
 3221SOL     OW21295   0.602   2.039   7.900  0.0023 -0.0654  0.7392
 3221SOL    HW121296   0.562   2.101   7.961  1.7214  0.7901  0.9930
 3221SOL    HW221297   0.686   2.018   7.941  1.0296 -0.5725 -1.6185
 3222SOL     OW21298   0.374   3.642  12.144  0.4029 -0.3257  0.4474
 3222SOL    HW121299   0.447   3.669  12.090 -0.4599 -0.1553 -0.6322
 3222SOL    HW221300   0.417   3.605  12.221  1.5629 -1.5628 -0.8276
 3223SOL     OW21301   4.546   4.180   9.209  0.2697 -0.1759 -0.4225
 3223SOL    HW121302   4.639   4.162   9.219 -0.4955 -2.2120  3.2359
 3223SOL    HW221303   4.568   4.263   9.167  2.6792  0.6381  2.4590
 3224SOL     OW21304   2.253   1.557   1.822 -0.1317  0.1574 -0.1927
 3224SOL    HW121305   2.188   1.569   1.891 -1.0484 -1.7675 -0.6952
 3224SOL    HW221306   2.234   1.636   1.772  1.3822 -0.1064 -1.1893
 3225SOL     OW21307   0.404   2.631   9.271  0.4722  0.2695 -0.0128
 3225SOL    HW121308   0.395   2.725   9.258  0.3547  0.1100 -1.0993
 3225SOL    HW221309   0.462   2.601   9.201  1.2090  1.1679  0.2172
 3226SOL     OW21310   4.664   0.670   9.501 -0.3912  0.4994  0.5186
 3226SOL    HW121311   4.703   0.753   9.530 -1.6274  1.7918 -1.5480
 3226SOL    HW221312   0.004   0.610   9.513 -0.6881 -0.3605 -2.1032
 3227SOL     OW21313   2.645   1.404   6.651 -0.3540 -0.2278  0.2752
 3227SOL    HW121314   2.603   1.342   6.710 -2.1321  0.2723 -0.4594
 3227SOL    HW221315   2.572   1.466   6.640 -0.0467  0.0623 -0.0790
 3228SOL     OW21316   2.449   3.619   0.479  0.2199 -0.3761  0.1662
 3228SOL    HW121317   2.455   3.714   0.465  0.7825 -0.3534  0.5558
 3228SOL    HW221318   2.439   3.590   0.389 -1.5446  0.3885  0.1041
 3229SOL     OW21319   0.212   3.080   2.338  0.1159 -0.2381 -0.0300
 3229SOL    HW121320   0.208   3.174   2.320 -0.6743 -0.1084  0.8537
 3229SOL    HW221321   0.126   3.054   2.307  0.6775 -2.4154  0.2027
 3230SOL     OW21322   3.061   4.597  10.559 -0.8228 -0.2116  0.2427
 3230SOL    HW121323   3.151   4.584  10.528 -1.4892 -0.5634 -1.5505
 3230SOL    HW221324   3.021   4.526  10.509 -0.9300  1.0476 -1.4633
 3231SOL     OW21325   2.450   3.040   0.483  0.2629 -0.1290  0.6080
 3231SOL    HW121326   2.383   2.994   0.534  1.5639 -1.3480  1.2171
 3231SOL    HW221327   2.439   3.032   0.388 -0.3313 -0.8730  0.7345
 3232SOL     OW21328   1.361   2.668   6.532  0.4582 -0.3857  0.6862
 3232SOL    HW121329   1.329   2.640   6.617  1.5911 -1.8366  0.6341
 3232SOL    HW221330   1.433   2.725   6.558 -0.0650  1.6504 -2.2524
 3233SOL     OW21331   4.378   1.156  17.479 -0.4455 -0.0725 -0.3145
 3233SOL    HW121332   4.472   1.170  17.469 -0.2926 -1.9014 -1.2793
 3233SOL    HW221333   4.364   1.151  17.385  0.7362 -1.4054 -0.4189
 3234SOL     OW21334   0.581   3.867   3.357 -0.0800  0.0570  0.2595
 3234SOL    HW121335   0.651   3.844   3.296 -1.3620 -1.3760 -0.6443
 3234SOL    HW221336   0.545   3.949   3.323  0.4520 -0.2026 -0.8941
 3235SOL     OW21337   1.026   1.039  14.681 -0.4415 -0.0406 -0.1690
 3235SOL    HW121338   1.108   1.047  14.632 -0.7774  0.8588 -0.5800
 3235SOL    HW221339   1.059   0.998  14.761 -2.1731  0.1584  0.6323
 3236SOL     OW21340   1.943   1.725   8.934 -0.6320 -0.6052  0.7839
 3236SOL    HW121341   1.973   1.663   9.000 -0.8367 -2.2167 -0.6467
 3236SOL    HW221342   1.917   1.665   8.864  0.7552  1.2436 -1.3309
 3237SOL     OW21343   2.081   1.245  17.598 -0.6008  0.1796 -0.8206
 3237SOL    HW121344   2.054   1.290  17.519  0.7361  0.8430 -0.9068
 3237SOL    HW221345   2.052   1.304  17.668  1.6982 -2.6410  2.5628
 3238SOL     OW21346   4.367   1.412   0.008  0.7878 -0.4396 -0.0518
 3238SOL    HW121347   4.303   1.484   0.011  1.3385 -0.0015  1.5155
 3238SOL    HW221348   4.368   1.399  17.649 -1.9787  0.6869 -0.2511
 3239SOL     OW21349   0.966   1.131   5.253  0.1203 -0.0853  0.4296
 3239SOL    HW121350   1.035   1.072   5.282  1.7805  0.7269 -1.8818
 3239SOL    HW221351   0.890   1.089   5.292 -0.6907  0.6071 -0.3882
 3240SOL     OW21352   1.967   2.907  12.661  0.0705  0.0430  0.2626
 3240SOL    HW121353   1.946   2.921  12.753 -0.9177  2.1569 -0.2788
 3240SOL    HW221354   1.992   2.993  12.627  3.2095 -1.1592 -0.4578
 3241SOL     OW21355   3.631   3.614  16.241 -0.5225 -0.5688 -0.7116
 3241SOL    HW121356   3.624   3.521  16.260 -1.0775 -0.9190 -2.6281
 3241SOL    HW221357   3.548   3.648  16.276 -0.4198 -1.8260  0.7442
 3242SOL     OW21358   4.290   1.344   3.981  0.8977 -0.0957  0.5386
 3242SOL    HW121359   4.289   1.434   4.014 -1.7908  0.6538 -1.5898
 3242SOL    HW221360   4.289   1.306   4.069  2.1808  0.1060  0.6431
 3243SOL     OW21361   4.095   3.313  10.117  0.0322 -0.2108  0.7472
 3243SOL    HW121362   4.154   3.344  10.049 -1.4138  0.9698  0.0117
 3243SOL    HW221363   4.070   3.398  10.153  0.4379 -0.8492  2.5033
 3244SOL     OW21364   2.289   3.757   5.377  0.2546  0.7951 -0.2500
 3244SOL    HW121365   2.276   3.751   5.472 -1.1400  3.2033 -0.2756
 3244SOL    HW221366   2.299   3.663   5.361 -0.9533  0.5371  0.5148
 3245SOL     OW21367   1.725   2.711   4.622  0.0952 -0.4343 -0.0472
 3245SOL    HW121368   1.629   2.711   4.612 -0.0290  2.7226  1.1444
 3245SOL    HW221369   1.741   2.624   4.658  1.2071 -0.1702  0.0888
 3246SOL     OW21370   3.031   3.436  16.431  0.5349  0.3562  0.0698
 3246SOL    HW121371   2.987   3.389  16.501  1.7255 -2.7255 -1.2730
 3246SOL    HW221372   2.987   3.521  16.435 -1.9617 -0.9037 -0.5718
 3247SOL     OW21373   2.842   3.287  14.416  0.1456 -0.5664 -0.4925
 3247SOL    HW121374   2.914   3.316  14.360  0.5473  0.3093  0.4818
 3247SOL    HW221375   2.806   3.211  14.370 -0.2630 -1.3212  1.0864
 3248SOL     OW21376   2.269   0.004   8.230  0.2639  0.3813 -0.6042
 3248SOL    HW121377   2.252   0.095   8.254  1.8967  0.6944 -0.6580
 3248SOL    HW221378   2.364   0.006   8.243  0.1334 -0.2173  0.4464
 3249SOL     OW21379   3.533   2.172   2.710  0.3437 -0.5726  0.2406
 3249SOL    HW121380   3.455   2.146   2.760  0.9996 -1.8109  0.5941
 3249SOL    HW221381   3.599   2.173   2.779 -0.5815  0.1721  1.1271
 3250SOL     OW21382   1.571   3.856  17.474 -0.1255 -0.1539 -0.5065
 3250SOL    HW121383   1.639   3.923  17.481  1.3014 -1.6054 -0.2893
 3250SOL    HW221384   1.497   3.911  17.448  0.0835 -0.4500 -1.7104
 3251SOL     OW21385   3.871   1.455  12.261 -0.4409  0.6594 -0.0911
 3251SOL    HW121386   3.965   1.441  12.265 -0.4070  1.5093  2.5389
 3251SOL    HW221387   3.829   1.369  12.261 -3.1520  1.9617 -0.4242
 3252SOL     OW21388   0.665   2.952   9.708 -0.5097  0.1051 -0.3885
 3252SOL    HW121389   0.681   2.909   9.624 -1.3702  0.3501 -0.6811
 3252SOL    HW221390   0.672   2.880   9.770  2.0353 -0.0520 -0.8587
 3253SOL     OW21391   0.234   4.078   3.984 -0.4589 -0.2360  0.9867
 3253SOL    HW121392   0.153   4.122   3.958  1.4514  2.7646  0.0472
 3253SOL    HW221393   0.283   4.064   3.903 -0.8604 -0.0666  0.7173
 3254SOL     OW21394   4.328   4.282   4.331 -0.5351 -0.0661  0.1878
 3254SOL    HW121395   4.324   4.187   4.324 -0.4303 -0.0898  0.4660
 3254SOL    HW221396   4.238   4.311   4.314 -1.5539 -2.8310  0.8927
 3255SOL     OW21397   4.502   0.940  12.761  0.2544  0.1231  0.7800
 3255SOL    HW121398   4.593   0.926  12.786  0.9131  4.2132  0.5996
 3255SOL    HW221399   4.468   0.910  12.846  1.5108  1.6964  1.8511
 3256SOL     OW21400   0.960   3.738   9.299 -0.1357 -0.0184 -0.4991
 3256SOL    HW121401   1.045   3.721   9.339 -0.5183 -0.8314 -0.0064
 3256SOL    HW221402   0.900   3.678   9.344 -0.1732 -0.6210 -1.3674
 3257SOL     OW21403   2.397   2.360  12.322 -0.4280 -0.2365  0.2269
 3257SOL    HW121404   2.469   2.336  12.265 -0.7798 -1.1783  0.1735
 3257SOL    HW221405   2.393   2.279  12.373  0.0487 -1.0339 -1.0050
 3258SOL     OW21406   1.747   1.955   3.119  0.2365  0.1963  0.0087
 3258SOL    HW121407   1.835   1.938   3.152 -0.1382  2.0773  1.9921
 3258SOL    HW221408   1.718   2.036   3.160 -0.6005  0.1315 -0.4604
 3259SOL     OW21409   0.825   1.450   7.596  0.0498  0.5431  0.1073
 3259SOL    HW121410   0.803   1.361   7.625  1.5091  0.8715  2.2163
 3259SOL    HW221411   0.864   1.438   7.509 -0.7885  0.6747 -0.2850
 3260SOL     OW21412   2.481   1.834  15.002 -0.3564 -0.6980 -0.5763
 3260SOL    HW121413   2.482   1.913  14.948  5.0850  0.4956  1.2790
 3260SOL    HW221414   2.428   1.873  15.072  0.8685  1.6410 -0.9623
 3261SOL     OW21415   3.815   1.725  15.072 -0.2573  0.2161 -0.2018
 3261SOL    HW121416   3.882   1.665  15.038 -0.6302  0.4130 -1.2845
 3261SOL    HW221417   3.736   1.675  15.091 -0.6754 -0.4759 -3.8092
 3262SOL     OW21418   3.461   0.485   4.098  0.1610  0.2634  0.3766
 3262SOL    HW121419   3.531   0.501   4.035 -2.0829  0.9354 -1.9445
 3262SOL    HW221420   3.476   0.567   4.144  0.8111  0.1162  0.4348
 3263SOL     OW21421   1.839   2.759  16.823 -0.3171 -0.3504  0.2125
 3263SOL    HW121422   1.925   2.726  16.846  0.7434  1.2976 -1.3858
 3263SOL    HW221423   1.808   2.681  16.776  0.5272 -0.1440 -0.6898
 3264SOL     OW21424   0.777   4.097   7.141  0.6029  0.3608  0.2049
 3264SOL    HW121425   0.797   4.128   7.053 -3.0100  1.2857 -0.2907
 3264SOL    HW221426   0.683   4.116   7.151 -0.0964 -1.9335 -2.1402
 3265SOL     OW21427   4.622   3.661   8.894  0.3775  0.0906 -0.0886
 3265SOL    HW121428   4.646   3.724   8.962  3.1339  0.0774 -1.0572
 3265SOL    HW221429   4.576   3.592   8.942 -2.2233  0.9478 -1.3484
 3266SOL     OW21430   3.845   1.861  15.303  0.7545 -0.2469 -0.5146
 3266SOL    HW121431   3.807   1.947  15.285  0.5993  0.3626  2.7512
 3266SOL    HW221432   3.825   1.822  15.217 -0.0263 -0.2360 -0.3394
 3267SOL     OW21433   4.590   0.751   2.673  0.4250  0.2676  0.7039
 3267SOL    HW121434   4.647   0.792   2.608  0.8211  1.7196  1.9438
 3267SOL    HW221435   4.647   0.746   2.750  1.9023  1.3187 -0.3073
 3268SOL     OW21436   0.273   0.064   4.686 -0.0390 -0.2610 -1.0960
 3268SOL    HW121437   0.315   0.136   4.639 -1.6158  2.5088  1.8190
 3268SOL    HW221438   0.344   0.000   4.683  1.6218  1.5777 -0.6262
 3269SOL     OW21439   1.834   0.945   3.578 -0.5769  0.2864 -0.4144
 3269SOL    HW121440   1.833   0.965   3.484  0.0866  0.4640 -0.3872
 3269SOL    HW221441   1.810   0.852   3.573 -3.5549  1.0059  1.1594
 3270SOL     OW21442   1.037   1.829   4.846 -0.1564 -0.1438  0.2620
 3270SOL    HW121443   0.997   1.746   4.871  0.4339 -0.9739 -1.5538
 3270SOL    HW221444   1.074   1.818   4.758  2.2590 -0.3129  1.3243
 3271SOL     OW21445   1.748   0.259  12.377  0.3387 -0.5145 -0.2493
 3271SOL    HW121446   1.710   0.343  12.404 -0.7995  0.2754 -4.2850
 3271SOL    HW221447   1.784   0.239  12.463 -1.0642 -1.6599  0.0576
 3272SOL     OW21448   1.860   3.708   7.706 -0.9058 -0.1474  0.0346
 3272SOL    HW121449   1.813   3.640   7.657 -1.3216 -0.1198  0.3921
 3272SOL    HW221450   1.804   3.724   7.782 -2.3737  0.0143 -1.0793
 3273SOL     OW21451   0.748   3.471   4.234  0.4427 -0.1097 -0.1136
 3273SOL    HW121452   0.704   3.556   4.241  2.4825  0.7815  1.9925
 3273SOL    HW221453   0.745   3.452   4.140  1.1973  0.3698 -0.2329
 3274SOL     OW21454   1.494   1.638   5.740 -0.2202 -0.5839  0.5622
 3274SOL    HW121455   1.497   1.729   5.770 -1.6552 -0.3914  0.1230
 3274SOL    HW221456   1.529   1.583   5.811 -0.0103  0.4721  1.2680
 3275SOL     OW21457   0.205   3.700   8.297  0.1377 -0.4952  0.6681
 3275SOL    HW121458   0.189   3.627   8.357 -0.2887 -0.4783  0.5725
 3275SOL    HW221459   0.300   3.711   8.295  0.0358  0.7234  2.4465
 3276SOL     OW21460   2.930   2.933   9.489  0.1589 -0.3190  1.2039
 3276SOL    HW121461   3.012   2.897   9.454 -0.6122  0.1924 -1.1316
 3276SOL    HW221462   2.893   2.855   9.530 -1.9810 -0.3474 -0.7694
 3277SOL     OW21463   1.621   3.254   2.547 -0.3776  0.1872  0.4522
 3277SOL    HW121464   1.674   3.272   2.624 -1.9044  2.0618  1.0597
 3277SOL    HW221465   1.617   3.158   2.550 -0.6113  0.1211 -1.5690
 3278SOL     OW21466   0.714   4.228   2.835 -0.3972  0.0200  0.1349
 3278SOL    HW121467   0.664   4.192   2.908 -1.3169 -0.5925 -0.7878
 3278SOL    HW221468   0.675   4.314   2.820 -0.0197  0.0894 -0.4433
 3279SOL     OW21469   4.074   3.625   3.273 -0.0543  0.3485 -0.1434
 3279SOL    HW121470   4.003   3.618   3.208  1.0079  0.5521 -1.3246
 3279SOL    HW221471   4.073   3.537   3.311 -0.7474  0.1752 -0.5530
 3280SOL     OW21472   0.402   0.528   9.233  0.5301  0.3018  0.0497
 3280SOL    HW121473   0.380   0.435   9.236  0.1031  0.4193  0.5626
 3280SOL    HW221474   0.313   0.560   9.218  0.6903 -0.4049 -2.2484
 3281SOL     OW21475   3.794   4.720   4.049 -0.3968 -0.2117 -0.7349
 3281SOL    HW121476   3.806   0.051   4.118 -0.2402 -0.5562 -0.4377
 3281SOL    HW221477   3.787   4.646   4.108 -1.0048 -0.3378 -0.9635
 3282SOL     OW21478   3.884   0.411  14.317 -0.2169 -0.1671  0.0571
 3282SOL    HW121479   3.817   0.374  14.375 -0.2175  0.4822  0.4699
 3282SOL    HW221480   3.830   0.442  14.244  0.5226 -0.5483 -0.6517
 3283SOL     OW21481   1.808   3.365   0.664 -0.7550 -0.3115  0.3639
 3283SOL    HW121482   1.897   3.382   0.634 -1.6660  1.7543 -1.1952
 3283SOL    HW221483   1.761   3.446   0.647 -0.1985 -0.3521 -1.2999
 3284SOL     OW21484   3.146   2.664   7.199  0.4560 -0.0973 -0.2537
 3284SOL    HW121485   3.228   2.684   7.244  0.5179  0.0531 -0.4347
 3284SOL    HW221486   3.093   2.658   7.279  0.5029  4.3164  0.0967
 3285SOL     OW21487   2.297   3.598   5.077 -0.0726  0.8210 -0.1566
 3285SOL    HW121488   2.277   3.633   4.991  1.1278 -1.1684 -1.2393
 3285SOL    HW221489   2.373   3.651   5.100  1.3425 -0.7647 -1.2037
 3286SOL     OW21490   3.459   1.035  16.611  0.7521 -0.3266  0.3737
 3286SOL    HW121491   3.511   0.981  16.671  0.6569 -1.0834 -0.2239
 3286SOL    HW221492   3.526   1.084  16.563  0.0588 -0.6616 -0.9236
 3287SOL     OW21493   3.141   4.406   8.640 -0.2958  0.2889 -0.0926
 3287SOL    HW121494   3.065   4.370   8.593  0.0405 -1.8094  0.9723
 3287SOL    HW221495   3.100   4.410   8.726  0.9299 -1.8212  0.5937
 3288SOL     OW21496   0.359   1.437   2.911 -0.2429  0.2306 -0.5068
 3288SOL    HW121497   0.407   1.393   2.840  0.5569  2.3114 -1.2749
 3288SOL    HW221498   0.339   1.513   2.856  0.3780  1.3185  0.7769
 3289SOL     OW21499   2.975   0.372   3.593  0.3641 -0.2729 -0.1356
 3289SOL    HW121500   2.985   0.329   3.678  0.1113  0.5854  0.3322
 3289SOL    HW221501   2.891   0.345   3.557  0.3415  1.8156 -1.6412
 3290SOL     OW21502   2.977   1.262  13.853 -0.1445 -0.7085 -0.2009
 3290SOL    HW121503   2.923   1.185  13.834  0.4515 -0.6786 -2.0571
 3290SOL    HW221504   3.017   1.280  13.768 -0.5421 -1.2863 -0.5123
 3291SOL     OW21505   3.992   3.220   5.970 -0.2314 -0.3320 -1.0092
 3291SOL    HW121506   3.926   3.281   5.938 -0.1565 -0.2777 -1.0592
 3291SOL    HW221507   4.048   3.282   6.018 -0.4804 -0.9751  0.1193
 3292SOL     OW21508   4.369   0.888   0.782  0.3520 -0.1408 -0.5112
 3292SOL    HW121509   4.397   0.907   0.872 -0.8811  1.6891 -0.5152
 3292SOL    HW221510   4.409   0.804   0.763 -1.6095 -0.8463 -1.4597
 3293SOL     OW21511   3.148   0.361   9.406  0.2298  0.1567 -0.0046
 3293SOL    HW121512   3.124   0.278   9.365 -0.4749  0.7599 -0.7911
 3293SOL    HW221513   3.160   0.329   9.496 -0.0248 -3.1078 -1.1519
 3294SOL     OW21514   3.519   4.149  17.087 -0.7022 -0.4430  0.1285
 3294SOL    HW121515   3.601   4.140  17.136 -0.5700  2.4180  0.4248
 3294SOL    HW221516   3.459   4.148  17.161  0.0545 -0.0146  0.7547
 3295SOL     OW21517   2.846   2.399   9.693 -0.0540  0.6702  0.1700
 3295SOL    HW121518   2.772   2.455   9.717 -1.2308 -1.2113  0.9558
 3295SOL    HW221519   2.890   2.384   9.777  0.4226  3.2862  0.3813
 3296SOL     OW21520   1.542   1.136   7.285 -0.6147 -0.2836 -0.6035
 3296SOL    HW121521   1.555   1.224   7.319  0.3917 -0.2577 -1.0755
 3296SOL    HW221522   1.524   1.102   7.373  2.1095  1.2385  0.5342
 3297SOL     OW21523   3.937   1.932   9.551 -0.0106  0.4803  0.0196
 3297SOL    HW121524   3.958   1.952   9.460  1.3286  1.4051  0.5354
 3297SOL    HW221525   4.013   1.953   9.605  0.6407  3.3168 -2.0494
 3298SOL     OW21526   2.116   2.709   0.980 -0.6045 -0.0090  0.4643
 3298SOL    HW121527   2.052   2.759   0.930 -1.0521 -0.7481  0.2936
 3298SOL    HW221528   2.121   2.778   1.046 -0.5465  1.0013 -0.6068
 3299SOL     OW21529   4.568   2.644   6.981  0.5443 -0.2146 -0.1822
 3299SOL    HW121530   4.479   2.608   6.984  0.7362 -0.7299 -0.6985
 3299SOL    HW221531   4.586   2.621   7.072 -0.0472 -0.8898 -0.2333
 3300SOL     OW21532   4.353   1.117   8.854 -0.5386  0.1010  0.2300
 3300SOL    HW121533   4.261   1.138   8.869 -0.4460  1.4701 -1.1037
 3300SOL    HW221534   4.368   1.060   8.929  1.2416 -0.5274 -0.6037
 3301SOL     OW21535   0.736   2.478   7.536  0.1291  0.1498  0.3288
 3301SOL    HW121536   0.703   2.503   7.450 -0.7700 -1.3996  0.2300
 3301SOL    HW221537   0.757   2.562   7.577  0.1282  1.0199 -1.4789
 3302SOL     OW21538   3.172   4.000   1.822  0.4404 -0.4344 -0.5174
 3302SOL    HW121539   3.226   3.923   1.840 -0.9425 -0.6435  2.8156
 3302SOL    HW221540   3.103   3.991   1.888 -0.1827 -3.0579 -1.5536
 3303SOL     OW21541   1.450   0.910   4.370  0.6476 -0.2752  0.5619
 3303SOL    HW121542   1.423   0.842   4.309  1.1239  0.2187 -0.2061
 3303SOL    HW221543   1.480   0.863   4.447 -1.4298 -0.1628  1.4282
 3304SOL     OW21544   4.360   2.798   8.498 -0.5119 -0.1626 -0.2728
 3304SOL    HW121545   4.290   2.767   8.556 -1.0326 -1.0315 -1.3759
 3304SOL    HW221546   4.425   2.729   8.487  0.3796  1.0992 -2.9886
 3305SOL     OW21547   2.840   2.063   6.731 -1.0507  0.2112  0.3306
 3305SOL    HW121548   2.757   2.057   6.776 -1.1392  1.5587  0.3526
 3305SOL    HW221549   2.809   2.114   6.655 -1.3511 -1.4579 -0.6589
 3306SOL     OW21550   1.678   3.330   1.902 -0.1277 -1.1871 -0.2465
 3306SOL    HW121551   1.613   3.336   1.832  2.0808  1.4385 -2.0533
 3306SOL    HW221552   1.635   3.257   1.946 -0.6757 -0.4184  0.5082
 3307SOL     OW21553   2.738   2.492   4.819 -0.6140 -0.7746 -0.1180
 3307SOL    HW121554   2.742   2.577   4.864  1.0966  0.0138 -1.7657
 3307SOL    HW221555   2.831   2.470   4.810 -0.1601  0.9869  0.3114
 3308SOL     OW21556   3.034   1.312   8.477  0.8740  0.5089 -0.1470
 3308SOL    HW121557   3.075   1.265   8.549  0.5225 -1.4272 -1.1832
 3308SOL    HW221558   2.944   1.300   8.506  1.1840  1.2671  1.1132
 3309SOL     OW21559   2.003   3.731   4.200  0.0386  0.4717 -0.3012
 3309SOL    HW121560   2.087   3.702   4.163 -1.5250 -3.8257 -0.5365
 3309SOL    HW221561   1.990   3.812   4.152  1.1071  0.6917 -0.2114
 3310SOL     OW21562   3.588   3.486  11.776 -0.1893  0.3061 -0.3009
 3310SOL    HW121563   3.538   3.433  11.839  0.5971  0.7490  0.6934
 3310SOL    HW221564   3.677   3.467  11.805 -0.2348 -0.6592 -0.7706
 3311SOL     OW21565   1.374   0.350   7.248  0.0980  0.4442  0.1333
 3311SOL    HW121566   1.421   0.422   7.289  0.5736 -0.8817  1.9059
 3311SOL    HW221567   1.282   0.372   7.264  0.2409 -0.5531  2.2413
 3312SOL     OW21568   3.689   0.147   3.484 -0.5456  0.1584  0.0059
 3312SOL    HW121569   3.706   0.052   3.482  0.2217  0.3137 -0.6645
 3312SOL    HW221570   3.660   0.157   3.575  0.2727  0.5417  0.2220
 3313SOL     OW21571   1.895   1.561   1.650  0.5636 -0.5418 -0.4983
 3313SOL    HW121572   1.897   1.599   1.562  0.1145  3.8870  1.3644
 3313SOL    HW221573   1.974   1.598   1.689 -0.4905 -0.8922  1.9317
 3314SOL     OW21574   1.335   3.473  16.654 -1.1345  0.0977 -0.4016
 3314SOL    HW121575   1.268   3.541  16.647 -2.0452 -0.7764 -0.2473
 3314SOL    HW221576   1.323   3.431  16.569 -2.0701  1.9837 -1.1969
 3315SOL     OW21577   2.915   2.046   2.218  0.2305  0.2488 -0.1726
 3315SOL    HW121578   2.899   2.065   2.125 -1.5072 -0.2632  0.0360
 3315SOL    HW221579   2.996   1.995   2.208  0.6359  0.5374  1.6922
 3316SOL     OW21580   0.043   4.648   2.615 -0.2834  0.1653 -0.2309
 3316SOL    HW121581   4.703   4.655   2.554 -0.7251  1.4219  0.4477
 3316SOL    HW221582   0.018   4.570   2.665 -1.5479  0.2357 -0.7368
 3317SOL     OW21583   0.188   0.120  15.018 -0.3811 -0.0711 -0.1850
 3317SOL    HW121584   0.143   0.050  15.066 -0.3632 -0.1626 -0.3001
 3317SOL    HW221585   0.250   0.071  14.964 -2.5130 -0.3380 -2.3813
 3318SOL     OW21586   3.469   2.719  10.251  1.0048  0.8872  0.2691
 3318SOL    HW121587   3.449   2.704  10.159  2.2804  0.0846  0.1259
 3318SOL    HW221588   3.455   2.631  10.286 -1.0724  1.0366 -0.2073
 3319SOL     OW21589   2.897   0.032   7.119 -0.2027 -0.3311  0.0006
 3319SOL    HW121590   2.980   0.008   7.078 -0.2695 -1.2866  0.4414
 3319SOL    HW221591   2.852   4.684   7.137 -0.7121  0.0140  0.3345
 3320SOL     OW21592   2.581   1.556   3.686  0.2385 -0.1194  0.2146
 3320SOL    HW121593   2.603   1.565   3.593 -0.6457  0.2497  0.0369
 3320SOL    HW221594   2.606   1.464   3.694  1.0474  0.1998  1.4038
 3321SOL     OW21595   4.537   0.139  12.353  0.1611  0.3577 -0.0621
 3321SOL    HW121596   4.472   0.200  12.317  0.5219  1.5822  1.3250
 3321SOL    HW221597   4.543   0.171  12.443 -2.9730 -2.7099  1.2540
 3322SOL     OW21598   2.589   0.414   2.116  0.5031  0.1068  0.3510
 3322SOL    HW121599   2.627   0.348   2.173 -1.3756 -0.6213  0.7582
 3322SOL    HW221600   2.628   0.392   2.032 -0.4774  1.2515 -0.4175
 3323SOL     OW21601   4.007   1.528  12.971  0.2085  0.1002 -0.2654
 3323SOL    HW121602   4.019   1.433  12.973  0.5490  0.0992 -2.6978
 3323SOL    HW221603   3.971   1.536  12.883  2.1767  0.7357 -0.9851
 3324SOL     OW21604   2.576   3.195   3.923  0.3456  0.3685 -0.6421
 3324SOL    HW121605   2.492   3.178   3.964  0.9220  1.2339  0.9312
 3324SOL    HW221606   2.616   3.259   3.983 -2.0652  0.2371  1.0847
 3325SOL     OW21607   0.042   1.442  10.281 -0.3316 -0.2210 -0.8043
 3325SOL    HW121608   0.109   1.376  10.301 -1.6409 -1.1298  0.6353
 3325SOL    HW221609   0.102   1.515  10.267 -1.8323  0.9377 -1.1369
 3326SOL     OW21610   2.112   1.795  15.237 -0.0978  0.3285  0.2613
 3326SOL    HW121611   2.058   1.767  15.163  1.4605  0.3668 -0.8794
 3326SOL    HW221612   2.043   1.779  15.302  0.2636 -1.3601  0.2309
 3327SOL     OW21613   3.242   2.642   6.033 -0.0698  0.2645  0.2879
 3327SOL    HW121614   3.236   2.643   5.937  1.4141  2.5064  0.2358
 3327SOL    HW221615   3.216   2.730   6.060  2.7838  0.8153  1.2421
 3328SOL     OW21616   2.706   4.000   7.689 -0.2081 -0.1973  0.4172
 3328SOL    HW121617   2.797   3.988   7.715 -0.5275 -2.1763  0.6088
 3328SOL    HW221618   2.682   3.915   7.725  1.1833 -0.3930  0.8568
 3329SOL     OW21619   2.697   1.390   9.187  0.0228  0.5591 -0.3502
 3329SOL    HW121620   2.747   1.350   9.116  1.4998  0.5104  0.7024
 3329SOL    HW221621   2.685   1.309   9.238  0.1757  0.6099 -0.2327
 3330SOL     OW21622   1.002   3.189   5.380 -0.1255  0.1848  0.0228
 3330SOL    HW121623   1.017   3.267   5.434  0.8311  1.2379 -1.7688
 3330SOL    HW221624   0.995   3.120   5.446 -0.9659 -0.0161 -0.2783
 3331SOL     OW21625   2.318   3.457  15.452 -0.2540  0.4038 -0.1160
 3331SOL    HW121626   2.298   3.398  15.525 -0.3081 -0.5022 -0.8653
 3331SOL    HW221627   2.412   3.465  15.470 -0.6358 -0.0407  2.0206
 3332SOL     OW21628   1.868   3.341   6.788  0.5068 -0.3807  0.2234
 3332SOL    HW121629   1.805   3.271   6.807  1.1617 -0.9901  0.1799
 3332SOL    HW221630   1.838   3.411   6.846  1.5148 -0.2411  0.5747
 3333SOL     OW21631   3.735   4.391   8.793 -0.4960 -0.0430 -0.4499
 3333SOL    HW121632   3.760   4.382   8.885 -3.2443 -0.7221  0.2256
 3333SOL    HW221633   3.782   4.466   8.758  0.3116 -1.9297 -3.4548
 3334SOL     OW21634   4.408   2.425  10.648  0.0478  0.7114  0.4238
 3334SOL    HW121635   4.469   2.402  10.718  0.4945  1.3197  0.2358
 3334SOL    HW221636   4.322   2.439  10.687 -1.1730 -2.2503 -1.2025
 3335SOL     OW21637   3.040   2.175  10.078 -0.3781  0.2975 -0.9594
 3335SOL    HW121638   3.025   2.097  10.132  2.1614  0.9969  0.7288
 3335SOL    HW221639   3.009   2.234  10.146  0.6680 -0.9592  0.6090
 3336SOL     OW21640   1.869   3.790   6.665 -0.2520  0.0150 -0.5306
 3336SOL    HW121641   1.788   3.811   6.710  0.9390  0.5413  1.3714
 3336SOL    HW221642   1.903   3.872   6.628 -0.4076  0.1435 -0.3847
 3337SOL     OW21643   1.400   4.151  13.259  0.1272  0.4230  1.0386
 3337SOL    HW121644   1.469   4.217  13.256  0.2152  0.2759 -0.1517
 3337SOL    HW221645   1.442   4.075  13.299  1.4804 -0.4149 -1.9940
 3338SOL     OW21646   2.122   1.082   7.827 -0.9642  0.2786  0.4466
 3338SOL    HW121647   2.189   1.148   7.810 -1.8144  0.6137 -1.6915
 3338SOL    HW221648   2.045   1.127   7.790 -1.1277 -0.0550  0.3806
 3339SOL     OW21649   0.889   3.769  15.433  1.0905  0.4014 -0.3677
 3339SOL    HW121650   0.955   3.734  15.374 -0.1597 -0.7266 -1.0933
 3339SOL    HW221651   0.901   3.864  15.429 -3.8354  0.9714 -1.5432
 3340SOL     OW21652   0.130   4.576   9.096  0.5208  0.2577  0.5747
 3340SOL    HW121653   0.157   4.646   9.156 -3.1496  1.3233  1.0271
 3340SOL    HW221654   0.156   4.601   9.008 -0.5879 -1.8199 -0.3442
 3341SOL     OW21655   1.704   4.285   3.272 -0.0909 -0.1163 -0.4242
 3341SOL    HW121656   1.701   4.217   3.340  1.6743  1.8957  1.6503
 3341SOL    HW221657   1.737   4.243   3.193  0.8537  1.2225 -0.7396
 3342SOL     OW21658   2.851   0.982  11.868  0.2076 -0.4511 -0.1563
 3342SOL    HW121659   2.779   0.928  11.903  0.4396 -0.7239 -0.0989
 3342SOL    HW221660   2.805   1.061  11.838 -0.4267 -0.3816  0.9892
 3343SOL     OW21661   0.104   3.490   4.057 -0.1319 -0.7129 -0.5764
 3343SOL    HW121662   0.089   3.568   4.110 -1.6818 -0.9060 -0.7227
 3343SOL    HW221663   0.148   3.439   4.125 -1.6299 -0.0276  0.9089
 3344SOL     OW21664   4.212   3.582  17.164  0.2834 -0.3407 -0.1926
 3344SOL    HW121665   4.211   3.563  17.070  0.6373 -2.6218  0.2810
 3344SOL    HW221666   4.117   3.595  17.173  0.8206  1.1057  3.3728
 3345SOL     OW21667   1.044   1.644   5.789 -0.4111  0.1387 -0.5524
 3345SOL    HW121668   1.007   1.607   5.869  0.8302  2.3885  1.0606
 3345SOL    HW221669   1.069   1.570   5.734 -1.0573 -0.5958  0.1458
 3346SOL     OW21670   3.600   2.099   6.968 -0.4502 -0.2674  0.0102
 3346SOL    HW121671   3.602   2.123   7.061  0.5186 -3.5365  0.8480
 3346SOL    HW221672   3.509   2.071   6.955 -0.1019 -2.0740  1.3687
 3347SOL     OW21673   2.909   2.363   7.391 -0.1612 -0.2470 -0.8606
 3347SOL    HW121674   2.935   2.270   7.390 -2.1883 -0.8241 -1.5114
 3347SOL    HW221675   2.814   2.349   7.395 -0.2294  0.5531  0.0639
 3348SOL     OW21676   2.534   4.619   6.964  0.1438  0.1947 -0.1044
 3348SOL    HW121677   2.461   4.627   7.025  1.1627  0.7374  1.0410
 3348SOL    HW221678   2.487   4.587   6.887 -1.7623  0.3428  1.0100
 3349SOL     OW21679   1.840   1.633   1.939  0.1603 -0.1989 -0.2325
 3349SOL    HW121680   1.768   1.693   1.958 -1.4753 -1.6052 -2.1116
 3349SOL    HW221681   1.794   1.568   1.887  1.4469 -0.5652 -0.9088
 3350SOL     OW21682   3.706   0.872   2.817  0.2114 -0.0171  0.0473
 3350SOL    HW121683   3.798   0.852   2.801  0.0456 -0.3370 -0.5124
 3350SOL    HW221684   3.702   0.825   2.901  0.4814 -2.3846 -1.2480
 3351SOL     OW21685   4.051   1.904   7.512  0.0920 -0.2280  0.1738
 3351SOL    HW121686   4.041   1.961   7.587  0.5725  0.5136 -0.3284
 3351SOL    HW221687   4.131   1.938   7.473  1.1435 -2.3132  0.4799
 3352SOL     OW21688   4.297   0.793   8.874 -0.1555  0.9108 -0.0811
 3352SOL    HW121689   4.205   0.767   8.862 -0.1191  0.4705  0.5531
 3352SOL    HW221690   4.300   0.789   8.970  0.7170 -0.3534 -0.1467
 3353SOL     OW21691   0.574   0.758   2.372  0.2194 -0.0289  0.9096
 3353SOL    HW121692   0.619   0.776   2.289 -2.1695 -0.9320 -0.5859
 3353SOL    HW221693   0.642   0.793   2.430  1.3138  0.1043 -0.4314
 3354SOL     OW21694   2.499   1.598   1.549  0.0070 -0.3501  0.1850
 3354SOL    HW121695   2.477   1.598   1.456 -0.6889  0.7526  0.3432
 3354SOL    HW221696   2.460   1.514   1.572  0.3901 -0.4440  0.4992
 3355SOL     OW21697   4.544   1.891   4.337 -0.0247 -0.6330 -0.7992
 3355SOL    HW121698   4.469   1.879   4.395  1.5005 -1.7370  0.9604
 3355SOL    HW221699   4.539   1.986   4.324  0.9745 -0.5946 -0.9152
 3356SOL     OW21700   3.840   2.122   7.313  0.0057  0.0624  0.4130
 3356SOL    HW121701   3.793   2.144   7.394  0.8376  0.4231  0.7950
 3356SOL    HW221702   3.874   2.035   7.336  1.2648  0.6067  0.5552
 3357SOL     OW21703   3.364   2.852   8.544 -0.3953  0.3078 -0.2157
 3357SOL    HW121704   3.288   2.885   8.593 -1.2984  0.7425 -1.9288
 3357SOL    HW221705   3.340   2.881   8.456 -2.4473  0.5973  0.4186
 3358SOL     OW21706   3.524   0.377  11.156 -0.1077  0.5844  0.9701
 3358SOL    HW121707   3.590   0.423  11.208  0.9297  0.8725 -0.6047
 3358SOL    HW221708   3.582   0.343  11.089 -1.8599  0.6471 -0.5814
 3359SOL     OW21709   0.257   2.475   4.752  0.0466  0.3447  0.0364
 3359SOL    HW121710   0.200   2.409   4.714  1.7135 -1.8958  1.4570
 3359SOL    HW221711   0.214   2.553   4.717  0.3761 -0.2529 -1.6980
 3360SOL     OW21712   3.714   3.094  11.728 -0.0520 -0.0345 -0.2924
 3360SOL    HW121713   3.769   3.172  11.729 -0.3917  0.2108 -1.2241
 3360SOL    HW221714   3.748   3.033  11.794 -1.8032  1.9287  2.3938
 3361SOL     OW21715   0.762   1.668   3.473 -0.0304  0.0293  0.2583
 3361SOL    HW121716   0.824   1.621   3.417 -0.3679 -1.0089  0.7520
 3361SOL    HW221717   0.742   1.609   3.546  2.9343  0.5388  1.5073
 3362SOL     OW21718   1.908   3.695   5.123  0.3708  0.0179  0.1868
 3362SOL    HW121719   1.840   3.751   5.087  0.6079 -0.2197 -0.6397
 3362SOL    HW221720   1.865   3.657   5.200  1.3710 -1.2527  0.1205
 3363SOL     OW21721   2.453   3.142   8.819  0.3738  0.2533  0.2845
 3363SOL    HW121722   2.427   3.115   8.907  0.0980 -2.7680 -0.7334
 3363SOL    HW221723   2.398   3.100   8.753  2.9182  0.0752 -1.6938
 3364SOL     OW21724   4.327   3.092   3.891  0.1105  0.0320  0.0341
 3364SOL    HW121725   4.397   3.042   3.848 -0.3163  0.9895 -1.8012
 3364SOL    HW221726   4.299   3.034   3.961  0.9716 -1.2319 -0.6692
 3365SOL     OW21727   2.089   4.351  15.511 -0.2726 -0.2463 -0.2576
 3365SOL    HW121728   2.093   4.444  15.532 -0.3587 -0.6933  1.8242
 3365SOL    HW221729   1.993   4.347  15.510 -0.3128  1.2065 -1.8215
 3366SOL     OW21730   0.140   0.869  17.275  0.8159  0.1839  0.7901
 3366SOL    HW121731   0.159   0.775  17.284 -2.6547 -0.6026 -0.0312
 3366SOL    HW221732   0.087   0.873  17.196  1.7608  2.7513  0.3111
 3367SOL     OW21733   4.571   0.117   8.284 -0.1730 -0.5420  0.3499
 3367SOL    HW121734   4.572   0.081   8.373  0.6605  0.6173  0.8023
 3367SOL    HW221735   4.589   0.209   8.303 -3.0883  0.3145 -0.9514
 3368SOL     OW21736   4.142   1.870   2.718 -0.1906 -0.2666 -0.5882
 3368SOL    HW121737   4.182   1.927   2.782 -0.4959  0.9730 -1.4922
 3368SOL    HW221738   4.143   1.785   2.762  0.9395  1.0227  1.8656
 3369SOL     OW21739   3.545   2.645  13.338 -0.3427 -0.8621  0.0050
 3369SOL    HW121740   3.489   2.706  13.387 -1.1292 -0.3965 -1.4663
 3369SOL    HW221741   3.596   2.610  13.411  3.1357  0.4681 -1.7404
 3370SOL     OW21742   4.184   1.658  11.153 -0.1327  0.3794 -0.1979
 3370SOL    HW121743   4.105   1.630  11.198  0.0761  1.0582  0.6004
 3370SOL    HW221744   4.163   1.628  11.065  0.1877 -2.9546  0.8745
 3371SOL     OW21745   1.292   1.878   8.674  0.2490  0.3070 -0.1535
 3371SOL    HW121746   1.357   1.825   8.628 -0.1090  0.2034 -0.5466
 3371SOL    HW221747   1.320   1.963   8.640  1.3202 -0.8509 -2.2071
 3372SOL     OW21748   0.006   2.527   2.408  0.2995 -0.0953  0.0795
 3372SOL    HW121749   4.731   2.586   2.333 -0.9053  0.8920  1.0013
 3372SOL    HW221750   0.097   2.500   2.399  1.1069  1.8701  2.3189
 3373SOL     OW21751   2.895   0.728   8.053  0.5042  0.5999 -0.4113
 3373SOL    HW121752   2.942   0.783   7.991  0.8143 -1.7117 -2.1980
 3373SOL    HW221753   2.811   0.771   8.073  0.7967  1.1602 -0.3834
 3374SOL     OW21754   1.382   3.962   3.742 -0.4065  0.3430 -0.0736
 3374SOL    HW121755   1.354   4.052   3.757  0.1041  0.5692 -0.4615
 3374SOL    HW221756   1.329   3.940   3.665  0.3730  2.6535 -1.2789
 3375SOL     OW21757   2.691   4.719  11.754  0.6750 -0.0580 -0.4153
 3375SOL    HW121758   2.727   4.649  11.809  0.1023  0.2038  0.2873
 3375SOL    HW221759   2.747   4.714  11.677  0.7361  2.1256 -0.5039
 3376SOL     OW21760   0.203   1.112   5.843  0.5244  0.3464 -0.1880
 3376SOL    HW121761   0.195   1.182   5.908 -0.5164  1.2614 -1.2946
 3376SOL    HW221762   0.236   1.048   5.906  3.3475  1.7948 -0.2030
 3377SOL     OW21763   1.963   2.025   9.530  0.5470  0.3543  0.0702
 3377SOL    HW121764   2.055   2.025   9.557  0.6164 -2.2949 -0.1709
 3377SOL    HW221765   1.917   2.034   9.614  2.6709  1.9335  1.0427
 3378SOL     OW21766   2.895   0.927   8.394 -0.0148  0.4513 -0.5171
 3378SOL    HW121767   2.881   0.997   8.330 -1.1621 -1.8136 -2.7008
 3378SOL    HW221768   2.826   0.958   8.454 -1.5206 -1.0729 -1.4889
 3379SOL     OW21769   3.135   0.575  16.661  0.2649 -0.5057  0.2199
 3379SOL    HW121770   3.219   0.603  16.627 -0.0843 -0.1961 -0.3887
 3379SOL    HW221771   3.075   0.621  16.602 -0.3162 -3.0785 -1.1903
 3380SOL     OW21772   4.243   3.525   3.792  0.2963 -0.0793  0.3608
 3380SOL    HW121773   4.306   3.464   3.831  0.9820 -0.4662 -1.3350
 3380SOL    HW221774   4.176   3.521   3.860  0.5758 -2.8884  0.5053
 3381SOL     OW21775   0.702   1.157  11.097  0.2464  0.1116  0.3568
 3381SOL    HW121776   0.632   1.151  11.032  0.4281  0.1909  0.1569
 3381SOL    HW221777   0.666   1.095  11.161  0.2828  0.3338  0.5910
 3382SOL     OW21778   0.103   1.145   6.502 -0.2182 -0.3855  0.0375
 3382SOL    HW121779   0.034   1.208   6.521 -0.4812 -1.8692  3.9207
 3382SOL    HW221780   0.182   1.186   6.535 -1.2114  1.1160  0.5197
 3383SOL     OW21781   0.606   2.614   5.094 -0.2709 -0.7019 -0.0036
 3383SOL    HW121782   0.518   2.591   5.066 -1.6605  3.3860  0.9189
 3383SOL    HW221783   0.659   2.549   5.048 -1.7986 -2.1838  0.3664
 3384SOL     OW21784   0.647   2.792   4.707  0.0937  0.1169 -0.5876
 3384SOL    HW121785   0.711   2.799   4.778 -0.9108 -1.4119  0.4470
 3384SOL    HW221786   0.566   2.796   4.758  0.6872 -1.7213  0.5028
 3385SOL     OW21787   4.415   3.977  10.752 -0.3098  0.4523 -0.1354
 3385SOL    HW121788   4.408   3.882  10.749  0.7566  0.4017 -0.8020
 3385SOL    HW221789   4.332   4.002  10.793  0.9524  2.6796  1.0613
 3386SOL     OW21790   4.294   2.942   9.033  0.0817 -0.4393 -0.5096
 3386SOL    HW121791   4.340   2.982   8.959 -1.5396 -0.2190 -1.4179
 3386SOL    HW221792   4.362   2.886   9.069  1.0717  1.0708 -0.0252
 3387SOL     OW21793   1.834   3.042  17.526  0.3632 -0.2874  0.3823
 3387SOL    HW121794   1.864   3.068  17.439 -0.2910 -0.5941  0.0658
 3387SOL    HW221795   1.813   3.123  17.572  0.6781 -0.2642  0.4867
 3388SOL     OW21796   1.994   1.950   5.944  0.0883 -0.3902 -0.1966
 3388SOL    HW121797   1.999   2.032   5.992 -0.5821 -0.0120 -0.7727
 3388SOL    HW221798   1.981   1.991   5.859 -0.6808  0.8553  0.5333
 3389SOL     OW21799   0.982   2.555   2.771 -0.5876 -0.2476 -0.1418
 3389SOL    HW121800   1.014   2.547   2.681 -0.2543 -1.4961  0.0840
 3389SOL    HW221801   1.050   2.512   2.823 -0.3264  1.3841  0.8662
 3390SOL     OW21802   1.199   1.867   5.750  0.3585  1.0057  0.2525
 3390SOL    HW121803   1.130   1.882   5.684  1.2017 -0.9348 -1.0534
 3390SOL    HW221804   1.151   1.800   5.798  0.6624  1.5028  1.2543
 3391SOL     OW21805   2.397   3.122   5.831  0.4880  0.2030 -0.2319
 3391SOL    HW121806   2.392   3.165   5.917  2.6310  0.7660 -0.3997
 3391SOL    HW221807   2.354   3.192   5.782  3.1225  2.2035  0.3317
 3392SOL     OW21808   2.979   3.574  17.027  0.4053 -0.2522 -0.2827
 3392SOL    HW121809   2.982   3.650  17.086  1.5929 -0.5817  0.0839
 3392SOL    HW221810   2.967   3.503  17.090 -0.4140 -0.9420 -1.2149
 3393SOL     OW21811   0.563   3.536   4.575  0.3117 -0.3732  0.6850
 3393SOL    HW121812   0.580   3.468   4.640 -0.8877 -0.3867  0.9686
 3393SOL    HW221813   0.615   3.604   4.619  2.5705 -0.7692 -1.3134
 3394SOL     OW21814   1.039   1.863  17.669 -0.1406 -0.1707 -0.6430
 3394SOL    HW121815   0.993   1.883  17.588 -0.6146 -3.2295 -1.1300
 3394SOL    HW221816   1.130   1.886  17.650 -1.0544  3.8137 -0.1231
 3395SOL     OW21817   2.849   3.414   2.860  0.1559 -0.2659 -0.0008
 3395SOL    HW121818   2.937   3.399   2.825  1.4676  1.8751  2.3519
 3395SOL    HW221819   2.842   3.509   2.856 -0.8498 -0.2813  1.4613
 3396SOL     OW21820   2.894   1.830   8.474  0.0812  0.3332  0.0838
 3396SOL    HW121821   2.989   1.846   8.473  0.1360  0.0068 -0.7324
 3396SOL    HW221822   2.891   1.751   8.420 -0.8746 -0.0892  0.7674
 3397SOL     OW21823   4.229   4.614   1.736 -0.6479 -0.6339 -0.3721
 3397SOL    HW121824   4.292   4.666   1.687  0.0672 -0.1326  1.0768
 3397SOL    HW221825   4.210   4.673   1.808 -0.2217  0.9350 -1.5616
 3398SOL     OW21826   0.623   3.794  15.859 -0.1000 -1.1727 -0.6472
 3398SOL    HW121827   0.693   3.832  15.807 -0.9910 -0.3055 -1.2236
 3398SOL    HW221828   0.558   3.769  15.792 -0.4300 -2.7825  0.2696
 3399SOL     OW21829   2.500   4.660   7.538 -0.1558 -0.4391 -0.0390
 3399SOL    HW121830   2.460   0.001   7.582 -0.8778 -1.5791  1.2615
 3399SOL    HW221831   2.578   4.657   7.595  0.3512 -0.1158 -0.7147
 3400SOL     OW21832   0.102   4.171   8.530 -0.5465  0.4094  0.0728
 3400SOL    HW121833   0.081   4.090   8.483  1.0163  0.2081 -0.2571
 3400SOL    HW221834   0.140   4.114   8.598  2.9034  2.8533  0.1690
 3401SOL     OW21835   0.812   0.737   3.275  0.1699  0.3147 -0.3946
 3401SOL    HW121836   0.826   0.661   3.332  1.5363  0.4359 -0.5737
 3401SOL    HW221837   0.896   0.780   3.290 -1.0798  2.8788 -0.7526
 3402SOL     OW21838   4.181   2.456   3.740 -0.2676 -0.2264 -0.3442
 3402SOL    HW121839   4.187   2.551   3.749  0.1317 -0.3452  0.6825
 3402SOL    HW221840   4.098   2.431   3.780  1.4370 -2.5845  1.7874
 3403SOL     OW21841   3.919   4.391   6.836  0.4042 -0.3986  0.3819
 3403SOL    HW121842   3.977   4.338   6.781  0.8796 -0.2537  0.7479
 3403SOL    HW221843   3.840   4.338   6.831  0.4697 -0.3565 -0.9344
 3404SOL     OW21844   2.288   4.143   1.847 -0.2243  0.0715 -0.2589
 3404SOL    HW121845   2.262   4.161   1.756 -0.6691  0.2128 -0.1008
 3404SOL    HW221846   2.201   4.126   1.882 -1.4532 -0.3803 -3.5394
 3405SOL     OW21847   3.777   4.059   4.249 -0.8883 -0.2994  0.2577
 3405SOL    HW121848   3.687   4.061   4.218 -1.3387 -0.5434  1.5403
 3405SOL    HW221849   3.782   3.964   4.256 -0.5687 -0.3320 -0.4238
 3406SOL     OW21850   2.983   2.255  14.103  0.5827  0.3128  0.0255
 3406SOL    HW121851   2.927   2.217  14.035 -0.9183  0.2806  1.2836
 3406SOL    HW221852   2.917   2.292  14.162 -0.0357  0.1848 -0.5870
 3407SOL     OW21853   1.274   2.103  15.369 -0.2066  0.2223 -0.0960
 3407SOL    HW121854   1.226   2.167  15.315  0.5884  1.4849  0.7044
 3407SOL    HW221855   1.307   2.160  15.438 -0.7683 -0.3245  0.6221
 3408SOL     OW21856   0.215   2.260   2.062  0.3851 -0.2202  0.3143
 3408SOL    HW121857   0.281   2.326   2.083  0.3336 -0.0758  0.0195
 3408SOL    HW221858   0.212   2.269   1.966  1.4303  2.2533  0.4976
 3409SOL     OW21859   0.983   0.248   2.547  0.2237  0.3598 -0.4525
 3409SOL    HW121860   1.064   0.296   2.532  0.1924  0.6842  0.4480
 3409SOL    HW221861   1.000   0.173   2.490 -1.8197 -0.3517 -0.1192
 3410SOL     OW21862   4.640   3.652  17.569  0.3641 -0.1600 -0.4872
 3410SOL    HW121863   4.603   3.564  17.578 -1.6099  0.5845 -1.3298
 3410SOL    HW221864   4.654   3.656  17.474 -0.8015 -0.3117 -0.6652
 3411SOL     OW21865   2.752   2.916  11.057  0.3470 -0.4151 -0.1760
 3411SOL    HW121866   2.794   2.958  10.981  1.8448 -0.7869  0.4427
 3411SOL    HW221867   2.819   2.929  11.124  1.0618  3.1199 -1.5489
 3412SOL     OW21868   3.694   3.781   0.909 -0.2314  0.3190  0.2926
 3412SOL    HW121869   3.746   3.851   0.868 -0.3157  0.7714  0.9666
 3412SOL    HW221870   3.758   3.770   0.980 -1.3368 -0.4993  1.1722
 3413SOL     OW21871   0.325   1.120   2.712 -0.1499  0.3198  0.0759
 3413SOL    HW121872   0.303   1.199   2.663  3.3877  0.5227 -1.1867
 3413SOL    HW221873   0.420   1.111   2.709 -0.1505  0.2108  0.3156
 3414SOL     OW21874   4.169   0.174   4.887 -0.5775 -0.6450  0.2138
 3414SOL    HW121875   4.248   0.172   4.941 -0.4042 -0.3124 -0.0262
 3414SOL    HW221876   4.188   0.101   4.827  0.9153  0.4087 -0.6140
 3415SOL     OW21877   2.650   1.552   4.760 -0.2034  0.5424  0.3645
 3415SOL    HW121878   2.742   1.566   4.781 -1.0797  2.9142  2.6496
 3415SOL    HW221879   2.632   1.595   4.676  1.4874 -3.0629 -1.8333
 3416SOL     OW21880   2.141   4.608   4.587 -0.3050  0.1873 -0.1812
 3416SOL    HW121881   2.218   4.551   4.598  1.2629  2.3645  0.2420
 3416SOL    HW221882   2.176   4.696   4.601 -1.3153  0.4871  0.4693
 3417SOL     OW21883   1.144   3.972   0.122 -0.0135 -0.2858 -0.7204
 3417SOL    HW121884   1.112   3.921   0.197  2.2903 -1.3353 -0.4227
 3417SOL    HW221885   1.240   3.967   0.127  0.0454  1.1685 -0.3536
 3418SOL     OW21886   1.768   0.345   2.595  0.2931  0.1611  0.5698
 3418SOL    HW121887   1.783   0.422   2.540  1.8456 -1.4849 -1.2798
 3418SOL    HW221888   1.859   0.314   2.595 -0.5835 -2.4385 -0.5122
 3419SOL     OW21889   3.552   0.325   6.609 -0.1152 -0.3978  0.3260
 3419SOL    HW121890   3.611   0.390   6.569  0.5736 -1.4697 -0.3912
 3419SOL    HW221891   3.504   0.381   6.671 -1.1421 -1.1476  0.1999
 3420SOL     OW21892   0.354   3.442   7.371 -0.4924  0.1271 -0.3094
 3420SOL    HW121893   0.281   3.464   7.428 -1.3279 -0.6461 -1.0982
 3420SOL    HW221894   0.421   3.502   7.406  0.8732 -1.0934 -0.8341
 3421SOL     OW21895   1.658   3.926   6.287  0.6489  0.3324  0.1122
 3421SOL    HW121896   1.723   3.976   6.336 -1.0095 -0.1319  2.8296
 3421SOL    HW221897   1.679   3.839   6.321 -0.7268  0.3667  1.0778
 3422SOL     OW21898   2.863   3.983   8.980  0.1587 -0.3468 -0.1669
 3422SOL    HW121899   2.902   3.900   8.955 -0.5913 -0.9133  0.5138
 3422SOL    HW221900   2.826   4.011   8.896 -1.2128  0.2693  0.6336
 3423SOL     OW21901   2.532   1.915  11.053  0.1660  0.2243 -0.5607
 3423SOL    HW121902   2.628   1.914  11.055  0.1977  0.3533 -2.9291
 3423SOL    HW221903   2.514   1.917  11.147 -0.3047 -1.5317 -0.5969
 3424SOL     OW21904   2.422   2.315  10.202  0.5360  0.3793 -0.0481
 3424SOL    HW121905   2.360   2.317  10.129 -1.2612 -1.3637  1.4469
 3424SOL    HW221906   2.374   2.272  10.273  0.2158 -2.3488 -1.9488
 3425SOL     OW21907   4.662   2.664  16.575  0.6176 -0.4196 -0.0676
 3425SOL    HW121908   0.002   2.722  16.558  1.4692 -1.8393 -1.2206
 3425SOL    HW221909   4.634   2.632  16.489 -0.5894  0.0691  0.1439
 3426SOL     OW21910   1.463   4.666   9.222 -0.6175  0.2691  0.0108
 3426SOL    HW121911   1.540   4.702   9.265 -1.0946  1.7487 -0.3939
 3426SOL    HW221912   1.432   0.011   9.179  0.2091 -1.1945 -3.2508
 3427SOL     OW21913   2.347   3.107   4.043 -0.2550  0.0671 -0.5898
 3427SOL    HW121914   2.291   3.099   3.966 -2.8415  0.5742  1.2456
 3427SOL    HW221915   2.289   3.107   4.120 -0.2931  2.4374 -0.6200
 3428SOL     OW21916   3.671   3.124   6.193 -0.1982  0.7562 -0.2695
 3428SOL    HW121917   3.731   3.198   6.203  0.0040  0.3909  1.3661
 3428SOL    HW221918   3.644   3.120   6.285 -0.9816  2.0340 -0.4443
 3429SOL     OW21919   2.394   3.400   2.331 -0.1688 -0.0047 -0.0979
 3429SOL    HW121920   2.307   3.429   2.307  1.2003  2.2098 -2.2881
 3429SOL    HW221921   2.441   3.483   2.323  0.7011 -0.5553 -0.7709
 3430SOL     OW21922   0.330   1.758   9.023 -0.2442  0.1283  0.0514
 3430SOL    HW121923   0.317   1.670   8.986  0.0558  0.6935 -1.4028
 3430SOL    HW221924   0.240   1.790   9.026 -0.8567 -1.4353 -1.5505
 3431SOL     OW21925   0.124   3.226  10.474  0.0496 -0.2438  0.3839
 3431SOL    HW121926   0.098   3.314  10.449  2.0758  0.8795  2.2638
 3431SOL    HW221927   0.203   3.257  10.518 -0.3776 -0.4365  1.2750
 3432SOL     OW21928   1.615   4.454  10.349  0.0013  0.0871 -0.8356
 3432SOL    HW121929   1.573   4.398  10.414 -0.4745  0.7687 -0.5575
 3432SOL    HW221930   1.536   4.496  10.316 -0.1567  1.1744  0.9362
 3433SOL     OW21931   3.616   0.101   6.998  0.2990 -0.1640  0.5320
 3433SOL    HW121932   3.529   0.107   7.037  0.6534 -0.1980  1.3477
 3433SOL    HW221933   3.609   0.159   6.922 -1.3699  0.8357  1.4466
 3434SOL     OW21934   0.666   2.692   2.158  0.4120  0.3685 -0.0776
 3434SOL    HW121935   0.655   2.725   2.247 -1.1266 -0.5200  0.0700
 3434SOL    HW221936   0.580   2.721   2.129  0.7423 -0.4103 -1.8811
 3435SOL     OW21937   1.138   0.742   2.234 -0.1193 -0.5498  0.1438
 3435SOL    HW121938   1.140   0.677   2.305 -0.4987 -1.9389 -1.1134
 3435SOL    HW221939   1.165   0.821   2.281  1.5724 -1.6530  1.0176
 3436SOL     OW21940   4.023   4.481   7.678 -0.2189 -0.6613  0.3690
 3436SOL    HW121941   4.088   4.489   7.608 -1.2515  3.7237 -0.1282
 3436SOL    HW221942   4.068   4.522   7.752 -1.7425  2.1798 -0.2894
 3437SOL     OW21943   3.497   4.361  10.548  0.0447 -0.0269  0.2298
 3437SOL    HW121944   3.406   4.342  10.569  0.0603 -0.9932 -0.6032
 3437SOL    HW221945   3.534   4.276  10.524  0.5617 -0.0648  1.1582
 3438SOL     OW21946   1.177   2.033  11.064 -0.6884 -0.5739 -0.3988
 3438SOL    HW121947   1.200   1.947  11.098 -2.7683 -1.2732 -0.7389
 3438SOL    HW221948   1.226   2.093  11.121 -1.3204  0.2854 -0.7541
 3439SOL     OW21949   4.537   2.668   4.975  0.3200 -0.3591  0.1036
 3439SOL    HW121950   4.559   2.668   4.882  1.2998 -1.2282  0.3371
 3439SOL    HW221951   4.458   2.616   4.961  1.0043 -0.8367 -1.9302
 3440SOL     OW21952   3.139   1.757  12.003  0.1975 -0.1282 -0.2449
 3440SOL    HW121953   3.219   1.729  12.047 -1.1720 -1.0359  1.6499
 3440SOL    HW221954   3.070   1.725  12.060 -1.5318  1.4739 -1.4325
 3441SOL     OW21955   2.102   2.610   2.953 -0.0606  0.1785  0.4279
 3441SOL    HW121956   2.101   2.555   2.875  3.8255  2.1654 -1.0339
 3441SOL    HW221957   2.197   2.621   2.950  0.1223 -0.8812  2.6370
 3442SOL     OW21958   3.736   2.911  12.541 -0.0510 -0.0311 -0.4761
 3442SOL    HW121959   3.716   2.939  12.630 -1.8564 -0.0253 -0.8944
 3442SOL    HW221960   3.830   2.894  12.549  0.1583  0.3297 -2.1243
 3443SOL     OW21961   1.638   4.408   5.258 -0.2436  0.9550 -0.1540
 3443SOL    HW121962   1.612   4.500   5.262 -0.7139  0.8285 -0.2899
 3443SOL    HW221963   1.669   4.400   5.348 -0.1009  1.4162 -0.1625
 3444SOL     OW21964   4.362   0.926   4.052 -0.0774  0.3757 -0.8836
 3444SOL    HW121965   4.331   0.923   3.962  0.6786 -0.8823 -1.1018
 3444SOL    HW221966   4.455   0.917   4.031  0.1386 -0.0517  0.2245
 3445SOL     OW21967   3.998   0.871  17.502  0.5796  0.2171  0.2599
 3445SOL    HW121968   3.921   0.835  17.545  1.5983  0.3866  2.2228
 3445SOL    HW221969   3.966   0.962  17.501 -0.3978 -0.1286 -0.1410
 3446SOL     OW21970   4.475   1.735   1.890  0.1930  0.2973  0.0918
 3446SOL    HW121971   4.444   1.757   1.803  2.9859 -0.9722 -1.2373
 3446SOL    HW221972   4.570   1.746   1.893  0.3816 -1.7473  1.7912
 3447SOL     OW21973   0.150   2.326   7.818  0.0392 -0.7972 -0.4573
 3447SOL    HW121974   0.151   2.233   7.794 -0.9870 -0.6762 -1.0078
 3447SOL    HW221975   0.243   2.347   7.825 -0.7363  2.4952  0.0225
 3448SOL     OW21976   4.199   4.611   2.102 -0.0624  0.1847  0.2798
 3448SOL    HW121977   4.140   4.542   2.072  2.7392 -2.6886  1.3315
 3448SOL    HW221978   4.282   4.577   2.068 -0.6261  0.4444 -1.3120
 3449SOL     OW21979   3.273   1.438   8.357 -0.1555  0.1897  0.7252
 3449SOL    HW121980   3.187   1.404   8.384  0.4455  0.7467  3.3551
 3449SOL    HW221981   3.247   1.521   8.317  3.0852  1.3628  1.0974
 3450SOL     OW21982   0.155   2.356   7.162  0.0592  0.7969  0.4237
 3450SOL    HW121983   0.158   2.407   7.243  0.7037  2.2125 -0.4794
 3450SOL    HW221984   0.196   2.419   7.102  1.0845  1.1199  1.4525
 3451SOL     OW21985   4.642   4.390   9.071 -0.3224 -0.1400 -0.1788
 3451SOL    HW121986   4.683   4.337   9.003 -1.4578  0.6573 -1.4855
 3451SOL    HW221987   4.706   4.459   9.087 -0.1183  0.0696 -1.9325
 3452SOL     OW21988   0.210   3.968   4.359  0.0161 -0.8205  0.1309
 3452SOL    HW121989   0.190   4.050   4.314  1.7533  0.1350  1.1519
 3452SOL    HW221990   0.204   3.995   4.450  0.9712  0.5456 -0.2229
 3453SOL     OW21991   2.842   3.623   9.476 -0.0926  0.6235  0.3810
 3453SOL    HW121992   2.889   3.543   9.451 -0.2657  0.5658  0.2407
 3453SOL    HW221993   2.748   3.606   9.466  0.1417 -1.7341  2.1011
 3454SOL     OW21994   3.991   3.313   2.411  0.2203  0.3616  0.5016
 3454SOL    HW121995   3.958   3.402   2.403  2.4494  1.2289  0.8510
 3454SOL    HW221996   3.948   3.274   2.487  1.5477 -1.5659  0.2747
 3455SOL     OW21997   3.267   1.660   2.574 -0.0687  0.6300 -0.4393
 3455SOL    HW121998   3.222   1.610   2.506  0.8101 -0.7174 -0.0432
 3455SOL    HW221999   3.216   1.740   2.582 -1.4860 -0.0914 -2.2801
 3456SOL     OW22000   3.616   0.872   6.874 -0.2861 -0.3879  0.0164
 3456SOL    HW122001   3.601   0.843   6.784  0.0546  1.3225 -0.6069
 3456SOL    HW222002   3.705   0.907   6.866 -0.2646 -0.6392 -0.7925
 3457SOL     OW22003   0.458   3.465   5.778 -0.2175  0.2299 -0.4002
 3457SOL    HW122004   0.379   3.513   5.803 -1.0681 -2.9551  3.0838
 3457SOL    HW222005   0.453   3.463   5.682  0.0876 -0.4858 -0.4032
 3458SOL     OW22006   2.336   2.769   8.992  0.5714 -0.1216 -0.3084
 3458SOL    HW122007   2.387   2.771   9.073  1.0251 -0.5603 -0.5845
 3458SOL    HW222008   2.248   2.745   9.021  1.0626 -2.2107 -0.5738
 3459SOL     OW22009   0.380   0.504   8.358  0.0322 -0.3257 -0.3205
 3459SOL    HW122010   0.409   0.595   8.349 -0.7965  0.2119  2.3572
 3459SOL    HW222011   0.461   0.453   8.369  1.7016  2.3335 -0.1147
 3460SOL     OW22012   0.561   3.535   6.525  0.4265 -0.3721  0.0112
 3460SOL    HW122013   0.622   3.462   6.530 -0.0105 -0.8537 -1.7368
 3460SOL    HW222014   0.481   3.481   6.527  0.3415 -0.2459  0.0256
 3461SOL     OW22015   3.967   1.542   6.626  0.0544 -0.4969 -0.1708
 3461SOL    HW122016   4.022   1.598   6.571 -0.5216  0.8360  0.6092
 3461SOL    HW222017   3.888   1.561   6.577 -1.0231 -1.7320  1.0942
 3462SOL     OW22018   4.123   0.604   0.867  0.1679  0.0726  0.6022
 3462SOL    HW122019   4.109   0.679   0.810  4.3846  1.7657  1.7612
 3462SOL    HW222020   4.211   0.581   0.834 -0.3079  2.6459 -2.4474
 3463SOL     OW22021   4.118   3.678   8.590  0.0521  0.0623 -0.2588
 3463SOL    HW122022   4.110   3.700   8.497  1.3789 -1.6666 -0.7841
 3463SOL    HW222023   4.028   3.650   8.607  0.3582 -2.2196 -2.3774
 3464SOL     OW22024   1.187   1.209   5.830  0.3603 -0.0435 -0.3416
 3464SOL    HW122025   1.242   1.131   5.836  2.1170  1.2082 -0.4431
 3464SOL    HW222026   1.096   1.182   5.814  0.7769 -1.6103 -0.0231
 3465SOL     OW22027   0.948   2.077   9.550  0.7715  0.0066  0.1404
 3465SOL    HW122028   0.875   2.137   9.537  1.8523  1.1335 -0.7717
 3465SOL    HW222029   0.953   2.069   9.645 -0.7723  3.1405  0.4612
 3466SOL     OW22030   1.853   1.098   9.002 -0.4362  0.0470 -0.1524
 3466SOL    HW122031   1.915   1.145   8.946 -0.1844 -0.2654 -0.1373
 3466SOL    HW222032   1.782   1.088   8.939  0.8222  0.1859 -1.5918
 3467SOL     OW22033   0.012   3.763   6.736  0.3136 -0.4411 -0.0453
 3467SOL    HW122034   4.682   3.833   6.750  1.0881  0.3705 -0.5510
 3467SOL    HW222035   4.705   3.710   6.668  0.8839 -0.1942 -0.5863
 3468SOL     OW22036   4.548   1.414  16.235  0.6331 -0.1346  0.2870
 3468SOL    HW122037   4.602   1.362  16.175 -0.2964  0.5913 -1.1925
 3468SOL    HW222038   4.621   1.463  16.270  1.1774 -0.8584  0.1707
 3469SOL     OW22039   3.068   4.082   8.316 -0.5367 -0.1454 -0.2096
 3469SOL    HW122040   3.152   4.076   8.271 -0.4503 -0.9324  0.0565
 3469SOL    HW222041   3.051   4.176   8.324  2.1692  0.1994  1.1822
 3470SOL     OW22042   3.590   0.060   2.190 -0.0992  0.1380  0.4622
 3470SOL    HW122043   3.618   0.113   2.265  0.9873 -1.3041  1.0728
 3470SOL    HW222044   3.550   0.135   2.146 -0.6362 -0.1084  0.5378
 3471SOL     OW22045   0.239   0.636   0.264 -0.5177 -0.2355 -0.2011
 3471SOL    HW122046   0.256   0.543   0.279  0.0378 -0.1548 -0.3194
 3471SOL    HW222047   0.183   0.630   0.187 -1.8238 -0.6093  0.7817
 3472SOL     OW22048   1.767   0.334   3.940 -0.0201 -0.3212  0.1378
 3472SOL    HW122049   1.850   0.309   3.979  0.5081  1.5056  0.1650
 3472SOL    HW222050   1.720   0.251   3.932  0.9691 -0.8750  0.1606
 3473SOL     OW22051   2.788   4.411  10.062  0.2744 -0.1297  0.0900
 3473SOL    HW122052   2.821   4.501  10.058 -0.5677  0.1341 -0.8392
 3473SOL    HW222053   2.820   4.378   9.978 -1.4079  2.8713 -1.6953
 3474SOL     OW22054   3.032   1.017  13.096 -0.3056  0.0578  0.2120
 3474SOL    HW122055   2.994   0.930  13.078 -0.0811 -0.8485  4.1747
 3474SOL    HW222056   3.125   0.996  13.093 -0.6249 -1.4213  0.6702
 3475SOL     OW22057   3.545   3.454   7.752  0.1889  0.3578  0.0720
 3475SOL    HW122058   3.458   3.480   7.782 -0.0745 -1.2178  0.6549
 3475SOL    HW222059   3.532   3.458   7.657  0.2417  2.4938  0.1639
 3476SOL     OW22060   4.475   3.063  12.872  0.1787  0.1051 -0.4032
 3476SOL    HW122061   4.502   3.126  12.805 -0.0754  1.3275  0.6174
 3476SOL    HW222062   4.485   3.114  12.953 -0.0299 -1.8840  0.8772
 3477SOL     OW22063   3.526   0.086  10.274  0.2520  0.5562 -0.3482
 3477SOL    HW122064   3.605   0.139  10.261  1.9956 -1.8516  0.3701
 3477SOL    HW222065   3.558   0.006  10.233 -1.3602  0.9040 -2.2373
 3478SOL     OW22066   0.639   0.667   7.584 -0.6448  0.2009  0.0237
 3478SOL    HW122067   0.564   0.663   7.523 -0.7188 -0.2100  0.1424
 3478SOL    HW222068   0.704   0.616   7.536 -2.2027 -1.5532 -0.2063
 3479SOL     OW22069   0.464   4.320   8.216 -0.2057 -0.3483  0.5547
 3479SOL    HW122070   0.426   4.405   8.236  1.7206  0.5900  0.2907
 3479SOL    HW222071   0.463   4.285   8.305  2.2402  1.0395  1.1347
 3480SOL     OW22072   0.236   3.037  13.676 -0.3496  0.2131 -0.6130
 3480SOL    HW122073   0.176   3.005  13.744 -0.5940  0.4783 -0.7041
 3480SOL    HW222074   0.174   3.076  13.614  0.1829  0.6428 -0.8719
 3481SOL     OW22075   1.376   0.293   7.683  0.0652  0.1459  0.7294
 3481SOL    HW122076   1.408   0.227   7.744  0.6383  0.4663  0.7725
 3481SOL    HW222077   1.410   0.375   7.718 -0.1658  0.6176 -0.1433
 3482SOL     OW22078   0.151   0.924   2.631  0.1847 -0.0587 -0.5059
 3482SOL    HW122079   0.178   0.846   2.680 -0.0107 -0.0567 -0.3957
 3482SOL    HW222080   0.223   0.980   2.659 -0.3033  0.3426 -0.0435
 3483SOL     OW22081   1.384   2.873   3.200 -0.6499  0.1479  0.0910
 3483SOL    HW122082   1.398   2.840   3.289 -0.4657  1.4088  0.5177
 3483SOL    HW222083   1.463   2.852   3.150 -0.3425 -0.7508  0.9380
 3484SOL     OW22084   0.555   2.890   2.390 -0.0235 -0.0818 -0.1325
 3484SOL    HW122085   0.488   2.889   2.322  0.9015  1.5219 -1.0682
 3484SOL    HW222086   0.554   2.984   2.407  0.2637  0.2551 -1.9994
 3485SOL     OW22087   3.518   1.961   3.900 -0.2631 -0.0407 -0.0632
 3485SOL    HW122088   3.446   1.939   3.958 -0.4566 -0.1618 -0.3486
 3485SOL    HW222089   3.464   2.006   3.835 -0.1284  0.7439  0.3736
 3486SOL     OW22090   3.065   0.021  13.404 -0.3909 -0.1068  0.0373
 3486SOL    HW122091   3.137   4.712  13.358  1.1312  2.0920  0.3105
 3486SOL    HW222092   2.998   4.714  13.350  0.3424 -0.1442 -0.8506
 3487SOL     OW22093   4.684   3.703  16.847  0.1176 -0.5879 -0.1624
 3487SOL    HW122094   4.685   3.644  16.922  0.9712 -0.7985 -0.3379
 3487SOL    HW222095   0.032   3.679  16.804 -0.4913 -0.5985 -1.3088
 3488SOL     OW22096   0.631   2.196   5.850  0.6250  0.3462 -0.0832
 3488SOL    HW122097   0.671   2.248   5.780  0.2548  0.9042  0.1202
 3488SOL    HW222098   0.549   2.172   5.807  1.1417  3.0247 -2.5831
 3489SOL     OW22099   3.894   2.234  11.794 -0.3636  0.4248  0.8672
 3489SOL    HW122100   3.955   2.236  11.721 -1.0372 -2.8635  0.2290
 3489SOL    HW222101   3.957   2.218  11.864  0.9793  0.5146 -0.3300
 3490SOL     OW22102   2.209   1.575   7.951  0.8830  0.2268  0.5078
 3490SOL    HW122103   2.159   1.654   7.933 -0.8077 -0.8711  0.3670
 3490SOL    HW222104   2.161   1.555   8.031  1.5647  1.5576  1.2377
 3491SOL     OW22105   2.960   3.571   7.055  0.4861 -0.1505  0.0987
 3491SOL    HW122106   2.935   3.663   7.049  0.0493 -0.2431  0.4767
 3491SOL    HW222107   2.960   3.544   6.963  0.9945  0.5060 -0.0904
 3492SOL     OW22108   2.299   2.276   7.002 -1.0387 -0.4962  0.0518
 3492SOL    HW122109   2.353   2.304   6.928 -1.6382  1.1892  0.2395
 3492SOL    HW222110   2.245   2.213   6.954 -3.8405  0.0552  2.4548
 3493SOL     OW22111   3.330   2.692   1.955  0.4700  0.3465 -0.4245
 3493SOL    HW122112   3.297   2.615   1.908  3.0865  0.5357 -2.5658
 3493SOL    HW222113   3.366   2.654   2.035  0.0422 -0.4705 -0.6172
 3494SOL     OW22114   0.081   1.956   4.176 -0.3471 -1.0436 -0.2220
 3494SOL    HW122115   0.003   1.938   4.229 -1.8184 -0.8592 -2.3061
 3494SOL    HW222116   0.129   2.006   4.242  0.5829 -1.8710 -0.2594
 3495SOL     OW22117   4.287   2.240   6.785  0.1499 -0.5066 -0.0278
 3495SOL    HW122118   4.366   2.233   6.732  1.0906  1.8811  1.0391
 3495SOL    HW222119   4.256   2.150   6.796 -0.9503  0.0064  1.1113
 3496SOL     OW22120   0.014   3.148   3.956 -0.0780  0.4586  0.4033
 3496SOL    HW122121   0.077   3.091   3.912  0.8877  1.2720  0.7358
 3496SOL    HW222122   0.036   3.115   4.043  0.6469 -1.0431 -0.3544
 3497SOL     OW22123   0.603   1.310  13.351  0.3280  0.1382 -0.2417
 3497SOL    HW122124   0.560   1.393  13.368 -0.5613 -0.3874  0.0587
 3497SOL    HW222125   0.582   1.295  13.259 -0.6349  2.0903 -0.3249
 3498SOL     OW22126   2.072   2.215  13.041  0.5106  0.4407 -0.4045
 3498SOL    HW122127   2.083   2.127  13.005 -0.0132 -0.2085  0.9925
 3498SOL    HW222128   2.160   2.241  13.069 -0.5566  0.8060  2.5942
 3499SOL     OW22129   1.842   0.777   7.423 -0.0881 -0.4501 -0.3854
 3499SOL    HW122130   1.833   0.749   7.332  0.3456  1.9158 -1.1490
 3499SOL    HW222131   1.930   0.813   7.428 -1.3804  3.0793 -2.4711
 3500SOL     OW22132   1.892   4.555   9.934 -0.0958  0.1668  0.2864
 3500SOL    HW122133   1.837   4.541   9.858  0.7531 -1.8860  0.0455
 3500SOL    HW222134   1.899   4.650   9.940  2.8435  0.0301 -0.9545
 3501SOL     OW22135   2.666   3.707   8.821 -0.5973  0.1711  0.5117
 3501SOL    HW122136   2.578   3.744   8.818 -0.6306  0.1356  1.0598
 3501SOL    HW222137   2.678   3.686   8.728  0.0947  2.3334  0.1282
 3502SOL     OW22138   2.411   2.711   6.314 -0.2113  0.3483 -0.5545
 3502SOL    HW122139   2.326   2.732   6.275 -0.5098 -3.0819 -1.7022
 3502SOL    HW222140   2.404   2.776   6.384 -1.1524 -0.1787 -0.1612
 3503SOL     OW22141   1.796   4.304   5.787 -0.5223 -0.0084 -0.4193
 3503SOL    HW122142   1.817   4.361   5.860 -0.8272  0.4327 -0.6704
 3503SOL    HW222143   1.881   4.285   5.747 -0.6261  0.7392 -0.9982
 3504SOL     OW22144   3.259   4.041   4.061  0.5978 -0.5840  0.2168
 3504SOL    HW122145   3.334   3.982   4.061 -0.8725 -2.4458  0.3057
 3504SOL    HW222146   3.268   4.066   4.153 -0.6116  1.6990 -0.2826
 3505SOL     OW22147   3.401   0.010  13.028  0.1952 -0.1631 -0.2706
 3505SOL    HW122148   3.473   4.721  13.086 -0.8739 -1.3826  0.5640
 3505SOL    HW222149   3.444   0.072  12.969 -2.6279  0.8251 -1.2961
 3506SOL     OW22150   1.914   0.979  14.334  0.0116 -0.1451  0.2471
 3506SOL    HW122151   1.901   1.070  14.308 -1.7242 -0.2367  0.7636
 3506SOL    HW222152   1.936   0.943  14.248 -0.4668  1.1775 -0.4300
 3507SOL     OW22153   1.588   4.359  11.836 -0.2577  0.1596 -0.2281
 3507SOL    HW122154   1.601   4.319  11.922 -0.8415  0.9840  0.2499
 3507SOL    HW222155   1.532   4.435  11.852  2.9121  2.5138 -0.5103
 3508SOL     OW22156   3.187   2.197  12.242  0.0119 -0.4992 -0.2617
 3508SOL    HW122157   3.114   2.142  12.214 -0.5669 -0.3910  1.0221
 3508SOL    HW222158   3.255   2.131  12.257 -0.9264 -1.8037 -1.8023
 3509SOL     OW22159   0.460   0.820  15.410  0.3870  0.0368  0.1236
 3509SOL    HW122160   0.379   0.864  15.385  0.0305 -0.1552  0.9300
 3509SOL    HW222161   0.522   0.891  15.426 -2.5384  2.5183  0.3592
 3510SOL     OW22162   4.470   4.321   7.463  0.2048  0.2770  0.0963
 3510SOL    HW122163   4.441   4.259   7.529  1.6433 -1.7004 -1.1299
 3510SOL    HW222164   4.424   4.403   7.481 -0.0113  0.6232 -2.0238
 3511SOL     OW22165   3.890   1.778   7.843 -0.3285 -0.1992  0.2378
 3511SOL    HW122166   3.928   1.751   7.760 -1.9737 -1.6345 -0.0566
 3511SOL    HW222167   3.969   1.784   7.896 -0.0708 -0.5805 -0.1028
 3512SOL     OW22168   2.390   0.998   0.276 -0.0247  0.1551  0.4496
 3512SOL    HW122169   2.375   0.989   0.370 -0.5682  1.6347  0.5015
 3512SOL    HW222170   2.346   0.921   0.239 -1.7265  0.6895  1.3634
 3513SOL     OW22171   4.725   4.395   0.859  0.4240 -0.3343 -0.3864
 3513SOL    HW122172   0.062   4.336   0.836  0.4942  0.1486 -1.4418
 3513SOL    HW222173   4.677   4.328   0.907 -1.0575  0.5980 -0.5477
 3514SOL     OW22174   0.176   4.518   5.390 -0.9717  0.0797 -0.1023
 3514SOL    HW122175   0.213   4.512   5.302 -0.7130 -0.5389  0.0464
 3514SOL    HW222176   0.238   4.461   5.435  1.2285  2.2135 -0.4694
 3515SOL     OW22177   3.928   4.030   7.533  0.5045  0.4945  0.3176
 3515SOL    HW122178   3.985   4.096   7.494 -0.6113  1.7216  0.7528
 3515SOL    HW222179   3.954   3.947   7.493 -0.7203 -0.3332  1.2204
 3516SOL     OW22180   1.401   2.528   0.919 -0.0962  0.0741 -0.1482
 3516SOL    HW122181   1.358   2.591   0.862 -1.2754 -0.8849 -0.3144
 3516SOL    HW222182   1.455   2.480   0.856 -2.3159 -0.7997 -1.3697
 3517SOL     OW22183   2.608   3.266   2.832 -0.0313  0.3038  0.2478
 3517SOL    HW122184   2.554   3.295   2.758  0.5641  0.5398 -0.0957
 3517SOL    HW222185   2.687   3.321   2.824 -1.3196  1.9273 -1.3130
 3518SOL     OW22186   2.932   4.326   0.065 -0.2575 -0.4739 -0.0518
 3518SOL    HW122187   2.883   4.246   0.045 -0.3839 -0.3481 -0.2421
 3518SOL    HW222188   3.011   4.282   0.098 -0.9677 -0.0582  2.2032
 3519SOL     OW22189   0.401   1.943  13.507 -0.1604 -0.2983  0.2887
 3519SOL    HW122190   0.429   1.874  13.447 -1.7375 -0.2646 -0.4873
 3519SOL    HW222191   0.462   1.920  13.578  0.0724  2.7653  1.0827
 3520SOL     OW22192   3.561   0.187   9.700  0.2015  0.2134 -0.1967
 3520SOL    HW122193   3.652   0.212   9.717  0.4742  0.1930 -1.6216
 3520SOL    HW222194   3.515   0.268   9.720 -0.2271 -0.3189  0.9737
 3521SOL     OW22195   2.693   0.694  10.671  0.3762 -0.0486 -0.1695
 3521SOL    HW122196   2.747   0.770  10.647  1.7810 -0.3898  1.8742
 3521SOL    HW222197   2.645   0.729  10.746  0.8376 -3.9872  1.9539
 3522SOL     OW22198   1.270   3.995   5.071 -0.4065 -0.0888  0.0478
 3522SOL    HW122199   1.289   3.963   4.983  1.8175 -0.4876  0.6574
 3522SOL    HW222200   1.260   4.087   5.047 -1.4499 -0.2251 -0.0111
 3523SOL     OW22201   0.805   4.049  13.645 -0.1151  0.4339 -0.5354
 3523SOL    HW122202   0.871   4.080  13.582 -1.7760  4.4908 -0.2564
 3523SOL    HW222203   0.774   3.972  13.597 -1.5316  1.0590 -0.5906
 3524SOL     OW22204   0.754   1.114   1.990 -0.0525 -0.0534 -0.6133
 3524SOL    HW122205   0.786   1.034   1.947  0.0018 -0.3974  0.0724
 3524SOL    HW222206   0.819   1.177   1.958 -1.5068  1.9156  0.3448
 3525SOL     OW22207   2.997   4.694   5.314  0.9030  0.3594 -0.4778
 3525SOL    HW122208   2.975   0.018   5.241 -0.9965  1.4821  0.9654
 3525SOL    HW222209   2.932   4.624   5.306 -0.5008  1.6960 -0.7194
 3526SOL     OW22210   0.414   4.320  12.343  0.8395  0.1432 -1.0587
 3526SOL    HW122211   0.388   4.311  12.435  0.9327 -2.4176 -1.2834
 3526SOL    HW222212   0.423   4.226  12.329  1.7078  0.3233 -1.7564
 3527SOL     OW22213   3.028   4.034   7.229 -0.2333  0.0067  0.5730
 3527SOL    HW122214   3.071   4.017   7.313 -1.2662  1.1700  1.3411
 3527SOL    HW222215   2.957   4.095   7.251 -1.1308 -0.2597 -1.5693
 3528SOL     OW22216   4.230   1.232   7.830  0.1167  0.2217 -0.0407
 3528SOL    HW122217   4.267   1.274   7.908  0.4790  0.9028 -0.5792
 3528SOL    HW222218   4.227   1.138   7.847  0.6122  0.3260  0.5992
 3529SOL     OW22219   4.301   0.173  11.946 -0.2167  0.0160  1.1434
 3529SOL    HW122220   4.226   0.193  11.890  0.4846 -2.1975 -0.5641
 3529SOL    HW222221   4.256   0.109  12.001 -0.2138  0.5625  1.7827
 3530SOL     OW22222   2.987   4.382   5.013  0.1638  0.1138 -0.2633
 3530SOL    HW122223   2.896   4.391   5.042  0.4985  1.2786  0.4289
 3530SOL    HW222224   3.008   4.471   4.986  0.1291 -0.7572 -3.1661
 3531SOL     OW22225   0.502   1.198   3.081 -0.6396 -0.0708 -0.2385
 3531SOL    HW122226   0.462   1.275   3.041 -0.2597  0.3009  0.0951
 3531SOL    HW222227   0.450   1.169   3.156 -0.6224  1.7530  0.4986
 3532SOL     OW22228   0.784   0.987  16.303 -0.8583  0.6565  0.0962
 3532SOL    HW122229   0.759   0.963  16.214 -1.5970  2.4113 -0.1664
 3532SOL    HW222230   0.803   0.902  16.341  0.8795  1.1482  0.3401
 3533SOL     OW22231   1.867   3.916   7.014 -0.1165 -0.1063 -0.4768
 3533SOL    HW122232   1.845   3.859   7.087 -3.5027  1.7456 -0.0563
 3533SOL    HW222233   1.891   4.001   7.051 -0.2348 -0.4161  0.3119
 3534SOL     OW22234   1.445   3.974   7.111 -0.2428 -0.5032  0.5199
 3534SOL    HW122235   1.512   3.950   7.176 -0.4800  0.1257  1.0015
 3534SOL    HW222236   1.452   3.898   7.054 -1.0809  0.4561 -0.8648
 3535SOL     OW22237   1.900   1.260   2.052 -0.2335  0.9175  0.9585
 3535SOL    HW122238   1.854   1.254   1.969 -1.6617  3.7015  1.5631
 3535SOL    HW222239   1.991   1.260   2.023 -0.1060 -1.3391  1.3475
 3536SOL     OW22240   3.168   0.567   8.477 -0.2307  0.1135  0.1854
 3536SOL    HW122241   3.103   0.541   8.412  2.1205 -0.4047 -2.0126
 3536SOL    HW222242   3.239   0.590   8.416 -0.6396  1.9666  0.4153
 3537SOL     OW22243   1.670   0.291   5.868 -0.2538 -0.3189 -0.4951
 3537SOL    HW122244   1.711   0.341   5.797 -0.5606 -0.4294 -0.7514
 3537SOL    HW222245   1.674   0.204   5.828  0.9299 -1.2863  1.7461
 3538SOL     OW22246   3.775   0.395  10.468 -0.0657 -0.2283  0.4501
 3538SOL    HW122247   3.774   0.448  10.548 -2.0633 -0.7114  0.7436
 3538SOL    HW222248   3.827   0.322  10.501 -0.5196 -0.2270  1.1719
 3539SOL     OW22249   3.381   0.698   3.287 -0.0775  0.1000  0.1045
 3539SOL    HW122250   3.419   0.610   3.290 -0.7903 -0.1775  1.2128
 3539SOL    HW222251   3.416   0.730   3.370 -4.0436 -0.7324  2.0625
 3540SOL     OW22252   4.185   3.665   4.447  0.3836  0.4119 -0.0836
 3540SOL    HW122253   4.258   3.702   4.396  0.2391  2.3661  1.1535
 3540SOL    HW222254   4.219   3.575   4.447 -1.0948 -0.1448  1.2419
 3541SOL     OW22255   3.763   2.736   9.933  0.1000 -0.6370 -0.1544
 3541SOL    HW122256   3.675   2.735   9.896  0.0250  1.9297 -0.0674
 3541SOL    HW222257   3.748   2.700  10.020 -0.8677 -0.1628 -0.1290
 3542SOL     OW22258   2.412   1.877   3.579  0.0522 -0.0637 -0.0891
 3542SOL    HW122259   2.363   1.893   3.660 -0.3786 -3.2053  0.2416
 3542SOL    HW222260   2.420   1.782   3.578  2.3930  0.1384 -0.2571
 3543SOL     OW22261   2.253   2.118   2.408  0.4170  0.8139  0.3880
 3543SOL    HW122262   2.262   2.153   2.320 -2.2518 -0.6144 -0.4355
 3543SOL    HW222263   2.345   2.101   2.431 -0.3862 -1.2420  2.0724
 3544SOL     OW22264   0.731   4.325   6.603  0.3903 -0.0848 -0.2174
 3544SOL    HW122265   0.684   4.361   6.529  4.9128  0.9213 -2.6222
 3544SOL    HW222266   0.800   4.288   6.548  1.0209  0.2880  0.3163
 3545SOL     OW22267   4.375   0.518   0.711  0.2391  0.3140  0.5494
 3545SOL    HW122268   4.438   0.537   0.780 -2.3029  0.8625  2.6993
 3545SOL    HW222269   4.416   0.569   0.641  0.2355  1.7146  1.5699
 3546SOL     OW22270   3.845   0.967   0.197  0.4511 -0.6867  0.2661
 3546SOL    HW122271   3.906   1.040   0.214  1.7572 -2.1879  2.0874
 3546SOL    HW222272   3.886   0.937   0.116 -0.1195 -0.2447 -0.1902
 3547SOL     OW22273   3.216   4.288   6.426  0.4140  0.0394  0.2048
 3547SOL    HW122274   3.132   4.327   6.402  1.3449  3.0560  1.8087
 3547SOL    HW222275   3.260   4.317   6.345  0.3139 -2.8430 -0.8766
 3548SOL     OW22276   3.463   2.016   1.587  0.0056  0.4940 -0.2171
 3548SOL    HW122277   3.526   1.976   1.647 -1.6691 -1.6281  0.1131
 3548SOL    HW222278   3.429   2.093   1.631  2.2652  0.8065  0.9969
 3549SOL     OW22279   1.170   2.546   5.218 -0.1512  0.3663 -0.6827
 3549SOL    HW122280   1.096   2.487   5.231  0.6216 -0.3873  0.2389
 3549SOL    HW222281   1.246   2.496   5.247  0.1651  2.0314  1.3690
 3550SOL     OW22282   0.410   4.180   7.752 -0.1653  0.8144  0.0392
 3550SOL    HW122283   0.384   4.194   7.843 -0.8538  0.4680 -0.1018
 3550SOL    HW222284   0.472   4.253   7.746  2.1591 -1.0644  0.9543
 3551SOL     OW22285   0.147   2.521   2.829  0.1311 -0.4164 -0.0259
 3551SOL    HW122286   0.221   2.475   2.790 -1.1657 -1.5708 -1.1288
 3551SOL    HW222287   0.071   2.468   2.802 -0.2224 -0.4150  0.9740
 3552SOL     OW22288   3.091   1.982   3.004  0.5475  0.1830  0.3178
 3552SOL    HW122289   3.158   2.000   3.070  1.5780 -0.3277 -0.5948
 3552SOL    HW222290   3.016   2.030   3.039  0.2849  0.1845 -0.2563
 3553SOL     OW22291   0.789   1.822  15.081 -0.3858  0.1461  0.5816
 3553SOL    HW122292   0.780   1.850  14.990 -0.1985 -1.7428 -0.0043
 3553SOL    HW222293   0.697   1.819  15.106  0.4381 -2.5257  3.3221
 3554SOL     OW22294   0.091   0.170  17.682 -0.1939  0.1804  0.1151
 3554SOL    HW122295   0.008   0.173  17.730 -0.4253 -3.0560 -0.0492
 3554SOL    HW222296   0.119   0.260  17.668  0.2559  0.1871  1.0091
 3555SOL     OW22297   4.338   3.338   4.195 -0.0228  0.5330 -0.4631
 3555SOL    HW122298   4.418   3.355   4.144  1.2098 -2.3884  0.5166
 3555SOL    HW222299   4.277   3.375   4.131 -2.4080 -1.8686  0.4599
 3556SOL     OW22300   1.398   3.333   5.454 -0.1820  0.3605  0.0275
 3556SOL    HW122301   1.373   3.315   5.545  0.1690  0.0841  0.0715
 3556SOL    HW222302   1.391   3.242   5.426  0.3492  0.2539  0.2382
 3557SOL     OW22303   3.134   1.090   8.995  0.4637 -0.4648 -0.0183
 3557SOL    HW122304   3.159   0.998   8.990  0.8827 -0.2496 -1.7421
 3557SOL    HW222305   3.152   1.114   9.086  0.6397  2.9328 -0.9179
 3558SOL     OW22306   1.635   2.720   7.954  0.2038 -0.3987  0.1012
 3558SOL    HW122307   1.547   2.745   7.928  1.2350  2.0466 -1.1047
 3558SOL    HW222308   1.693   2.772   7.897  1.9819 -2.3629  0.1313
 3559SOL     OW22309   3.930   0.044  10.788 -0.2478 -0.0347 -0.3655
 3559SOL    HW122310   3.914   0.092  10.707  1.5972  0.5508 -0.3706
 3559SOL    HW222311   3.999   4.716  10.766 -0.9687 -0.0590 -2.5493
 3560SOL     OW22312   1.359   4.643   6.321 -0.0086 -0.5712  0.2082
 3560SOL    HW122313   1.414   4.565   6.326 -0.6564 -0.9442  1.3776
 3560SOL    HW222314   1.337   4.668   6.410  2.4799  3.5319 -0.3329
 3561SOL     OW22315   3.497   3.910   3.666 -0.3892  0.4312  1.3759
 3561SOL    HW122316   3.455   3.904   3.752 -1.4924  0.9181  0.8780
 3561SOL    HW222317   3.459   3.830   3.629  1.0636  0.6349 -0.5839
 3562SOL     OW22318   4.510   2.766  10.397  0.3931 -0.9356  0.2517
 3562SOL    HW122319   4.500   2.861  10.396 -2.1924 -1.2151  0.8631
 3562SOL    HW222320   4.522   2.753  10.303  0.2542  0.0512  0.0921
 3563SOL     OW22321   2.168   3.219   9.367 -0.2098 -0.7574 -0.5067
 3563SOL    HW122322   2.081   3.244   9.397  0.0080 -0.1846 -0.3545
 3563SOL    HW222323   2.147   3.143   9.313  1.1590 -2.1560  0.9224
 3564SOL     OW22324   0.444   3.735   7.690 -0.2746 -0.6657 -0.1335
 3564SOL    HW122325   0.478   3.742   7.600 -1.8992 -0.3023 -0.7239
 3564SOL    HW222326   0.511   3.673   7.719  0.2818 -0.3764 -0.8029
 3565SOL     OW22327   1.028   1.127  13.727  0.4132  0.2943 -0.0100
 3565SOL    HW122328   1.114   1.119  13.769  0.2467  2.1645  0.6579
 3565SOL    HW222329   0.972   1.073  13.784 -0.7978  0.4779 -1.0253
 3566SOL     OW22330   1.648   1.477   9.859  0.4878  0.3231  0.2869
 3566SOL    HW122331   1.684   1.418   9.793  1.3907  1.5847 -0.3363
 3566SOL    HW222332   1.693   1.556   9.831  0.3717  0.5527  0.7467
 3567SOL     OW22333   3.914   4.374   2.864 -0.3871 -0.3941 -0.4209
 3567SOL    HW122334   3.831   4.328   2.851  0.1211 -1.5254  0.3098
 3567SOL    HW222335   3.881   4.464   2.864 -0.7671 -0.5234 -3.6110
 3568SOL     OW22336   4.001   1.513   4.060 -0.2540 -0.2861  0.0593
 3568SOL    HW122337   3.963   1.561   4.134 -0.9274 -4.0417  2.1426
 3568SOL    HW222338   3.925   1.458   4.042 -1.6946  1.2404  1.4018
 3569SOL     OW22339   3.928   3.264   2.096 -0.7114 -0.1767  0.5721
 3569SOL    HW122340   3.939   3.267   2.191  0.7939 -3.4895  0.4987
 3569SOL    HW222341   4.020   3.271   2.071 -0.5082  0.2364  1.4444
 3570SOL     OW22342   2.690   0.050   6.782 -0.1803  0.3878  0.1150
 3570SOL    HW122343   2.767   0.015   6.826  0.7086  1.9922 -0.1601
 3570SOL    HW222344   2.623   0.003   6.832 -2.5217  1.5244 -1.9317
 3571SOL     OW22345   2.654   2.620  15.612  1.1114  1.1764  0.1152
 3571SOL    HW122346   2.701   2.667  15.544 -0.6767  0.1695 -1.8322
 3571SOL    HW222347   2.597   2.571  15.552  0.3252  1.5060  0.5824
 3572SOL     OW22348   3.582   1.970   8.199 -0.3557 -0.1835 -0.0423
 3572SOL    HW122349   3.592   1.877   8.177 -1.2362 -0.2072 -0.3337
 3572SOL    HW222350   3.523   1.961   8.273  0.4977  1.5144  0.8405
 3573SOL     OW22351   3.340   1.530   2.018 -0.3242 -0.4887  0.9481
 3573SOL    HW122352   3.391   1.510   2.096 -0.4590 -1.9861  0.6475
 3573SOL    HW222353   3.260   1.492   2.054 -3.0120  3.1782 -1.0434
 3574SOL     OW22354   0.864   1.299  10.322 -0.2815 -0.3962  0.0384
 3574SOL    HW122355   0.857   1.204  10.329 -0.8884 -0.3240  0.3848
 3574SOL    HW222356   0.957   1.310  10.341 -0.5456  0.6173  0.7455
 3575SOL     OW22357   1.704   0.791   5.673  0.0452  0.1363 -0.1569
 3575SOL    HW122358   1.617   0.831   5.670  0.6854  1.5192  0.0173
 3575SOL    HW222359   1.730   0.848   5.745 -0.4278  0.0967  0.0479
 3576SOL     OW22360   4.372   4.217  14.929 -0.0353 -0.0031 -0.2076
 3576SOL    HW122361   4.413   4.134  14.954  3.9194  1.5881 -1.2610
 3576SOL    HW222362   4.397   4.228  14.837  1.2744 -2.6473 -0.1725
 3577SOL     OW22363   3.987   3.778   6.232 -1.0322 -1.0038  0.2263
 3577SOL    HW122364   3.919   3.842   6.252 -1.7702 -1.7112 -0.0273
 3577SOL    HW222365   4.006   3.777   6.138  1.7467  1.2230  0.7709
 3578SOL     OW22366   3.789   0.569   7.431 -0.2461 -0.1999 -0.1030
 3578SOL    HW122367   3.812   0.477   7.415  0.7795  0.2607 -1.2858
 3578SOL    HW222368   3.745   0.586   7.348 -2.7907  0.8040  1.4877
 3579SOL     OW22369   1.905   3.290  14.285 -0.2367 -0.4572  0.2858
 3579SOL    HW122370   1.850   3.356  14.327 -2.3413 -2.2659  0.3973
 3579SOL    HW222371   1.948   3.329  14.210 -0.5483  0.3165  0.5103
 3580SOL     OW22372   2.285   0.007   9.801 -0.2053  0.4631 -0.0678
 3580SOL    HW122373   2.299   0.049   9.886  1.2535 -0.5218  0.1880
 3580SOL    HW222374   2.328   0.072   9.744 -0.7660  0.5105 -0.4350
 3581SOL     OW22375   2.915   3.799   7.412 -0.0020  0.1970  0.4486
 3581SOL    HW122376   2.850   3.730   7.401  0.4105 -0.1850  0.4073
 3581SOL    HW222377   2.984   3.753   7.363  0.4937  2.4249 -0.9861
 3582SOL     OW22378   3.812   4.565   3.793 -0.1940  0.0004 -0.2730
 3582SOL    HW122379   3.794   4.614   3.874  2.0268 -1.6602  1.2468
 3582SOL    HW222380   3.906   4.546   3.798 -0.6081 -1.6974  1.0718
 3583SOL     OW22381   3.143   0.967   3.128 -0.2892  0.5313  0.6306
 3583SOL    HW122382   3.098   0.972   3.044  2.2574  0.4326 -0.7318
 3583SOL    HW222383   3.228   0.932   3.101 -1.1407 -0.4798 -0.7252
 3584SOL     OW22384   3.799   0.151   4.258 -0.0710 -0.3475  0.1410
 3584SOL    HW122385   3.799   0.228   4.201  1.3649  0.4280  1.1810
 3584SOL    HW222386   3.708   0.151   4.289 -0.6604  0.7116 -1.5910
 3585SOL     OW22387   2.151   0.138   5.774  0.2040  0.0433 -0.2649
 3585SOL    HW122388   2.235   0.159   5.813 -0.4528  1.4593  0.3764
 3585SOL    HW222389   2.181   0.118   5.686  0.1802 -2.1491  0.2215
 3586SOL     OW22390   1.475   2.667   4.521  0.0443  0.1469  0.1814
 3586SOL    HW122391   1.427   2.657   4.602  0.1677 -0.5336  0.1647
 3586SOL    HW222392   1.409   2.719   4.475 -0.1175 -1.5090 -1.4612
 3587SOL     OW22393   3.178   1.429   7.532 -0.5704 -0.3917 -0.5168
 3587SOL    HW122394   3.241   1.357   7.539 -2.1381 -1.5647  1.5398
 3587SOL    HW222395   3.202   1.451   7.442 -0.6069  0.2950 -0.3621
 3588SOL     OW22396   2.873   1.501   2.176 -0.1919  0.0799  0.1948
 3588SOL    HW122397   2.870   1.543   2.090 -2.3212 -1.3847 -0.4279
 3588SOL    HW222398   2.794   1.533   2.219 -0.6014  2.7110 -2.4539
 3589SOL     OW22399   3.511   4.119   8.914 -0.1904 -0.5031  0.1423
 3589SOL    HW122400   3.453   4.045   8.931  1.6092 -1.4851  2.1018
 3589SOL    HW222401   3.469   4.165   8.842 -0.1434 -0.3417  0.2177
 3590SOL     OW22402   3.714   4.131   8.707  0.2147  0.1503 -0.5709
 3590SOL    HW122403   3.732   4.223   8.727 -0.6367 -0.0008  0.9219
 3590SOL    HW222404   3.665   4.102   8.785 -0.2566  1.2093 -0.4597
 3591SOL     OW22405   1.596   4.119   6.083 -0.1622 -0.1495 -0.1083
 3591SOL    HW122406   1.628   4.110   6.173 -0.4225  0.0739  0.0069
 3591SOL    HW222407   1.600   4.026   6.061  0.5924  0.2047 -1.4692
 3592SOL     OW22408   2.967   0.982   2.916 -0.2642 -0.1768 -0.1650
 3592SOL    HW122409   2.920   0.898   2.919  1.0871 -0.9218  0.2890
 3592SOL    HW222410   2.985   0.988   2.823 -1.1725 -2.1922 -0.4730
 3593SOL     OW22411   0.609   3.638   2.923  0.0233  0.2021  0.4893
 3593SOL    HW122412   0.649   3.552   2.914  2.6402  1.4695  0.0743
 3593SOL    HW222413   0.571   3.656   2.837 -1.4860 -0.8251  0.9418
 3594SOL     OW22414   2.631   1.846   7.084 -0.3600 -0.2399  0.7168
 3594SOL    HW122415   2.672   1.866   7.168 -1.6625 -1.4254  1.6469
 3594SOL    HW222416   2.635   1.750   7.081  0.4412 -0.2268  1.6938
 3595SOL     OW22417   1.605   4.683  13.749  0.5025  0.5207  0.7637
 3595SOL    HW122418   1.617   0.029  13.698  1.2364  0.3157  0.6253
 3595SOL    HW222419   1.614   4.718  13.838 -0.3836  1.7687  0.3662
 3596SOL     OW22420   2.994   3.718   2.526 -0.1083  0.6640  0.0795
 3596SOL    HW122421   3.076   3.670   2.517 -1.1742 -0.5585 -3.2109
 3596SOL    HW222422   2.935   3.679   2.461 -1.1632  0.5130  1.1425
 3597SOL     OW22423   2.606   3.821   7.885 -0.2088  0.1981 -0.0785
 3597SOL    HW122424   2.519   3.812   7.845  0.4965  0.5446 -1.7138
 3597SOL    HW222425   2.586   3.811   7.978  1.8848  0.2545  0.3745
 3598SOL     OW22426   0.035   4.566   7.132 -0.3243 -0.4545 -0.4376
 3598SOL    HW122427   0.109   4.596   7.080 -0.9806  0.5724 -0.7950
 3598SOL    HW222428   0.067   4.547   7.220 -0.7575 -1.1880 -0.4399
 3599SOL     OW22429   2.267   1.340   6.013 -0.1473 -0.2556 -0.0699
 3599SOL    HW122430   2.194   1.278   6.010 -0.2392 -0.1047 -1.0666
 3599SOL    HW222431   2.306   1.299   6.091 -1.7179 -1.3235  0.1431
 3600SOL     OW22432   2.207   1.137   5.091 -0.0975 -0.8627 -0.1849
 3600SOL    HW122433   2.296   1.101   5.095 -0.6142 -2.1461 -0.1497
 3600SOL    HW222434   2.175   1.081   5.161  1.6954  0.6577  1.8551
 3601SOL     OW22435   0.396   2.734   2.106 -0.8264 -0.3147  0.0414
 3601SOL    HW122436   0.372   2.760   2.017 -2.2360 -3.4751 -0.4868
 3601SOL    HW222437   0.410   2.826   2.130 -1.4316 -0.1715 -0.1523
 3602SOL     OW22438   2.491   0.027  11.305 -0.3008 -0.0782  0.3565
 3602SOL    HW122439   2.426   0.073  11.357 -1.1777  0.5292 -1.3088
 3602SOL    HW222440   2.545   0.105  11.298 -0.7014  0.1235 -0.4250
 3603SOL     OW22441   0.947   2.434   7.778  0.8345  0.2038  0.2284
 3603SOL    HW122442   0.942   2.494   7.852  2.2692 -0.2389  0.6677
 3603SOL    HW222443   0.923   2.491   7.704 -3.2753 -1.3174  0.3805
 3604SOL     OW22444   4.174   2.930   2.691 -0.3540  0.2762 -0.4069
 3604SOL    HW122445   4.079   2.945   2.694 -0.5908 -1.2937  0.1562
 3604SOL    HW222446   4.200   2.999   2.631  2.5228  0.6536  1.2578
 3605SOL     OW22447   0.907   1.494  11.968  0.3232  0.5824  0.3081
 3605SOL    HW122448   0.843   1.431  11.935  2.7102 -1.4024 -0.5102
 3605SOL    HW222449   0.978   1.470  11.908 -0.4968  0.0111 -0.4389
 3606SOL     OW22450   2.390   1.272  16.647  0.4957  0.2570 -0.4978
 3606SOL    HW122451   2.373   1.290  16.555  1.3208 -1.3813 -0.9632
 3606SOL    HW222452   2.328   1.334  16.686 -0.8079 -0.6792 -1.0857
 3607SOL     OW22453   4.218   2.956  12.623  0.2514  0.3834  0.3964
 3607SOL    HW122454   4.245   2.968  12.532  1.7327  0.7982  0.8990
 3607SOL    HW222455   4.256   2.869  12.636 -0.8730 -0.0445  0.8337
 3608SOL     OW22456   1.036   1.247   4.998  0.4614  0.1934 -0.4058
 3608SOL    HW122457   0.994   1.196   4.928 -2.1205  0.1821  1.1597
 3608SOL    HW222458   1.011   1.196   5.075  1.2303  0.3839 -0.0331
 3609SOL     OW22459   0.729   4.086   8.728 -0.5675 -0.4740  0.0667
 3609SOL    HW122460   0.769   4.063   8.812 -0.0421 -1.5424 -0.4748
 3609SOL    HW222461   0.650   4.032   8.733 -0.6251 -0.2833  1.3833
 3610SOL     OW22462   0.046   3.357  16.699  0.2559 -0.2910 -0.1364
 3610SOL    HW122463   0.019   3.421  16.634 -2.2527  1.2657  2.4331
 3610SOL    HW222464   0.067   3.281  16.645 -0.0186  0.2041 -0.9401
 3611SOL     OW22465   3.383   4.693   6.266  0.1838  0.1572 -0.4758
 3611SOL    HW122466   3.296   4.725   6.291  0.2766 -1.8248  2.4484
 3611SOL    HW222467   3.434   0.036   6.290 -0.6871  0.6466 -0.1767
 3612SOL     OW22468   3.210   4.119  12.166  0.5774  0.2617  0.0404
 3612SOL    HW122469   3.182   4.031  12.141 -1.8395  1.0110  0.1291
 3612SOL    HW222470   3.132   4.174  12.163  0.9001  0.6812 -0.6670
 3613SOL     OW22471   4.056   2.732   7.257 -0.7087 -0.4521  0.1932
 3613SOL    HW122472   4.081   2.715   7.348 -1.6228 -3.0272 -0.0392
 3613SOL    HW222473   4.049   2.644   7.220  1.4289 -0.5849  0.0934
 3614SOL     OW22474   2.358   1.279  15.863  0.2988  0.0146 -0.0314
 3614SOL    HW122475   2.370   1.354  15.805 -0.5029  0.5924  0.5432
 3614SOL    HW222476   2.272   1.253  15.830  1.0035 -2.5459  0.1045
 3615SOL     OW22477   3.565   3.682   1.784  0.1883 -0.3411  0.3054
 3615SOL    HW122478   3.577   3.605   1.839  0.3382 -1.3593 -1.1804
 3615SOL    HW222479   3.655   3.704   1.761 -0.1270 -0.9743 -1.4996
 3616SOL     OW22480   0.529   4.726   2.069  0.2357  0.1963  0.0556
 3616SOL    HW122481   0.498   0.019   1.982  0.2480  2.6113  0.7889
 3616SOL    HW222482   0.449   4.720   2.122 -0.3659  1.2224 -0.7376
 3617SOL     OW22483   0.581   2.311   9.331  0.0129 -0.6933 -0.4717
 3617SOL    HW122484   0.626   2.255   9.267 -0.6734  0.5628 -2.0554
 3617SOL    HW222485   0.489   2.298   9.305  0.1484  0.0994 -1.3285
 3618SOL     OW22486   4.593   2.103   8.094  0.1415  0.9786 -0.8430
 3618SOL    HW122487   4.516   2.139   8.050 -0.0147 -0.6669 -1.9363
 3618SOL    HW222488   4.567   2.011   8.086 -0.8310  1.3386 -1.7885
 3619SOL     OW22489   4.423   1.069  11.402  0.2537  0.5613  0.4493
 3619SOL    HW122490   4.438   1.146  11.347  0.4024 -0.3558 -0.8073
 3619SOL    HW222491   4.331   1.084  11.424  0.4031  1.3486  0.5406
 3620SOL     OW22492   3.023   2.616  12.055 -0.2284  0.0199 -0.2162
 3620SOL    HW122493   2.981   2.606  12.140 -1.4601 -0.0583 -0.8272
 3620SOL    HW222494   3.078   2.538  12.041  1.4828  1.5232 -1.8943
 3621SOL     OW22495   1.440   3.080   4.547 -0.9904 -0.4224  0.8989
 3621SOL    HW122496   1.370   3.145   4.550 -0.9906 -0.5037  2.6881
 3621SOL    HW222497   1.389   3.000   4.533 -1.9455  0.4927 -0.8140
 3622SOL     OW22498   1.176   0.103   3.423  0.6420 -0.3190  0.2096
 3622SOL    HW122499   1.162   0.014   3.391 -2.7697 -0.2586  1.5483
 3622SOL    HW222500   1.244   0.101   3.490  0.6518  1.2740  0.2533
 3623SOL     OW22501   2.691   2.239   8.890 -0.0948  0.1601  0.7732
 3623SOL    HW122502   2.718   2.187   8.966 -1.1393  0.1394  1.1352
 3623SOL    HW222503   2.777   2.260   8.853  0.5335 -2.4462  0.7152
 3624SOL     OW22504   3.780   3.987  16.471 -0.0680 -0.5568 -0.1676
 3624SOL    HW122505   3.801   3.987  16.378  0.8926  0.7400  0.0491
 3624SOL    HW222506   3.835   4.062  16.495 -0.6113 -0.5215  0.9737
 3625SOL     OW22507   0.689   1.631  11.723 -0.1366 -0.2969  0.4609
 3625SOL    HW122508   0.653   1.607  11.808 -0.2489 -0.0263  0.4875
 3625SOL    HW222509   0.738   1.711  11.744  0.9327 -1.1564  1.3051
 3626SOL     OW22510   2.659   0.789  11.916  0.0659  0.0597 -0.0528
 3626SOL    HW122511   2.633   0.699  11.935  0.2670  0.1952  0.8706
 3626SOL    HW222512   2.588   0.824  11.863  0.4212  0.5561 -0.2088
 3627SOL     OW22513   0.412   3.244   2.740  0.3171  0.4027  0.0258
 3627SOL    HW122514   0.436   3.153   2.754 -0.0034  0.6234  1.9562
 3627SOL    HW222515   0.374   3.269   2.824  1.5162  1.1390  0.3525
 3628SOL     OW22516   2.334   0.469   2.060 -0.3128 -0.0659 -0.1396
 3628SOL    HW122517   2.317   0.553   2.018 -1.2005  0.0401  0.4554
 3628SOL    HW222518   2.430   0.463   2.054 -0.1346 -0.4090  3.1191
 3629SOL     OW22519   0.207   4.358   1.984  0.1278  0.4335 -0.6843
 3629SOL    HW122520   0.293   4.317   1.986 -1.5515 -3.0854 -0.5658
 3629SOL    HW222521   0.225   4.449   1.957  1.1955  0.0539 -1.2419
 3630SOL     OW22522   2.307   0.198  14.616 -0.0000 -0.0142  0.2885
 3630SOL    HW122523   2.243   0.222  14.684  0.4643  0.8474  0.4274
 3630SOL    HW222524   2.381   0.171  14.670  0.0602 -0.0668  0.1792
 3631SOL     OW22525   4.669   0.963  11.517  0.0797 -0.0177 -0.6901
 3631SOL    HW122526   4.583   0.998  11.492  0.5835  0.7174 -1.3838
 3631SOL    HW222527   4.674   1.001  11.605  1.4705  0.8927 -1.1599
 3632SOL     OW22528   4.317   0.201   5.389  0.2329 -0.5582  0.5877
 3632SOL    HW122529   4.237   0.198   5.337 -0.1846  1.4492  1.1097
 3632SOL    HW222530   4.277   0.202   5.476 -1.9682 -0.2478 -0.4508
 3633SOL     OW22531   1.276   3.157   2.072  0.2393  0.0443  0.1888
 3633SOL    HW122532   1.247   3.076   2.028 -0.2707  0.2027  0.2255
 3633SOL    HW222533   1.356   3.172   2.021 -0.8191 -1.4183 -1.9469
 3634SOL     OW22534   0.803   3.721   9.049 -0.5688  0.3768 -0.2243
 3634SOL    HW122535   0.888   3.690   9.082 -2.1532 -1.9003  1.7144
 3634SOL    HW222536   0.808   3.692   8.958 -3.4465  0.3337 -0.3523
 3635SOL     OW22537   0.433   2.078  12.365  0.0578 -0.2833  0.0918
 3635SOL    HW122538   0.418   2.172  12.372 -0.2806 -0.4565  1.6503
 3635SOL    HW222539   0.504   2.082  12.301  0.6404 -1.3221  0.6739
 3636SOL     OW22540   2.581   1.318   5.612 -0.2129  0.3718  0.2209
 3636SOL    HW122541   2.489   1.337   5.631 -0.8697 -3.1968  0.5320
 3636SOL    HW222542   2.630   1.366   5.679  2.9888  0.5799 -2.2911
 3637SOL     OW22543   3.461   3.430   6.375  0.1842 -0.0416  0.2051
 3637SOL    HW122544   3.481   3.434   6.282 -0.3360  0.6920  0.1241
 3637SOL    HW222545   3.544   3.459   6.412  0.8749  1.4154 -2.5282
 3638SOL     OW22546   3.269   2.050   6.979 -0.1310 -0.3382  0.2973
 3638SOL    HW122547   3.284   2.099   7.059 -0.8113  0.2867  0.0388
 3638SOL    HW222548   3.188   2.009   7.007  0.0463 -0.9999 -0.1453
 3639SOL     OW22549   2.940   4.646   4.924  0.3592  0.2329  0.3056
 3639SOL    HW122550   2.848   4.671   4.914  0.7040  1.5665  0.5130
 3639SOL    HW222551   2.983   4.729   4.945 -2.4290  1.1576  2.3176
 3640SOL     OW22552   3.895   2.032   8.876  0.7106 -0.1143  0.4947
 3640SOL    HW122553   3.916   2.115   8.919 -2.4125 -0.1493  2.1577
 3640SOL    HW222554   3.800   2.041   8.867  0.9573  1.6353 -0.3217
 3641SOL     OW22555   4.129   1.128   4.384  0.0299 -0.3656  0.3618
 3641SOL    HW122556   4.050   1.166   4.424 -2.1509 -0.9903 -3.3327
 3641SOL    HW222557   4.197   1.144   4.449 -1.1203 -1.4431  1.8539
 3642SOL     OW22558   0.922   1.678  15.880  0.4391 -0.0997  0.0808
 3642SOL    HW122559   1.009   1.657  15.845  1.1503  1.2480  1.0426
 3642SOL    HW222560   0.899   1.595  15.923  0.9081  0.1155  0.7515
 3643SOL     OW22561   4.569   1.291   3.378 -0.4193 -0.0529 -0.8155
 3643SOL    HW122562   4.532   1.348   3.310  1.9144  1.0735 -1.1554
 3643SOL    HW222563   4.567   1.212   3.324  1.7746  0.9966 -2.4130
 3644SOL     OW22564   2.743   2.204   3.450  0.3321  0.2179 -0.1682
 3644SOL    HW122565   2.765   2.284   3.498 -0.2049  0.2144  0.0808
 3644SOL    HW222566   2.649   2.204   3.469  1.0538  0.6129  3.3263
 3645SOL     OW22567   3.125   2.382  12.451 -0.2094  0.0662  0.1983
 3645SOL    HW122568   3.145   2.330  12.373  2.5279  0.7886  0.4230
 3645SOL    HW222569   3.211   2.418  12.474 -0.0618 -0.0292 -0.1994
 3646SOL     OW22570   1.907   0.959  14.636  0.4693  0.4033 -0.0884
 3646SOL    HW122571   1.933   1.050  14.650  0.2012  0.9333 -2.9651
 3646SOL    HW222572   1.914   0.952  14.541  0.8186  0.3612 -0.0602
 3647SOL     OW22573   3.392   3.483   0.817 -0.1105  0.7198 -0.3865
 3647SOL    HW122574   3.466   3.463   0.873  0.1564  1.5333 -0.4523
 3647SOL    HW222575   3.353   3.562   0.855 -0.5329  0.2198  0.2156
 3648SOL     OW22576   2.101   3.114   0.858 -0.0250 -0.4861  0.3769
 3648SOL    HW122577   2.045   3.036   0.860  0.6801 -0.9501  1.6264
 3648SOL    HW222578   2.178   3.080   0.904  0.0933 -0.5557  0.1288
 3649SOL     OW22579   2.715   2.620  12.186 -0.4968  0.0588 -0.1084
 3649SOL    HW122580   2.804   2.609  12.220  0.3178 -1.1884 -2.6185
 3649SOL    HW222581   2.691   2.528  12.199 -1.8421  0.5453  0.8599
 3650SOL     OW22582   0.907   2.910  16.033 -0.3115  0.3866  0.1645
 3650SOL    HW122583   0.983   2.917  15.976 -1.2186 -1.7237 -1.3148
 3650SOL    HW222584   0.937   2.868  16.114  0.4606 -2.5521 -1.6355
 3651SOL     OW22585   1.375   1.147   7.796 -0.3357 -0.3346  0.6925
 3651SOL    HW122586   1.373   1.116   7.887 -0.6036 -0.9196  0.4874
 3651SOL    HW222587   1.280   1.156   7.787 -0.4285 -0.2910  1.6312
 3652SOL     OW22588   3.795   0.799  15.240  0.3865  0.4170 -0.3101
 3652SOL    HW122589   3.797   0.725  15.301  2.7010 -0.7432 -1.8012
 3652SOL    HW222590   3.810   0.871  15.300 -1.1391 -0.4893  1.1853
 3653SOL     OW22591   3.269   3.562  14.311 -0.0233  0.6258 -0.4740
 3653SOL    HW122592   3.364   3.577  14.314  0.1807 -0.7662  0.2355
 3653SOL    HW222593   3.250   3.593  14.400 -3.5482 -0.4355 -0.8425
 3654SOL     OW22594   3.153   2.257  15.630  0.2549 -0.3417 -0.2928
 3654SOL    HW122595   3.214   2.321  15.592  1.5526 -0.9552  0.7452
 3654SOL    HW222596   3.202   2.176  15.643 -0.9475 -0.7965  1.3256
 3655SOL     OW22597   1.529   0.401   4.032 -0.3204  0.0787 -0.4842
 3655SOL    HW122598   1.622   0.392   4.010 -0.2606 -0.0909 -0.1665
 3655SOL    HW222599   1.511   0.315   4.069 -1.5895  0.7141  0.4066
 3656SOL     OW22600   4.281   4.345   5.938 -0.7371 -0.0579  0.2786
 3656SOL    HW122601   4.362   4.309   5.975 -0.3273 -0.1170 -0.6742
 3656SOL    HW222602   4.246   4.395   6.012  0.4316  0.7648  0.2797
 3657SOL     OW22603   2.436   3.421  10.097  0.1684 -0.0298 -0.1070
 3657SOL    HW122604   2.413   3.381  10.013  1.3564 -0.2382 -0.3427
 3657SOL    HW222605   2.510   3.366  10.125  1.9234  1.5573 -1.5845
 3658SOL     OW22606   3.551   3.190   0.652  0.3139 -0.4327 -0.4540
 3658SOL    HW122607   3.556   3.234   0.567 -1.0038  1.7967  0.6238
 3658SOL    HW222608   3.589   3.260   0.704  0.7401 -0.1512 -1.1379
 3659SOL     OW22609   1.373   0.856  16.827  0.2506 -0.3103 -0.5379
 3659SOL    HW122610   1.462   0.867  16.859 -0.4407  0.6518  1.0364
 3659SOL    HW222611   1.381   0.876  16.734  0.2175  2.9956  0.1914
 3660SOL     OW22612   0.262   2.883   3.329  0.1589 -0.1707  0.1684
 3660SOL    HW122613   0.340   2.861   3.380  0.7078  1.9350  0.2065
 3660SOL    HW222614   0.189   2.833   3.366  0.2103  0.4194  1.0589
 3661SOL     OW22615   1.411   2.374   7.560 -0.0391 -0.0535 -0.2759
 3661SOL    HW122616   1.461   2.419   7.627  0.1291 -0.9063  0.1709
 3661SOL    HW222617   1.329   2.354   7.604  0.3233 -1.3888 -0.1937
 3662SOL     OW22618   1.100   3.723  15.301 -0.6736 -0.1492  0.4613
 3662SOL    HW122619   1.124   3.673  15.224 -0.6572  1.0470 -0.3136
 3662SOL    HW222620   1.147   3.684  15.375 -0.9680  0.5837  1.0359
 3663SOL     OW22621   3.172   0.983  17.730 -0.3446  0.5146  0.0029
 3663SOL    HW122622   3.112   1.014   0.063 -1.0050  0.3187 -0.4836
 3663SOL    HW222623   3.252   0.980   0.046 -0.0337 -0.6085 -0.5477
 3664SOL     OW22624   0.247   3.948   6.574 -0.2417 -0.0406  0.4422
 3664SOL    HW122625   0.238   4.016   6.507  0.7907 -1.8315 -1.5332
 3664SOL    HW222626   0.265   4.002   6.650 -0.3553  0.7454 -0.0899
 3665SOL     OW22627   3.627   4.162   7.129 -0.5046  0.7482  0.4918
 3665SOL    HW122628   3.543   4.155   7.173 -0.8450 -2.0302 -0.6334
 3665SOL    HW222629   3.663   4.191   7.213  0.3302  1.2284 -0.0262
 3666SOL     OW22630   1.165   1.520   7.987 -0.4991 -0.2262  0.4606
 3666SOL    HW122631   1.092   1.466   8.016 -2.5868  2.3973  0.0649
 3666SOL    HW222632   1.129   1.555   7.906  2.5787 -0.9376 -1.2287
 3667SOL     OW22633   3.284   1.753   7.556 -0.2078  0.0488 -0.0384
 3667SOL    HW122634   3.243   1.838   7.540  0.2901  0.2747 -0.0919
 3667SOL    HW222635   3.252   1.708   7.478  1.3423  0.1808 -0.7314
 3668SOL     OW22636   0.991   0.225   5.153 -0.2387 -0.2152 -0.0792
 3668SOL    HW122637   1.047   0.220   5.231  1.3122  1.4125 -1.0751
 3668SOL    HW222638   1.053   0.218   5.081  0.1579  0.9841  0.1343
 3669SOL     OW22639   4.604   0.242  12.027 -0.4714 -0.6227  0.0762
 3669SOL    HW122640   4.510   0.224  12.036 -0.3538 -0.5533  1.5109
 3669SOL    HW222641   4.635   0.204  11.945 -1.2361 -0.2988 -0.3547
 3670SOL     OW22642   2.764   0.825   4.049  0.8876  0.4188  0.4769
 3670SOL    HW122643   2.769   0.803   3.956  0.8329  0.6729  0.4127
 3670SOL    HW222644   2.821   0.756   4.082  0.0972  0.8450  2.7327
 3671SOL     OW22645   4.189   1.899   5.066  0.2773  0.4540 -0.1615
 3671SOL    HW122646   4.242   1.823   5.042 -0.4021 -0.0730 -0.0164
 3671SOL    HW222647   4.189   1.904   5.161  1.1235  2.9783 -0.3122
 3672SOL     OW22648   0.956   2.712   9.028  0.4905  0.3201  0.2952
 3672SOL    HW122649   0.993   2.625   9.013 -0.5434  0.0476 -0.7016
 3672SOL    HW222650   0.944   2.738   8.937  1.0820 -0.3967  0.0150
 3673SOL     OW22651   0.840   3.290   8.403 -0.1612  0.3483 -0.4811
 3673SOL    HW122652   0.775   3.246   8.457 -0.4597 -1.4031 -2.2357
 3673SOL    HW222653   0.789   3.307   8.324 -2.2201  1.2584  1.0435
 3674SOL     OW22654   1.114   1.496  15.043  0.1371 -0.6496  0.0351
 3674SOL    HW122655   1.135   1.588  15.055 -0.8620 -0.2454 -1.3068
 3674SOL    HW222656   1.072   1.504  14.957  0.6632 -1.1477 -0.2671
 3675SOL     OW22657   4.143   0.678   3.040  0.5734 -0.8737  0.0863
 3675SOL    HW122658   4.208   0.720   2.984  0.6631 -1.0898  0.0274
 3675SOL    HW222659   4.114   0.606   2.983 -1.2680  0.1583 -0.2769
 3676SOL     OW22660   1.426   0.743   0.917  0.1124 -0.3557 -0.4107
 3676SOL    HW122661   1.338   0.740   0.956  0.3908  0.5215  0.2825
 3676SOL    HW222662   1.411   0.701   0.832 -1.9101 -0.1610 -0.1529
 3677SOL     OW22663   1.664   0.617  12.423  0.5485 -0.7348 -0.2555
 3677SOL    HW122664   1.601   0.568  12.474 -2.1277  1.2679 -1.6503
 3677SOL    HW222665   1.711   0.662  12.494  0.0427  3.0343 -2.3156
 3678SOL     OW22666   3.885   2.426   4.603 -0.3252 -0.8701  0.0888
 3678SOL    HW122667   3.913   2.373   4.678 -0.8146  1.3168  1.8246
 3678SOL    HW222668   3.790   2.414   4.601 -0.3416 -0.5777 -0.8582
 3679SOL     OW22669   2.315   0.313  15.354  0.1458  0.4139  0.1615
 3679SOL    HW122670   2.323   0.321  15.259  0.6587 -0.9198  0.1011
 3679SOL    HW222671   2.220   0.324  15.360 -0.1095 -0.6296 -2.0513
 3680SOL     OW22672   2.375   0.731   3.655  0.0094 -0.4903  0.5334
 3680SOL    HW122673   2.445   0.690   3.604 -1.2924 -1.0870 -0.7497
 3680SOL    HW222674   2.416   0.802   3.705  1.1159  0.0074 -1.0778
 3681SOL     OW22675   3.821   4.216   7.729 -0.0746  0.0382  0.3353
 3681SOL    HW122676   3.807   4.138   7.674 -2.3018  0.5341  0.2109
 3681SOL    HW222677   3.915   4.203   7.745 -0.5600 -1.0128  2.3424
 3682SOL     OW22678   3.806   1.891   2.304  1.0580  0.2260 -0.4706
 3682SOL    HW122679   3.884   1.901   2.358 -0.3960  0.6249  1.5387
 3682SOL    HW222680   3.780   1.803   2.331  0.3170  0.6258  0.1178
 3683SOL     OW22681   3.488   2.498   2.060  0.1051 -0.2454  0.1201
 3683SOL    HW122682   3.552   2.550   2.012  0.2701 -2.2177 -1.7553
 3683SOL    HW222683   3.540   2.466   2.134 -2.1044  1.4211  2.4138
 3684SOL     OW22684   3.479   4.407   5.618 -0.4125 -0.0741  0.1967
 3684SOL    HW122685   3.514   4.367   5.539  0.0150  0.6355  0.0325
 3684SOL    HW222686   3.546   4.381   5.681  0.4549  1.5745 -0.0435
 3685SOL     OW22687   3.042   0.395  10.710 -0.0629  0.0030  0.2204
 3685SOL    HW122688   3.123   0.445  10.696  0.0703  0.4011  2.3591
 3685SOL    HW222689   3.071   0.342  10.785 -0.6222  1.1938  1.2948
 3686SOL     OW22690   1.889   4.292   8.091  0.2990  0.0263 -0.3542
 3686SOL    HW122691   1.946   4.342   8.150  1.1474 -0.1922 -0.9929
 3686SOL    HW222692   1.807   4.337   8.110  0.1153 -0.2862 -0.4144
 3687SOL     OW22693   4.004   0.835   3.694  0.2464  0.1764  0.4065
 3687SOL    HW122694   3.961   0.920   3.687 -0.6248 -0.1209  2.0032
 3687SOL    HW222695   4.063   0.824   3.620  2.5980  0.1677  2.2780
 3688SOL     OW22696   0.484   3.117  15.837  0.1711 -0.3938  0.2117
 3688SOL    HW122697   0.443   3.196  15.872  0.4573  0.3490 -1.1070
 3688SOL    HW222698   0.576   3.136  15.855  0.9230 -1.7967 -2.0880
 3689SOL     OW22699   3.854   3.195   9.504  0.0086 -0.6104 -0.3402
 3689SOL    HW122700   3.806   3.239   9.574 -2.0789 -1.4581 -1.2331
 3689SOL    HW222701   3.796   3.125   9.475  1.3446 -3.1343  3.0963
 3690SOL     OW22702   0.894   1.890   2.906 -0.4611 -0.7602  0.5904
 3690SOL    HW122703   0.896   1.872   2.812  1.7254 -2.7489  1.0261
 3690SOL    HW222704   0.893   1.986   2.909 -0.8192 -0.6635 -2.2016
 3691SOL     OW22705   3.895   2.277   3.082 -0.1881  0.1908  0.1673
 3691SOL    HW122706   3.961   2.302   3.017 -0.1823 -0.3067 -0.0202
 3691SOL    HW222707   3.899   2.350   3.143  1.0223  1.8685 -1.8905
 3692SOL     OW22708   0.866   3.723  16.917  0.1213  0.3585  0.1170
 3692SOL    HW122709   0.785   3.725  16.867 -0.1002 -1.1896  0.4205
 3692SOL    HW222710   0.877   3.815  16.939  0.4779  0.0008  1.4280
 3693SOL     OW22711   0.281   0.245   0.473  0.1319 -0.0250  0.6714
 3693SOL    HW122712   0.333   0.173   0.509  1.7648  1.4176  1.2223
 3693SOL    HW222713   0.341   0.319   0.487  1.4790 -1.0337  0.2794
 3694SOL     OW22714   1.576   1.109  14.277 -0.2107  0.3902  0.0920
 3694SOL    HW122715   1.574   1.030  14.332  1.6670 -2.2133 -3.5506
 3694SOL    HW222716   1.604   1.056  14.202 -1.6452  1.9628 -1.5462
 3695SOL     OW22717   2.964   4.203   7.859 -0.7832  0.0868  0.3529
 3695SOL    HW122718   3.057   4.226   7.859 -0.0377 -2.9601  2.1584
 3695SOL    HW222719   2.960   4.115   7.823 -0.8688  1.3402 -2.7579
 3696SOL     OW22720   3.163   2.225   2.165 -0.2021  0.0691 -0.0377
 3696SOL    HW122721   3.246   2.210   2.120 -0.1535 -1.0822  0.4373
 3696SOL    HW222722   3.187   2.209   2.256 -0.7901  0.1966  0.1410
 3697SOL     OW22723   4.307   3.721   4.897 -0.3987 -0.4413 -0.0815
 3697SOL    HW122724   4.393   3.704   4.860 -0.3249 -0.3556  0.0510
 3697SOL    HW222725   4.249   3.730   4.821  0.8493 -2.5235 -1.2808
 3698SOL     OW22726   3.217   1.497   8.034  0.1573 -0.2436  0.1098
 3698SOL    HW122727   3.261   1.413   8.023  0.4067 -0.1144  0.1354
 3698SOL    HW222728   3.235   1.539   7.950  0.1728 -0.3641  0.0540
 3699SOL     OW22729   1.930   3.726   5.487  0.0468 -0.0920 -0.5648
 3699SOL    HW122730   1.836   3.726   5.506  0.1466  1.5456 -0.0728
 3699SOL    HW222731   1.944   3.633   5.467  0.6548 -0.3704  1.2066
 3700SOL     OW22732   2.247   1.140   8.989  0.4346 -0.0996  0.3136
 3700SOL    HW122733   2.273   1.213   9.045  0.2337  0.6509 -0.5574
 3700SOL    HW222734   2.329   1.091   8.998 -0.9918 -2.5212  0.1512
 3701SOL     OW22735   0.949   4.094   7.502  0.3194  0.3862  0.0280
 3701SOL    HW122736   0.882   4.089   7.570  1.4026  1.4384  1.1730
 3701SOL    HW222737   0.918   4.174   7.459 -0.7717  0.7940  1.5790
 3702SOL     OW22738   3.840   4.360   5.364 -1.1882  0.0487  0.3937
 3702SOL    HW122739   3.829   4.423   5.292 -0.1019  1.2997  1.3239
 3702SOL    HW222740   3.754   4.324   5.386 -1.2305  1.0730  1.8948
 3703SOL     OW22741   1.061   0.649  13.261 -0.4837  0.1005 -0.1629
 3703SOL    HW122742   1.098   0.637  13.349 -2.7112 -1.6242  0.5390
 3703SOL    HW222743   1.052   0.744  13.249 -1.2464  0.0145 -0.2725
 3704SOL     OW22744   0.378   3.721   7.053 -1.1347 -0.4125 -0.1323
 3704SOL    HW122745   0.303   3.666   7.077 -0.4720 -2.1087 -1.9551
 3704SOL    HW222746   0.360   3.740   6.961  2.9259  0.7011 -0.6718
 3705SOL     OW22747   3.319   3.025   8.887  1.3604  0.3388  0.3250
 3705SOL    HW122748   3.312   3.030   8.791 -2.3885 -0.8411  0.5439
 3705SOL    HW222749   3.393   3.085   8.896  0.7510  1.0416  0.6973
 3706SOL     OW22750   0.758   4.217  17.136  0.6113 -0.0267 -0.5343
 3706SOL    HW122751   0.678   4.268  17.144  1.8714  2.0154 -0.9119
 3706SOL    HW222752   0.819   4.288  17.118  0.0093  0.3147 -1.2102
 3707SOL     OW22753   1.271   1.474   2.575  0.3589  0.3004  0.1342
 3707SOL    HW122754   1.264   1.424   2.494  0.5775 -1.1944  1.0468
 3707SOL    HW222755   1.341   1.427   2.619 -1.0268 -0.4275  1.5796
 3708SOL     OW22756   3.628   2.767   9.253 -0.5503 -0.4855  1.0578
 3708SOL    HW122757   3.565   2.781   9.183  0.7267 -0.1628 -0.0147
 3708SOL    HW222758   3.702   2.817   9.219 -1.0694  1.4261  2.6829
 3709SOL     OW22759   3.591   0.857   5.328 -1.0728  0.4193  0.3250
 3709SOL    HW122760   3.603   0.905   5.246  0.1601 -1.4148 -0.5910
 3709SOL    HW222761   3.676   0.879   5.366  0.2915 -0.5221 -2.1434
 3710SOL     OW22762   0.223   3.520  10.269 -0.4613 -0.1027  0.7813
 3710SOL    HW122763   0.175   3.539  10.189 -1.7056  0.5303  1.6876
 3710SOL    HW222764   0.144   3.520  10.322 -0.3082  1.5144  1.0190
 3711SOL     OW22765   2.061   3.902   2.236 -0.1342 -0.6806 -0.2466
 3711SOL    HW122766   2.091   3.852   2.160 -1.3742 -3.2051  0.9243
 3711SOL    HW222767   1.974   3.930   2.209  0.4355  2.0682  0.7967
 3712SOL     OW22768   1.310   1.120   4.520 -0.0623  0.3790 -0.3336
 3712SOL    HW122769   1.361   1.194   4.554 -0.4265 -0.6366  2.4496
 3712SOL    HW222770   1.374   1.049   4.524  1.2035  1.4354 -1.7471
 3713SOL     OW22771   0.682   3.784  14.180 -0.2062 -0.4006  0.4709
 3713SOL    HW122772   0.712   3.702  14.219 -0.4263 -0.3555  0.7342
 3713SOL    HW222773   0.759   3.818  14.135 -0.3260  1.6234  1.7933
 3714SOL     OW22774   4.049   4.522   9.125 -0.6326 -0.3323  0.0246
 3714SOL    HW122775   4.073   4.448   9.070  0.7882 -2.1000  2.9847
 3714SOL    HW222776   3.963   4.538   9.087 -0.7272 -0.7733  0.0530
 3715SOL     OW22777   1.030   3.441   3.563 -0.1436 -0.1692 -0.1826
 3715SOL    HW122778   0.959   3.383   3.534 -1.5624  0.1513  2.6171
 3715SOL    HW222779   1.025   3.509   3.496  2.0953 -0.6043 -0.7843
 3716SOL     OW22780   3.666   1.587   5.214 -0.1601 -0.2271 -0.4301
 3716SOL    HW122781   3.645   1.576   5.121  0.0560 -0.6357 -0.4328
 3716SOL    HW222782   3.666   1.682   5.227 -2.4430 -0.5460  1.9153
 3717SOL     OW22783   2.712   3.428   5.722 -0.0608 -0.0132  0.2474
 3717SOL    HW122784   2.781   3.491   5.704  0.6462 -0.4949  1.2345
 3717SOL    HW222785   2.715   3.370   5.646 -1.1456 -2.6040  2.1528
 3718SOL     OW22786   4.295   0.812  11.596 -0.0493  0.1479  0.1752
 3718SOL    HW122787   4.358   0.831  11.527 -1.8444 -0.9293 -1.7275
 3718SOL    HW222788   4.292   0.898  11.638  0.3822  0.3684 -0.2480
 3719SOL     OW22789   1.625   4.419   8.391  0.0072 -0.5215 -0.2239
 3719SOL    HW122790   1.661   4.423   8.302 -0.8229  0.5502 -0.5128
 3719SOL    HW222791   1.559   4.349   8.388 -2.2881  1.6236  0.0047
 3720SOL     OW22792   4.262   1.970  13.013 -0.5243  0.2483 -0.7208
 3720SOL    HW122793   4.307   2.026  12.950  0.5604  0.0547 -0.1297
 3720SOL    HW222794   4.295   1.880  13.006  2.6626  1.2700  1.2324
 3721SOL     OW22795   0.832   1.301  15.632 -0.5151  0.4052  0.1674
 3721SOL    HW122796   0.836   1.372  15.568 -3.4822  1.8060  1.5349
 3721SOL    HW222797   0.818   1.229  15.570  1.4118  0.0863  0.1196
 3722SOL     OW22798   4.268   2.013   8.653  0.3426 -0.3412 -0.2018
 3722SOL    HW122799   4.204   1.943   8.665 -1.3339  1.3550  0.7406
 3722SOL    HW222800   4.277   2.034   8.746  0.8171  0.3204 -0.3907
 3723SOL     OW22801   1.220   3.657  11.249  0.0726 -0.6058 -0.3881
 3723SOL    HW122802   1.298   3.603  11.263  1.7945  1.5073 -1.8203
 3723SOL    HW222803   1.175   3.637  11.331 -0.4475  0.4670 -0.4039
 3724SOL     OW22804   3.744   2.986   3.132 -0.1133 -0.8933  0.7803
 3724SOL    HW122805   3.678   2.947   3.188  0.4338 -1.2548  1.1767
 3724SOL    HW222806   3.684   3.041   3.081 -2.0658 -2.7342  1.1227
 3725SOL     OW22807   2.414   4.636  11.683 -0.4629  0.1356  0.1746
 3725SOL    HW122808   2.376   4.569  11.740  1.2249 -1.9239 -1.0915
 3725SOL    HW222809   2.503   4.647  11.716 -0.0259  2.2420 -1.6757
 3726SOL     OW22810   4.322   0.475  14.348  0.6182  0.1265 -0.1523
 3726SOL    HW122811   4.414   0.459  14.371  1.0035  1.2295 -0.9603
 3726SOL    HW222812   4.342   0.510  14.261 -0.9839  1.2739 -0.0504
 3727SOL     OW22813   4.027   0.751   8.885 -0.0795  0.0577  0.4777
 3727SOL    HW122814   3.983   0.670   8.911  1.2269 -1.2201 -1.3951
 3727SOL    HW222815   4.002   0.757   8.793  1.1783 -2.2425 -0.0020
 3728SOL     OW22816   1.642   3.677  13.540 -0.4813 -0.6881  0.3299
 3728SOL    HW122817   1.588   3.679  13.462  0.5305  1.3685 -0.3321
 3728SOL    HW222818   1.651   3.770  13.562  0.0211  0.1973 -3.7211
 3729SOL     OW22819   3.474   4.343   6.002  0.0326 -0.4887 -0.3578
 3729SOL    HW122820   3.485   4.282   5.929  1.2618  0.3491 -0.8705
 3729SOL    HW222821   3.546   4.405   5.991  1.6595 -2.1933  0.6302
 3730SOL     OW22822   3.528   3.580   5.712  0.6451 -0.6811  0.0983
 3730SOL    HW122823   3.566   3.642   5.774  2.3773 -1.7461  0.1011
 3730SOL    HW222824   3.470   3.535   5.773 -1.1333  1.1585 -0.2165
 3731SOL     OW22825   3.839   4.419   8.374 -0.2158  0.0351  0.2654
 3731SOL    HW122826   3.877   4.467   8.300 -1.8828 -1.2376 -1.4466
 3731SOL    HW222827   3.867   4.329   8.357 -1.5336  0.4284 -4.2527
 3732SOL     OW22828   3.653   1.408   8.199  0.4342  1.2624  0.0654
 3732SOL    HW122829   3.709   1.446   8.132  1.0996  2.5461  1.3473
 3732SOL    HW222830   3.720   1.356   8.244 -1.0465  0.1131  0.9629
 3733SOL     OW22831   2.730   2.193   9.247  0.0462 -0.2390 -0.1708
 3733SOL    HW122832   2.727   2.283   9.214 -1.1485  0.3145  1.4511
 3733SOL    HW222833   2.780   2.211   9.326  0.0862  1.1999 -0.5104
 3734SOL     OW22834   2.912   0.430   6.765 -0.2522  0.7646 -0.0764
 3734SOL    HW122835   2.963   0.357   6.730 -1.7642 -0.0841 -0.5118
 3734SOL    HW222836   2.941   0.499   6.705 -2.4832  0.9362 -0.9745
 3735SOL     OW22837   0.991   4.024  17.601 -0.4087  0.3151 -0.2031
 3735SOL    HW122838   1.031   3.951  17.650  1.4385 -0.2724 -2.6463
 3735SOL    HW222839   0.907   3.985  17.576 -1.1088  1.5392  0.2232
 3736SOL     OW22840   0.913   1.472   4.024  0.3952  0.5151 -0.6024
 3736SOL    HW122841   0.997   1.508   3.995  0.8049  0.4888  0.5810
 3736SOL    HW222842   0.946   1.426   4.101 -2.3838  1.5557  1.2308
 3737SOL     OW22843   3.697   4.525   4.190  0.1971  0.8113  0.2157
 3737SOL    HW122844   3.646   4.578   4.252  0.3274  2.1146 -0.7857
 3737SOL    HW222845   3.725   4.451   4.243  0.8783  0.2989 -0.8650
 3738SOL     OW22846   4.385   1.783   5.648  0.7471  0.2978 -0.0579
 3738SOL    HW122847   4.362   1.763   5.558  0.4782 -0.7564  0.2501
 3738SOL    HW222848   4.339   1.710   5.688  0.2184  1.4780  1.5319
 3739SOL     OW22849   0.577   2.836   7.024 -0.0038  0.3822 -0.1470
 3739SOL    HW122850   0.570   2.742   7.005  1.2815 -0.4874  3.6732
 3739SOL    HW222851   0.515   2.873   6.961  0.4209 -0.4710 -1.0609
 3740SOL     OW22852   3.052   2.113   4.322 -0.0486 -0.5360  0.3543
 3740SOL    HW122853   3.034   2.197   4.280 -0.7993  0.1548  2.0900
 3740SOL    HW222854   3.147   2.127   4.333  0.1777 -1.4842 -0.4298
 3741SOL     OW22855   1.583   1.249   4.089  0.4774  0.1795 -0.2321
 3741SOL    HW122856   1.504   1.204   4.059  0.6598 -0.2778 -0.0232
 3741SOL    HW222857   1.621   1.186   4.150 -2.4719 -0.4036  1.0375
 3742SOL     OW22858   2.612   0.183   9.271 -0.0141  0.6821 -0.0822
 3742SOL    HW122859   2.522   0.181   9.302  0.0390  0.0527  0.0350
 3742SOL    HW222860   2.651   0.248   9.330 -0.5911 -0.8747  1.9936
 3743SOL     OW22861   0.228   4.039   8.722 -0.2059 -0.1032  0.0419
 3743SOL    HW122862   0.294   4.014   8.787 -0.2368 -0.5242 -0.0880
 3743SOL    HW222863   0.145   4.043   8.770  1.2115 -4.3837  2.8960
 3744SOL     OW22864   2.156   2.684   3.425 -0.9853 -0.1682 -0.4079
 3744SOL    HW122865   2.065   2.691   3.454 -1.3645  1.3589 -1.9754
 3744SOL    HW222866   2.195   2.728   3.501  2.1279 -1.5481 -1.1856
 3745SOL     OW22867   3.291   3.361   7.282 -0.5632 -0.3522 -0.2846
 3745SOL    HW122868   3.281   3.267   7.296  0.4466 -0.1247  1.8881
 3745SOL    HW222869   3.238   3.390   7.356  0.0581  0.7205 -0.2579
 3746SOL     OW22870   1.686   4.225  12.782  0.4078  0.1407 -0.2698
 3746SOL    HW122871   1.651   4.138  12.764 -0.3839  0.0422  1.7481
 3746SOL    HW222872   1.777   4.213  12.754  0.9095  2.8131  0.1184
 3747SOL     OW22873   4.422   3.334   3.855  0.0172  0.3784  0.5306
 3747SOL    HW122874   4.482   3.304   3.787 -0.3794 -0.6908  0.6560
 3747SOL    HW222875   4.385   3.251   3.886  0.5296 -0.0795 -0.1021
 3748SOL     OW22876   3.009   0.234   4.931  0.5081 -0.7423 -0.1485
 3748SOL    HW122877   3.085   0.244   4.874  1.4893 -2.6894  0.8003
 3748SOL    HW222878   3.017   0.313   4.985 -1.2068 -2.1965  2.2381
 3749SOL     OW22879   2.226   0.101  13.989 -0.1823 -0.1418 -0.1236
 3749SOL    HW122880   2.211   0.085  14.082 -0.7327  0.4912 -0.1081
 3749SOL    HW222881   2.141   0.138  13.964 -0.3337 -0.6652 -0.3707
 3750SOL     OW22882   2.835   3.019   8.851 -0.0318 -0.4058 -0.2280
 3750SOL    HW122883   2.797   3.107   8.845  2.8427  0.8491 -0.2142
 3750SOL    HW222884   2.885   3.027   8.932  1.9144  0.6931 -1.5237
 3751SOL     OW22885   0.391   2.930  11.177 -0.3803 -0.4614  0.4269
 3751SOL    HW122886   0.479   2.895  11.190 -0.5249 -1.5653 -1.6201
 3751SOL    HW222887   0.334   2.853  11.176  0.3323 -0.9769 -0.2366
 3752SOL     OW22888   3.564   1.651   3.506 -0.1434  0.6184 -0.0367
 3752SOL    HW122889   3.604   1.578   3.553 -1.9420 -0.7669 -0.6692
 3752SOL    HW222890   3.637   1.713   3.498 -2.6279  3.4987 -0.3097
 3753SOL     OW22891   2.999   2.167   8.591  0.4693  0.2626  0.0478
 3753SOL    HW122892   3.022   2.240   8.649  1.8750 -0.4563  0.3993
 3753SOL    HW222893   2.967   2.108   8.659 -2.1330 -1.3380 -2.5388
 3754SOL     OW22894   1.952   3.382  17.159 -0.4688 -0.7246  0.3539
 3754SOL    HW122895   1.876   3.384  17.101 -1.5482 -2.8585  1.6986
 3754SOL    HW222896   1.998   3.311  17.115  1.1237  0.4511  0.1018
 3755SOL     OW22897   1.049   2.294  12.077 -0.6928 -0.1278 -0.6536
 3755SOL    HW122898   1.092   2.281  11.992 -1.3614 -0.1508 -0.9879
 3755SOL    HW222899   1.014   2.382  12.064 -2.1991 -0.5606  0.5183
 3756SOL     OW22900   1.188   3.341   7.549 -0.3388  0.3513 -0.2903
 3756SOL    HW122901   1.190   3.435   7.532 -1.5049  1.0463  3.4358
 3756SOL    HW222902   1.224   3.305   7.468 -0.2892  1.7754 -0.9030
 3757SOL     OW22903   0.636   4.698   4.894 -0.5833  0.0458  0.0670
 3757SOL    HW122904   0.725   4.711   4.860 -0.6080 -0.3293 -0.1380
 3757SOL    HW222905   0.639   4.642   4.971 -0.6259 -1.3080 -0.9118
 3758SOL     OW22906   4.537   1.204   7.999  0.0396  0.9339  0.1152
 3758SOL    HW122907   4.520   1.232   7.909 -1.7740 -2.0109 -0.4454
 3758SOL    HW222908   4.603   1.269   8.023  1.3424  0.0281 -1.0574
 3759SOL     OW22909   4.263   2.549   5.081  0.2092  0.0577  0.1198
 3759SOL    HW122910   4.318   2.515   5.152 -0.2610  0.2074  0.5539
 3759SOL    HW222911   4.180   2.555   5.127 -0.5714 -0.2212 -1.2581
 3760SOL     OW22912   0.522   3.715   1.919 -0.0783  0.0784  0.1252
 3760SOL    HW122913   0.447   3.682   1.869 -1.1674  1.0428  1.1250
 3760SOL    HW222914   0.489   3.703   2.008  1.3557 -3.2938  0.1783
 3761SOL     OW22915   3.677   2.991  12.805 -0.3216  0.1391  0.8603
 3761SOL    HW122916   3.756   2.938  12.820  1.4818  1.8556 -2.5622
 3761SOL    HW222917   3.627   2.984  12.886  0.0733 -0.4892  1.0523
 3762SOL     OW22918   0.503   3.315  11.363  0.3241 -0.1855 -0.3397
 3762SOL    HW122919   0.585   3.316  11.412 -0.9023  2.0531  1.6178
 3762SOL    HW222920   0.457   3.246  11.409  0.3662 -0.0511 -0.0976
 3763SOL     OW22921   2.649   3.349  10.636 -0.1152  0.6198 -0.0329
 3763SOL    HW122922   2.709   3.367  10.563 -1.1649  0.3084 -0.9641
 3763SOL    HW222923   2.591   3.425  10.637 -1.8905 -0.7730  1.6470
 3764SOL     OW22924   1.423   0.542   5.752 -0.1769  0.0662  0.5846
 3764SOL    HW122925   1.392   0.451   5.750 -0.3112  0.1326 -0.1426
 3764SOL    HW222926   1.496   0.541   5.690 -0.9185 -0.5988 -0.2823
 3765SOL     OW22927   0.943   4.327   2.725 -0.0717 -0.2374  0.0526
 3765SOL    HW122928   0.862   4.277   2.721 -1.6626  2.4383 -0.6644
 3765SOL    HW222929   0.922   4.410   2.683 -0.5621 -0.2853  0.2024
 3766SOL     OW22930   4.126   0.268   3.812  0.1342  0.2473  0.1869
 3766SOL    HW122931   4.182   0.344   3.797 -0.4013  0.3693 -1.1839
 3766SOL    HW222932   4.164   0.224   3.888 -0.0527 -0.4514 -0.1231
 3767SOL     OW22933   3.016   4.357  12.341 -0.1593 -0.0451 -0.2807
 3767SOL    HW122934   3.024   4.313  12.256 -0.4265 -0.9728  0.1776
 3767SOL    HW222935   3.032   4.446  12.310 -0.6897 -0.3779 -1.5410
 3768SOL     OW22936   1.121   2.739  13.802  0.1160  0.2351  0.1016
 3768SOL    HW122937   1.036   2.768  13.833  0.7897  1.5007  0.7671
 3768SOL    HW222938   1.125   2.787  13.720 -1.3288 -0.6199 -0.4621
 3769SOL     OW22939   3.109   1.844   2.250 -0.2948  0.4608  0.2986
 3769SOL    HW122940   3.082   1.770   2.305 -4.1709  0.9651 -0.9099
 3769SOL    HW222941   3.189   1.868   2.298 -0.8774  1.3656  0.8148
 3770SOL     OW22942   0.803   2.879  13.708  0.2195 -0.1237  0.2331
 3770SOL    HW122943   0.813   2.937  13.632 -0.7677  0.3515  0.4716
 3770SOL    HW222944   0.764   2.938  13.772  0.9864  0.3045  0.3161
 3771SOL     OW22945   1.327   4.295   4.349 -0.6066  0.2689 -0.3789
 3771SOL    HW122946   1.391   4.311   4.419 -0.5968  0.5755 -0.4595
 3771SOL    HW222947   1.264   4.234   4.389 -0.1361  0.3175  0.4484
 3772SOL     OW22948   1.539   2.649   2.393  0.5367  0.3093  0.3768
 3772SOL    HW122949   1.591   2.672   2.471 -1.0110  1.6451  1.0171
 3772SOL    HW222950   1.597   2.585   2.352  1.2651  0.6337  0.8917
 3773SOL     OW22951   4.004   1.371   7.446  0.7182  0.3535  0.8239
 3773SOL    HW122952   4.003   1.379   7.351 -0.8090 -0.1532  0.7873
 3773SOL    HW222953   4.071   1.307   7.470 -1.8101 -2.7580 -0.4671
 3774SOL     OW22954   3.200   3.004   5.246 -0.0641  0.1168  0.4061
 3774SOL    HW122955   3.123   3.014   5.302  0.5063 -2.8036  1.6901
 3774SOL    HW222956   3.257   2.957   5.307 -0.7557 -0.1029  0.8725
 3775SOL     OW22957   2.692   2.649   5.493  0.0960 -0.2651 -0.8732
 3775SOL    HW122958   2.766   2.707   5.509  0.3960 -0.7388 -0.5676
 3775SOL    HW222959   2.645   2.692   5.421  0.0090  1.2374  0.0860
 3776SOL     OW22960   1.808   1.142   7.200 -0.0217  0.2098 -0.5646
 3776SOL    HW122961   1.813   1.062   7.148  0.3083 -1.5252  2.0977
 3776SOL    HW222962   1.721   1.135   7.241  1.3838  0.2743  2.4175
 3777SOL     OW22963   2.527   3.393   9.220  0.3288  0.0554 -0.2168
 3777SOL    HW122964   2.588   3.328   9.185  0.6122  0.5231 -0.5922
 3777SOL    HW222965   2.459   3.407   9.155 -1.1760 -3.9674  0.4459
 3778SOL     OW22966   3.557   3.742   6.267  0.5543  0.3394 -0.1131
 3778SOL    HW122967   3.551   3.803   6.341 -0.2944 -1.1830  1.0599
 3778SOL    HW222968   3.615   3.679   6.309 -0.6281 -0.0516  0.9285
 3779SOL     OW22969   2.174   1.436   5.206 -0.1145 -0.1184  0.2700
 3779SOL    HW122970   2.227   1.442   5.286  0.9323  1.7190 -0.5560
 3779SOL    HW222971   2.184   1.342   5.192 -0.6423  0.0406 -1.2100
 3780SOL     OW22972   2.083   3.530   3.498  0.0102 -0.0143  0.4641
 3780SOL    HW122973   2.165   3.565   3.464 -1.2182  2.4935  0.1133
 3780SOL    HW222974   2.030   3.609   3.509 -0.4548 -0.3571  0.7261
 3781SOL     OW22975   0.416   2.752   0.130 -0.2280 -0.6224  0.7573
 3781SOL    HW122976   0.413   2.677   0.070  0.2561 -0.2178  0.2377
 3781SOL    HW222977   0.323   2.769   0.148  0.0315  0.7806  0.7425
 3782SOL     OW22978   1.605   4.408   4.897 -0.1424  0.0416  0.2298
 3782SOL    HW122979   1.552   4.354   4.957 -0.5739 -0.8483 -0.9414
 3782SOL    HW222980   1.694   4.388   4.926  0.7953  0.0454 -2.6389
 3783SOL     OW22981   0.363   4.637   2.947 -0.2787  0.1350 -0.4013
 3783SOL    HW122982   0.276   4.659   2.913  0.3285  0.0246 -2.0080
 3783SOL    HW222983   0.396   4.725   2.966 -1.7375  1.0282 -1.9472
 3784SOL     OW22984   2.052   1.512   3.638 -0.0562  0.4405 -0.2512
 3784SOL    HW122985   2.105   1.434   3.658 -0.9191 -0.5550 -1.8049
 3784SOL    HW222986   1.966   1.478   3.664 -0.0691  0.4879 -0.2325
 3785SOL     OW22987   0.550   3.616   3.696 -0.3405  0.5988 -0.6765
 3785SOL    HW122988   0.478   3.674   3.723 -0.7711  0.4870 -1.5667
 3785SOL    HW222989   0.506   3.572   3.623 -2.8296  1.5283  0.2648
 3786SOL     OW22990   3.149   3.834   3.043  0.3733 -0.0832 -0.0870
 3786SOL    HW122991   3.094   3.875   2.976 -0.0192 -1.8945 -0.8877
 3786SOL    HW222992   3.225   3.892   3.039  1.4464 -1.5025 -0.3782
 3787SOL     OW22993   0.395   3.049   6.230 -1.0947  0.0622 -0.4314
 3787SOL    HW122994   0.322   3.041   6.168 -0.0109 -2.0390 -1.4343
 3787SOL    HW222995   0.412   2.956   6.245  1.3452  0.7189  0.8769
 3788SOL     OW22996   0.322   0.131   3.219 -0.4009 -0.8009  0.5927
 3788SOL    HW122997   0.307   0.216   3.177 -0.0053 -0.9136  0.2209
 3788SOL    HW222998   0.389   0.109   3.154  0.6139 -0.5174  1.5438
 3789SOL     OW22999   0.398   3.212  11.095  0.3644  0.2931  0.1723
 3789SOL    HW123000   0.444   3.245  11.173 -1.4425  0.7446  1.0429
 3789SOL    HW223001   0.381   3.119  11.107  1.0445  0.0178 -0.9981
 3790SOL     OW23002   2.146   1.029   9.397  0.1254  0.0276 -0.6464
 3790SOL    HW123003   2.232   1.057   9.366  0.0942  1.3642  0.4475
 3790SOL    HW223004   2.144   0.949   9.346 -0.4514 -0.2031 -0.2612
 3791SOL     OW23005   2.363   1.833   2.324 -0.2411  0.1959 -0.3415
 3791SOL    HW123006   2.401   1.902   2.379 -1.1470  0.8627 -0.5553
 3791SOL    HW223007   2.323   1.780   2.393  1.2205 -0.7579 -0.2207
 3792SOL     OW23008   2.594   3.624   4.886 -0.0866 -0.2415 -0.5557
 3792SOL    HW123009   2.537   3.700   4.894  1.0214  0.5977 -0.7107
 3792SOL    HW223010   2.647   3.671   4.822  2.8482 -2.2677  0.3783
 3793SOL     OW23011   0.964   0.412   6.240 -0.2802 -0.5424  1.1696
 3793SOL    HW123012   1.055   0.401   6.268 -0.2844 -0.2434  1.2989
 3793SOL    HW223013   0.951   0.325   6.203 -1.9253  0.7449 -1.2649
 3794SOL     OW23014   1.654   3.407   8.405 -0.5537  0.2401  0.0185
 3794SOL    HW123015   1.594   3.335   8.424 -1.9268  0.8424 -2.0377
 3794SOL    HW223016   1.653   3.404   8.309  2.1930  0.5507 -0.0116
 3795SOL     OW23017   4.038   2.726  17.107  0.2510  0.0284  0.3494
 3795SOL    HW123018   4.094   2.803  17.117  0.4414 -0.2086  1.0792
 3795SOL    HW223019   4.081   2.685  17.031 -0.7690  0.1969 -0.3158
 3796SOL     OW23020   1.192   3.113   1.247  0.0662  0.2171  0.2205
 3796SOL    HW123021   1.098   3.120   1.232  0.0499 -0.2234  0.1074
 3796SOL    HW223022   1.201   3.041   1.309 -0.3111 -0.7204 -0.8120
 3797SOL     OW23023   2.000   1.204  14.705 -0.4983  0.6624  0.4578
 3797SOL    HW123024   1.984   1.260  14.629  1.6675 -2.4662 -2.3158
 3797SOL    HW223025   2.026   1.269  14.769  1.2020 -0.6589  1.1155
 3798SOL     OW23026   1.834   2.340   5.914 -0.1815 -0.5989 -0.2126
 3798SOL    HW123027   1.857   2.415   5.969  2.5916 -0.1624 -1.9508
 3798SOL    HW223028   1.845   2.373   5.824  0.4370 -0.6774 -0.1651
 3799SOL     OW23029   0.017   2.222   2.430 -0.6614 -0.0445 -0.5176
 3799SOL    HW123030   0.038   2.208   2.522 -0.6728  0.3635 -0.4532
 3799SOL    HW223031   0.068   2.301   2.411  0.5605 -0.5089  0.8113
 3800SOL     OW23032   1.600   2.386  15.241  0.1425  0.2527 -0.4507
 3800SOL    HW123033   1.589   2.481  15.241 -2.9321 -0.1192 -1.1083
 3800SOL    HW223034   1.658   2.380  15.317  1.2766  1.3577 -1.2173
 3801SOL     OW23035   1.818   2.874   7.825 -0.1488  0.1613 -0.1180
 3801SOL    HW123036   1.891   2.867   7.886  1.8467 -2.9262 -2.8487
 3801SOL    HW223037   1.780   2.957   7.854 -0.3770  0.5390 -1.4928
 3802SOL     OW23038   2.612   4.316  17.560  0.1977 -0.0357  0.6118
 3802SOL    HW123039   2.598   4.389  17.500  1.1258  1.0007  1.6551
 3802SOL    HW223040   2.566   4.340  17.640 -0.7272  1.4736 -0.3677
 3803SOL     OW23041   2.949   2.289   5.805  0.7982 -0.5093 -0.5563
 3803SOL    HW123042   2.900   2.318   5.728 -0.3632 -1.3516 -0.1173
 3803SOL    HW223043   3.006   2.365   5.823 -1.7911  1.5250 -0.9807
 3804SOL     OW23044   0.102   2.413  11.444  0.4148 -0.1120 -0.6690
 3804SOL    HW123045   0.173   2.354  11.467 -1.0241 -0.8972  1.7110
 3804SOL    HW223046   0.025   2.380  11.492 -0.0015 -0.2945 -1.4613
 3805SOL     OW23047   3.409   3.746  16.336 -0.0587 -0.0668 -0.1886
 3805SOL    HW123048   3.351   3.684  16.381 -0.2746  0.5037  0.3086
 3805SOL    HW223049   3.359   3.825  16.356  2.3824  2.1138 -2.7279
 3806SOL     OW23050   4.645   2.821   6.433  0.5439  0.0019 -0.0012
 3806SOL    HW123051   4.631   2.795   6.342  1.3369  4.1637 -1.3224
 3806SOL    HW223052   4.574   2.885   6.443 -0.5702 -1.3737  0.9179
 3807SOL     OW23053   0.001   2.731  12.301  1.1747  0.1673  0.2055
 3807SOL    HW123054   0.076   2.779  12.266  0.9118  1.3932  1.3212
 3807SOL    HW223055   4.674   2.805  12.299 -1.9961 -2.4644  1.0012
 3808SOL     OW23056   3.521   0.483   3.056  0.6394 -0.2765 -0.0115
 3808SOL    HW123057   3.574   0.520   3.127  0.4320 -0.6196  0.3195
 3808SOL    HW223058   3.518   0.392   3.083  0.6916 -0.2532  0.0728
 3809SOL     OW23059   1.452   2.063   4.764  0.9776 -0.3631 -0.1837
 3809SOL    HW123060   1.463   2.025   4.851 -3.2928 -3.5130 -1.0534
 3809SOL    HW223061   1.426   1.996   4.701  0.8150 -0.5641  0.0990
 3810SOL     OW23062   2.351   0.873   8.389 -0.5346  0.7563  0.2582
 3810SOL    HW123063   2.401   0.904   8.464 -2.3346  0.1902  1.7015
 3810SOL    HW223064   2.264   0.865   8.428 -0.4449 -0.0889  0.2803
 3811SOL     OW23065   4.591   3.477   7.458  0.1113  0.1894 -0.2264
 3811SOL    HW123066   4.594   3.446   7.548 -0.8069 -1.6286 -0.8192
 3811SOL    HW223067   4.515   3.430   7.423  0.5909 -1.4613  0.9325
 3812SOL     OW23068   4.619   0.604  14.490 -0.1992  0.0273  0.6262
 3812SOL    HW123069   4.585   0.641  14.571 -0.9237  1.8298 -0.4902
 3812SOL    HW223070   4.710   0.585  14.513 -0.2104 -0.5136  0.2079
 3813SOL     OW23071   1.255   3.358   3.918  0.0424  0.1496 -0.1790
 3813SOL    HW123072   1.184   3.311   3.962  0.8641 -0.1832  0.7670
 3813SOL    HW223073   1.242   3.318   3.832 -2.8947  0.5032  0.0805
 3814SOL     OW23074   2.232   1.463   3.925  0.1009 -0.0002  0.5695
 3814SOL    HW123075   2.311   1.516   3.923  1.6102 -2.2100  1.4223
 3814SOL    HW223076   2.250   1.401   3.855 -1.5908  0.6335 -0.4237
 3815SOL     OW23077   2.131   3.902   6.099  0.2541 -0.5438  0.1935
 3815SOL    HW123078   2.080   3.945   6.031 -1.0852  0.3683  1.7764
 3815SOL    HW223079   2.223   3.924   6.083 -0.4990  1.1099 -1.7480
 3816SOL     OW23080   1.105   1.423  17.308  0.3000  0.2859  0.3269
 3816SOL    HW123081   1.140   1.354  17.364 -0.1434 -0.6017 -0.4876
 3816SOL    HW223082   1.085   1.367  17.233 -0.4669  2.3560 -0.9911
 3817SOL     OW23083   3.995   1.047   7.211 -0.7521  0.1715 -0.2144
 3817SOL    HW123084   4.014   0.995   7.289  2.6011 -0.1358 -1.2130
 3817SOL    HW223085   3.900   1.037   7.199 -0.3164 -2.5593 -1.4641
 3818SOL     OW23086   2.771   3.754   8.555  0.5759  0.4754  0.6610
 3818SOL    HW123087   2.854   3.784   8.518  0.4362 -1.1839 -1.0089
 3818SOL    HW223088   2.705   3.788   8.496 -0.8026  1.7521  2.9546
 3819SOL     OW23089   0.650   3.406   2.755 -0.3569 -0.0589 -0.7612
 3819SOL    HW123090   0.576   3.351   2.730  0.0513 -2.4564  3.2984
 3819SOL    HW223091   0.713   3.334   2.744 -0.2934  0.0455 -1.0835
 3820SOL     OW23092   2.143   4.182   9.105  0.7839  0.1275  0.2658
 3820SOL    HW123093   2.188   4.232   9.037  0.9483  1.0000  1.0106
 3820SOL    HW223094   2.209   4.115   9.121  0.7310 -0.3696 -1.6678
 3821SOL     OW23095   3.744   3.070   4.248 -0.4244 -0.2320 -0.2046
 3821SOL    HW123096   3.787   2.989   4.278 -0.0461 -0.4008 -1.1819
 3821SOL    HW223097   3.812   3.107   4.192 -1.2013 -1.3752 -1.9225
 3822SOL     OW23098   0.725   1.051   5.326 -0.2250 -0.2997 -0.0983
 3822SOL    HW123099   0.680   0.989   5.270  0.1785 -1.6565  1.0794
 3822SOL    HW223100   0.680   1.136   5.328 -0.3109 -0.3224 -1.0633
 3823SOL     OW23101   4.021   2.261   7.510  0.1335 -0.3229 -0.3477
 3823SOL    HW123102   3.958   2.239   7.441 -1.3488 -1.5329  1.4241
 3823SOL    HW223103   3.962   2.312   7.566  1.6812  0.1658  0.8321
 3824SOL     OW23104   3.471   0.781  12.206 -0.2842  0.0572 -0.0938
 3824SOL    HW123105   3.499   0.860  12.161  0.8317 -2.4535 -3.8439
 3824SOL    HW223106   3.454   0.828  12.288  2.3248 -0.7138  0.9012
 3825SOL     OW23107   3.712   2.876  11.554  0.5138  0.3856  0.0773
 3825SOL    HW123108   3.793   2.844  11.515  0.9162  0.5789  0.7532
 3825SOL    HW223109   3.740   2.956  11.599 -1.8861 -0.6152  3.3636
 3826SOL     OW23110   2.524   2.568   9.449 -0.7439 -0.5303 -0.3802
 3826SOL    HW123111   2.465   2.585   9.523  0.0309  1.7446 -0.2933
 3826SOL    HW223112   2.522   2.646   9.394  0.0509  1.5864  2.5767
 3827SOL     OW23113   1.960   1.820   4.425 -0.1104 -0.4325 -0.8750
 3827SOL    HW123114   2.028   1.759   4.450 -0.8444  0.5210  3.5057
 3827SOL    HW223115   2.013   1.882   4.376 -0.7458  1.4618  0.8260
 3828SOL     OW23116   3.641   0.013   4.845 -0.6826 -0.2144 -0.2536
 3828SOL    HW123117   3.662   0.024   4.753  1.6714  0.0460  0.3086
 3828SOL    HW223118   3.710   4.687   4.876 -0.8748 -0.2863  0.0379
 3829SOL     OW23119   1.380   1.767   7.060 -0.0839  0.0332  0.1928
 3829SOL    HW123120   1.464   1.743   7.098  0.9188 -1.1784 -2.8287
 3829SOL    HW223121   1.361   1.843   7.115 -1.6674  2.2984 -3.4249
 3830SOL     OW23122   4.102   0.237   9.739 -0.7377 -0.6720 -0.2056
 3830SOL    HW123123   4.030   0.299   9.731  0.7978  1.1032 -0.5426
 3830SOL    HW223124   4.144   0.239   9.653 -0.8223 -0.0019 -0.2312
 3831SOL     OW23125   4.212   4.043   8.504 -0.1211 -0.4821 -0.1851
 3831SOL    HW123126   4.215   3.961   8.455 -0.7318  0.0373 -1.0954
 3831SOL    HW223127   4.122   4.070   8.489  0.3317  0.2966 -1.6113
 3832SOL     OW23128   0.070   4.642   8.036  0.0978 -0.0023  0.4496
 3832SOL    HW123129   0.019   4.720   8.057 -0.3285 -0.3765  0.8283
 3832SOL    HW223130   0.094   4.654   7.944 -1.5976 -0.6640 -0.0830
 3833SOL     OW23131   3.169   4.710   9.984  0.0055 -0.6622  0.1510
 3833SOL    HW123132   3.228   0.046   9.960 -2.1565  0.6936 -1.1808
 3833SOL    HW223133   3.228   4.658  10.038  0.3809  0.6909  1.0352
 3834SOL     OW23134   0.254   3.188  13.346 -0.3499  0.0373 -0.0090
 3834SOL    HW123135   0.160   3.176  13.359 -0.7162  1.3084 -1.5131
 3834SOL    HW223136   0.284   3.267  13.391  1.3722 -1.3092  1.2094
 3835SOL     OW23137   1.259   3.435   8.303 -0.9201  0.2202  0.4332
 3835SOL    HW123138   1.232   3.355   8.349 -3.3062  0.1581 -1.1151
 3835SOL    HW223139   1.206   3.429   8.224 -1.4102  2.1411  0.6292
 3836SOL     OW23140   0.355   2.025   8.298  0.2153 -0.1806  0.5997
 3836SOL    HW123141   0.348   1.930   8.298  0.6782 -0.2160  0.1133
 3836SOL    HW223142   0.373   2.044   8.390  0.3016 -0.2904  0.6042
 3837SOL     OW23143   4.283   4.402  13.051 -0.3415  0.3535  0.3477
 3837SOL    HW123144   4.236   4.326  13.087 -0.7920  1.4157  2.0269
 3837SOL    HW223145   4.366   4.394  13.098  1.3915 -0.1632 -2.8818
 3838SOL     OW23146   2.192   2.021   6.433  0.5289  0.2344 -0.3773
 3838SOL    HW123147   2.169   2.111   6.410 -0.1895 -0.4804 -2.4588
 3838SOL    HW223148   2.248   2.030   6.510  2.7320  1.0355 -2.0509
 3839SOL     OW23149   3.150   2.682  10.942  0.0024  0.0591  0.0167
 3839SOL    HW123150   3.074   2.659  10.995 -0.2858  0.4268 -0.2405
 3839SOL    HW223151   3.138   2.777  10.942  0.1436  0.0769  0.2153
 3840SOL     OW23152   0.742   0.198  15.216 -0.7846  0.0005  0.1010
 3840SOL    HW123153   0.674   0.243  15.166 -2.0584 -1.4090  0.5802
 3840SOL    HW223154   0.733   0.251  15.295 -1.5342 -1.4492  0.9718
 3841SOL     OW23155   3.052   1.214   7.030  0.1787  0.0566  0.1777
 3841SOL    HW123156   3.134   1.164   7.033 -0.2546 -0.7741 -2.1220
 3841SOL    HW223157   3.011   1.195   7.115  1.6477  0.8857  1.0739
 3842SOL     OW23158   1.762   3.248   3.898  0.2397  0.4519 -0.3096
 3842SOL    HW123159   1.694   3.228   3.961  0.7216 -1.6014 -0.4477
 3842SOL    HW223160   1.733   3.339   3.888  0.6131  0.5318 -0.6859
 3843SOL     OW23161   2.840   2.544  11.855 -0.2841  0.0775 -0.2349
 3843SOL    HW123162   2.820   2.452  11.867 -1.4811  0.4143  0.3815
 3843SOL    HW223163   2.894   2.573  11.929  1.3898  0.5724 -1.6432
 3844SOL     OW23164   4.055   4.019  14.526 -0.6115  0.1490 -0.2096
 3844SOL    HW123165   4.092   4.007  14.438  0.7649  0.9250  0.2557
 3844SOL    HW223166   4.068   4.114  14.526  0.8470 -0.0614  0.9837
 3845SOL     OW23167   0.779   4.253   8.977  0.1137  0.1692 -0.6136
 3845SOL    HW123168   0.856   4.299   9.011  1.3024 -0.8604 -1.9152
 3845SOL    HW223169   0.810   4.164   8.994 -0.1151 -0.3223 -2.8637
 3846SOL     OW23170   3.960   3.417   5.010  0.5257  0.2005 -0.3959
 3846SOL    HW123171   3.973   3.486   4.944  0.8416  0.8966  0.4020
 3846SOL    HW223172   3.980   3.342   4.954  1.5194 -1.2047  1.8806
 3847SOL     OW23173   0.918   1.297   3.181  0.3619 -0.0092 -0.1752
 3847SOL    HW123174   0.870   1.238   3.239 -1.2514 -0.1205 -1.6329
 3847SOL    HW223175   0.868   1.294   3.100  0.2632  1.1156 -0.1584
 3848SOL     OW23176   0.819   0.586   5.895 -0.2852 -0.2842 -0.1750
 3848SOL    HW123177   0.767   0.660   5.928 -0.0316  0.8048 -2.1846
 3848SOL    HW223178   0.905   0.624   5.915 -0.6429 -0.5241  1.8738
 3849SOL     OW23179   2.942   4.255  13.996 -0.3430 -0.6901  0.3141
 3849SOL    HW123180   2.914   4.256  14.088 -1.5797 -1.3503 -0.0445
 3849SOL    HW223181   2.912   4.344  13.981  1.0238 -0.2228  0.4348
 3850SOL     OW23182   1.710   1.955   5.272  0.1443  0.1564 -0.5231
 3850SOL    HW123183   1.748   2.014   5.336  0.4912 -0.9186  0.2606
 3850SOL    HW223184   1.639   1.914   5.322 -0.4811  3.3801  1.1877
 3851SOL     OW23185   2.867   4.194  16.604  0.2029  0.1857  0.2121
 3851SOL    HW123186   2.962   4.199  16.607  0.2710 -1.4246  0.5593
 3851SOL    HW223187   2.853   4.117  16.658 -1.1800  0.6128  0.4791
 3852SOL     OW23188   2.142   2.052   7.247  0.0531  0.5174 -0.4189
 3852SOL    HW123189   2.215   2.012   7.200 -0.4249 -0.7368 -0.0840
 3852SOL    HW223190   2.170   2.143   7.250  0.4433  0.3056  2.1238
 3853SOL     OW23191   3.774   2.074   6.510  0.6672  0.3253  0.7191
 3853SOL    HW123192   3.735   2.016   6.576  0.9628 -1.4862 -0.7110
 3853SOL    HW223193   3.838   2.010   6.479  1.0976  0.0387  2.1706
 3854SOL     OW23194   2.831   4.560   4.353  0.4189  0.0067 -0.2271
 3854SOL    HW123195   2.789   4.489   4.402  0.8858  1.0563  1.7033
 3854SOL    HW223196   2.809   4.637   4.405  1.2552  0.6567 -0.8423
 3855SOL     OW23197   0.203   2.755   5.065 -0.2294 -0.3239 -0.2885
 3855SOL    HW123198   0.168   2.843   5.057  1.6428  0.5273  0.7904
 3855SOL    HW223199   0.121   2.709   5.084 -1.9064  2.3552 -1.1272
 3856SOL     OW23200   0.037   4.214   1.652  0.5871 -0.2955  0.1128
 3856SOL    HW123201   4.701   4.276   1.632  2.1264  1.9074  1.4980
 3856SOL    HW223202   0.090   4.192   1.575 -0.3386  0.8912 -0.8669
 3857SOL     OW23203   3.220   0.191  15.697  0.1116  0.0231  0.4512
 3857SOL    HW123204   3.148   0.228  15.646  1.4058  2.6850  0.5708
 3857SOL    HW223205   3.246   0.260  15.758  1.8862  0.0757 -0.3707
 3858SOL     OW23206   2.336   2.226   6.243  0.2478  0.1104 -0.5844
 3858SOL    HW123207   2.278   2.283   6.294  1.0259  0.0629  0.3574
 3858SOL    HW223208   2.374   2.290   6.184 -1.4973 -0.8830 -2.7687
 3859SOL     OW23209   0.328   1.995   5.329 -0.4004 -0.3579 -0.0239
 3859SOL    HW123210   0.312   1.921   5.388 -1.2862  0.5888  0.9279
 3859SOL    HW223211   0.316   1.956   5.243  1.8077 -2.2196  0.4933
 3860SOL     OW23212   3.149   3.403  14.618 -0.3219 -0.0395 -0.1227
 3860SOL    HW123213   3.178   3.492  14.598 -1.0194  0.5073  1.3200
 3860SOL    HW223214   3.237   3.371  14.641 -0.7872 -0.3153  1.2325
 3861SOL     OW23215   2.885   3.922  11.335 -0.1282  0.0404  0.1109
 3861SOL    HW123216   2.914   3.957  11.251 -0.6732 -0.4629 -0.2807
 3861SOL    HW223217   2.894   4.002  11.387 -3.9435  0.6110 -0.0980
 3862SOL     OW23218   3.333   4.650  15.395  0.2869 -0.1071 -0.0307
 3862SOL    HW123219   3.364   4.687  15.478 -0.7631 -2.1571  1.2857
 3862SOL    HW223220   3.242   4.680  15.398  0.0476 -1.0168  1.9417
 3863SOL     OW23221   2.532   1.144   3.269  0.5436  0.3587 -0.1745
 3863SOL    HW123222   2.604   1.177   3.323  0.3295  0.2052  0.2069
 3863SOL    HW223223   2.509   1.054   3.294  2.4352 -0.3707 -1.1160
 3864SOL     OW23224   1.245   2.248   4.866  0.1008 -0.0626  0.7877
 3864SOL    HW123225   1.180   2.180   4.850 -2.6440  2.2233  2.1735
 3864SOL    HW223226   1.315   2.192   4.832 -0.8054  0.0312 -1.2030
 3865SOL     OW23227   4.341   2.868  17.366  0.4916  0.1367 -0.0507
 3865SOL    HW123228   4.256   2.842  17.401  0.4402  1.0667  0.5002
 3865SOL    HW223229   4.381   2.921  17.435 -1.7555 -0.4968  1.7242
 3866SOL     OW23230   1.467   2.744   4.050  0.1561  0.0540  0.1499
 3866SOL    HW123231   1.551   2.711   4.080  0.9842  3.0337  1.1477
 3866SOL    HW223232   1.496   2.835   4.056  3.1397 -0.7872 -1.2924
 3867SOL     OW23233   1.700   3.107  14.256 -0.3370 -0.4288  0.5495
 3867SOL    HW123234   1.670   3.161  14.183 -2.0977  1.1025  2.3688
 3867SOL    HW223235   1.785   3.144  14.277  1.3254 -2.5978 -2.4311
 3868SOL     OW23236   3.744   1.486   4.485 -0.0459 -0.5451  0.0297
 3868SOL    HW123237   3.695   1.556   4.442 -1.0290 -1.4620 -0.3447
 3868SOL    HW223238   3.693   1.468   4.563  1.4761  0.7577  1.3280
 3869SOL     OW23239   4.176   0.042   7.593 -0.1833  0.0033  0.2419
 3869SOL    HW123240   4.168   0.118   7.534  0.0641 -1.2385 -1.3902
 3869SOL    HW223241   4.159   0.086   7.676  3.9414  2.7484 -0.3646
 3870SOL     OW23242   3.179   2.017   6.576  0.5352 -0.3419  0.4104
 3870SOL    HW123243   3.152   2.079   6.643  1.8382 -1.6289  2.1241
 3870SOL    HW223244   3.104   1.957   6.576  0.8881 -0.7887  1.0209
 3871SOL     OW23245   0.239   3.807   4.921  0.3252 -0.0786 -0.3337
 3871SOL    HW123246   0.221   3.771   4.834  2.2258 -0.5070 -0.5322
 3871SOL    HW223247   0.148   3.802   4.950  0.9142  0.6616  1.6015
 3872SOL     OW23248   2.903   3.688  10.152 -0.9287 -0.7102  0.0477
 3872SOL    HW123249   2.864   3.776  10.156 -0.2719 -0.3497 -1.4865
 3872SOL    HW223250   2.984   3.710  10.198  0.1581  0.1006 -2.2642
 3873SOL     OW23251   3.742   3.486   5.543 -0.3755  0.5296 -0.2087
 3873SOL    HW123252   3.778   3.415   5.596 -0.8556 -0.2457 -0.9201
 3873SOL    HW223253   3.666   3.510   5.597 -1.4092 -0.8127 -1.0485
 3874SOL     OW23254   2.542   4.512   8.582 -0.4913 -0.3464  0.6086
 3874SOL    HW123255   2.627   4.532   8.623 -1.1083  1.0375  1.1895
 3874SOL    HW223256   2.542   4.585   8.520 -1.9625 -0.0768  0.9302
 3875SOL     OW23257   0.468   1.184   5.626  0.4762  0.0809 -1.0087
 3875SOL    HW123258   0.483   1.103   5.674  0.0432 -0.3144 -1.5538
 3875SOL    HW223259   0.440   1.245   5.694 -0.0413 -1.5443  0.2115
 3876SOL     OW23260   2.055   4.570   2.846  0.3776  0.4254  0.3463
 3876SOL    HW123261   2.029   4.578   2.754 -0.4035 -0.7106  0.4642
 3876SOL    HW223262   2.037   4.477   2.858 -1.9502  0.6150 -1.7977
 3877SOL     OW23263   0.839   3.963   2.993 -0.1169  0.0131  0.3630
 3877SOL    HW123264   0.870   4.052   3.010  1.1886 -0.5141  0.7426
 3877SOL    HW223265   0.915   3.935   2.943  0.8036  2.1088  0.5923
 3878SOL     OW23266   4.419   2.888   2.268 -0.0059  0.6076  0.7347
 3878SOL    HW123267   4.343   2.940   2.296 -1.0321 -1.5978  1.9978
 3878SOL    HW223268   4.376   2.818   2.220  0.7950  1.2852 -0.9878
 3879SOL     OW23269   2.391   4.686   7.299 -0.1497  0.0058  0.3329
 3879SOL    HW123270   2.447   0.006   7.244  0.4890 -1.3625 -0.3712
 3879SOL    HW223271   2.448   4.680   7.376  0.6213  3.0202 -0.0063
 3880SOL     OW23272   2.451   0.393   8.694 -0.4176 -0.4370  0.2996
 3880SOL    HW123273   2.435   0.375   8.786  1.4100 -0.8530  0.5500
 3880SOL    HW223274   2.395   0.466   8.672  2.1171  2.0292  2.0472
 3881SOL     OW23275   3.857   0.602   3.600 -0.5335  0.4609  0.0772
 3881SOL    HW123276   3.926   0.568   3.543 -1.8538 -1.8857 -0.0920
 3881SOL    HW223277   3.886   0.694   3.602  1.0145  0.0340 -2.5047
 3882SOL     OW23278   2.792   3.339   3.576  0.2277  0.6210 -0.3537
 3882SOL    HW123279   2.722   3.276   3.588  2.1879 -1.3164  0.8490
 3882SOL    HW223280   2.800   3.370   3.485  0.8136 -0.2476 -0.5952
 3883SOL     OW23281   3.096   3.888  15.728 -0.4453 -0.3919  0.3466
 3883SOL    HW123282   3.156   3.893  15.653  0.6818  1.3545  1.3759
 3883SOL    HW223283   3.012   3.881  15.683 -0.1831 -3.6521  0.3422
 3884SOL     OW23284   1.931   4.173   6.765 -0.2905  0.2247 -0.1736
 3884SOL    HW123285   1.896   4.235   6.702 -0.3462  0.3108 -0.0566
 3884SOL    HW223286   1.885   4.201   6.844  1.0543 -1.3876  1.1758
 3885SOL     OW23287   0.410   0.400   1.987 -0.7876 -0.2736  0.1288
 3885SOL    HW123288   0.491   0.375   1.942 -0.1222  0.6613  0.8028
 3885SOL    HW223289   0.420   0.495   1.992 -0.8759 -0.2644  0.1107
 3886SOL     OW23290   2.669   4.049   3.943  0.0081 -0.4813  0.4220
 3886SOL    HW123291   2.744   4.074   3.888 -0.8418  0.0196 -0.5046
 3886SOL    HW223292   2.703   3.964   3.970  0.9543  0.1102  1.1118
 3887SOL     OW23293   3.002   4.194   0.517  0.2580  0.3611  0.0222
 3887SOL    HW123294   2.924   4.219   0.469  1.7550 -0.5030 -2.8576
 3887SOL    HW223295   2.973   4.177   0.607 -0.5945 -0.9087 -0.5024
 3888SOL     OW23296   1.908   3.431  10.067  0.4320  0.6340  0.2138
 3888SOL    HW123297   1.880   3.354  10.115  2.0794  0.6011  1.1245
 3888SOL    HW223298   1.981   3.446  10.127 -0.9346 -2.6693  2.6929
 3889SOL     OW23299   2.071   3.493   8.781 -0.2683  0.3133  0.3165
 3889SOL    HW123300   2.019   3.438   8.839 -2.1801 -1.5712 -3.1912
 3889SOL    HW223301   2.138   3.432   8.748  0.4098  1.8782 -1.2355
 3890SOL     OW23302   2.295   0.115   4.640 -0.3362  0.1002  0.2885
 3890SOL    HW123303   2.237   0.189   4.624 -0.7241 -0.6448 -1.6423
 3890SOL    HW223304   2.380   0.148   4.609 -0.0428 -1.0283 -0.1017
 3891SOL     OW23305   2.431   2.159   5.768 -0.1836 -0.5185  0.2735
 3891SOL    HW123306   2.460   2.085   5.714  0.2619 -0.2138  0.0898
 3891SOL    HW223307   2.451   2.236   5.715  1.5628 -0.1237  1.4969
 3892SOL     OW23308   4.009   3.917   5.544 -0.1563  0.2845  0.2902
 3892SOL    HW123309   4.094   3.918   5.589  0.3099 -4.3040 -0.4453
 3892SOL    HW223310   4.010   3.828   5.510 -2.1265  0.2638  0.3258
 3893SOL     OW23311   0.870   2.810   3.890 -0.6243  0.0209 -0.5844
 3893SOL    HW123312   0.953   2.822   3.845 -0.1469 -0.3865  0.1850
 3893SOL    HW223313   0.862   2.890   3.941  1.3633 -0.0093 -0.2278
 3894SOL     OW23314   2.447   4.149   8.080 -0.3673 -0.2149  0.4032
 3894SOL    HW123315   2.411   4.232   8.050 -1.0361 -0.0995  1.5333
 3894SOL    HW223316   2.536   4.151   8.044  0.8513 -1.2710  3.3892
 3895SOL     OW23317   2.888   4.309   8.530  0.1432 -0.1428 -0.0090
 3895SOL    HW123318   2.890   4.382   8.467  1.6610 -0.2868 -0.1389
 3895SOL    HW223319   2.796   4.285   8.527  0.0914  0.1100 -0.5536
 3896SOL     OW23320   0.423   0.038   5.135  0.3716 -0.1657  0.7750
 3896SOL    HW123321   0.424   0.110   5.072  1.2474 -0.0767  0.8986
 3896SOL    HW223322   0.516   0.020   5.148  0.0912 -0.9117  1.7253
 3897SOL     OW23323   0.313   0.950   6.049  0.2307 -0.1359 -0.6580
 3897SOL    HW123324   0.310   0.951   6.145 -2.2468  1.0395 -0.7377
 3897SOL    HW223325   0.289   0.859   6.033  4.4674 -1.4286  0.5557
 3898SOL     OW23326   2.239   1.768  17.210 -0.2669  0.9667  0.7376
 3898SOL    HW123327   2.223   1.790  17.118 -2.1667 -0.1546  0.8039
 3898SOL    HW223328   2.313   1.707  17.214 -1.2692 -0.2457  0.6426
 3899SOL     OW23329   4.472   4.091   3.823  0.3950  0.2690  0.7333
 3899SOL    HW123330   4.561   4.099   3.789  2.1006  0.3140  5.2546
 3899SOL    HW223331   4.467   4.163   3.885 -0.0069  1.3727 -0.6046
 3900SOL     OW23332   1.128   0.324   1.913  0.0213  0.0583 -0.0269
 3900SOL    HW123333   1.090   0.267   1.846  1.0375 -0.5524 -0.0930
 3900SOL    HW223334   1.151   0.260   1.980 -0.5199 -1.1908 -1.0401
 3901SOL     OW23335   3.675   1.762   9.127 -0.1573  0.1615 -0.1274
 3901SOL    HW123336   3.592   1.746   9.082  1.3796 -0.7391 -2.6342
 3901SOL    HW223337   3.656   1.764   9.221  1.0402 -0.6112  0.1409
 3902SOL     OW23338   3.547   3.666   9.455  0.5234  0.4643  0.1489
 3902SOL    HW123339   3.571   3.578   9.425 -0.5926  1.1447 -2.6591
 3902SOL    HW223340   3.462   3.657   9.498  0.3639  0.2942 -0.2086
 3903SOL     OW23341   3.129   1.843   0.857  0.0830 -0.9557  0.3993
 3903SOL    HW123342   3.166   1.789   0.787 -1.0090 -0.5753 -0.4751
 3903SOL    HW223343   3.040   1.813   0.838  0.1923 -2.0954  1.7498
 3904SOL     OW23344   0.169   1.686  13.535 -0.3421 -0.1569 -0.2265
 3904SOL    HW123345   0.182   1.593  13.554  0.8254  0.5192  2.2183
 3904SOL    HW223346   0.138   1.719  13.619 -0.3375  0.9528 -0.6678
 3905SOL     OW23347   2.821   0.584   6.560 -0.5919 -0.0186  0.3402
 3905SOL    HW123348   2.864   0.603   6.476 -0.1454  0.3718  0.6544
 3905SOL    HW223349   2.822   0.489   6.548  0.4963  0.2165 -1.4944
 3906SOL     OW23350   0.090   0.674  16.315  0.4196 -0.1178  0.1496
 3906SOL    HW123351   0.023   0.741  16.300 -0.5125 -1.3813 -1.3989
 3906SOL    HW223352   0.143   0.683  16.236  1.3247 -2.8931  0.4492
 3907SOL     OW23353   3.785   3.558   7.325  0.4267 -0.2912 -0.2786
 3907SOL    HW123354   3.808   3.502   7.399  0.1580  1.1815  0.8973
 3907SOL    HW223355   3.709   3.515   7.285 -0.2779  0.4582  0.2580
 3908SOL     OW23356   3.383   1.443   1.050  0.1169  0.2534  0.0350
 3908SOL    HW123357   3.346   1.531   1.049 -1.3122 -0.3267  2.0163
 3908SOL    HW223358   3.475   1.469   1.041  0.6602 -2.0684 -0.9260
 3909SOL     OW23359   4.730   2.943  10.186  0.3340 -0.2794 -0.6680
 3909SOL    HW123360   0.003   2.858  10.229  2.9270 -1.4329 -3.3939
 3909SOL    HW223361   4.725   2.902  10.099  0.5416 -1.0238 -0.3299
 3910SOL     OW23362   2.103   2.560   9.605 -0.1528  0.3230 -0.4225
 3910SOL    HW123363   2.027   2.616   9.593  0.1513  0.6398 -0.9267
 3910SOL    HW223364   2.107   2.532   9.513  1.3114 -0.9933  0.0480
 3911SOL     OW23365   4.413   4.140   6.983  0.1242  0.1242 -0.7606
 3911SOL    HW123366   4.441   4.203   6.916 -1.0240 -0.8773 -2.1485
 3911SOL    HW223367   4.444   4.181   7.064 -0.4205  0.0703 -0.5291
 3912SOL     OW23368   3.448   4.008   5.544 -0.6321 -0.4212 -0.2672
 3912SOL    HW123369   3.355   3.988   5.545 -0.8629  0.6621  0.0152
 3912SOL    HW223370   3.486   3.920   5.537  2.2680  1.0301 -2.6448
 3913SOL     OW23371   0.100   3.332   3.677  0.2705  0.7456 -0.4539
 3913SOL    HW123372   0.147   3.402   3.722 -2.2528  1.4616  1.0670
 3913SOL    HW223373   0.050   3.288   3.745  1.2940  2.4294  1.3791
 3914SOL     OW23374   3.539   2.985  13.058  0.4652  0.2783  0.2092
 3914SOL    HW123375   3.485   3.063  13.067 -0.4968 -0.2361 -1.1633
 3914SOL    HW223376   3.563   2.982  13.151 -0.3841  1.0720  0.4444
 3915SOL     OW23377   3.751   3.547   9.043 -0.0770  0.3537 -0.0699
 3915SOL    HW123378   3.743   3.510   9.130  0.9129 -0.1058 -0.1660
 3915SOL    HW223379   3.664   3.530   9.008 -0.4532 -1.3361  1.7230
 3916SOL     OW23380   1.960   1.153  15.506 -0.1892  0.6892  0.1283
 3916SOL    HW123381   1.955   1.218  15.436 -1.4823  0.4666  0.0115
 3916SOL    HW223382   2.032   1.096  15.477 -0.6981 -0.4254  1.0298
 3917SOL     OW23383   1.388   3.111   9.427  0.1186  0.1988  0.0576
 3917SOL    HW123384   1.397   3.095   9.333 -0.8036  0.2850 -0.0507
 3917SOL    HW223385   1.402   3.026   9.468  0.6707 -0.8676 -2.3324
 3918SOL     OW23386   1.216   2.287   5.166 -0.1782 -0.3554 -0.2507
 3918SOL    HW123387   1.123   2.307   5.172  0.3944  2.1490  0.3979
 3918SOL    HW223388   1.230   2.250   5.080 -0.3492  0.7578 -0.7605
 3919SOL     OW23389   0.533   2.671   3.991  0.2989  0.1984  0.1301
 3919SOL    HW123390   0.537   2.638   4.081 -0.1712  0.9488  0.4262
 3919SOL    HW223391   0.609   2.628   3.954  0.3190  0.6593 -0.3558
 3920SOL     OW23392   0.798   2.409  15.329  0.0358  0.1082 -0.1781
 3920SOL    HW123393   0.730   2.427  15.265 -0.0300  3.1171  0.7154
 3920SOL    HW223394   0.853   2.349  15.278  0.9232  0.8699 -0.1324
 3921SOL     OW23395   4.248   2.615   2.564  0.2768 -0.4006  0.3051
 3921SOL    HW123396   4.317   2.578   2.509 -0.2357  0.9027 -1.2331
 3921SOL    HW223397   4.307   2.656   2.627 -1.1843  1.2945  0.5698
 3922SOL     OW23398   2.519   0.120  14.811 -0.2202  0.3544  0.0926
 3922SOL    HW123399   2.524   0.027  14.789 -0.0478  0.5362 -0.6368
 3922SOL    HW223400   2.608   0.142  14.784 -0.4193 -0.0848 -0.9268
 3923SOL     OW23401   2.639   0.599   5.766  0.1513 -0.4058  0.3633
 3923SOL    HW123402   2.635   0.522   5.710 -0.6418 -0.4822  0.5235
 3923SOL    HW223403   2.546   0.619   5.768  0.4262  0.8056  0.6741
 3924SOL     OW23404   3.298   1.188  17.609  0.3585 -0.0682  0.2231
 3924SOL    HW123405   3.254   1.109  17.642 -1.2426  0.2340 -1.1825
 3924SOL    HW223406   3.335   1.152  17.529 -1.9182  0.3048 -1.0117
 3925SOL     OW23407   2.606   1.925   1.213  0.0585 -0.1790 -0.2417
 3925SOL    HW123408   2.643   1.881   1.137  1.4278  0.4997  0.0298
 3925SOL    HW223409   2.549   1.856   1.246  0.1318  0.3299  0.9669
 3926SOL     OW23410   1.761   1.479   2.781  0.4070 -0.1875  0.6401
 3926SOL    HW123411   1.836   1.428   2.752 -0.9146 -1.4461 -0.5780
 3926SOL    HW223412   1.776   1.483   2.875 -4.9267  0.2680  1.4816
 3927SOL     OW23413   2.867   4.478   8.320  0.5430 -0.0878 -0.1066
 3927SOL    HW123414   2.882   4.572   8.316  1.7366 -0.2947 -0.4859
 3927SOL    HW223415   2.850   4.454   8.229 -2.5196  0.3178  0.3356
 3928SOL     OW23416   1.816   0.298   7.708  0.4510 -1.0533 -0.3517
 3928SOL    HW123417   1.814   0.226   7.645  2.4205  0.4074 -2.0506
 3928SOL    HW223418   1.824   0.377   7.655 -2.5535  0.8191  1.9168
 3929SOL     OW23419   0.978   0.220  15.050 -0.1141  0.3802 -0.1623
 3929SOL    HW123420   0.935   0.217  15.136 -1.4576  2.5545 -0.7693
 3929SOL    HW223421   0.912   0.266  14.999 -0.6310  0.3145  0.4391
 3930SOL     OW23422   4.032   0.705   5.286 -0.2876  0.3580  0.2178
 3930SOL    HW123423   4.111   0.653   5.297 -1.1867 -0.6533  1.7522
 3930SOL    HW223424   3.968   0.639   5.258  1.6802 -1.4135 -0.0280
 3931SOL     OW23425   3.156   0.159   3.474  0.5873  0.3427 -0.1776
 3931SOL    HW123426   3.148   0.240   3.524  0.1000  0.1104  0.1085
 3931SOL    HW223427   3.082   0.111   3.511  0.7126 -0.4274 -0.9258
 3932SOL     OW23428   4.430   2.145   7.675 -0.0335  0.2323  0.4888
 3932SOL    HW123429   4.340   2.157   7.645  1.0644  1.8572 -2.1581
 3932SOL    HW223430   4.491   2.193   7.619  0.7366 -1.0192  0.2489
 3933SOL     OW23431   3.284   1.912   2.031  0.1985 -0.3954 -0.1412
 3933SOL    HW123432   3.216   1.893   2.095 -0.0160 -0.3705 -0.3652
 3933SOL    HW223433   3.255   1.987   1.979 -1.3792 -0.0606  1.2004
 3934SOL     OW23434   1.614   3.746   4.237 -0.0147  0.1804  0.1937
 3934SOL    HW123435   1.523   3.729   4.261 -0.3365 -0.9268 -1.8569
 3934SOL    HW223436   1.596   3.748   4.143  0.2460  1.8622  0.1747
 3935SOL     OW23437   3.949   0.239  14.880  0.2702 -0.6451 -0.0093
 3935SOL    HW123438   4.033   0.226  14.924 -0.1313 -0.2693  0.8620
 3935SOL    HW223439   3.971   0.191  14.799  0.8421  2.5108 -1.7205
 3936SOL     OW23440   2.755   2.665  17.043  0.4752 -0.7180  0.6306
 3936SOL    HW123441   2.808   2.622  16.976 -0.9028 -1.6594  0.1340
 3936SOL    HW223442   2.746   2.590  17.102 -1.1168 -0.3927  0.8054
 3937SOL     OW23443   4.657   1.044   2.928 -0.5076  0.1305  0.0994
 3937SOL    HW123444   4.651   1.067   2.835  0.7527  0.5319  0.1175
 3937SOL    HW223445   0.017   1.048   2.947 -0.2770  0.0037 -1.0164
 3938SOL     OW23446   2.897   2.915   1.561 -0.6926 -0.0872  0.0322
 3938SOL    HW123447   2.975   2.895   1.613  0.3108  4.9922  0.4840
 3938SOL    HW223448   2.882   2.827   1.526 -0.1195 -0.3939  0.5630
 3939SOL     OW23449   0.360   0.215   3.471 -0.0827 -0.5119 -0.4970
 3939SOL    HW123450   0.317   0.297   3.496  2.3783  0.3300  1.0179
 3939SOL    HW223451   0.334   0.200   3.380 -1.4852 -3.2105  0.3579
 3940SOL     OW23452   2.252   2.713  15.766  0.6065  0.5442  0.0224
 3940SOL    HW123453   2.165   2.737  15.798 -0.0895 -0.4213 -1.1604
 3940SOL    HW223454   2.253   2.755  15.680  3.6936 -1.5706 -0.9730
 3941SOL     OW23455   1.487   1.624   7.951 -0.6715 -0.4295 -0.2078
 3941SOL    HW123456   1.454   1.592   7.867  0.3570  0.7841 -1.0881
 3941SOL    HW223457   1.419   1.690   7.965  0.0155  0.1207  0.5397
 3942SOL     OW23458   2.370   2.383   5.029  0.0480  0.1510  1.0521
 3942SOL    HW123459   2.396   2.469   4.996 -1.0423  0.0742 -0.0114
 3942SOL    HW223460   2.453   2.337   5.040 -0.3061 -0.7576 -0.0518
 3943SOL     OW23461   0.607   2.851   7.753 -0.6563 -0.2013 -0.5876
 3943SOL    HW123462   0.607   2.814   7.665 -0.0272 -2.1965  0.2455
 3943SOL    HW223463   0.698   2.860   7.781 -0.3174 -1.8569 -1.1433
 3944SOL     OW23464   3.130   3.368   9.221 -0.3187 -0.2602 -0.0035
 3944SOL    HW123465   3.190   3.391   9.292 -1.8092  0.4680  1.0175
 3944SOL    HW223466   3.046   3.374   9.266 -1.4982  0.8073 -2.3043
 3945SOL     OW23467   2.212   3.816   1.253 -0.5097 -0.4059  0.5206
 3945SOL    HW123468   2.287   3.834   1.197 -0.9445 -0.1631  0.0128
 3945SOL    HW223469   2.155   3.779   1.186 -0.3778  0.6568 -0.1889
 3946SOL     OW23470   1.068   4.481  12.737 -0.7041  0.1606 -0.0402
 3946SOL    HW123471   1.105   4.516  12.818 -2.1284  3.5116 -0.8278
 3946SOL    HW223472   1.107   4.394  12.737  0.1870  0.5602 -1.0376
 3947SOL     OW23473   2.084   4.460   6.361  0.6027  0.1401  0.0792
 3947SOL    HW123474   2.097   4.555   6.352  1.6382 -0.0782 -0.6652
 3947SOL    HW223475   1.995   4.448   6.328  1.5160 -2.5197 -1.3684
 3948SOL     OW23476   3.060   1.838   1.692  0.2678 -0.0507  0.0711
 3948SOL    HW123477   3.098   1.788   1.764  2.0837 -0.0259 -0.8825
 3948SOL    HW223478   3.111   1.794   1.624 -0.0488 -0.6851  0.2420
 3949SOL     OW23479   4.071   0.480   2.616 -0.0363  0.1026  0.2828
 3949SOL    HW123480   4.120   0.410   2.660  2.4794  0.7556 -1.4595
 3949SOL    HW223481   4.138   0.508   2.554 -0.9275  1.6750  0.0302
 3950SOL     OW23482   1.470   1.934  13.903 -0.3396 -0.1955  0.5033
 3950SOL    HW123483   1.513   2.017  13.881  0.8454 -1.2743 -1.2922
 3950SOL    HW223484   1.472   1.927  13.999  1.2190 -0.8330  0.4287
 3951SOL     OW23485   2.992   4.287   6.264  0.0353 -0.2483 -0.3641
 3951SOL    HW123486   3.010   4.197   6.240  1.8328 -0.5022  1.8416
 3951SOL    HW223487   2.912   4.314   6.219 -0.9469  1.1596  2.2043
 3952SOL     OW23488   3.085   2.147   0.901 -0.0328  0.2455 -0.1825
 3952SOL    HW123489   3.128   2.171   0.983 -0.4448 -0.7234  0.3272
 3952SOL    HW223490   3.102   2.053   0.910  0.2560  0.2855 -0.3011
 3953SOL     OW23491   3.731   0.069  16.491 -0.5798  0.0911 -0.0831
 3953SOL    HW123492   3.746   0.051  16.584  0.0876 -0.6392 -0.3389
 3953SOL    HW223493   3.781   4.729  16.457 -2.2283 -0.5104 -1.1606
 3954SOL     OW23494   3.288   2.866   4.723  0.1184 -0.0773 -0.9947
 3954SOL    HW123495   3.255   2.854   4.812  1.0751 -0.7899 -0.7300
 3954SOL    HW223496   3.380   2.891   4.730  0.2678 -1.6283  2.5158
 3955SOL     OW23497   0.794   1.339  15.895 -0.3767 -0.0385  0.2926
 3955SOL    HW123498   0.757   1.250  15.902  1.5061 -0.7060  1.6562
 3955SOL    HW223499   0.820   1.338  15.803  1.7748 -0.8341  0.9294
 3956SOL     OW23500   2.094   2.643   6.420 -0.0410 -0.4681  0.2860
 3956SOL    HW123501   2.137   2.721   6.454 -1.2187  0.2922  0.0598
 3956SOL    HW223502   2.017   2.630   6.476  0.1429  0.6503  0.7980
 3957SOL     OW23503   3.152   4.386  10.037 -0.4672  0.7842  0.3738
 3957SOL    HW123504   3.186   4.302  10.067 -1.2607 -0.8372 -3.3894
 3957SOL    HW223505   3.233   4.438  10.029  0.3665 -0.4115  1.0554
 3958SOL     OW23506   1.768   2.620   1.873 -0.1372  0.8421 -0.0999
 3958SOL    HW123507   1.706   2.661   1.814  0.6060  0.3816 -1.2174
 3958SOL    HW223508   1.772   2.536   1.826  1.5153 -0.4560  2.3624
 3959SOL     OW23509   1.060   0.340   9.146 -0.0538  0.6725 -0.3562
 3959SOL    HW123510   1.075   0.253   9.110  0.5121  0.8944 -0.6528
 3959SOL    HW223511   1.054   0.390   9.065  0.2541 -0.5114 -1.1076
 3960SOL     OW23512   2.533   3.995   6.222  0.2203 -0.1062 -0.2656
 3960SOL    HW123513   2.620   4.017   6.256  0.8222 -0.7670 -1.3857
 3960SOL    HW223514   2.480   4.049   6.281 -0.1100 -0.7355  0.0245
 3961SOL     OW23515   1.477   4.406   6.251  0.3692  0.5181  0.0187
 3961SOL    HW123516   1.508   4.364   6.171 -0.4220  1.2867 -0.6868
 3961SOL    HW223517   1.501   4.343   6.319 -1.4951  1.5653  1.6547
 3962SOL     OW23518   4.595   0.885  14.680  0.3641 -0.2165 -0.1906
 3962SOL    HW123519   4.557   0.804  14.713 -0.2499 -0.0232 -0.4267
 3962SOL    HW223520   4.638   0.865  14.597 -1.8978  1.2126 -1.7068
 3963SOL     OW23521   4.004   4.050   7.930 -0.1410 -0.0141 -0.1570
 3963SOL    HW123522   3.968   4.137   7.951 -0.1477  0.4699 -2.1550
 3963SOL    HW223523   4.067   4.095   7.874 -0.4515 -2.2323 -2.2404
 3964SOL     OW23524   0.338   1.056   5.391 -0.6372 -0.0801 -0.0606
 3964SOL    HW123525   0.391   0.981   5.363 -0.1559 -0.2628  1.3526
 3964SOL    HW223526   0.396   1.100   5.453 -0.0010 -1.8562  0.6172
 3965SOL     OW23527   2.065   0.648   4.164 -0.3904 -0.3306 -0.2646
 3965SOL    HW123528   2.032   0.644   4.075  1.0488 -2.1715 -0.7085
 3965SOL    HW223529   2.156   0.673   4.146 -1.0698  0.6982 -2.2506
 3966SOL     OW23530   3.873   0.720   1.084  0.0056 -0.0010  0.3427
 3966SOL    HW123531   3.792   0.770   1.096 -1.2381 -2.1122  0.7204
 3966SOL    HW223532   3.879   0.728   0.989 -2.1783  0.8316  0.2789
 3967SOL     OW23533   0.196   0.460   8.133 -0.0708 -0.3218 -0.4444
 3967SOL    HW123534   0.279   0.476   8.177  0.6601 -0.7931 -1.6414
 3967SOL    HW223535   0.205   0.515   8.055 -1.3313  0.8317  0.2360
 3968SOL     OW23536   1.834   2.267  16.281 -0.3341 -0.3992 -0.6973
 3968SOL    HW123537   1.868   2.343  16.328  3.3539 -0.8172 -2.6389
 3968SOL    HW223538   1.890   2.258  16.204 -0.0970  2.8361 -0.9147
 3969SOL     OW23539   2.696   2.017   4.077  0.2368 -0.7550 -0.9951
 3969SOL    HW123540   2.630   1.968   4.127 -0.6583  1.8054  0.3357
 3969SOL    HW223541   2.777   1.993   4.122  0.0927 -0.1652 -0.4107
 3970SOL     OW23542   2.155   2.272  11.071  0.5120 -0.2262 -0.4172
 3970SOL    HW123543   2.154   2.310  10.983 -0.8365 -2.1455 -1.2335
 3970SOL    HW223544   2.103   2.341  11.113  1.2642 -0.1569  0.3841
 3971SOL     OW23545   0.791   3.543   9.440  0.1832  0.1896 -0.1121
 3971SOL    HW123546   0.705   3.536   9.481 -0.5727 -1.3493 -1.9663
 3971SOL    HW223547   0.842   3.571   9.516  0.5915 -0.2260 -0.2279
 3972SOL     OW23548   0.316   0.907   4.066 -0.1481 -0.6974  0.2102
 3972SOL    HW123549   0.368   0.945   4.136  0.8538  0.9381 -1.3978
 3972SOL    HW223550   0.289   0.994   4.034 -1.1158 -0.9089  0.4711
 3973SOL     OW23551   2.593   2.207   1.949  0.2353 -0.7090 -0.2906
 3973SOL    HW123552   2.536   2.137   1.981  1.0715 -1.4937 -0.5230
 3973SOL    HW223553   2.524   2.272   1.933  0.8527  0.1243  0.4149
 3974SOL     OW23554   1.841   4.354  14.384 -0.3091 -0.1733  0.2503
 3974SOL    HW123555   1.760   4.304  14.393 -0.1237 -1.0258 -2.8430
 3974SOL    HW223556   1.854   4.361  14.290  0.3657  1.3076  0.4485
 3975SOL     OW23557   2.694   3.923   5.033 -0.0431 -0.3028 -0.5745
 3975SOL    HW123558   2.680   4.014   5.056  0.2929 -0.4305  0.1611
 3975SOL    HW223559   2.606   3.894   5.057 -0.1201  0.3535 -0.0644
 3976SOL     OW23560   0.226   3.322   8.817 -0.0779 -0.0096  0.4081
 3976SOL    HW123561   0.295   3.371   8.863  0.5965 -0.1026 -0.5071
 3976SOL    HW223562   0.181   3.290   8.895  0.9558  0.1157  1.0583
 3977SOL     OW23563   3.580   0.386   2.057  0.3891  0.1449  0.9805
 3977SOL    HW123564   3.626   0.465   2.085 -2.1442  1.7570  0.4959
 3977SOL    HW223565   3.652   0.347   2.006 -0.2016  2.7655 -1.8511
 3978SOL     OW23566   4.157   3.271   5.736  0.0196  0.4933 -0.3777
 3978SOL    HW123567   4.122   3.212   5.803  1.9524 -1.8490 -1.4494
 3978SOL    HW223568   4.200   3.214   5.673  0.8444  1.4588 -0.6834
 3979SOL     OW23569   3.099   0.786   4.870  0.1781  0.3587  0.1942
 3979SOL    HW123570   3.021   0.729   4.868  0.0170  0.5321  1.5493
 3979SOL    HW223571   3.148   0.732   4.932 -2.0520 -1.9065 -0.0041
 3980SOL     OW23572   2.570   2.418   4.080  0.3950  0.2364 -0.5139
 3980SOL    HW123573   2.665   2.415   4.074  0.4581  3.3562 -1.0133
 3980SOL    HW223574   2.553   2.512   4.088 -1.5633 -0.1832  0.5266
 3981SOL     OW23575   1.655   3.551   2.796  0.7065 -0.1714 -0.2144
 3981SOL    HW123576   1.709   3.615   2.749  0.7626 -0.4784 -0.5677
 3981SOL    HW223577   1.591   3.529   2.728  0.7017 -1.1530  0.1095
 3982SOL     OW23578   4.734   0.942  17.514 -0.7066 -0.0691  0.2725
 3982SOL    HW123579   4.699   0.878  17.577 -0.0809 -2.0913 -1.4419
 3982SOL    HW223580   0.041   0.897  17.441  1.6719  0.1786  1.4533
 3983SOL     OW23581   1.145   3.477   6.138 -0.4458  0.3329 -0.0496
 3983SOL    HW123582   1.106   3.399   6.178 -0.3808  0.7304  0.8000
 3983SOL    HW223583   1.208   3.495   6.208  0.9132 -0.4553 -1.0819
 3984SOL     OW23584   2.344   1.450   5.448  0.7867 -0.2467  0.2644
 3984SOL    HW123585   2.270   1.471   5.506  0.3982  0.0277 -0.3246
 3984SOL    HW223586   2.397   1.528   5.462 -1.0518  1.2288 -0.8695
 3985SOL     OW23587   1.885   3.005  13.110  0.1551  0.1835 -0.0530
 3985SOL    HW123588   1.956   3.037  13.056  0.1013 -1.2416 -0.9560
 3985SOL    HW223589   1.931   2.926  13.136  1.0179  0.4394 -0.8521
 3986SOL     OW23590   2.746   4.113   8.072  0.2035 -0.4845  0.6383
 3986SOL    HW123591   2.773   4.036   8.123  0.3857  0.4179  1.8912
 3986SOL    HW223592   2.781   4.088   7.986  1.4332 -0.3202  1.0985
 3987SOL     OW23593   4.580   2.283  10.797 -0.2088  0.6165  0.5533
 3987SOL    HW123594   4.596   2.263  10.705 -2.2627  1.1766  0.0843
 3987SOL    HW223595   4.666   2.259  10.834 -0.7780 -0.0974  1.4185
 3988SOL     OW23596   2.865   4.675  11.289  0.3386  0.0221 -0.8573
 3988SOL    HW123597   2.814   0.020  11.274  0.2659  0.6813  3.1032
 3988SOL    HW223598   2.802   4.619  11.334  1.9784  1.2651  2.9087
 3989SOL     OW23599   0.263   2.275  11.617  0.7679 -0.6172 -0.0638
 3989SOL    HW123600   0.268   2.180  11.619 -1.7154 -0.7454 -0.1979
 3989SOL    HW223601   0.345   2.296  11.572 -0.0257  0.0513 -1.1854
 3990SOL     OW23602   2.074   2.548   2.692 -0.8814  0.6993 -0.2740
 3990SOL    HW123603   2.026   2.623   2.656 -0.6094  0.6886 -0.6542
 3990SOL    HW223604   2.103   2.508   2.610 -1.9344  1.6477 -1.1157
 3991SOL     OW23605   1.175   2.272   4.146 -0.2933  0.6375 -0.5024
 3991SOL    HW123606   1.229   2.296   4.222 -0.5266 -2.4404  0.6684
 3991SOL    HW223607   1.146   2.184   4.170  1.9618 -0.1225 -0.5663
 3992SOL     OW23608   4.162   1.021   5.657  0.1513 -0.0794  0.1226
 3992SOL    HW123609   4.214   0.948   5.690  0.8991 -0.3975 -1.7416
 3992SOL    HW223610   4.151   1.066   5.741  0.2733  0.0019  0.0949
 3993SOL     OW23611   2.120   3.744   2.025 -0.1967 -0.8416 -0.5852
 3993SOL    HW123612   2.074   3.690   1.960 -1.3961  0.0555 -0.4781
 3993SOL    HW223613   2.167   3.789   1.955  1.6294 -0.5179  0.8552
 3994SOL     OW23614   1.250   4.678   6.067  0.8133 -0.0906  0.3981
 3994SOL    HW123615   1.171   4.624   6.074 -0.8832  2.2219 -0.4669
 3994SOL    HW223616   1.299   4.670   6.148 -0.5461 -1.2706  1.1070
 3995SOL     OW23617   0.893   1.377   8.227 -1.0445  0.3424  0.7053
 3995SOL    HW123618   0.962   1.321   8.193  1.1654  2.1505  2.2576
 3995SOL    HW223619   0.817   1.340   8.181 -0.9981 -0.4016  1.2280
 3996SOL     OW23620   2.223   4.527   9.632 -0.1641 -0.1185  0.1524
 3996SOL    HW123621   2.241   4.620   9.639  0.9423 -0.2850 -0.5007
 3996SOL    HW223622   2.210   4.527   9.537 -0.2699 -0.6919  0.1684
 3997SOL     OW23623   2.341   2.192   4.829  0.2042  0.3822  0.0837
 3997SOL    HW123624   2.265   2.208   4.774  0.1626  0.1700  0.0801
 3997SOL    HW223625   2.325   2.253   4.900  0.3759  0.3231  0.1735
 3998SOL     OW23626   0.239   0.352  15.138  0.1379  0.1544  0.7921
 3998SOL    HW123627   0.231   0.265  15.099 -0.2556  0.2066  0.7513
 3998SOL    HW223628   0.240   0.413  15.063  2.0671 -1.6833 -0.6702
 3999SOL     OW23629   1.790   1.159   5.093 -0.3251 -0.0408  0.1055
 3999SOL    HW123630   1.825   1.179   5.007 -2.0126  0.3268 -0.4968
 3999SOL    HW223631   1.776   1.248   5.128 -0.9626 -0.4901  1.0244
 4000SOL     OW23632   1.513   1.391   7.409  1.0559 -0.1288 -0.0816
 4000SOL    HW123633   1.497   1.445   7.486 -0.6550 -3.6163  2.0091
 4000SOL    HW223634   1.520   1.460   7.343  1.3229  1.0492  1.1809
 4001SOL     OW23635   4.445   0.316   2.087 -0.0254  0.2017 -0.4762
 4001SOL    HW123636   4.382   0.322   2.015  1.3287 -1.1013 -1.7800
 4001SOL    HW223637   4.414   0.231   2.120 -2.1246  1.3187  0.4114
 4002SOL     OW23638   1.394   3.774   2.569  0.4351  0.5466 -0.4679
 4002SOL    HW123639   1.370   3.801   2.480  1.7834  2.3450 -0.2775
 4002SOL    HW223640   1.442   3.692   2.558  0.2925  0.2821  0.9190
 4003SOL     OW23641   4.041   3.180   3.852 -0.1526 -0.1653 -0.3120
 4003SOL    HW123642   3.997   3.095   3.847  2.1272 -1.3713  0.2343
 4003SOL    HW223643   4.132   3.152   3.859  0.1968  1.2145  0.5030
 4004SOL     OW23644   3.232   1.586   7.786  0.2630 -0.3313 -0.4846
 4004SOL    HW123645   3.262   1.655   7.727  0.0649 -0.4688 -0.7446
 4004SOL    HW223646   3.201   1.518   7.727  1.0120 -1.4255  0.3800
 4005SOL     OW23647   0.069   1.794  14.914  0.3714  0.6178  0.7562
 4005SOL    HW123648   0.122   1.718  14.933 -1.0099 -0.2122  1.2823
 4005SOL    HW223649   0.135   1.858  14.888  0.7304 -0.5589 -1.2136
 4006SOL     OW23650   4.071   1.146  17.525 -0.3446  0.1578 -0.5577
 4006SOL    HW123651   4.163   1.170  17.516 -0.3660  0.7587  0.8705
 4006SOL    HW223652   4.039   1.134  17.435  1.2680 -0.0852 -1.1069
 4007SOL     OW23653   2.656   2.393   6.274  0.6169 -0.3768 -0.2480
 4007SOL    HW123654   2.630   2.476   6.232  4.0874  2.0046  2.3524
 4007SOL    HW223655   2.578   2.373   6.326  0.2964 -0.6864 -0.8405
 4008SOL     OW23656   1.960   1.505   6.304 -0.1828  0.4987 -0.2779
 4008SOL    HW123657   1.959   1.522   6.209 -0.0001 -2.1995 -0.7574
 4008SOL    HW223658   1.913   1.422   6.299 -0.4913  0.7104 -0.8683
 4009SOL     OW23659   0.721   0.419   2.661  0.5436 -0.1954 -0.7554
 4009SOL    HW123660   0.762   0.482   2.602  0.4082  0.6959  0.1058
 4009SOL    HW223661   0.783   0.348   2.676  0.0293 -0.4358  0.1923
 4010SOL     OW23662   1.964   1.841   7.979  0.2578  0.0890 -0.7430
 4010SOL    HW123663   1.961   1.819   8.072  0.6870  1.2371 -0.4650
 4010SOL    HW223664   1.898   1.779   7.948 -0.0330  0.4372 -0.8063
 4011SOL     OW23665   3.506   1.273   2.534 -0.0874 -0.0982 -0.6718
 4011SOL    HW123666   3.420   1.315   2.528  0.0030 -0.1860 -2.5377
 4011SOL    HW223667   3.537   1.290   2.445  0.6955  0.0520 -0.3706
 4012SOL     OW23668   3.959   0.674   2.419  0.0210 -0.2550 -0.1405
 4012SOL    HW123669   4.044   0.698   2.380  0.4370 -0.2831  0.7625
 4012SOL    HW223670   3.957   0.586   2.381  3.0158  0.3187 -1.6790
 4013SOL     OW23671   3.021   4.502  12.867  0.3776  0.2136  0.3079
 4013SOL    HW123672   3.107   4.545  12.862  0.3623  0.5197  2.8031
 4013SOL    HW223673   2.981   4.554  12.937  0.0683 -1.1109  1.1236
 4014SOL     OW23674   2.655   2.103   7.647 -0.0506  0.4466 -0.8934
 4014SOL    HW123675   2.617   2.053   7.718 -1.0284 -0.1998 -1.8686
 4014SOL    HW223676   2.737   2.124   7.691  0.1220 -2.2538  0.0343
 4015SOL     OW23677   2.998   0.786   9.091 -0.0030 -0.1918 -0.2351
 4015SOL    HW123678   3.007   0.700   9.132  0.9256  1.7354  3.5266
 4015SOL    HW223679   2.999   0.842   9.168  1.2702  0.7562 -0.9363
 4016SOL     OW23680   3.699   1.925   7.733 -0.6985 -0.6802 -0.1227
 4016SOL    HW123681   3.638   1.954   7.801 -0.5131  1.8604 -1.0298
 4016SOL    HW223682   3.761   1.874   7.784 -1.2733 -0.9087  0.3438
 4017SOL     OW23683   4.419   1.696  11.274  0.1202 -0.3525 -0.2952
 4017SOL    HW123684   4.334   1.676  11.236  0.0177  0.5458 -0.5383
 4017SOL    HW223685   4.400   1.677  11.366  0.7659  0.1407 -0.0605
 4018SOL     OW23686   3.303   2.466   8.238 -0.2546 -0.2914 -0.7738
 4018SOL    HW123687   3.233   2.530   8.246  0.2507  0.2095 -0.3236
 4018SOL    HW223688   3.257   2.393   8.280 -2.2175  1.6694  0.4965
 4019SOL     OW23689   2.442   2.616   4.912 -0.2165  0.5077  0.5018
 4019SOL    HW123690   2.396   2.675   4.852  0.6879  0.3518 -0.3544
 4019SOL    HW223691   2.516   2.677   4.918 -0.9591  1.1761  2.7007
 4020SOL     OW23692   3.567   1.378   4.695 -0.4420 -0.2042  0.5440
 4020SOL    HW123693   3.602   1.290   4.681  0.5427 -0.0037  1.7564
 4020SOL    HW223694   3.480   1.366   4.733 -0.4951 -0.4101  0.3588
 4021SOL     OW23695   2.429   1.692   3.921 -0.1912  0.2099 -0.8345
 4021SOL    HW123696   2.492   1.715   3.852  1.3228 -0.7271  0.2439
 4021SOL    HW223697   2.362   1.759   3.907 -0.2647 -0.4239 -3.7006
 4022SOL     OW23698   4.533   1.852   7.548 -0.5258 -0.2374  0.2618
 4022SOL    HW123699   4.526   1.867   7.642  1.4106 -1.8551  0.6633
 4022SOL    HW223700   4.600   1.784   7.540  0.5006  0.8974 -0.9267
 4023SOL     OW23701   4.381   0.750   4.283  0.2152 -0.1102 -0.1270
 4023SOL    HW123702   4.415   0.837   4.303  2.7976 -1.3085  0.7240
 4023SOL    HW223703   4.329   0.767   4.204  0.5770  2.5731  0.2235
 4024SOL     OW23704   4.198   3.680   0.015  0.0352  0.2107 -0.0177
 4024SOL    HW123705   4.261   3.711  17.685 -0.2431  1.3992  0.2937
 4024SOL    HW223706   4.163   3.598  17.716  1.6549 -0.3933 -0.2324
 4025SOL     OW23707   3.360   0.740  16.693 -0.4657 -0.6013  0.4144
 4025SOL    HW123708   3.370   0.818  16.638 -0.6518 -2.1218 -1.7896
 4025SOL    HW223709   3.450   0.729  16.725  0.0186  1.1007 -0.3215
 4026SOL     OW23710   1.360   1.360   8.788  0.1188  0.4988  0.4294
 4026SOL    HW123711   1.449   1.334   8.809 -0.2212 -2.0485 -1.3784
 4026SOL    HW223712   1.327   1.277   8.755 -1.8088  1.7504 -0.7517
 4027SOL     OW23713   0.398   1.924   6.670  0.2486  0.4059 -0.2115
 4027SOL    HW123714   0.330   1.990   6.686  1.8952  1.8878  0.6952
 4027SOL    HW223715   0.383   1.908   6.577  1.3766  3.2798 -0.8984
 4028SOL     OW23716   1.519   3.988   8.685  0.2392 -0.1911 -0.0164
 4028SOL    HW123717   1.608   3.968   8.654  1.1464  0.6142  2.0978
 4028SOL    HW223718   1.533   3.997   8.779 -0.3025 -0.8743  0.1263
 4029SOL     OW23719   2.451   2.094  11.522 -0.0421  0.5829 -0.3464
 4029SOL    HW123720   2.484   2.142  11.598 -1.4803  0.0729  0.6047
 4029SOL    HW223721   2.383   2.148  11.482  2.5988  2.5463 -2.1073
 4030SOL     OW23722   1.359   0.990   3.056 -0.4667  0.4091 -0.2437
 4030SOL    HW123723   1.289   1.055   3.060 -1.0416 -0.2615  0.7072
 4030SOL    HW223724   1.428   1.046   3.019  1.3516 -1.2748  0.5686
 4031SOL     OW23725   3.899   0.862   2.170  0.0871  0.0044 -0.3132
 4031SOL    HW123726   3.821   0.810   2.188 -2.0097  2.3440 -2.7475
 4031SOL    HW223727   3.867   0.946   2.138  0.1684  0.5800  1.0892
 4032SOL     OW23728   0.081   2.801   1.139  0.3763  0.2479 -0.2843
 4032SOL    HW123729   0.106   2.711   1.160 -2.6848 -0.6602 -0.5811
 4032SOL    HW223730   0.167   2.840   1.127  1.1451 -0.6731  2.1187
 4033SOL     OW23731   4.060   1.194  15.620 -0.6168  0.0752  0.5157
 4033SOL    HW123732   4.117   1.171  15.693  1.5396  0.4532 -1.0485
 4033SOL    HW223733   4.039   1.104  15.595 -0.1837  0.2712 -0.5392
 4034SOL     OW23734   2.020   0.870   6.675  0.5321 -0.0058  0.6372
 4034SOL    HW123735   2.052   0.932   6.739 -1.3793  2.4643 -0.8001
 4034SOL    HW223736   2.073   0.793   6.698  1.2438 -0.1717 -1.4848
 4035SOL     OW23737   0.650   0.734   8.071 -0.6902  0.0752  0.2266
 4035SOL    HW123738   0.673   0.760   7.981 -0.5995 -2.7223 -0.5568
 4035SOL    HW223739   0.723   0.677   8.095 -1.8271 -1.1860  0.6924
 4036SOL     OW23740   0.788   3.343   3.179 -0.0814 -0.7560  0.4331
 4036SOL    HW123741   0.756   3.423   3.221  0.5613 -0.5565  0.5487
 4036SOL    HW223742   0.708   3.312   3.136  0.2617  0.8850 -1.3948
 4037SOL     OW23743   2.351   2.024   1.361  0.8014  0.3234 -0.5076
 4037SOL    HW123744   2.328   2.106   1.404  1.4503 -0.3118  1.0406
 4037SOL    HW223745   2.433   2.046   1.317  1.0752  0.9365  0.3046
 4038SOL     OW23746   2.920   2.645  11.084 -0.2641 -0.3400  0.1403
 4038SOL    HW123747   2.874   2.561  11.082 -2.5079  0.9479 -2.1650
 4038SOL    HW223748   2.904   2.670  11.175  0.4561  2.3626 -0.4789
 4039SOL     OW23749   4.543   4.582   2.398 -0.0741 -0.3037  0.0066
 4039SOL    HW123750   4.490   4.518   2.350 -0.4073 -1.0919  1.4516
 4039SOL    HW223751   4.498   4.665   2.383  2.7211  1.1065 -0.6715
 4040SOL     OW23752   0.497   0.540   4.706 -0.2466 -0.3098  0.4387
 4040SOL    HW123753   0.555   0.464   4.697  0.2642  0.5431 -3.5118
 4040SOL    HW223754   0.422   0.508   4.756 -0.2476 -0.1558  0.5347
 4041SOL     OW23755   0.525   3.890   2.738 -0.1801  0.0995 -0.3648
 4041SOL    HW123756   0.619   3.873   2.730 -0.0265  0.4597  0.7181
 4041SOL    HW223757   0.519   3.963   2.676 -0.8561 -0.2589 -0.7206
 4042SOL     OW23758   2.186   1.023  17.537 -0.9890 -1.2189 -0.4453
 4042SOL    HW123759   2.152   1.107  17.567  2.0868 -0.0045 -0.4086
 4042SOL    HW223760   2.124   0.974  17.591 -1.6423 -0.1997 -0.2760
 4043SOL     OW23761   0.937   1.176   6.100 -0.2697 -0.2169  0.1212
 4043SOL    HW123762   0.979   1.094   6.076 -0.0049  0.2563 -1.0272
 4043SOL    HW223763   0.871   1.143   6.162  0.9207 -0.9587  0.9891
 4044SOL     OW23764   2.256   0.168   3.447  0.4645  0.4748 -0.2195
 4044SOL    HW123765   2.216   0.122   3.373  1.6225 -0.9144  0.0154
 4044SOL    HW223766   2.302   0.095   3.490 -0.1680  2.0613  3.1842
 4045SOL     OW23767   1.709   3.175  10.982 -0.6267  0.1226  0.7021
 4045SOL    HW123768   1.677   3.265  10.979 -0.1083  0.3213  1.0634
 4045SOL    HW223769   1.676   3.138  10.900  2.6481 -2.2557  0.4592
 4046SOL     OW23770   2.961   3.894   4.206  0.2123  0.4768  0.2989
 4046SOL    HW123771   2.908   3.956   4.257 -0.3292 -1.4175  2.0222
 4046SOL    HW223772   2.935   3.917   4.117 -0.0094 -1.1129 -0.0343
 4047SOL     OW23773   3.721   2.189   8.680 -0.2432  0.2720 -0.4264
 4047SOL    HW123774   3.670   2.133   8.621  1.4983 -0.8626 -0.8247
 4047SOL    HW223775   3.678   2.155   8.758  0.0210 -1.6724 -1.1482
 4048SOL     OW23776   3.686   3.662   3.189 -0.2215  0.1302  0.0539
 4048SOL    HW123777   3.599   3.623   3.183 -0.2384  0.0733  0.6565
 4048SOL    HW223778   3.672   3.746   3.146  0.2266  0.3679  0.3701
 4049SOL     OW23779   0.339   3.557   4.315 -0.0802  0.5338  0.3891
 4049SOL    HW123780   0.420   3.595   4.349  0.1984 -0.3572  0.7428
 4049SOL    HW223781   0.311   3.630   4.261 -2.5626 -0.4928  0.2756
 4050SOL     OW23782   1.410   0.590   6.288  0.3171 -0.7762  0.1046
 4050SOL    HW123783   1.433   0.658   6.226  1.9321 -0.8532  0.6127
 4050SOL    HW223784   1.480   0.605   6.352  0.6130  0.3484 -0.5019
 4051SOL     OW23785   2.010   3.360   2.374  0.1121  0.1624 -0.0152
 4051SOL    HW123786   1.944   3.317   2.320  0.6681  0.1630 -0.6944
 4051SOL    HW223787   1.984   3.452   2.366 -1.0354 -0.0592  1.1038
 4052SOL     OW23788   3.739   1.606   6.526  0.6633 -0.3164 -0.1381
 4052SOL    HW123789   3.709   1.688   6.487  0.8024 -0.1470  0.1118
 4052SOL    HW223790   3.671   1.542   6.505 -0.8934  1.7444 -1.4347
 4053SOL     OW23791   1.179   0.057  17.612 -0.1994  0.3377  0.2538
 4053SOL    HW123792   1.248   4.729  17.636 -0.1923  0.0710 -0.4495
 4053SOL    HW223793   1.214   0.131  17.661  3.4385  0.3670 -2.3716
 4054SOL     OW23794   2.787   4.524   2.739 -0.7021 -0.2481 -0.0011
 4054SOL    HW123795   2.799   4.596   2.801 -0.3399 -1.0707  0.8810
 4054SOL    HW223796   2.707   4.555   2.697 -0.0321  1.4008 -0.0741
 4055SOL     OW23797   1.934   2.274   5.186  0.1978  0.3208 -0.3422
 4055SOL    HW123798   1.888   2.198   5.221 -3.4536  2.9016  0.4170
 4055SOL    HW223799   2.026   2.251   5.175  0.6655  1.7770  0.5254
 4056SOL     OW23800   1.116   3.653   3.708 -0.5623  0.1263 -0.5211
 4056SOL    HW123801   1.049   3.682   3.769 -0.2042  0.6336 -0.3753
 4056SOL    HW223802   1.074   3.572   3.677  1.0424 -0.4206 -1.2523
 4057SOL     OW23803   0.687   4.656   5.195  0.3268  0.3469 -0.4041
 4057SOL    HW123804   0.683   4.577   5.249 -3.0148  1.3094  0.7221
 4057SOL    HW223805   0.776   4.648   5.161  0.5191  2.1758 -0.3561
 4058SOL     OW23806   4.301   1.102   3.211  0.4092 -0.5146 -0.2299
 4058SOL    HW123807   4.270   1.182   3.170  1.9445  0.2030 -0.0174
 4058SOL    HW223808   4.255   1.038   3.158 -1.3243  1.0153 -0.5430
 4059SOL     OW23809   0.238   0.701   9.740  0.2880 -0.6024 -0.1560
 4059SOL    HW123810   0.329   0.721   9.763  0.2737 -2.8127  1.7952
 4059SOL    HW223811   0.260   0.619   9.697 -2.2614 -0.6427 -1.4277
 4060SOL     OW23812   1.102   3.056   5.616 -0.0838 -0.3523 -0.1859
 4060SOL    HW123813   1.074   3.035   5.705  0.8615 -1.6337 -0.1918
 4060SOL    HW223814   1.165   3.123   5.639 -1.1032  0.1122  1.2569
 4061SOL     OW23815   4.126   0.997   0.003 -0.0984  0.0561 -0.5873
 4061SOL    HW123816   4.091   1.060  17.676 -0.7707 -0.5399 -0.8167
 4061SOL    HW223817   4.198   0.956  17.689 -0.0721  0.2517 -0.7098
 4062SOL     OW23818   2.846   4.208   5.823  0.0915  0.1319  0.0665
 4062SOL    HW123819   2.824   4.300   5.834 -1.0462 -0.2963  1.4270
 4062SOL    HW223820   2.911   4.189   5.891  0.8930  0.2023 -0.6817
 4063SOL     OW23821   0.846   1.135   2.514 -0.2364 -0.2593  0.1565
 4063SOL    HW123822   0.845   1.154   2.420  1.6206 -1.5972 -0.1373
 4063SOL    HW223823   0.885   1.216   2.546 -1.3667 -0.2366  1.4304
 4064SOL     OW23824   1.561   4.439   5.526 -0.1776  0.9149 -0.4629
 4064SOL    HW123825   1.553   4.514   5.585 -0.0819  0.9955 -0.5516
 4064SOL    HW223826   1.474   4.402   5.513 -0.0876  1.1706 -1.7853
 4065SOL     OW23827   2.293   2.694   2.690 -0.3597  0.3290  0.4518
 4065SOL    HW123828   2.225   2.626   2.698  0.0455 -0.4385 -2.7385
 4065SOL    HW223829   2.369   2.636   2.702 -0.3529  0.0213 -1.0392
 4066SOL     OW23830   0.771   4.666   6.600  0.1957 -0.1264  0.2840
 4066SOL    HW123831   0.816   4.724   6.538  0.2273 -1.0475 -0.5480
 4066SOL    HW223832   0.752   4.722   6.676  1.1759 -1.4107  1.4751
 4067SOL     OW23833   1.774   1.858   5.634 -0.8473  0.3762  0.0177
 4067SOL    HW123834   1.856   1.908   5.640 -0.7350  0.0004  1.6964
 4067SOL    HW223835   1.750   1.853   5.727  1.4299 -1.8350  0.4801
 4068SOL     OW23836   3.025   4.596   4.666  0.2496 -0.0542  0.2156
 4068SOL    HW123837   3.018   4.502   4.677  2.0645 -0.0507  1.4118
 4068SOL    HW223838   2.970   4.632   4.736  1.4830  0.1638  1.0649
 4069SOL     OW23839   2.038   2.496   4.274 -0.1788 -0.1822 -0.3128
 4069SOL    HW123840   2.059   2.584   4.245  0.6535 -0.8920 -1.9176
 4069SOL    HW223841   2.118   2.450   4.250  2.4163  2.8156  2.6414
 4070SOL     OW23842   0.550   2.838  17.421 -0.2604 -0.0906  0.0863
 4070SOL    HW123843   0.533   2.850  17.328  1.1051  2.3954  0.1499
 4070SOL    HW223844   0.645   2.833  17.427 -0.4708 -1.2703  2.7177
 4071SOL     OW23845   1.821   0.196   9.319 -0.2603  0.0133 -0.5805
 4071SOL    HW123846   1.727   0.193   9.338 -0.2495  4.5733  0.1336
 4071SOL    HW223847   1.843   0.105   9.301 -0.3109  0.1113 -1.1284
 4072SOL     OW23848   4.381   1.092   0.594  0.2421 -0.5385  0.0328
 4072SOL    HW123849   4.445   1.139   0.646  1.8409 -0.3570 -2.0882
 4072SOL    HW223850   4.370   1.026   0.662  1.7537 -0.9040 -0.0710
 4073SOL     OW23851   1.652   2.625   3.826 -0.0248  0.4862  0.6956
 4073SOL    HW123852   1.605   2.707   3.812 -2.9544 -0.5637  4.3406
 4073SOL    HW223853   1.745   2.643   3.840  0.4292 -0.1445 -1.6114
 4074SOL     OW23854   2.199   4.723   3.227  0.3776 -0.2278  0.0465
 4074SOL    HW123855   2.234   4.646   3.183  1.3313 -0.2876  0.9256
 4074SOL    HW223856   2.269   0.053   3.216  0.9167 -1.1909 -2.1687
 4075SOL     OW23857   3.321   1.714  15.787 -0.2201 -0.2043  0.4843
 4075SOL    HW123858   3.299   1.709  15.694  1.1067  1.7433  0.0739
 4075SOL    HW223859   3.415   1.697  15.783  0.2356  2.4807  0.0932
 4076SOL     OW23860   2.145   3.613   7.263 -0.4452 -0.0580 -0.5090
 4076SOL    HW123861   2.167   3.705   7.276 -0.7524 -0.1818  0.8278
 4076SOL    HW223862   2.174   3.599   7.172 -0.0201  0.7681 -0.5015
 4077SOL     OW23863   0.211   3.826   7.494 -0.4792  0.1281 -1.1556
 4077SOL    HW123864   0.214   3.849   7.586 -0.2378  0.7204 -1.3141
 4077SOL    HW223865   0.280   3.883   7.460 -0.3931  0.7411  0.0614
 4078SOL     OW23866   4.049   0.016   0.916  0.6263 -0.1708  0.2876
 4078SOL    HW123867   4.041   0.081   0.846  0.9944  1.3182  1.6174
 4078SOL    HW223868   3.957   0.017   0.944 -0.1306  1.2720 -2.2411
 4079SOL     OW23869   4.308   2.845  13.071  0.4532  0.2888 -0.0918
 4079SOL    HW123870   4.374   2.828  13.004  1.0381  0.7875  0.3629
 4079SOL    HW223871   4.298   2.940  13.070  0.8633  0.3526  2.1156
 4080SOL     OW23872   0.736   2.926   5.607  0.0191  0.3256  0.6381
 4080SOL    HW123873   0.658   2.971   5.575  0.8621  2.2110  1.2808
 4080SOL    HW223874   0.701   2.865   5.672  0.5146  0.8765  1.4196
 4081SOL     OW23875   0.735   2.386   2.827  0.4862  0.4353 -0.0738
 4081SOL    HW123876   0.809   2.437   2.794  2.1634 -0.4236  2.3335
 4081SOL    HW223877   0.772   2.367   2.914 -1.7151 -0.0378  0.7669
 4082SOL     OW23878   0.874   3.173   3.859 -0.3575 -0.0352  0.2252
 4082SOL    HW123879   0.801   3.231   3.880 -0.1666 -0.2844  1.5459
 4082SOL    HW223880   0.939   3.194   3.926  0.6283 -1.0508 -0.3965
 4083SOL     OW23881   0.811   3.951   8.513  0.1658 -0.2239 -0.5620
 4083SOL    HW123882   0.881   3.903   8.557 -0.1617 -1.3698 -1.2839
 4083SOL    HW223883   0.785   4.005   8.587 -4.9538 -3.4631 -0.0367
 4084SOL     OW23884   3.790   0.248  16.290  0.3655 -0.4499  0.3124
 4084SOL    HW123885   3.866   0.195  16.265  0.9473  1.2475 -1.5195
 4084SOL    HW223886   3.751   0.194  16.359 -3.2821 -1.3241 -2.4344
 4085SOL     OW23887   0.092   1.704   4.730  0.2464  0.6358 -0.1135
 4085SOL    HW123888   0.007   1.692   4.771 -0.7585  0.2332 -2.3339
 4085SOL    HW223889   0.081   1.694   4.636  0.7267 -1.2936  0.0335
 4086SOL     OW23890   4.564   0.685   1.641  0.1226 -0.7759 -0.6839
 4086SOL    HW123891   4.608   0.602   1.624  1.3880  0.2202 -2.2590
 4086SOL    HW223892   4.511   0.660   1.717 -0.4875  0.4171 -0.7129
 4087SOL     OW23893   2.861   4.373  11.629 -0.1063 -0.7547  0.5081
 4087SOL    HW123894   2.885   4.376  11.721  3.2786  0.6921 -0.4133
 4087SOL    HW223895   2.912   4.448  11.599 -1.5352  0.7313  1.7788
 4088SOL     OW23896   1.512   2.324   2.747 -0.1705  0.4568 -0.1198
 4088SOL    HW123897   1.502   2.228   2.747  0.5197  0.3661 -2.1073
 4088SOL    HW223898   1.606   2.343   2.743 -0.2263  0.9614  1.0433
 4089SOL     OW23899   4.514   1.703   4.955 -0.6788 -0.3412  0.9195
 4089SOL    HW123900   4.483   1.664   5.037 -3.1778 -0.0981  0.0968
 4089SOL    HW223901   4.429   1.709   4.911  1.2802  2.9197 -2.3840
 4090SOL     OW23902   3.436   3.111   7.660  0.6235  0.1723  0.2502
 4090SOL    HW123903   3.462   3.192   7.703 -0.1428  0.8873 -0.6572
 4090SOL    HW223904   3.422   3.062   7.741  3.4211 -1.4644 -0.2368
 4091SOL     OW23905   1.720   4.458   8.967 -0.2098  0.9114  0.7332
 4091SOL    HW123906   1.650   4.520   8.947 -0.6590  0.3553  0.5687
 4091SOL    HW223907   1.795   4.491   8.917 -0.8189 -0.3326 -1.0149
 4092SOL     OW23908   2.851   2.512   4.451 -0.6062  0.0949 -0.1165
 4092SOL    HW123909   2.884   2.501   4.362  1.1164  0.7408  0.4367
 4092SOL    HW223910   2.880   2.433   4.496 -1.4084 -0.3107 -0.3123
 4093SOL     OW23911   2.696   0.303   3.155  0.4345 -0.3992 -0.4432
 4093SOL    HW123912   2.739   0.236   3.209 -0.7027 -0.4645  0.3780
 4093SOL    HW223913   2.656   0.252   3.085 -0.4145  0.1750 -0.3696
 4094SOL     OW23914   4.003   2.322   5.600 -0.1153  0.1578  0.5741
 4094SOL    HW123915   3.954   2.243   5.577 -1.6346  1.2575  0.0674
 4094SOL    HW223916   3.976   2.331   5.691 -0.8379  2.5341  0.1182
 4095SOL     OW23917   3.113   4.705  11.369  0.4015 -0.0844 -1.0143
 4095SOL    HW123918   3.025   4.688  11.335  0.0490 -1.8143  0.7877
 4095SOL    HW223919   3.126   0.065  11.355  1.3716 -0.2772 -1.3694
 4096SOL     OW23920   0.791   2.954   8.547 -0.3391 -0.2492 -0.1177
 4096SOL    HW123921   0.851   2.997   8.607 -1.8599  0.5744  0.8090
 4096SOL    HW223922   0.727   3.021   8.526 -0.9587 -0.8174 -0.0358
 4097SOL     OW23923   2.107   1.073  12.646 -0.0682 -0.1254 -0.1072
 4097SOL    HW123924   2.183   1.016  12.654 -0.1800 -0.0816  1.2884
 4097SOL    HW223925   2.103   1.098  12.554 -0.5841  0.7207  0.1446
 4098SOL     OW23926   0.302   1.202  12.119 -0.3273  0.2012 -0.0539
 4098SOL    HW123927   0.320   1.111  12.094  1.6607  1.1856 -2.2005
 4098SOL    HW223928   0.251   1.191  12.199  0.6331 -0.0858  0.5247
 4099SOL     OW23929   4.675   3.539   8.648  0.0739  0.0653  0.5432
 4099SOL    HW123930   4.695   3.566   8.738  0.4008 -0.9408  0.7735
 4099SOL    HW223931   4.619   3.463   8.664  1.3958 -1.3806 -1.7833
 4100SOL     OW23932   1.890   3.416   5.593  0.1674 -0.2963  0.0108
 4100SOL    HW123933   1.941   3.416   5.513  1.7704 -2.9180  1.0480
 4100SOL    HW223934   1.832   3.343   5.572  2.2159 -1.3078 -2.0333
 4101SOL     OW23935   4.213   4.712   8.854 -0.4150 -0.3069 -0.3043
 4101SOL    HW123936   4.131   0.015   8.885  0.5233  1.4662  0.0860
 4101SOL    HW223937   4.187   4.621   8.845 -1.6579  0.2630 -2.2280
 4102SOL     OW23938   0.989   1.845   2.091 -0.0488 -0.0533 -0.3702
 4102SOL    HW123939   1.055   1.881   2.031 -0.5299  3.2780  1.1008
 4102SOL    HW223940   0.966   1.923   2.142  0.2983  0.2685 -0.7062
 4103SOL     OW23941   4.571   4.331   1.185 -0.2351  0.0170 -0.4750
 4103SOL    HW123942   4.603   4.277   1.113  1.0453  0.3212 -0.1390
 4103SOL    HW223943   4.497   4.381   1.150 -2.5867 -2.6601  0.7079
 4104SOL     OW23944   3.006   0.143   6.742  0.3335 -0.6616 -0.3139
 4104SOL    HW123945   3.085   0.096   6.714  0.3373 -0.0292 -1.3889
 4104SOL    HW223946   2.953   0.134   6.662  0.7371 -0.7115 -0.5766
 4105SOL     OW23947   2.364   0.104   5.206 -0.0665  0.0780  0.3628
 4105SOL    HW123948   2.300   0.039   5.234  2.1692 -2.6535 -0.8732
 4105SOL    HW223949   2.382   0.066   5.120 -0.4538  1.0991 -0.1762
 4106SOL     OW23950   2.705   2.797   8.390  0.2779  0.6439 -0.1960
 4106SOL    HW123951   2.655   2.718   8.367  0.8395  0.3882 -0.5203
 4106SOL    HW223952   2.692   2.822   8.482  2.5018 -0.3000  0.3762
 4107SOL     OW23953   4.038   0.211  14.223 -0.4144  0.3349 -0.6287
 4107SOL    HW123954   4.099   0.213  14.297  0.6032  1.1261 -1.4835
 4107SOL    HW223955   3.973   0.277  14.246  0.0994  0.6145  0.0386
 4108SOL     OW23956   2.999   0.480   3.949  0.1753 -0.0465 -0.1052
 4108SOL    HW123957   2.976   0.400   3.903 -0.1459 -1.2715  2.2152
 4108SOL    HW223958   3.070   0.437   3.996  0.2590 -0.6501 -0.7821
 4109SOL     OW23959   3.278   0.555  10.719  0.3860 -0.0955 -0.6890
 4109SOL    HW123960   3.314   0.643  10.721  0.4416 -0.1636  1.5655
 4109SOL    HW223961   3.355   0.521  10.766  0.7080 -0.0459 -1.1826
 4110SOL     OW23962   3.777   2.242   1.132 -0.0735  0.5371 -0.6659
 4110SOL    HW123963   3.753   2.174   1.069  1.8566 -1.2941  0.5770
 4110SOL    HW223964   3.861   2.272   1.099  0.1432 -1.7954 -2.1821
 4111SOL     OW23965   1.068   2.816   5.322  0.4055  0.3372 -0.5262
 4111SOL    HW123966   1.130   2.743   5.317 -0.5271 -0.5760  1.0899
 4111SOL    HW223967   1.005   2.781   5.385  2.0585 -1.7896 -0.0537
 4112SOL     OW23968   1.011   3.695   3.343 -0.1923  0.0567  0.0491
 4112SOL    HW123969   0.918   3.699   3.323 -0.0949 -0.0744 -0.4307
 4112SOL    HW223970   1.050   3.658   3.263  0.0941  1.5074 -0.4762
 4113SOL     OW23971   1.851   0.381  10.710  0.7243 -0.0764 -0.3243
 4113SOL    HW123972   1.780   0.385  10.645  1.4441 -2.1357 -1.2591
 4113SOL    HW223973   1.802   0.322  10.767  1.3622 -0.2235  0.0682
 4114SOL     OW23974   1.184   2.667   3.172 -0.8547 -0.2051 -0.9059
 4114SOL    HW123975   1.125   2.712   3.232 -0.6741 -1.7852  0.4685
 4114SOL    HW223976   1.267   2.689   3.213 -1.2580  1.3199 -0.9140
 4115SOL     OW23977   4.355   3.835   2.346 -0.2260  0.7303 -0.0447
 4115SOL    HW123978   4.428   3.790   2.303 -1.8816  0.5266 -2.6593
 4115SOL    HW223979   4.302   3.825   2.266  0.5850  0.1232 -0.5107
 4116SOL     OW23980   1.346   3.276   2.618 -0.1547 -0.0044 -0.3175
 4116SOL    HW123981   1.427   3.284   2.669 -0.5568  0.0154  0.3285
 4116SOL    HW223982   1.306   3.201   2.663  1.8893 -0.1729  1.2170
 4117SOL     OW23983   0.975   2.568  14.115  0.2646  0.3829 -0.2043
 4117SOL    HW123984   0.899   2.588  14.060  0.3545  0.3590 -0.3368
 4117SOL    HW223985   0.974   2.472  14.123  0.4920  0.3597 -0.4621
 4118SOL     OW23986   1.464   2.015   5.656  0.3196 -0.0196 -0.2126
 4118SOL    HW123987   1.379   2.059   5.647 -0.2092 -0.5877  2.0520
 4118SOL    HW223988   1.464   1.985   5.747 -1.2333 -0.2946 -0.3055
 4119SOL     OW23989   3.238   0.945   4.648  1.0219  0.0528  0.2054
 4119SOL    HW123990   3.169   0.905   4.701  0.9620 -2.5012 -1.7924
 4119SOL    HW223991   3.197   1.028   4.624 -0.0379 -0.3008  0.7498
 4120SOL     OW23992   3.937   1.060   3.317  0.1124 -0.2472  0.3388
 4120SOL    HW123993   3.917   1.123   3.248 -2.0067 -0.0960  1.1084
 4120SOL    HW223994   3.991   0.995   3.272  0.4638 -0.1615  0.6370
 4121SOL     OW23995   4.463   2.435  10.188  0.2693  0.0090 -0.7778
 4121SOL    HW123996   4.402   2.462  10.256  1.6852 -0.9101  0.8364
 4121SOL    HW223997   4.547   2.436  10.233 -0.7888 -0.7750  1.1914
 4122SOL     OW23998   0.811   0.253   9.782  0.0540 -0.6074 -0.1395
 4122SOL    HW123999   0.790   0.185   9.847  0.4219 -0.9347 -0.3602
 4122SOL    HW224000   0.897   0.283   9.812 -0.7726  0.7072  0.8825
 4123SOL     OW24001   0.761   0.093   6.809 -0.0157  0.2365  0.3137
 4123SOL    HW124002   0.850   0.072   6.836  0.1339  0.5316  0.0571
 4123SOL    HW224003   0.722   0.050   6.884  1.5648 -0.4016  0.7756
 4124SOL     OW24004   1.516   4.417   2.423  0.2996 -0.8946  0.3170
 4124SOL    HW124005   1.542   4.402   2.333 -0.9745  1.7991 -0.4940
 4124SOL    HW224006   1.426   4.385   2.421 -0.0332 -0.0374  1.4784
 4125SOL     OW24007   3.628   4.098   9.805  0.2241  0.0394 -0.6381
 4125SOL    HW124008   3.550   4.064   9.763  1.0056 -3.1753  0.5168
 4125SOL    HW224009   3.699   4.071   9.747 -0.2799  1.0871 -1.7292
 4126SOL     OW24010   2.455   2.044   4.546 -0.1653  0.5240 -0.7190
 4126SOL    HW124011   2.378   2.028   4.491 -0.9531  1.6765  0.0383
 4126SOL    HW224012   2.463   2.137   4.523  2.9227  0.5002  0.2158
 4127SOL     OW24013   3.787   4.097  12.095  0.3187  0.5505  0.0713
 4127SOL    HW124014   3.715   4.035  12.105  0.6283  0.2561  0.4988
 4127SOL    HW224015   3.749   4.182  12.075  0.6724  0.3118 -1.6111
 4128SOL     OW24016   3.213   0.288   1.964 -0.1244  0.5825  0.0437
 4128SOL    HW124017   3.148   0.356   1.981  0.3523  1.2429 -0.8162
 4128SOL    HW224018   3.250   0.308   1.878 -1.4126 -0.0974 -0.6696
 4129SOL     OW24019   4.501   2.010   8.988 -0.1359  0.3040 -0.0899
 4129SOL    HW124020   4.533   1.951   8.919 -0.6770  2.0161 -1.8062
 4129SOL    HW224021   4.574   2.002   9.050 -1.3199 -0.2722  1.2169
 4130SOL     OW24022   0.703   4.120   5.685 -0.6167  0.4824 -0.1496
 4130SOL    HW124023   0.684   4.037   5.640 -0.9360 -0.4078  1.5970
 4130SOL    HW224024   0.798   4.111   5.689 -0.7594 -0.0472  2.1206
 4131SOL     OW24025   4.671   3.631  17.281 -0.1454 -0.3523  0.2436
 4131SOL    HW124026   4.687   3.725  17.282  1.7215 -0.6937  1.4597
 4131SOL    HW224027   4.590   3.632  17.229  0.1788 -2.5032 -0.3149
 4132SOL     OW24028   3.691   0.077   6.143  0.1868 -0.1457 -0.2100
 4132SOL    HW124029   3.786   0.073   6.138  0.2766  0.7016  0.8503
 4132SOL    HW224030   3.673   0.155   6.196  0.2112 -0.7450  0.6764
 4133SOL     OW24031   3.904   1.596   7.609 -0.2065  0.1520 -0.4420
 4133SOL    HW124032   3.863   1.531   7.666  1.2082  0.7940  1.3076
 4133SOL    HW224033   3.962   1.537   7.561 -2.3920 -0.7482 -1.9605
 4134SOL     OW24034   4.015   0.316   8.711  0.0382 -0.3567  0.2983
 4134SOL    HW124035   3.965   0.234   8.716  1.8963 -1.5198 -0.1576
 4134SOL    HW224036   3.971   0.366   8.642  2.1025 -0.4906 -1.1274
 4135SOL     OW24037   3.929   4.161  13.026 -0.7072 -0.1536  0.1296
 4135SOL    HW124038   3.935   4.100  12.952  0.3231 -0.8685  0.7915
 4135SOL    HW224039   3.848   4.206  13.002 -0.2784  0.1140 -0.7888
 4136SOL     OW24040   0.433   1.569   8.528 -0.9327 -0.3418 -0.3196
 4136SOL    HW124041   0.518   1.589   8.568 -0.7186 -2.1988  0.1465
 4136SOL    HW224042   0.445   1.622   8.449  2.2825 -1.8467 -0.8449
 4137SOL     OW24043   3.683   4.615   3.537  0.0933 -0.2408  0.2797
 4137SOL    HW124044   3.722   4.580   3.616  1.2279  1.5928  0.5437
 4137SOL    HW224045   3.593   4.628   3.565  0.3709 -0.9613  1.4462
 4138SOL     OW24046   2.588   1.540  15.768 -0.5265 -0.0077 -0.6722
 4138SOL    HW124047   2.512   1.506  15.720 -0.5500 -2.6507  1.2506
 4138SOL    HW224048   2.553   1.523  15.855 -0.1903  0.0459 -0.5257
 4139SOL     OW24049   2.292   1.765   2.863  0.1843 -0.8877  0.0101
 4139SOL    HW124050   2.248   1.829   2.807 -1.1532  0.3308  2.4920
 4139SOL    HW224051   2.232   1.691   2.861 -0.7876 -0.0646 -2.2066
 4140SOL     OW24052   3.721   0.284   5.458 -0.1732  0.2848  0.3109
 4140SOL    HW124053   3.749   0.320   5.374  1.0601  0.3846  0.7677
 4140SOL    HW224054   3.673   0.205   5.432  0.1215  0.0017  0.6287
 4141SOL     OW24055   1.445   2.497  17.077  0.2638 -0.5560 -0.2122
 4141SOL    HW124056   1.443   2.401  17.077  2.6374 -0.5979  0.1020
 4141SOL    HW224057   1.352   2.517  17.082  0.6884  1.0752  1.0589
 4142SOL     OW24058   0.464   2.080   0.262  0.4145 -0.2687 -0.4019
 4142SOL    HW124059   0.517   2.044   0.191 -0.0522 -0.9060 -0.4284
 4142SOL    HW224060   0.452   2.171   0.235 -2.7072 -0.2589  0.9865
 4143SOL     OW24061   1.963   0.065   5.261  0.5616  0.1536  0.0848
 4143SOL    HW124062   1.988   0.093   5.173 -1.1398  0.5660 -0.2799
 4143SOL    HW224063   1.907   4.725   5.240 -1.9050  2.4035 -1.3247
 4144SOL     OW24064   2.266   1.187   3.150 -0.0828 -0.0080  0.1628
 4144SOL    HW124065   2.245   1.124   3.080  0.1158 -1.0348  1.0317
 4144SOL    HW224066   2.361   1.186   3.156 -0.1125 -0.0081  0.6339
 4145SOL     OW24067   0.842   3.827  15.714  0.5261  0.4705 -0.0054
 4145SOL    HW124068   0.917   3.868  15.757  1.4293  0.0518 -1.2033
 4145SOL    HW224069   0.865   3.807  15.624 -0.8808  1.8536 -0.6655
 4146SOL     OW24070   4.490   2.364   8.817 -0.3258 -0.3523 -0.4309
 4146SOL    HW124071   4.455   2.300   8.879 -1.6577 -1.4904 -2.3426
 4146SOL    HW224072   4.583   2.344   8.820 -0.5195 -1.9083 -4.0286
 4147SOL     OW24073   0.547   0.179   4.345 -0.1844  0.2672 -0.5082
 4147SOL    HW124074   0.599   0.115   4.297  1.6965  1.6866 -0.3560
 4147SOL    HW224075   0.524   0.128   4.423 -1.4161 -0.5893 -1.4203
 4148SOL     OW24076   4.371   2.749  16.949 -0.1399 -0.1148 -0.2851
 4148SOL    HW124077   4.396   2.735  16.858 -1.4643  0.9142 -0.8124
 4148SOL    HW224078   4.456   2.758  16.991  0.0848  0.2615 -0.8101
 4149SOL     OW24079   1.003   1.362   2.614 -0.6511  0.5699  0.6261
 4149SOL    HW124080   1.037   1.445   2.582 -0.6712 -0.4275 -1.9312
 4149SOL    HW224081   1.068   1.336   2.680  1.6396  1.0976 -1.4142
 4150SOL     OW24082   2.860   2.745  11.322  0.2112 -0.6035 -0.5328
 4150SOL    HW124083   2.859   2.781  11.411 -1.5413 -0.3737 -0.6385
 4150SOL    HW224084   2.907   2.816  11.279 -1.0752 -0.0198 -0.9652
 4151SOL     OW24085   4.283   0.648   5.920 -0.2161 -0.4675  0.0251
 4151SOL    HW124086   4.358   0.629   5.864 -0.3745  1.6499 -0.9085
 4151SOL    HW224087   4.310   0.640   6.011 -2.0159  1.6244  0.7334
 4152SOL     OW24088   1.083   1.042   7.040  0.3616 -0.1471 -0.0757
 4152SOL    HW124089   1.153   1.086   7.089 -0.4040  0.4985  0.4588
 4152SOL    HW224090   1.136   1.023   6.963  0.8759  1.2756 -0.0751
 4153SOL     OW24091   0.416   0.957   4.636 -0.0073  0.1721  0.6023
 4153SOL    HW124092   0.495   0.999   4.671 -0.2885 -0.5899  2.1552
 4153SOL    HW224093   0.460   0.884   4.593 -3.0455 -0.8383 -0.7355
 4154SOL     OW24094   4.613   3.432   8.000  0.1736  0.0270  0.6364
 4154SOL    HW124095   4.700   3.404   7.970 -0.0201  0.3002 -0.1915
 4154SOL    HW224096   4.635   3.454   8.090 -0.0448  0.7722  0.5093
 4155SOL     OW24097   0.462   3.780   5.698 -0.1990  0.2363  0.5271
 4155SOL    HW124098   0.516   3.770   5.777  0.2555  1.3015  0.3596
 4155SOL    HW224099   0.521   3.796   5.625  0.6572 -0.7872  1.0000
 4156SOL     OW24100   4.125   1.065  10.675 -0.3535  0.3985  0.6678
 4156SOL    HW124101   4.093   1.012  10.602  1.4301  2.0546 -1.3149
 4156SOL    HW224102   4.146   0.994  10.735  1.1828 -0.1507 -0.5263
 4157SOL     OW24103   3.273   3.958   4.601  0.2230  0.0258 -0.2103
 4157SOL    HW124104   3.294   3.967   4.694  2.6520  0.2397 -0.7756
 4157SOL    HW224105   3.184   3.991   4.596  0.8991  2.1806  2.0683
 4158SOL     OW24106   3.058   0.491   2.612 -0.0573  0.5370 -0.1895
 4158SOL    HW124107   3.096   0.426   2.554  0.4031 -0.0684  0.7770
 4158SOL    HW224108   3.029   0.551   2.544 -0.6036  1.4033  0.7981
 4159SOL     OW24109   3.071   0.310   7.878 -0.5034 -0.0166 -0.0106
 4159SOL    HW124110   3.113   0.380   7.929  2.2645 -2.0769  0.5185
 4159SOL    HW224111   3.125   0.235   7.903  0.1377  0.8962  1.3690
 4160SOL     OW24112   4.592   0.039  14.764  0.5009 -0.2731  0.3148
 4160SOL    HW124113   4.679   4.734  14.767  0.1088 -1.2725 -1.2658
 4160SOL    HW224114   4.552   0.030  14.850  0.0958 -0.4253  0.1106
 4161SOL     OW24115   4.421   2.434   9.544 -0.5263  0.0526 -0.2539
 4161SOL    HW124116   4.464   2.500   9.489 -1.3772 -1.0743 -2.2795
 4161SOL    HW224117   4.463   2.360   9.500  0.7280  0.1280  0.7902
 4162SOL     OW24118   1.993   4.006   2.790 -0.0835  0.8564  0.6762
 4162SOL    HW124119   1.952   4.054   2.718  0.5915  0.0083 -0.2946
 4162SOL    HW224120   1.930   3.937   2.808  0.6842  0.1714  0.7650
 4163SOL     OW24121   2.844   3.682   2.772 -0.1276 -0.3197  0.2562
 4163SOL    HW124122   2.915   3.647   2.719 -1.9647  0.2181 -2.5100
 4163SOL    HW224123   2.814   3.755   2.719  0.0479 -1.7775 -1.8283
 4164SOL     OW24124   1.534   1.842   2.610  0.1281 -0.2837 -0.1838
 4164SOL    HW124125   1.565   1.795   2.532  2.4680  1.6855 -0.4653
 4164SOL    HW224126   1.454   1.794   2.629  1.1017 -1.2267  1.4862
 4165SOL     OW24127   3.453   4.215   2.643  0.4051 -0.5478 -0.3194
 4165SOL    HW124128   3.359   4.206   2.634  0.1930 -0.8391  2.2786
 4165SOL    HW224129   3.493   4.193   2.559  1.0743 -1.1566  0.1613
 4166SOL     OW24130   3.517   3.644   2.771 -0.0391  0.6669 -0.2110
 4166SOL    HW124131   3.604   3.681   2.760  0.5022 -0.4363  0.3985
 4166SOL    HW224132   3.518   3.556   2.734 -1.5806  0.1350  1.0020
 4167SOL     OW24133   3.117   0.888   4.079 -0.0292  0.5899  0.3249
 4167SOL    HW124134   3.041   0.891   4.137  0.3105 -3.0048  0.9777
 4167SOL    HW224135   3.187   0.870   4.142 -0.7514  0.0731  0.9812
 4168SOL     OW24136   2.361   2.669  12.494 -0.3896 -0.3416  0.5524
 4168SOL    HW124137   2.368   2.580  12.459  1.8965  0.0276  0.0733
 4168SOL    HW224138   2.406   2.716  12.424  0.4751  1.6950  2.4899
 4169SOL     OW24139   2.339   2.109   0.084 -0.4596  0.0060 -0.6881
 4169SOL    HW124140   2.377   2.134   0.000 -0.8522  1.7711 -0.3237
 4169SOL    HW224141   2.366   2.183   0.138 -0.2597  1.2776 -2.5368
 4170SOL     OW24142   1.080   3.211   5.872 -0.4716 -0.0347 -0.3268
 4170SOL    HW124143   0.996   3.201   5.917 -0.8035 -0.4310 -1.0332
 4170SOL    HW224144   1.144   3.193   5.942 -2.1980 -2.6897  0.5772
 4171SOL     OW24145   3.937   2.673   7.778 -0.0952  0.3611  0.3364
 4171SOL    HW124146   3.960   2.765   7.788  0.8082  0.4133 -2.4256
 4171SOL    HW224147   3.926   2.652   7.871  1.8505 -0.0642  0.4607
 4172SOL     OW24148   2.864   3.883  15.593  0.0527 -0.0844 -0.1813
 4172SOL    HW124149   2.835   3.947  15.527 -1.3982 -0.4261  0.1341
 4172SOL    HW224150   2.783   3.833  15.600  0.4700 -0.6609  0.5120
 4173SOL     OW24151   3.542   3.431   3.555 -0.0282  0.4425 -0.6034
 4173SOL    HW124152   3.502   3.345   3.544  0.4289  0.0249  0.9954
 4173SOL    HW224153   3.633   3.408   3.576 -0.8709  0.0764  2.6364
 4174SOL     OW24154   3.159   4.504   2.532 -0.0527  0.0340  0.6958
 4174SOL    HW124155   3.101   4.512   2.608  0.3422 -2.0623  1.2166
 4174SOL    HW224156   3.235   4.560   2.548 -0.6019  1.6787 -2.4106
 4175SOL     OW24157   0.558   1.895  13.721 -0.7251 -0.2590 -0.1415
 4175SOL    HW124158   0.617   1.905  13.795  0.1562 -0.6337 -0.7934
 4175SOL    HW224159   0.604   1.820  13.683 -1.3648 -1.6291  1.7939
 4176SOL     OW24160   2.860   4.094  11.855  0.2563 -0.5100 -0.3463
 4176SOL    HW124161   2.796   4.120  11.790  0.2967 -1.1235 -0.6294
 4176SOL    HW224162   2.933   4.073  11.796  0.8573  1.5417 -0.3224
 4177SOL     OW24163   2.329   0.210   9.322 -0.3802 -0.1110  0.0231
 4177SOL    HW124164   2.306   0.158   9.245 -1.3736 -0.7757  0.7565
 4177SOL    HW224165   2.242   0.220   9.361 -0.6703  0.1995 -0.7049
 4178SOL     OW24166   4.260   3.607   8.082 -0.0846 -0.4546  0.3277
 4178SOL    HW124167   4.298   3.611   7.995  1.4659  2.0344  1.1188
 4178SOL    HW224168   4.321   3.660   8.133 -0.4463  2.7902 -2.5990
 4179SOL     OW24169   3.965   3.957  10.428 -0.2485  0.3290  0.3980
 4179SOL    HW124170   3.905   4.030  10.443 -0.4423  0.2081  0.2189
 4179SOL    HW224171   3.974   3.965  10.333  3.8481 -2.4969  0.5552
 4180SOL     OW24172   2.904   4.045  12.488  0.0296 -0.3164 -1.0782
 4180SOL    HW124173   2.849   4.005  12.555 -0.1577  0.3701 -0.8234
 4180SOL    HW224174   2.909   3.984  12.414  0.6996  1.9783 -2.8985
 4181SOL     OW24175   3.167   3.985  15.973  0.1624  0.3043  0.0724
 4181SOL    HW124176   3.245   3.943  16.009  0.6921  0.5452 -0.8055
 4181SOL    HW224177   3.148   3.931  15.896 -1.4914 -0.8121  1.2639
 4182SOL     OW24178   2.377   3.123   2.301  0.2766 -0.0304 -0.2596
 4182SOL    HW124179   2.367   3.217   2.292 -0.0845 -0.1858 -1.4539
 4182SOL    HW224180   2.310   3.096   2.364  0.4001  0.9907  0.3165
 4183SOL     OW24181   0.786   2.579   3.609 -0.0185 -0.1531 -0.0026
 4183SOL    HW124182   0.857   2.643   3.599  0.9903 -1.4455 -1.1013
 4183SOL    HW224183   0.797   2.546   3.699 -1.2476 -1.2553 -0.2626
 4184SOL     OW24184   0.661   1.790   7.840  0.4842 -0.0501  0.3641
 4184SOL    HW124185   0.660   1.883   7.816 -0.8430  0.4112  2.2449
 4184SOL    HW224186   0.578   1.774   7.884 -0.4956  2.3703 -0.5694
 4185SOL     OW24187   2.813   3.846   8.113 -0.5232 -0.6057 -0.1049
 4185SOL    HW124188   2.859   3.782   8.167  0.7980 -0.6059 -1.2094
 4185SOL    HW224189   2.721   3.833   8.136  0.1364 -1.5229  2.0613
 4186SOL     OW24190   2.645   3.846  10.074  0.2750 -0.0956 -0.6610
 4186SOL    HW124191   2.593   3.779  10.029 -0.3798 -0.6072  0.8940
 4186SOL    HW224192   2.692   3.879   9.997 -0.8047  3.8075  0.3373
 4187SOL     OW24193   2.874   4.186   9.169 -0.3242 -0.3955 -0.5291
 4187SOL    HW124194   2.895   4.128   9.242 -0.0875  0.1219 -0.1819
 4187SOL    HW224195   2.892   4.136   9.090 -2.2770  0.2099 -1.3741
 4188SOL     OW24196   2.811   1.425  16.767  0.2397 -0.4369 -0.0322
 4188SOL    HW124197   2.834   1.366  16.695  0.1247  2.1118 -2.1348
 4188SOL    HW224198   2.723   1.450  16.739 -0.1749  1.1843  2.6983
 4189SOL     OW24199   2.944   0.006   3.636 -0.0557 -0.0630 -0.1402
 4189SOL    HW124200   2.924   4.649   3.655 -0.0591 -0.6618 -3.0766
 4189SOL    HW224201   2.864   0.051   3.663  1.0116  0.6967  1.7716
 4190SOL     OW24202   3.409   4.246   3.700  0.0049  0.2642 -0.2738
 4190SOL    HW124203   3.358   4.273   3.623 -1.5418  0.2215  0.7361
 4190SOL    HW224204   3.384   4.153   3.707 -0.2432  0.4418  1.1874
 4191SOL     OW24205   4.082   3.507  16.917  0.0389 -0.0626  0.0948
 4191SOL    HW124206   4.090   3.414  16.937  0.7908  0.3196  1.5450
 4191SOL    HW224207   4.027   3.507  16.839  1.0109 -1.2519 -0.5908
 4192SOL     OW24208   4.031   1.317   4.627  0.2981 -0.1233  0.6696
 4192SOL    HW124209   3.972   1.251   4.590  0.8500 -0.3418  0.1701
 4192SOL    HW224210   4.115   1.274   4.644 -0.2711 -1.7750 -0.7196
 4193SOL     OW24211   0.094   1.339   3.001 -0.3304 -0.0685 -0.3776
 4193SOL    HW124212   0.190   1.339   3.003 -0.3259 -1.1973 -0.9353
 4193SOL    HW224213   0.083   1.244   2.997 -0.5818 -0.1076  1.4267
 4194SOL     OW24214   1.935   3.487  13.409  0.4703  0.1378  0.6486
 4194SOL    HW124215   1.983   3.422  13.460 -0.2545  0.3318  1.5733
 4194SOL    HW224216   1.849   3.447  13.424  0.7768 -1.9091 -2.9350
 4195SOL     OW24217   1.655   2.463   4.418 -0.5377  0.2975 -0.5661
 4195SOL    HW124218   1.613   2.530   4.471 -1.6022  0.0044 -1.0403
 4195SOL    HW224219   1.651   2.394   4.485  0.5649  2.6817  1.9836
 4196SOL     OW24220   3.392   1.531   9.668 -0.2506 -0.5569 -0.6118
 4196SOL    HW124221   3.406   1.565   9.757  4.9573 -0.7683 -1.3345
 4196SOL    HW224222   3.483   1.520   9.641  0.1222 -1.0305  0.8213
 4197SOL     OW24223   0.942   4.569   4.076 -0.0499 -0.1400  0.1063
 4197SOL    HW124224   1.017   4.549   4.132 -1.0689 -3.1189  0.3939
 4197SOL    HW224225   0.971   4.661   4.074 -0.8464  0.1049 -0.2007
 4198SOL     OW24226   1.913   1.168   6.023  0.2454 -0.4651  0.0618
 4198SOL    HW124227   1.942   1.159   6.114  2.3425  1.7357 -0.3672
 4198SOL    HW224228   1.910   1.260   5.994 -0.6132 -0.8892 -1.1734
 4199SOL     OW24229   0.962   4.609   8.333 -0.4395 -0.0124  0.2482
 4199SOL    HW124230   1.046   4.644   8.364  0.4724 -2.2127  0.2654
 4199SOL    HW224231   0.943   4.553   8.408  2.5343 -0.9457  0.3120
 4200SOL     OW24232   0.027   3.995   7.881 -0.3379 -0.3254 -0.4451
 4200SOL    HW124233   0.045   3.944   7.960  1.7999  0.9249 -0.1613
 4200SOL    HW224234   0.108   3.971   7.836 -0.4239  0.8350 -1.1946
 4201SOL     OW24235   3.141   2.920   6.218 -0.5605 -0.2291  0.6523
 4201SOL    HW124236   3.112   3.001   6.259  0.2147  1.2023 -1.6776
 4201SOL    HW224237   3.172   2.950   6.133  0.1420 -0.0288  0.9843
 4202SOL     OW24238   3.381   3.148   5.609  0.0619 -0.3593 -0.2394
 4202SOL    HW124239   3.396   3.151   5.514  1.1200 -0.5253 -0.0716
 4202SOL    HW224240   3.333   3.229   5.627  1.6005  0.3825  0.4343
 4203SOL     OW24241   2.924   3.062   8.582  0.2500  0.1881  0.5136
 4203SOL    HW124242   2.836   3.029   8.564  1.2154 -1.8610 -0.4685
 4203SOL    HW224243   2.929   3.056   8.677  1.4332 -2.0665  0.3225
 4204SOL     OW24244   3.045   3.874   3.336  0.3334  0.0093 -0.2670
 4204SOL    HW124245   3.083   3.888   3.422  0.4708  1.0255 -0.4858
 4204SOL    HW224246   3.112   3.916   3.281  0.9475  1.1240  1.3461
 4205SOL     OW24247   3.544   2.214  12.060 -0.4234  0.3709 -0.4583
 4205SOL    HW124248   3.571   2.282  12.122 -1.6898  0.5539 -0.1164
 4205SOL    HW224249   3.627   2.166  12.057 -0.4483  0.2653  0.8645
 4206SOL     OW24250   1.501   4.136  12.098  0.8736 -0.2562 -0.4077
 4206SOL    HW124251   1.517   4.054  12.051  0.0942  0.3622 -1.7567
 4206SOL    HW224252   1.580   4.189  12.095  0.1545  0.9277  2.4981
 4207SOL     OW24253   0.844   3.401   4.596 -0.6498 -0.5469  0.2643
 4207SOL    HW124254   0.829   3.366   4.684 -1.3062 -0.3512  0.2339
 4207SOL    HW224255   0.888   3.324   4.560 -1.8079  0.6621 -3.6553
 4208SOL     OW24256   3.554   3.558  13.719 -0.2180 -0.8809  0.0239
 4208SOL    HW124257   3.473   3.609  13.720  0.4656  0.2016  0.0580
 4208SOL    HW224258   3.540   3.478  13.769  2.4001 -2.1412 -1.2686
 4209SOL     OW24259   3.764   0.606  10.667 -0.2817  0.3877 -0.5286
 4209SOL    HW124260   3.713   0.660  10.727  0.5396  2.6903 -1.8917
 4209SOL    HW224261   3.853   0.635  10.686 -1.1486  2.6223  0.1900
 4210SOL     OW24262   4.274   1.479   3.016 -0.5015  0.0468 -0.2359
 4210SOL    HW124263   4.216   1.513   2.948 -1.7585 -0.6976  0.4580
 4210SOL    HW224264   4.247   1.534   3.090 -3.3913 -1.0323 -0.4774
 4211SOL     OW24265   0.305   3.461   4.591 -0.8227 -0.5159  0.3666
 4211SOL    HW124266   0.397   3.475   4.570 -0.3502 -0.8486  2.1911
 4211SOL    HW224267   0.317   3.372   4.624 -2.6107 -0.5008  1.0578
 4212SOL     OW24268   3.251   4.488  11.795  0.1451  0.6179 -0.0974
 4212SOL    HW124269   3.200   4.472  11.716  1.1661 -2.4232 -0.1265
 4212SOL    HW224270   3.341   4.479  11.764 -0.2953 -1.3035 -0.8360
 4213SOL     OW24271   2.081   2.158   4.501 -0.2417  0.3213  0.0008
 4213SOL    HW124272   2.011   2.195   4.447  0.1010  1.4341  0.2983
 4213SOL    HW224273   2.146   2.125   4.439  1.6693 -0.0437  2.2059
 4214SOL     OW24274   2.790   4.576   8.785 -0.3865  0.2566  0.1940
 4214SOL    HW124275   2.848   4.504   8.809  1.7642  2.0654  0.3903
 4214SOL    HW224276   2.824   4.656   8.824 -0.6495  0.3878  0.1550
 4215SOL     OW24277   1.255   0.894   2.446 -0.1892  0.2968  0.6323
 4215SOL    HW124278   1.233   0.969   2.501 -0.1194  1.1747 -0.5239
 4215SOL    HW224279   1.299   0.833   2.504 -1.0412  0.7048  1.7027
 4216SOL     OW24280   3.993   1.391  11.440 -0.3492  1.2873  0.4251
 4216SOL    HW124281   3.968   1.420  11.352 -0.7359  1.9348  0.7460
 4216SOL    HW224282   3.908   1.396  11.483 -1.1793 -0.9744 -0.9441
 4217SOL     OW24283   3.280   0.204   9.613  0.4218 -0.8777 -0.4906
 4217SOL    HW124284   3.233   0.252   9.680  1.4476  0.1788 -0.5370
 4217SOL    HW224285   3.351   0.167   9.665  0.7612 -1.2931 -1.2535
 4218SOL     OW24286   1.162   4.427   2.418 -0.5330  0.0723 -0.2620
 4218SOL    HW124287   1.205   4.475   2.348  0.0381  3.7814  2.6259
 4218SOL    HW224288   1.146   4.491   2.487 -1.5396  0.1840 -0.6017
 4219SOL     OW24289   3.849   2.325   7.039 -0.0927  0.0186 -0.1576
 4219SOL    HW124290   3.888   2.278   6.965 -0.6872 -1.2675  0.3477
 4219SOL    HW224291   3.825   2.252   7.096  1.9094  0.0219  0.6952
 4220SOL     OW24292   2.035   4.483   8.560 -0.0935  0.5474 -0.2464
 4220SOL    HW124293   1.964   4.431   8.597  0.1552 -0.7211 -1.5859
 4220SOL    HW224294   2.074   4.423   8.497  3.1253  1.0241  1.3052
 4221SOL     OW24295   2.827   2.405   5.582 -0.6423  0.0961 -0.1046
 4221SOL    HW124296   2.807   2.340   5.514 -0.6565 -0.8752  0.8150
 4221SOL    HW224297   2.788   2.484   5.546 -2.7270 -1.3271 -1.0122
 4222SOL     OW24298   0.043   3.502   6.863 -0.5425  0.4744  0.1525
 4222SOL    HW124299   0.073   3.588   6.833 -2.2573  1.6074  1.6469
 4222SOL    HW224300   4.707   3.485   6.800 -0.6780  0.4261  0.3141
 4223SOL     OW24301   3.522   1.293   6.768  0.9710 -0.2728  0.9794
 4223SOL    HW124302   3.574   1.373   6.766  0.3041  0.1495  0.3995
 4223SOL    HW224303   3.595   1.237   6.794  0.1800 -0.4074  2.8563
 4224SOL     OW24304   1.412   2.102   3.432 -0.5383  0.5129  0.2260
 4224SOL    HW124305   1.386   2.133   3.519  0.8229 -1.2043  1.2546
 4224SOL    HW224306   1.411   2.173   3.368  1.1447  0.8258  0.5655
 4225SOL     OW24307   4.396   1.385  12.299  0.5893 -0.1229  0.1693
 4225SOL    HW124308   4.438   1.471  12.296  0.2189  0.0549  0.1568
 4225SOL    HW224309   4.470   1.326  12.316 -0.1894 -0.6682  1.6211
 4226SOL     OW24310   1.702   1.876   5.897 -0.1431 -0.0458  0.3541
 4226SOL    HW124311   1.722   1.828   5.978  0.6079  2.0255  1.3794
 4226SOL    HW224312   1.608   1.888   5.910 -0.6178 -0.7892 -2.2462
 4227SOL     OW24313   1.915   2.889   3.561 -0.2440 -0.1041 -0.4052
 4227SOL    HW124314   1.950   2.913   3.646  2.7403 -1.2623 -1.3055
 4227SOL    HW224315   1.892   2.968   3.513 -0.9824  0.6259  1.1581
 4228SOL     OW24316   0.643   1.540   8.973 -0.1923 -0.0270 -0.3728
 4228SOL    HW124317   0.616   1.600   9.042  0.2410 -0.0165 -0.2142
 4228SOL    HW224318   0.733   1.570   8.958  0.8089 -2.6907  0.3884
 4229SOL     OW24319   1.901   2.126   8.046  0.0796 -0.2912 -0.9526
 4229SOL    HW124320   1.925   2.044   8.003  1.6505  0.3387 -1.2958
 4229SOL    HW224321   1.869   2.092   8.129  0.8958  0.1298 -0.4736
 4230SOL     OW24322   1.473   1.590   2.884 -0.2001  0.0746 -0.4047
 4230SOL    HW124323   1.521   1.641   2.949 -1.4296 -1.8666  2.0437
 4230SOL    HW224324   1.457   1.656   2.817  0.1297  1.1334  0.5585
 4231SOL     OW24325   4.082   2.391   2.883 -0.0610 -0.1241 -0.1188
 4231SOL    HW124326   4.049   2.459   2.825  1.0078 -0.2767 -0.9147
 4231SOL    HW224327   4.101   2.322   2.819  0.6247  0.5642 -0.6575
 4232SOL     OW24328   4.655   0.078   7.865 -0.0271  0.3210  0.4124
 4232SOL    HW124329   4.576   0.121   7.832  0.1281 -1.4720 -2.2821
 4232SOL    HW224330   4.705   0.154   7.894 -0.6842  0.5110  1.0401
 4233SOL     OW24331   4.652   0.839  14.209  0.1525 -0.9484  0.5153
 4233SOL    HW124332   4.633   0.872  14.121 -1.6518 -1.8247  0.5635
 4233SOL    HW224333   4.560   0.840  14.235 -0.1916 -0.4529 -0.7074
 4234SOL     OW24334   3.829   2.088   4.338  0.2861 -0.1627  0.9172
 4234SOL    HW124335   3.764   2.052   4.276  0.5379  1.1780 -0.1165
 4234SOL    HW224336   3.788   2.060   4.420  2.2611 -3.5601  0.7521
 4235SOL     OW24337   0.222   2.909   3.056 -0.0413 -0.2351 -0.5354
 4235SOL    HW124338   0.242   2.905   3.149  1.9458 -2.4980 -1.0544
 4235SOL    HW224339   0.302   2.865   3.025  0.2416 -0.6199  0.7556
 4236SOL     OW24340   0.203   2.972   3.763  0.0211 -0.5912 -0.1238
 4236SOL    HW124341   0.136   2.919   3.720 -0.7784  1.3920 -1.3126
 4236SOL    HW224342   0.280   2.916   3.765  0.4789  0.0727  0.9793
 4237SOL     OW24343   0.231   3.585   3.479  0.2607 -0.3379 -0.5663
 4237SOL    HW124344   0.270   3.671   3.461 -0.7046  0.6894  2.3299
 4237SOL    HW224345   0.295   3.520   3.508 -0.9417 -0.1487  2.4160
 4238SOL     OW24346   4.202   4.425   8.780  0.0819  0.5395 -0.0821
 4238SOL    HW124347   4.126   4.455   8.731 -1.0958 -0.8039  0.9262
 4238SOL    HW224348   4.248   4.379   8.710  1.7578 -0.1801  1.4716
 4239SOL     OW24349   4.657   0.103   7.156 -0.1227  0.0031  0.5674
 4239SOL    HW124350   4.721   0.051   7.205 -2.0591 -1.5596  1.4468
 4239SOL    HW224351   4.611   0.043   7.097  0.2777 -1.8829  2.1925
 4240SOL     OW24352   0.217   1.668  15.117  0.0697  0.3597 -0.1880
 4240SOL    HW124353   0.197   1.649  15.209  0.9647  0.9279  0.1164
 4240SOL    HW224354   0.228   1.763  15.117  0.4169  0.3131 -1.9440
 4241SOL     OW24355   3.045   0.009   8.115  0.3091 -0.1922 -0.5430
 4241SOL    HW124356   3.099   0.044   8.045  0.3740 -0.6984 -0.7469
 4241SOL    HW224357   3.069   0.067   8.188 -0.8785 -1.1400  0.6081
 4242SOL     OW24358   2.712   3.015   5.072  0.2149  0.8938 -0.6393
 4242SOL    HW124359   2.766   3.001   5.150  1.2639 -2.0788 -1.9081
 4242SOL    HW224360   2.650   3.074   5.115  0.0850  1.3736 -1.4744
 4243SOL     OW24361   4.705   2.013   6.755  0.3982  0.6588 -0.0313
 4243SOL    HW124362   4.714   1.919   6.737 -0.1724  0.7399 -0.7537
 4243SOL    HW224363   0.062   2.031   6.733  0.4995  1.3884  1.0362
 4244SOL     OW24364   4.190   4.073   4.969 -0.2853  0.1524 -0.7351
 4244SOL    HW124365   4.207   4.021   4.890 -0.1627 -0.7441 -0.1170
 4244SOL    HW224366   4.095   4.084   4.969 -0.6613 -2.9614  0.4189
 4245SOL     OW24367   0.640   2.715   9.868 -0.6802  0.2222 -0.2980
 4245SOL    HW124368   0.554   2.755   9.882  0.2478  1.5696  1.5846
 4245SOL    HW224369   0.667   2.723   9.960 -0.6593 -2.7587 -0.0413
 4246SOL     OW24370   2.940   2.561  12.297  0.4042 -0.3107 -0.8362
 4246SOL    HW124371   2.980   2.485  12.340 -0.8101 -0.9673 -0.8811
 4246SOL    HW224372   2.984   2.633  12.341 -3.1832  1.9421 -0.9944
 4247SOL     OW24373   3.024   0.953   6.319  0.0752 -0.2499 -0.0069
 4247SOL    HW124374   3.047   0.916   6.233  1.6341 -1.6062  0.9945
 4247SOL    HW224375   3.102   1.004   6.342  0.4444 -0.2952 -1.1407
 4248SOL     OW24376   1.792   4.287   2.793 -0.2755 -0.8449 -0.0423
 4248SOL    HW124377   1.731   4.318   2.861  2.6878  1.8613  1.3793
 4248SOL    HW224378   1.875   4.300   2.840  1.0851  0.7715 -2.9086
 4249SOL     OW24379   2.858   4.166  11.429 -0.5707 -0.0695  0.3326
 4249SOL    HW124380   2.839   4.199  11.341 -0.6106  0.5989  0.5893
 4249SOL    HW224381   2.854   4.239  11.492 -0.6169  0.7110 -0.5818
 4250SOL     OW24382   1.313   2.712  10.327  0.3914 -0.2460 -0.3327
 4250SOL    HW124383   1.300   2.714  10.422 -0.5965  0.2515 -0.4855
 4250SOL    HW224384   1.262   2.632  10.314 -1.7088  0.9503  0.5741
 4251SOL     OW24385   1.747   2.065   2.062 -0.3003 -0.7883 -0.3270
 4251SOL    HW124386   1.733   2.034   1.973  1.8593 -0.6607 -0.7257
 4251SOL    HW224387   1.840   2.086   2.070 -0.4392 -0.6923  0.9881
 4252SOL     OW24388   3.766   4.389  11.583  0.1454  0.4586  0.1660
 4252SOL    HW124389   3.840   4.346  11.625  0.4229  0.0860 -0.7003
 4252SOL    HW224390   3.761   4.338  11.502 -0.6745  0.2853  0.3316
 4253SOL     OW24391   2.024   4.598   5.796 -0.4413 -0.1560 -0.1599
 4253SOL    HW124392   2.057   4.680   5.835  0.3678 -0.8504  0.6036
 4253SOL    HW224393   1.986   4.627   5.713  1.1500  0.1060 -0.8025
 4254SOL     OW24394   4.428   3.763  16.911 -0.0394 -0.2493  0.2808
 4254SOL    HW124395   4.507   3.744  16.860  0.2699  0.8935  0.3269
 4254SOL    HW224396   4.436   3.693  16.976 -1.1846  1.2857  2.0740
 4255SOL     OW24397   1.048   2.651   4.932  0.6994  0.4282 -0.5517
 4255SOL    HW124398   0.987   2.654   4.858 -0.5144 -0.4991  0.3981
 4255SOL    HW224399   1.012   2.720   4.988 -0.0177  0.3096 -0.8586
 4256SOL     OW24400   2.694   2.899   8.646 -0.5247  0.0278  0.2370
 4256SOL    HW124401   2.656   2.854   8.722  0.2628  0.6390  1.0046
 4256SOL    HW224402   2.755   2.935   8.711  0.7837  0.7945 -1.4390
 4257SOL     OW24403   2.220   3.263   2.876  0.1193  0.0250  0.1377
 4257SOL    HW124404   2.197   3.171   2.863  1.8627 -0.4548  0.4919
 4257SOL    HW224405   2.262   3.269   2.961 -1.1521  0.3905  0.7400
 4258SOL     OW24406   3.916   3.558   4.258  0.2033  0.5536 -0.4759
 4258SOL    HW124407   3.861   3.590   4.329 -0.1712 -1.1198  0.0005
 4258SOL    HW224408   3.865   3.481   4.231 -0.1352 -0.6232  3.4839
 4259SOL     OW24409   0.559   0.763  12.220 -0.6409  0.3522 -0.4886
 4259SOL    HW124410   0.640   0.813  12.229 -0.1277 -0.5038 -0.4125
 4259SOL    HW224411   0.592   0.697  12.159  0.1103 -0.3758  0.7120
 4260SOL     OW24412   0.438   0.447  13.273  0.5595 -0.2297 -0.0160
 4260SOL    HW124413   0.429   0.468  13.180  1.4863 -1.7980 -0.4409
 4260SOL    HW224414   0.520   0.399  13.267  1.2054  0.6493  1.8309
 4261SOL     OW24415   2.685   2.459   6.995 -0.0157  0.2103  0.6043
 4261SOL    HW124416   2.762   2.451   7.052  0.4052  1.2781  0.1631
 4261SOL    HW224417   2.722   2.531   6.944 -0.3767  0.8582  1.2578
 4262SOL     OW24418   0.486   2.930   7.303  0.0491 -0.2177 -0.0106
 4262SOL    HW124419   0.493   2.905   7.211 -0.9041  0.1084 -0.1746
 4262SOL    HW224420   0.478   3.024   7.287  0.6902 -0.2316 -0.4256
 4263SOL     OW24421   1.639   0.057   2.878  0.2536 -0.8055 -0.0547
 4263SOL    HW124422   1.546   0.061   2.857 -0.2164 -0.0829  2.1391
 4263SOL    HW224423   1.641   0.016   2.965 -0.9593 -0.3231  0.2062
 4264SOL     OW24424   1.504   0.746   2.959 -0.1462 -1.0441 -0.0298
 4264SOL    HW124425   1.451   0.825   2.962  1.4053 -0.0037  0.0925
 4264SOL    HW224426   1.448   0.688   2.907 -1.7270 -0.9659  1.5627
 4265SOL     OW24427   1.292   1.640   4.187 -0.3301  0.7665  0.3556
 4265SOL    HW124428   1.248   1.612   4.107  2.3910  1.8230 -1.5334
 4265SOL    HW224429   1.379   1.599   4.188 -1.1715 -0.9928  1.2647
 4266SOL     OW24430   2.927   3.654   3.212 -0.3111 -0.0677  0.9393
 4266SOL    HW124431   2.973   3.730   3.249  3.3340 -1.9919  0.3640
 4266SOL    HW224432   2.874   3.702   3.148 -1.0034 -1.8179  0.2257
 4267SOL     OW24433   0.475   2.460   5.699  0.1951 -0.2568  0.0461
 4267SOL    HW124434   0.468   2.498   5.612  0.2916  0.1832  0.2326
 4267SOL    HW224435   0.387   2.426   5.717  0.7117 -1.6881 -0.1121
 4268SOL     OW24436   0.151   0.854   8.806  0.4194  0.2762 -0.0369
 4268SOL    HW124437   0.130   0.899   8.724  1.0418  2.5402  1.0527
 4268SOL    HW224438   0.160   0.765   8.772 -0.5397  0.4086 -0.6220
 4269SOL     OW24439   0.048   4.724   8.846  0.6567 -0.5842  0.2881
 4269SOL    HW124440   0.006   0.047   8.910  1.6964  1.8567 -1.2077
 4269SOL    HW224441   0.028   0.043   8.769  3.0714  1.8992  1.4012
 4270SOL     OW24442   0.473   2.674   2.638  0.1470 -0.4338 -0.0422
 4270SOL    HW124443   0.551   2.710   2.596 -1.5290  2.4863 -0.6354
 4270SOL    HW224444   0.409   2.729   2.592 -0.1420 -1.1080 -0.4652
 4271SOL     OW24445   0.824   2.397   6.767 -0.0558  0.5976  0.8790
 4271SOL    HW124446   0.785   2.386   6.854 -2.5269  0.8435 -0.1862
 4271SOL    HW224447   0.796   2.316   6.723  0.0856  1.2703 -0.4633
 4272SOL     OW24448   3.697   1.929   0.134 -0.0079  0.8100  0.2955
 4272SOL    HW124449   3.783   1.970   0.145  0.4350  0.4904 -1.8904
 4272SOL    HW224450   3.644   2.007   0.117 -1.2253 -0.0291  0.2061
 4273SOL     OW24451   0.631   2.256   8.782  0.1424  0.8309 -0.0055
 4273SOL    HW124452   0.604   2.294   8.866 -1.8876 -0.8422  0.1023
 4273SOL    HW224453   0.607   2.330   8.728  0.7957  1.8052  1.0357
 4274SOL     OW24454   4.399   3.123   7.201 -0.3219  0.0422  0.2854
 4274SOL    HW124455   4.494   3.129   7.193 -0.2523  1.6244  2.1896
 4274SOL    HW224456   4.369   3.164   7.283 -1.8758 -1.4547  0.4501
 4275SOL     OW24457   0.612   3.364   2.156  0.4405  0.1386  0.1279
 4275SOL    HW124458   0.579   3.290   2.105  0.3605 -1.4306  2.4231
 4275SOL    HW224459   0.646   3.321   2.235 -1.2279  0.4934  1.0574
 4276SOL     OW24460   1.949   0.858   6.060  0.3985  0.1559  0.1519
 4276SOL    HW124461   1.860   0.883   6.083  0.6652  1.2084  0.0297
 4276SOL    HW224462   1.927   0.778   6.012  0.8925 -1.5307  2.7104
 4277SOL     OW24463   2.072   0.243   7.945  0.0256 -0.1376 -0.2470
 4277SOL    HW124464   2.167   0.247   7.936  0.1948 -1.5527  0.9255
 4277SOL    HW224465   2.064   0.225   8.038 -0.8666 -1.5756 -0.6032
 4278SOL     OW24466   3.710   3.452  15.088  0.1517 -0.1472  0.3646
 4278SOL    HW124467   3.745   3.483  15.005  1.6803  0.9923  1.4418
 4278SOL    HW224468   3.629   3.422  15.047  0.0497  2.4515 -1.3204
 4279SOL     OW24469   3.408   3.238   5.356 -0.2720  0.1896  0.1482
 4279SOL    HW124470   3.352   3.184   5.301  1.1400 -0.3409 -0.7634
 4279SOL    HW224471   3.372   3.320   5.322  1.6647  0.8907 -0.2134
 4280SOL     OW24472   1.050   3.433   4.263  0.0245  0.5361  0.1423
 4280SOL    HW124473   0.977   3.437   4.324 -0.2812  0.8510 -0.2479
 4280SOL    HW224474   1.049   3.527   4.244  0.0780  0.9041  1.9277
 4281SOL     OW24475   4.331   2.972   0.067  0.0561 -0.1306  0.5439
 4281SOL    HW124476   4.257   2.920   0.097 -1.4793  1.4763 -0.4270
 4281SOL    HW224477   4.403   2.914   0.041  0.1865  0.4438 -0.3940
 4282SOL     OW24478   3.969   2.677   0.995 -0.5974 -0.9196 -0.2862
 4282SOL    HW124479   3.902   2.696   0.929 -0.4464 -1.4260 -0.5836
 4282SOL    HW224480   3.953   2.739   1.066  0.2560  0.4576 -1.3023
 4283SOL     OW24481   0.971   3.633   4.561  0.0752 -0.2666  0.3649
 4283SOL    HW124482   0.904   3.565   4.567 -2.1970  1.8944 -0.0978
 4283SOL    HW224483   1.016   3.622   4.645  2.4353  2.3389 -0.5792
 4284SOL     OW24484   3.329   4.262   3.442 -0.2903  0.2478 -0.0618
 4284SOL    HW124485   3.341   4.167   3.447  0.6046  0.3828  0.3517
 4284SOL    HW224486   3.364   4.280   3.354  1.1765  0.8861  0.6537
 4285SOL     OW24487   2.068   3.600   0.574 -0.3698 -0.2621 -0.2232
 4285SOL    HW124488   2.109   3.519   0.543 -0.6490 -1.0139  1.4009
 4285SOL    HW224489   2.086   3.604   0.667  0.2252  0.9941 -0.3930
 4286SOL     OW24490   4.319   2.350   0.776  0.5424 -0.5039  0.6343
 4286SOL    HW124491   4.379   2.319   0.844  0.8032  0.9616  1.0752
 4286SOL    HW224492   4.374   2.421   0.742 -1.7395  0.8092 -0.2680
 4287SOL     OW24493   1.232   2.156  10.783 -0.1005  0.4299  0.2765
 4287SOL    HW124494   1.226   2.246  10.750 -1.2536  0.4461  0.5612
 4287SOL    HW224495   1.213   2.167  10.876  1.2710  1.1847  0.4653
 4288SOL     OW24496   3.446   2.003   5.505 -0.2064  0.1977 -0.4278
 4288SOL    HW124497   3.419   2.082   5.459  2.9403  0.3001 -2.0793
 4288SOL    HW224498   3.378   1.944   5.474  0.3612 -0.7808  0.2001
 4289SOL     OW24499   2.358   3.255   0.301 -0.0321 -0.0557  0.1070
 4289SOL    HW124500   2.348   3.235   0.208  0.2232  1.5460 -0.2624
 4289SOL    HW224501   2.453   3.248   0.309  0.1627  1.7469 -0.5959
 4290SOL     OW24502   0.468   2.914   9.122 -0.4596  0.6651 -0.0661
 4290SOL    HW124503   0.495   3.004   9.142 -0.7149  0.9650 -1.0432
 4290SOL    HW224504   0.554   2.874   9.133 -0.3508  1.5257  2.1462
 4291SOL     OW24505   4.650   0.531   2.908 -0.6149  0.3541 -0.0110
 4291SOL    HW124506   4.711   0.602   2.926 -0.6985  0.9940 -2.2438
 4291SOL    HW224507   4.614   0.492   2.988 -0.1988 -0.2738 -0.1303
 4292SOL     OW24508   4.464   4.533   6.780 -0.3391 -0.7113 -0.5116
 4292SOL    HW124509   4.492   4.614   6.823 -0.4907 -1.0898  0.3047
 4292SOL    HW224510   4.515   4.465   6.824 -0.7930 -0.7554 -0.0550
 4293SOL     OW24511   4.708   1.144   4.913 -0.3938  0.1392 -0.0728
 4293SOL    HW124512   4.703   1.115   4.822 -0.0115  0.6824 -0.2669
 4293SOL    HW224513   0.014   1.231   4.905  2.0549 -0.7418  2.6933
 4294SOL     OW24514   0.099   1.780   6.620 -0.1197  0.4308 -0.1201
 4294SOL    HW124515   0.184   1.734   6.625 -0.3138 -0.0822 -1.4059
 4294SOL    HW224516   0.090   1.794   6.525 -0.7427  0.0597 -0.1192
 4295SOL     OW24517   4.531   0.198   2.893  0.0685  0.2105  0.9363
 4295SOL    HW124518   4.583   0.201   2.973 -0.4357  0.1095  1.2641
 4295SOL    HW224519   4.447   0.234   2.923  0.9663  1.3810  2.0685
 4296SOL     OW24520   4.368   3.442   3.504 -0.1867  0.5007  0.1917
 4296SOL    HW124521   4.400   3.532   3.507  0.0097  0.3122  3.6985
 4296SOL    HW224522   4.274   3.454   3.489  0.1174  0.3782 -1.8176
 4297SOL     OW24523   3.759   3.629   6.402 -0.2719  0.0373  0.0321
 4297SOL    HW124524   3.805   3.563   6.453 -1.6838 -1.6594 -0.8632
 4297SOL    HW224525   3.808   3.644   6.321  1.1422  2.3742  1.3307
 4298SOL     OW24526   0.237   4.340  10.966  0.4520 -0.2021  0.1780
 4298SOL    HW124527   0.243   4.349  11.061  1.7209 -0.9757  0.1632
 4298SOL    HW224528   0.222   4.246  10.961  2.4926 -0.5297  0.3226
 4299SOL     OW24529   3.439   3.681   4.670 -0.6681 -0.1868  0.2098
 4299SOL    HW124530   3.394   3.765   4.661  1.3337  0.8171 -0.4934
 4299SOL    HW224531   3.457   3.663   4.762 -0.9721 -0.9643  0.1192
 4300SOL     OW24532   2.140   2.978   5.936  0.3828 -0.0226  0.1562
 4300SOL    HW124533   2.095   2.951   5.856  0.3232  0.7444 -0.0743
 4300SOL    HW224534   2.229   3.002   5.909  0.2730  0.7554  0.4648
 4301SOL     OW24535   1.048   1.020   4.556  0.0881 -0.0407  0.2232
 4301SOL    HW124536   0.994   1.099   4.558  1.0449  0.6224 -0.2270
 4301SOL    HW224537   1.133   1.056   4.529 -1.1055  0.9784 -2.2022
 4302SOL     OW24538   0.928   2.371   5.253 -0.2445  0.5632  0.3710
 4302SOL    HW124539   0.945   2.299   5.315  0.5366  0.0383 -0.4524
 4302SOL    HW224540   0.843   2.389   5.293  0.4822  1.5609  1.4598
 4303SOL     OW24541   2.241   3.447   8.507  0.3860  0.3327  0.2537
 4303SOL    HW124542   2.267   3.412   8.592 -2.5122 -1.5467  0.3746
 4303SOL    HW224543   2.156   3.403   8.507  1.0183 -0.8570  2.7605
 4304SOL     OW24544   4.613   0.339   2.290  0.5080 -0.3176  0.2225
 4304SOL    HW124545   4.560   0.349   2.212  1.5984 -0.1656 -0.5061
 4304SOL    HW224546   4.692   0.309   2.244  1.8938  0.7087  1.9005
 4305SOL     OW24547   4.431   1.223   0.204 -0.0698 -0.6485 -0.4893
 4305SOL    HW124548   4.400   1.275   0.129 -0.9438  1.1902  1.1523
 4305SOL    HW224549   4.523   1.245   0.218 -0.7146  1.2836  0.7154
 4306SOL     OW24550   0.881   1.877  16.065  0.0014 -0.1561  0.4005
 4306SOL    HW124551   0.964   1.925  16.057  0.5477 -1.5572 -2.7491
 4306SOL    HW224552   0.895   1.813  15.995  0.9904  1.8352 -1.2313
 4307SOL     OW24553   3.694   1.600   7.317 -0.0586  0.0786 -0.6187
 4307SOL    HW124554   3.676   1.643   7.401 -2.8943 -2.8418  0.2688
 4307SOL    HW224555   3.678   1.506   7.325 -0.2649  0.2596  1.1141
 4308SOL     OW24556   1.923   1.771   8.517 -0.1221  0.0314  0.5200
 4308SOL    HW124557   2.001   1.716   8.524 -2.0048 -2.7500  0.1198
 4308SOL    HW224558   1.867   1.698   8.489 -0.5988  0.8593 -0.6767
 4309SOL     OW24559   2.683   2.027  15.620 -0.3323  0.2244 -0.3021
 4309SOL    HW124560   2.705   1.935  15.636  0.3743  0.5665  0.7015
 4309SOL    HW224561   2.753   2.068  15.670 -0.6704  0.2538  0.1482
 4310SOL     OW24562   3.605   4.677   7.940 -0.1543  0.0298  0.7750
 4310SOL    HW124563   3.552   4.599   7.927 -0.3127  0.1906  0.4515
 4310SOL    HW224564   3.595   4.684   8.035 -0.3906  1.6524  0.6345
 4311SOL     OW24565   0.922   2.682  11.231 -0.2963 -0.0330  0.1077
 4311SOL    HW124566   0.854   2.631  11.275  0.4248  0.0043  1.2767
 4311SOL    HW224567   0.919   2.755  11.293 -4.2941 -1.2486  1.3672
 4312SOL     OW24568   2.745   3.446   8.010  0.7685  0.1066  0.0721
 4312SOL    HW124569   2.701   3.393   8.076 -1.0379  2.1963  0.5440
 4312SOL    HW224570   2.834   3.423   8.035  0.7516 -2.0473 -1.8808
 4313SOL     OW24571   3.857   1.078   8.752  0.4939  0.3075  0.6646
 4313SOL    HW124572   3.858   1.049   8.844  0.5140 -0.1095  0.5316
 4313SOL    HW224573   3.766   1.108   8.740  0.6580  0.3314 -0.4687
 4314SOL     OW24574   2.295   3.320   9.871 -0.2331  0.0130 -0.0362
 4314SOL    HW124575   2.267   3.398   9.823 -3.0725 -1.8461 -1.3349
 4314SOL    HW224576   2.231   3.308   9.941 -0.6409  1.2009 -0.2090
 4315SOL     OW24577   1.691   1.004   6.149 -0.4577  0.4164 -0.5543
 4315SOL    HW124578   1.625   1.054   6.198 -0.5594 -1.1299  0.8774
 4315SOL    HW224579   1.736   1.069   6.095 -0.0628  0.9379  0.4022
 4316SOL     OW24580   2.173   3.162   6.768 -0.6626  0.7327 -0.1269
 4316SOL    HW124581   2.121   3.235   6.734  2.4424  2.9022 -0.2517
 4316SOL    HW224582   2.254   3.212   6.759 -0.7434  1.0204  0.6832
 4317SOL     OW24583   2.685   0.635   8.786 -0.6336  0.3449  0.5804
 4317SOL    HW124584   2.674   0.664   8.695 -3.3358  0.4974  0.9476
 4317SOL    HW224585   2.778   0.646   8.806 -0.0986 -0.0331 -1.6801
 4318SOL     OW24586   0.090   1.358  17.118 -0.3900 -0.4307 -0.2953
 4318SOL    HW124587   0.135   1.280  17.084  1.4789 -0.0345  1.2385
 4318SOL    HW224588   0.164   1.415  17.137 -3.3733  3.4678 -0.5316
 4319SOL     OW24589   2.653   2.156   6.970  0.4676  0.2700 -0.3485
 4319SOL    HW124590   2.631   2.242   7.004 -1.0295 -0.0884 -0.3982
 4319SOL    HW224591   2.693   2.111   7.045  1.7596 -0.7585 -1.6590
 4320SOL     OW24592   2.154   2.308   3.245 -0.4118  0.0584  0.0066
 4320SOL    HW124593   2.092   2.341   3.181 -0.8066 -0.3271  0.1907
 4320SOL    HW224594   2.100   2.325   3.322 -0.4217  0.3342 -0.0613
 4321SOL     OW24595   1.549   3.905   9.504 -0.3857  0.4791  0.3614
 4321SOL    HW124596   1.516   3.896   9.593  0.6953  0.3749  0.7525
 4321SOL    HW224597   1.631   3.950   9.523  0.0217 -0.3104  0.4431
 4322SOL     OW24598   4.553   0.679   0.546  0.7046  0.3434 -0.1068
 4322SOL    HW124599   4.619   0.625   0.589 -0.6960 -1.1214  0.1782
 4322SOL    HW224600   4.616   0.745   0.516 -0.8989  1.2794 -1.3978
 4323SOL     OW24601   2.542   3.203   5.168  0.6266 -0.8516 -0.0700
 4323SOL    HW124602   2.522   3.239   5.082  0.1327 -0.4419  0.2104
 4323SOL    HW224603   2.560   3.284   5.215 -0.7765  0.7354 -2.2726
 4324SOL     OW24604   2.068   3.325   7.235  0.3664 -0.0423 -0.2526
 4324SOL    HW124605   2.027   3.380   7.302  2.1324  0.7854  0.1630
 4324SOL    HW224606   2.146   3.303   7.287  1.6491  1.0736 -1.6953
 4325SOL     OW24607   3.639   2.850   6.501  0.5871 -0.2421 -0.1151
 4325SOL    HW124608   3.547   2.873   6.507  0.0146 -2.5742  0.0043
 4325SOL    HW224609   3.633   2.780   6.436 -1.1577  2.2633 -2.6181
 4326SOL     OW24610   2.009   0.384   6.873 -0.1208  0.4148 -0.1622
 4326SOL    HW124611   2.089   0.437   6.884 -0.5379  0.7942  1.1053
 4326SOL    HW224612   1.963   0.426   6.801 -1.2951  1.1905  1.0422
 4327SOL     OW24613   4.487   3.788   2.802 -0.0096  0.2014  0.6440
 4327SOL    HW124614   4.394   3.783   2.779  0.1559 -1.8174  0.4791
 4327SOL    HW224615   4.512   3.810   2.712 -0.7568  1.1514  0.6621
 4328SOL     OW24616   2.533   1.871   2.968 -0.0164  0.6121 -0.4317
 4328SOL    HW124617   2.466   1.832   2.911 -0.8552 -1.6475  2.1335
 4328SOL    HW224618   2.511   1.839   3.055 -0.8292 -0.4725 -1.0279
 4329SOL     OW24619   0.056   0.251  15.306  0.5513  0.2513 -0.1655
 4329SOL    HW124620   0.056   0.292  15.393  0.1992  2.6986 -1.3027
 4329SOL    HW224621   0.105   0.304  15.243  0.1326  1.8468  0.8379
 4330SOL     OW24622   4.149   2.902   4.576  0.2526  0.0934  0.0571
 4330SOL    HW124623   4.090   2.952   4.520 -0.0660 -1.5972 -1.0974
 4330SOL    HW224624   4.232   2.927   4.536 -0.3873  1.3841 -0.4664
 4331SOL     OW24625   1.298   2.438   8.551 -0.1352  0.0101  0.3358
 4331SOL    HW124626   1.355   2.448   8.474 -0.3198 -1.0360  0.0654
 4331SOL    HW224627   1.368   2.446   8.616 -0.0355 -1.2100  0.3705
 4332SOL     OW24628   4.506   2.819   9.730 -0.4122  0.3378 -0.7687
 4332SOL    HW124629   4.481   2.835   9.639 -0.3650  3.0309 -0.3248
 4332SOL    HW224630   4.439   2.758   9.762 -0.6039  2.0525  2.1413
 4333SOL     OW24631   3.097   0.114   0.595  0.1178  0.2317  0.0286
 4333SOL    HW124632   3.118   0.176   0.665  4.4966 -2.1340  0.8386
 4333SOL    HW224633   3.036   0.159   0.537  0.0634  1.1933  0.8280
 4334SOL     OW24634   0.585   1.755   9.194  0.7171 -0.2743  0.1775
 4334SOL    HW124635   0.605   1.671   9.234 -1.9598 -1.5508 -1.1565
 4334SOL    HW224636   0.492   1.748   9.169  0.6469  1.9025 -0.1427
 4335SOL     OW24637   3.105   2.538   7.492 -0.2723 -0.5382  0.6347
 4335SOL    HW124638   3.066   2.458   7.456  1.5667 -1.5828  0.9324
 4335SOL    HW224639   3.095   2.522   7.585  2.4985  0.2672  1.0876
 4336SOL     OW24640   3.528   1.841   4.729 -0.4896 -0.2968 -0.0893
 4336SOL    HW124641   3.494   1.924   4.764 -1.0444 -0.9189  0.8486
 4336SOL    HW224642   3.575   1.807   4.805 -1.4846 -0.5073  0.4305
 4337SOL     OW24643   0.179   2.003  16.512 -0.3816  0.1828 -0.4220
 4337SOL    HW124644   0.180   2.082  16.458 -0.5519 -0.5442 -1.5147
 4337SOL    HW224645   0.179   2.055  16.592  2.9991 -0.8949  0.2547
 4338SOL     OW24646   0.876   0.916   1.836 -0.6889 -0.6068 -0.0922
 4338SOL    HW124647   0.936   0.890   1.905  2.3391 -0.9663 -2.8699
 4338SOL    HW224648   0.883   0.833   1.789 -1.6297  0.0680 -1.4436
 4339SOL     OW24649   3.822   2.909   9.154 -0.0874 -0.0992  0.4755
 4339SOL    HW124650   3.811   2.885   9.062 -2.6809 -0.1507  0.7951
 4339SOL    HW224651   3.917   2.896   9.161 -0.1015 -0.5380 -0.1517
 4340SOL     OW24652   0.784   1.865   8.555 -0.2520  0.2736  0.2933
 4340SOL    HW124653   0.873   1.853   8.522  0.5163  1.1930  2.0444
 4340SOL    HW224654   0.796   1.950   8.597  1.5111  0.2750 -0.1810
 4341SOL     OW24655   0.880   3.816  11.533 -0.1961  0.5510 -0.8592
 4341SOL    HW124656   0.849   3.745  11.477 -0.6972 -1.0912  1.4743
 4341SOL    HW224657   0.834   3.890  11.495 -0.6312  1.1019  0.7426
 4342SOL     OW24658   3.424   4.653   2.533  0.4020  0.1860 -0.5698
 4342SOL    HW124659   3.413   0.004   2.575  1.7147  2.1274 -4.1293
 4342SOL    HW224660   3.448   4.604   2.611  1.7182 -0.8899 -1.6480
 4343SOL     OW24661   0.647   1.092   4.689  0.5011  0.0466  0.6398
 4343SOL    HW124662   0.708   1.031   4.730  0.5335 -0.6496 -0.4337
 4343SOL    HW224663   0.638   1.150   4.764  0.2906 -0.9285  1.3697
 4344SOL     OW24664   0.122   3.644   3.047  0.3157 -0.1184 -0.3190
 4344SOL    HW124665   0.115   3.605   3.134  0.1974 -0.7183 -0.5936
 4344SOL    HW224666   0.038   3.618   3.009 -0.1986  1.9403 -0.5603
 4345SOL     OW24667   3.236   0.611   4.699 -0.3085  0.5163  0.4400
 4345SOL    HW124668   3.246   0.613   4.794  0.9413  1.7167  0.2960
 4345SOL    HW224669   3.331   0.618   4.686 -0.2323 -0.2098  0.6028
 4346SOL     OW24670   0.622   4.403   6.369 -0.0007 -0.2475 -0.1728
 4346SOL    HW124671   0.594   4.343   6.300 -3.4974 -0.3424  1.3049
 4346SOL    HW224672   0.550   4.466   6.361 -1.4680 -2.1101 -1.7118
 4347SOL     OW24673   2.858   2.124   7.880  0.4751  0.0325 -0.3400
 4347SOL    HW124674   2.882   2.132   7.972 -0.6778 -1.3807  0.0811
 4347SOL    HW224675   2.877   2.216   7.861  2.5096 -1.5538 -6.0833
 4348SOL     OW24676   3.085   3.008   7.735 -0.3557 -0.7261  0.2164
 4348SOL    HW124677   3.041   3.091   7.719  1.5685 -0.1883 -2.2448
 4348SOL    HW224678   3.057   2.966   7.654  1.1778 -1.8895  0.2799
 4349SOL     OW24679   4.328   1.961   2.081  0.9919  0.3529 -0.1708
 4349SOL    HW124680   4.397   2.015   2.042  0.0508  0.8099 -1.1986
 4349SOL    HW224681   4.319   1.882   2.027  1.3385  0.1556  0.0590
 4350SOL     OW24682   2.686   4.370  12.423  0.4756 -0.5318 -0.3070
 4350SOL    HW124683   2.635   4.403  12.497  0.0468 -0.2748 -0.7191
 4350SOL    HW224684   2.775   4.368  12.459  0.9082 -2.0504 -1.4785
 4351SOL     OW24685   2.981   3.075   8.046 -0.5175  0.0941 -0.6046
 4351SOL    HW124686   3.020   2.989   8.059  0.4695  0.4743 -1.1244
 4351SOL    HW224687   2.961   3.057   7.955  0.2184  0.1512 -0.7768
 4352SOL     OW24688   3.628   3.435   2.380  0.3803  0.0199  0.0108
 4352SOL    HW124689   3.562   3.469   2.319 -0.9339  0.1161  1.4951
 4352SOL    HW224690   3.609   3.342   2.369  0.6544 -0.0573  0.1767
 4353SOL     OW24691   0.362   1.498   4.268  0.1406 -0.1689  0.2758
 4353SOL    HW124692   0.325   1.582   4.241  1.1481  0.3458  0.4978
 4353SOL    HW224693   0.451   1.526   4.246 -0.1981 -0.7444 -1.7397
 4354SOL     OW24694   4.112   4.490   4.993  0.8597  0.5153 -0.5352
 4354SOL    HW124695   4.197   4.526   4.970  0.6765  0.4308 -1.3781
 4354SOL    HW224696   4.103   4.513   5.085  0.5971  1.5234 -0.8227
 4355SOL     OW24697   1.947   3.335   7.522 -0.0486  0.2270 -0.1622
 4355SOL    HW124698   1.980   3.252   7.489  2.0341  1.3254 -0.8225
 4355SOL    HW224699   1.863   3.304   7.556  0.8951  0.0061  1.9979
 4356SOL     OW24700   0.626   1.394  10.314 -0.3218  0.2149 -0.5994
 4356SOL    HW124701   0.628   1.480  10.355  1.6292  0.5930 -1.5123
 4356SOL    HW224702   0.713   1.359  10.336 -0.9479  1.2453  3.6325
 4357SOL     OW24703   3.889   0.142   2.265  0.1449 -0.6105  0.4996
 4357SOL    HW124704   3.896   0.141   2.169  0.5725 -0.4566  0.5277
 4357SOL    HW224705   3.902   0.050   2.289 -0.2617 -0.5532  0.9292
 4358SOL     OW24706   0.130   0.482  14.263  0.0515  0.2023  0.2260
 4358SOL    HW124707   0.147   0.558  14.207 -2.1218  0.0076 -0.7135
 4358SOL    HW224708   0.034   0.485  14.263 -0.0087 -2.1837  0.6392
 4359SOL     OW24709   2.639   4.296   7.745  0.1789  0.0384 -0.2377
 4359SOL    HW124710   2.597   4.291   7.659 -1.9630  0.8748  0.7712
 4359SOL    HW224711   2.657   4.204   7.766 -0.1138  0.9085  3.7347
 4360SOL     OW24712   0.241   4.650  11.047 -0.1443  0.1349  0.5690
 4360SOL    HW124713   0.283   4.706  11.113  1.0960  2.0112 -1.7916
 4360SOL    HW224714   0.164   4.705  11.035  0.2413  0.8248  1.2061
 4361SOL     OW24715   4.223   3.346   6.887  0.5249 -0.7785  0.0002
 4361SOL    HW124716   4.207   3.280   6.954  0.2078 -2.2894 -1.5604
 4361SOL    HW224717   4.200   3.428   6.930 -1.0620 -1.4330  0.4263
 4362SOL     OW24718   1.090   4.143   1.651 -0.0853 -0.2075  0.2311
 4362SOL    HW124719   1.151   4.207   1.688 -1.5900  0.6306  1.2726
 4362SOL    HW224720   1.057   4.102   1.731 -0.5947 -0.6273 -0.2012
 4363SOL     OW24721   2.701   1.453   5.802  0.8359  0.0067 -0.3211
 4363SOL    HW124722   2.656   1.511   5.865  0.5491 -0.7923  0.2084
 4363SOL    HW224723   2.775   1.426   5.855 -0.1588  0.6101  1.4028
 4364SOL     OW24724   3.960   1.540   5.543  0.3159 -0.0248  0.0982
 4364SOL    HW124725   3.983   1.516   5.633 -0.0104 -0.3680  0.0870
 4364SOL    HW224726   3.865   1.548   5.549  0.1877 -1.1192 -0.5312
 4365SOL     OW24727   1.087   1.637  11.099 -0.3539  0.5071 -0.4521
 4365SOL    HW124728   1.015   1.631  11.162  0.6514  0.2819  0.6807
 4365SOL    HW224729   1.150   1.680  11.158 -0.5083 -2.0321  1.6037
 4366SOL     OW24730   0.163   0.100   3.815  0.1441 -0.1128 -0.1135
 4366SOL    HW124731   0.195   0.187   3.791  0.0985 -0.8433 -2.8285
 4366SOL    HW224732   0.244   0.050   3.825  0.2888  0.7101  2.9784
 4367SOL     OW24733   3.239   2.244   7.784  0.3295 -0.1227 -0.1357
 4367SOL    HW124734   3.270   2.331   7.810 -0.0054  0.0080 -0.1747
 4367SOL    HW224735   3.246   2.201   7.869 -2.1731  0.5408  0.4021
 4368SOL     OW24736   3.071   0.753  10.523  0.3540  0.0372  0.2197
 4368SOL    HW124737   3.148   0.755  10.465 -0.1272  1.5490 -0.3857
 4368SOL    HW224738   3.112   0.727  10.605 -2.1955 -0.0694  1.4498
 4369SOL     OW24739   4.251   2.456   4.539 -0.3064  0.5694 -0.2035
 4369SOL    HW124740   4.269   2.362   4.550 -1.8366  0.6628  3.0247
 4369SOL    HW224741   4.244   2.488   4.629 -2.5673  0.5457 -0.3564
 4370SOL     OW24742   4.287   2.457  16.911 -0.0140 -0.5285 -0.0550
 4370SOL    HW124743   4.324   2.387  16.858  1.8379  0.7285 -0.4282
 4370SOL    HW224744   4.339   2.531  16.879  1.5868 -1.5541  0.1876
 4371SOL     OW24745   3.023   4.264   2.867 -0.0990 -0.2611  0.3282
 4371SOL    HW124746   2.983   4.273   2.954 -1.3079 -2.1285 -0.0201
 4371SOL    HW224747   2.954   4.295   2.808  0.0872 -1.3964 -0.4740
 4372SOL     OW24748   1.400   0.101   8.499 -0.0937 -0.0206  0.0843
 4372SOL    HW124749   1.463   0.058   8.557  0.5394  0.2448 -0.4086
 4372SOL    HW224750   1.450   0.103   8.418  0.5735 -2.1545  0.4544
 4373SOL     OW24751   3.318   1.068   8.530  0.2575 -0.4808 -1.0193
 4373SOL    HW124752   3.389   1.081   8.467 -1.1367  0.0703 -2.4815
 4373SOL    HW224753   3.263   1.014   8.474 -0.7813  0.6713 -1.1268
 4374SOL     OW24754   3.475   3.835  14.451 -0.1612 -0.0217  0.0245
 4374SOL    HW124755   3.396   3.815  14.501 -0.6483  0.0265 -0.7324
 4374SOL    HW224756   3.465   3.930  14.444  2.9214  0.3790  0.9101
 4375SOL     OW24757   3.201   1.568   5.809  0.3077 -1.1197 -0.7689
 4375SOL    HW124758   3.230   1.490   5.763  0.0949 -0.6935 -1.6255
 4375SOL    HW224759   3.107   1.563   5.795 -0.1090  1.9029  0.7250
 4376SOL     OW24760   3.390   2.997  16.919  0.1810 -0.1359 -0.4543
 4376SOL    HW124761   3.320   3.046  16.963  2.3359  2.2665  0.2982
 4376SOL    HW224762   3.364   3.011  16.828  0.3930  1.1354 -0.3181
 4377SOL     OW24763   1.240   0.710   1.999 -0.1472  0.1096 -0.1935
 4377SOL    HW124764   1.188   0.635   1.970 -1.3970  0.2298  1.7161
 4377SOL    HW224765   1.221   0.720   2.092 -1.7222  3.1495 -0.8433
 4378SOL     OW24766   1.988   0.290   5.396  0.0917  0.3213  0.3773
 4378SOL    HW124767   1.966   0.211   5.347  3.3244 -1.8013  2.3946
 4378SOL    HW224768   2.083   0.289   5.405  0.1431  0.7664 -0.0843
 4379SOL     OW24769   4.057   4.188   6.723 -0.2420 -0.1336  0.2398
 4379SOL    HW124770   3.997   4.165   6.653  1.0690 -0.8448 -0.6676
 4379SOL    HW224771   4.137   4.202   6.672  1.9819 -2.9142  2.9486
 4380SOL     OW24772   0.195   4.682   7.598 -0.0525  0.2698  0.6282
 4380SOL    HW124773   0.275   4.631   7.586 -0.3600  0.4504 -2.2053
 4380SOL    HW224774   0.235   0.017   7.652 -1.2484  0.0079  1.8515
 4381SOL     OW24775   0.403   0.179  13.148  0.4080 -0.3714  0.0023
 4381SOL    HW124776   0.339   0.249  13.162 -0.7284 -1.6353  1.0884
 4381SOL    HW224777   0.479   0.234  13.165 -1.4992  2.7314 -1.4320
 4382SOL     OW24778   3.479   4.621  15.098 -0.1075  0.3118  0.1547
 4382SOL    HW124779   3.548   4.679  15.130 -1.0710  1.4764  0.1413
 4382SOL    HW224780   3.449   4.595  15.185 -0.9244 -2.9895 -1.1343
 4383SOL     OW24781   3.896   2.251   6.113  0.5440 -0.0888 -0.1192
 4383SOL    HW124782   3.865   2.303   6.187 -0.9547  2.0059 -2.2186
 4383SOL    HW224783   3.815   2.231   6.065  0.2541 -1.0537  0.7689
 4384SOL     OW24784   0.049   2.117   3.936 -0.3194 -0.1769 -0.4361
 4384SOL    HW124785   0.060   2.096   4.028  2.7582  2.7395 -0.0953
 4384SOL    HW224786   0.029   2.211   3.938  2.0000  0.3417 -1.0349
 4385SOL     OW24787   0.083   0.992   7.199 -0.1464 -0.7061  0.2342
 4385SOL    HW124788   0.101   0.904   7.164 -3.4276 -1.3661  0.2444
 4385SOL    HW224789   4.729   0.982   7.235 -0.7750 -0.4907 -1.2527
 4386SOL     OW24790   0.486   2.410  16.066  0.1273  0.1269 -0.8442
 4386SOL    HW124791   0.494   2.315  16.075  0.7274  0.3981  1.5747
 4386SOL    HW224792   0.566   2.440  16.023  0.6797  2.0753  1.5334
 4387SOL     OW24793   0.276   1.078  12.539 -0.4183 -0.1892  0.2117
 4387SOL    HW124794   0.218   1.141  12.583  1.8538  1.1763  1.2752
 4387SOL    HW224795   0.267   1.001  12.595  0.8098  0.0176  0.6899
 4388SOL     OW24796   0.366   0.099   2.522  0.5617  0.1320 -0.2832
 4388SOL    HW124797   0.425   0.141   2.461  0.8995 -1.1361 -0.8353
 4388SOL    HW224798   0.399   0.131   2.606  1.2886 -2.9981  0.6493
 4389SOL     OW24799   2.199   2.377  13.355  0.0513 -0.0260  0.3972
 4389SOL    HW124800   2.181   2.433  13.280  1.9774  2.1131  1.5225
 4389SOL    HW224801   2.186   2.286  13.327  3.9177 -0.3589 -0.2860
 4390SOL     OW24802   3.360   3.849   8.260 -0.4348  0.4047  0.3066
 4390SOL    HW124803   3.367   3.854   8.355 -1.5458 -0.1752  0.4206
 4390SOL    HW224804   3.355   3.943   8.242 -0.6458 -0.0872 -2.1985
 4391SOL     OW24805   1.388   0.088  12.912 -0.3049 -0.2346 -0.1034
 4391SOL    HW124806   1.297   0.098  12.886 -0.7385  0.5183  1.7271
 4391SOL    HW224807   1.393   4.727  12.918  2.2057 -0.0967  0.1100
 4392SOL     OW24808   3.068   3.411   3.608  0.9403  0.6622  0.0004
 4392SOL    HW124809   3.075   3.416   3.513 -1.6345 -0.6434 -0.2711
 4392SOL    HW224810   2.986   3.461   3.615  1.3192  1.1491  0.9890
 4393SOL     OW24811   0.052   4.465   7.676  0.6842 -0.4160 -0.2160
 4393SOL    HW124812   0.101   4.388   7.648  1.3273 -0.5890  1.4333
 4393SOL    HW224813   0.112   4.532   7.644  0.3244 -0.3838 -0.8447
 4394SOL     OW24814   4.286   1.505   4.319  0.4631 -0.0317  0.6628
 4394SOL    HW124815   4.318   1.581   4.270  2.8909 -0.4057  1.6562
 4394SOL    HW224816   4.192   1.525   4.314  0.9560  2.0812 -0.0599
 4395SOL     OW24817   1.460   1.790   6.568  0.3067 -0.0961  0.0890
 4395SOL    HW124818   1.426   1.768   6.655 -2.3221  0.5895 -0.7622
 4395SOL    HW224819   1.532   1.728   6.571 -0.1580 -0.6475 -0.2454
 4396SOL     OW24820   1.563   0.849  11.683 -0.1952 -0.1921 -0.1753
 4396SOL    HW124821   1.616   0.925  11.656  1.3504 -0.7836  1.1585
 4396SOL    HW224822   1.585   0.842  11.776  1.7973  0.4386 -0.5851
 4397SOL     OW24823   3.126   1.967   7.516 -0.6387  0.0480 -0.5996
 4397SOL    HW124824   3.086   1.972   7.429 -0.1696  0.2900 -0.7981
 4397SOL    HW224825   3.118   2.055   7.551 -0.0558  0.6357 -1.9424
 4398SOL     OW24826   1.235   2.422   3.940 -0.4243  0.5639  0.5550
 4398SOL    HW124827   1.225   2.360   3.867  0.1298 -0.5926  1.4571
 4398SOL    HW224828   1.220   2.356   4.007  0.5017  0.3613  0.5671
 4399SOL     OW24829   3.991   0.851   1.916 -0.1385  0.5736 -0.3187
 4399SOL    HW124830   3.933   0.920   1.883  0.7322  1.5475  0.1807
 4399SOL    HW224831   3.972   0.863   2.009 -1.7499  0.2037 -0.6087
 4400SOL     OW24832   2.470   0.556   3.381  0.0713  0.2176  1.2412
 4400SOL    HW124833   2.536   0.546   3.313 -1.6077 -0.8940 -0.2158
 4400SOL    HW224834   2.388   0.549   3.331  0.3711 -0.5719  0.8561
 4401SOL     OW24835   4.705   3.918   9.508 -0.0875  0.1159 -0.5113
 4401SOL    HW124836   4.709   4.014   9.509  1.3679  0.0501  0.0093
 4401SOL    HW224837   4.610   3.905   9.505 -0.0623  0.3621 -2.3321
 4402SOL     OW24838   4.074   4.659   4.536 -0.0908  0.0552  0.6273
 4402SOL    HW124839   4.166   4.631   4.542 -0.1236  0.2829  2.3393
 4402SOL    HW224840   4.041   4.607   4.609 -1.0130 -3.1741 -2.1205
 4403SOL     OW24841   2.504   1.091   0.012  0.3698  0.6665 -0.1001
 4403SOL    HW124842   2.581   1.040  17.723 -0.1336  0.3442 -1.0163
 4403SOL    HW224843   2.489   1.065   0.103  1.1079 -1.3805 -0.5717
 4404SOL     OW24844   3.604   2.043   8.923 -0.2867  0.9303 -0.3930
 4404SOL    HW124845   3.577   2.044   9.015  2.0296  0.3233  0.2869
 4404SOL    HW224846   3.531   1.991   8.888 -1.7436  1.8287  1.3183
 4405SOL     OW24847   2.589   0.054   2.515  0.2412  0.0462  0.1993
 4405SOL    HW124848   2.603   0.127   2.455 -0.1803  0.5684  0.7413
 4405SOL    HW224849   2.610   4.713   2.459  1.0910 -0.4416  1.1562
 4406SOL     OW24850   1.846   2.670   7.640 -0.5852  0.0158  0.0434
 4406SOL    HW124851   1.854   2.744   7.700 -1.0296 -0.1738  0.3333
 4406SOL    HW224852   1.769   2.701   7.591 -0.8711 -1.6835 -0.6051
 4407SOL     OW24853   0.098   4.071  10.228 -0.2912  0.3836 -0.5116
 4407SOL    HW124854   0.171   4.019  10.260 -0.6354  0.0118 -0.3267
 4407SOL    HW224855   0.030   4.082  10.295 -0.3253  0.7457 -0.6048
 4408SOL     OW24856   4.075   0.894   7.418 -0.0053  0.5265  0.0059
 4408SOL    HW124857   4.055   0.801   7.427  2.2309  0.1987  1.6067
 4408SOL    HW224858   4.119   0.905   7.502  0.6041 -0.2783 -0.2033
 4409SOL     OW24859   4.514   1.056   7.616 -0.0959 -0.2789 -0.5958
 4409SOL    HW124860   4.552   1.143   7.634  1.3091 -0.7107 -1.4493
 4409SOL    HW224861   4.578   1.008   7.669  0.3626  0.0170 -0.8799
 4410SOL     OW24862   2.496   4.493   8.225 -0.2316 -0.6085  0.6604
 4410SOL    HW124863   2.582   4.516   8.189 -0.7558  2.2212  1.1623
 4410SOL    HW224864   2.445   4.478   8.145 -1.7139  0.7128  1.3430
 4411SOL     OW24865   2.253   0.073   4.926 -0.0918  0.2071  0.1140
 4411SOL    HW124866   2.255   0.063   4.831  0.8275 -0.0695  0.1585
 4411SOL    HW224867   2.212   0.160   4.928  0.1190  0.2649  2.8336
 4412SOL     OW24868   4.338   1.633   5.419 -0.4108 -0.6852 -0.1681
 4412SOL    HW124869   4.290   1.578   5.482  0.0656 -0.1618  0.6539
 4412SOL    HW224870   4.417   1.579   5.418  0.0588 -0.0177  0.6668
 4413SOL     OW24871   4.437   4.464  15.053  0.3959 -0.5567 -0.1130
 4413SOL    HW124872   4.377   4.444  15.125  0.0521 -0.5328 -0.3903
 4413SOL    HW224873   4.462   4.376  15.026 -0.2831 -0.4988 -0.9331
 4414SOL     OW24874   2.267   2.830   3.649  0.6100 -0.4432 -0.1600
 4414SOL    HW124875   2.331   2.877   3.596 -0.0478  1.6786  0.9057
 4414SOL    HW224876   2.224   2.904   3.692 -0.3501 -1.2406  0.2436
 4415SOL     OW24877   2.452   1.981   2.046 -0.0247 -0.8770 -0.5609
 4415SOL    HW124878   2.486   1.997   2.134 -1.2471  2.0988 -0.6209
 4415SOL    HW224879   2.363   1.950   2.061 -0.5532 -0.0086 -1.8628
 4416SOL     OW24880   4.012   0.834   3.197 -0.4687 -0.1630 -0.1732
 4416SOL    HW124881   4.054   0.792   3.122  0.2337 -1.7914  1.1511
 4416SOL    HW224882   3.925   0.851   3.158  0.2140 -0.2607 -1.7484
 4417SOL     OW24883   4.016   4.200   9.497  0.1989 -0.2029 -0.1687
 4417SOL    HW124884   4.099   4.166   9.532 -1.4994 -1.5715  2.4971
 4417SOL    HW224885   4.053   4.286   9.476  1.0584 -1.0780 -2.2290
 4418SOL     OW24886   2.726   3.755   4.694  0.2858 -0.0113  0.2068
 4418SOL    HW124887   2.796   3.814   4.724 -1.2596  1.4662  0.9274
 4418SOL    HW224888   2.769   3.684   4.646 -0.1465  1.1053 -1.8300
 4419SOL     OW24889   1.086   2.220   3.137 -0.1174  0.2458 -0.1656
 4419SOL    HW124890   1.108   2.128   3.120  0.9936  0.7007 -1.1910
 4419SOL    HW224891   1.104   2.229   3.230  0.5832 -2.5426 -0.0452
 4420SOL     OW24892   2.113   0.918   5.560  0.0456 -0.1243 -0.5364
 4420SOL    HW124893   2.116   0.841   5.618 -0.6211  0.1930 -0.0862
 4420SOL    HW224894   2.111   0.994   5.618 -0.5367 -1.8694  1.7421
 4421SOL     OW24895   2.570   2.278   0.341 -0.1982 -0.1013  0.6290
 4421SOL    HW124896   2.482   2.297   0.307  0.1805  0.0175 -0.2952
 4421SOL    HW224897   2.581   2.334   0.418  1.5865 -0.2640  0.4777
 4422SOL     OW24898   2.340   3.428  13.013 -0.0025  0.5348  0.0995
 4422SOL    HW124899   2.341   3.488  12.938  2.4146 -0.5221 -0.7138
 4422SOL    HW224900   2.278   3.475  13.069 -0.1605 -0.3545  0.6620
 4423SOL     OW24901   1.799   4.217  10.536 -0.0634  0.1737 -0.2612
 4423SOL    HW124902   1.814   4.278  10.608  0.0037 -0.6842  0.4565
 4423SOL    HW224903   1.892   4.197  10.527 -0.4777 -1.6768 -0.5212
 4424SOL     OW24904   3.760   0.171  10.156  0.0933 -0.3611  0.1436
 4424SOL    HW124905   3.830   0.108  10.139 -0.9080 -1.1418 -1.0668
 4424SOL    HW224906   3.792   0.249  10.110  0.7287 -1.8056 -1.8338
 4425SOL     OW24907   3.585   1.301  17.522 -0.1990  0.3022 -0.1543
 4425SOL    HW124908   3.590   1.259  17.436 -0.0092 -0.0925  0.0485
 4425SOL    HW224909   3.504   1.261  17.553  0.2843 -1.1590 -0.7429
 4426SOL     OW24910   4.648   2.354   8.243  0.1704 -0.3317  0.3585
 4426SOL    HW124911   4.609   2.274   8.208  1.6667 -0.1534 -1.7457
 4426SOL    HW224912   4.567   2.399   8.265 -0.0168 -0.4843 -0.0210
 4427SOL     OW24913   2.926   2.581   7.058 -0.4294 -0.5619 -0.1923
 4427SOL    HW124914   3.018   2.583   7.085 -0.7516 -0.8576  0.9161
 4427SOL    HW224915   2.925   2.676   7.046 -0.5421 -0.8308 -2.2015
 4428SOL     OW24916   3.915   0.304   6.630 -0.3110  0.3711 -0.8759
 4428SOL    HW124917   3.892   0.265   6.714  0.4691 -2.3760 -1.9108
 4428SOL    HW224918   3.862   0.384   6.624  1.0913  1.3819  0.5164
 4429SOL     OW24919   4.156   4.366  16.248  0.3837  0.1041  0.1100
 4429SOL    HW124920   4.237   4.349  16.297  0.7843  1.0675 -0.2016
 4429SOL    HW224921   4.140   4.286  16.198  1.0815 -0.9652  1.6192
 4430SOL     OW24922   0.278   3.235   2.971  0.5416 -0.3864  0.2934
 4430SOL    HW124923   0.240   3.147   2.976 -2.0290  0.7827  1.5230
 4430SOL    HW224924   0.242   3.276   3.049  0.3903 -1.4132  0.7589
 4431SOL     OW24925   2.726   2.725  10.841 -0.1300  0.2893 -0.3519
 4431SOL    HW124926   2.659   2.670  10.883  0.2630  2.0004  2.4959
 4431SOL    HW224927   2.746   2.773  10.921  1.5549 -0.5050 -0.2998
 4432SOL     OW24928   1.679   2.693   2.620  0.5526  0.1075 -0.3370
 4432SOL    HW124929   1.714   2.768   2.666 -0.6383 -0.8748  2.1483
 4432SOL    HW224930   1.692   2.633   2.693 -4.4450 -1.9132 -1.0861
 4433SOL     OW24931   2.931   2.292  10.275  0.0840  0.2162 -0.7095
 4433SOL    HW124932   2.905   2.381  10.300  0.7046  0.7892 -2.1209
 4433SOL    HW224933   2.851   2.240  10.288  0.7940 -0.6858 -0.0012
 4434SOL     OW24934   1.443   0.782   5.870 -0.6207  0.0926  0.6465
 4434SOL    HW124935   1.454   0.737   5.954 -1.1566 -1.2883 -0.0286
 4434SOL    HW224936   1.439   0.706   5.812 -0.1045 -0.5107  1.3928
 4435SOL     OW24937   4.462   1.656   8.359 -0.0993 -0.5135  0.2981
 4435SOL    HW124938   4.441   1.568   8.327 -0.0505 -0.3121 -0.2965
 4435SOL    HW224939   4.557   1.652   8.361 -0.2507 -2.3534  3.0992
 4436SOL     OW24940   1.856   0.652   5.898 -0.3007 -0.3091 -0.6029
 4436SOL    HW124941   1.807   0.661   5.816  1.5114 -1.1105 -1.7730
 4436SOL    HW224942   1.814   0.571   5.925 -0.8550 -0.3416 -1.5647
 4437SOL     OW24943   0.618   3.078  13.390 -0.3494  0.3428  0.9437
 4437SOL    HW124944   0.553   3.014  13.419 -0.5423 -0.5863 -1.5347
 4437SOL    HW224945   0.579   3.100  13.305  2.1599 -1.5811 -0.7026
 4438SOL     OW24946   4.449   0.130   8.961  0.0930  0.2610  0.0600
 4438SOL    HW124947   4.419   0.102   9.047 -1.0231 -0.2876 -0.5061
 4438SOL    HW224948   4.396   0.077   8.900 -0.2835  1.3460 -0.5460
 4439SOL     OW24949   2.047   3.352   6.599  0.1174  0.1000 -0.6805
 4439SOL    HW124950   1.986   3.350   6.673  1.0700 -1.1220  0.0780
 4439SOL    HW224951   2.060   3.446   6.586  0.5336  0.0619 -0.5425
 4440SOL     OW24952   2.456   2.497  16.727 -0.3319  0.7284 -0.1581
 4440SOL    HW124953   2.530   2.549  16.696  0.3687  1.3015  2.5314
 4440SOL    HW224954   2.488   2.410  16.703 -0.5378  0.0102  2.2234
 4441SOL     OW24955   2.515   1.531   8.900  0.0598 -0.8875 -0.2225
 4441SOL    HW124956   2.487   1.566   8.816  3.2471 -1.3358 -1.4531
 4441SOL    HW224957   2.605   1.501   8.889  0.6242  0.9280 -0.5310
 4442SOL     OW24958   3.189   4.235   1.435 -0.0585  0.2289 -0.6385
 4442SOL    HW124959   3.165   4.263   1.523  0.1047 -2.2465  0.1842
 4442SOL    HW224960   3.202   4.141   1.449  1.6551  0.3996 -1.0129
 4443SOL     OW24961   0.505   4.005   9.716  0.3568 -0.6621  0.0586
 4443SOL    HW124962   0.413   4.024   9.734  0.3184 -0.7742 -0.0194
 4443SOL    HW224963   0.505   3.909   9.714  1.1296 -0.6176 -2.1829
 4444SOL     OW24964   4.481   3.409   3.096 -0.0402 -0.3575  0.3443
 4444SOL    HW124965   4.468   3.464   3.173  0.4871  0.9413 -0.4851
 4444SOL    HW224966   4.532   3.474   3.048  1.4305 -1.1226  0.8640
 4445SOL     OW24967   4.557   0.141   6.268 -0.1711  0.0040  0.1363
 4445SOL    HW124968   4.614   0.135   6.191 -3.9221 -0.1702 -2.5940
 4445SOL    HW224969   4.616   0.114   6.338 -0.4132 -0.1667  0.2733
 4446SOL     OW24970   0.110   1.789  11.672  0.1777 -0.4914  0.5481
 4446SOL    HW124971   0.171   1.720  11.700  2.3714  1.7286  1.2731
 4446SOL    HW224972   0.080   1.759  11.587 -0.9154 -1.0361  1.1279
 4447SOL     OW24973   0.717   2.438   3.401  0.1118  0.5486 -0.1107
 4447SOL    HW124974   0.728   2.350   3.438 -3.3631  0.5133  0.7587
 4447SOL    HW224975   0.764   2.486   3.469 -1.0307  0.9893  0.3563
 4448SOL     OW24976   1.597   2.778   1.720 -0.7794  0.2140  0.0350
 4448SOL    HW124977   1.621   2.782   1.628 -1.5330 -2.4900 -0.2835
 4448SOL    HW224978   1.608   2.870   1.743  0.9512 -0.1698  0.7689
 4449SOL     OW24979   0.517   0.214   4.925 -0.2567 -0.2528  0.7257
 4449SOL    HW124980   0.560   0.234   4.842 -0.8937 -1.3849  0.1009
 4449SOL    HW224981   0.546   0.123   4.936  0.7341  0.3341  2.8436
 4450SOL     OW24982   4.716   0.999   0.871 -0.0299  0.1116 -0.2223
 4450SOL    HW124983   0.027   0.939   0.931 -0.5068  0.2161  0.2400
 4450SOL    HW224984   4.632   1.007   0.915  0.4975  2.4104  0.3385
 4451SOL     OW24985   3.746   3.055   2.029 -0.3546  0.4287 -0.1269
 4451SOL    HW124986   3.815   3.120   2.018  1.5956 -1.5583  0.1740
 4451SOL    HW224987   3.723   3.059   2.122  1.5561 -0.5706  0.4060
 4452SOL     OW24988   2.695   3.760  17.731  0.0980 -0.3337 -0.3594
 4452SOL    HW124989   2.606   3.764  17.694  0.7480 -0.5842 -1.9463
 4452SOL    HW224990   2.670   3.815   0.070  1.8185  0.1962 -0.1775
 4453SOL     OW24991   0.836   2.441  15.600 -0.4927 -0.0243  0.2107
 4453SOL    HW124992   0.821   2.430  15.507 -2.4932 -2.1637  0.8081
 4453SOL    HW224993   0.835   2.535  15.618  0.8201 -0.1978  1.1887
 4454SOL     OW24994   4.587   3.165   5.137 -0.2972  0.5705 -0.2930
 4454SOL    HW124995   4.608   3.102   5.206  0.2270  0.4836 -0.5329
 4454SOL    HW224996   4.566   3.108   5.062  1.0541  0.9689 -0.9801
 4455SOL     OW24997   3.293   3.425   5.202 -0.4784 -0.2495 -1.0850
 4455SOL    HW124998   3.233   3.417   5.128 -2.6426 -1.1322  0.7764
 4455SOL    HW224999   3.360   3.491   5.184 -0.8885  1.0214  2.0432
 4456SOL     OW25000   2.364   4.304   9.498 -0.2803  0.0780 -0.1763
 4456SOL    HW125001   2.327   4.365   9.562  1.2083  0.3960  0.3762
 4456SOL    HW225002   2.442   4.266   9.538  1.0081  2.1123 -0.7680
 4457SOL     OW25003   4.061   2.829  11.059 -0.0627  0.0691  0.4690
 4457SOL    HW125004   4.066   2.756  10.997 -1.5384 -0.4116  0.9020
 4457SOL    HW225005   4.109   2.795  11.135 -1.2998  0.7299  1.5532
 4458SOL     OW25006   0.494   2.206   2.287  0.2802  0.0170  0.1181
 4458SOL    HW125007   0.545   2.167   2.216  0.6466  0.3296  0.2156
 4458SOL    HW225008   0.415   2.151   2.283  0.1180  0.3258 -1.0806
 4459SOL     OW25009   2.438   2.162  12.853  0.4542  0.1334 -0.4055
 4459SOL    HW125010   2.458   2.204  12.936  0.0547  0.1614 -0.3260
 4459SOL    HW225011   2.433   2.237  12.793 -0.0420  1.6443  1.5031
 4460SOL     OW25012   4.127   1.413  17.117 -0.7864  0.0690 -0.1342
 4460SOL    HW125013   4.199   1.476  17.122 -0.9174  0.2230 -0.1829
 4460SOL    HW225014   4.156   1.347  17.054  1.0772  1.1310 -0.4031
 4461SOL     OW25015   3.303   2.942   8.301 -0.7109 -0.0730 -0.1278
 4461SOL    HW125016   3.228   2.898   8.262  1.0248 -0.8197 -2.5879
 4461SOL    HW225017   3.313   3.026   8.257  2.4617 -0.3381  0.0623
 4462SOL     OW25018   4.023   4.410   5.615 -0.2531  0.0718 -0.6206
 4462SOL    HW125019   3.975   4.385   5.536 -0.5647  1.0049 -0.7327
 4462SOL    HW225020   4.087   4.340   5.626  1.0014  0.9735 -2.1315
 4463SOL     OW25021   3.672   3.197   5.431  0.7919 -1.0187  0.0500
 4463SOL    HW125022   3.593   3.250   5.419  1.7342  0.3236 -0.1309
 4463SOL    HW225023   3.712   3.229   5.512  0.3701 -1.1355  0.3089
 4464SOL     OW25024   0.477   2.537  12.763  0.7147 -0.0104  0.0359
 4464SOL    HW125025   0.555   2.512  12.813  0.9900 -2.1087 -1.4622
 4464SOL    HW225026   0.469   2.454  12.716 -0.9858  0.1904 -0.0274
 4465SOL     OW25027   3.146   0.566   7.179  0.1392 -0.1038  0.1384
 4465SOL    HW125028   3.130   0.503   7.109  0.3925 -1.0008  0.8758
 4465SOL    HW225029   3.214   0.518   7.226 -0.6285 -0.2257  1.1323
 4466SOL     OW25030   0.007   4.466  14.362  0.2237 -0.4473 -0.6532
 4466SOL    HW125031   0.062   4.399  14.321  0.5782 -0.1899 -0.5955
 4466SOL    HW225032   4.656   4.421  14.357  1.2070 -2.2530 -1.3262
 4467SOL     OW25033   3.167   3.012   2.960 -0.6002 -0.7873 -0.0908
 4467SOL    HW125034   3.087   3.054   2.992  1.4835  0.9573  2.7060
 4467SOL    HW225035   3.209   2.999   3.044 -1.0696 -2.3023 -0.0917
 4468SOL     OW25036   4.362   4.698   9.162 -0.0602 -0.3059 -0.4702
 4468SOL    HW125037   4.444   4.651   9.179 -0.7869 -1.2100  0.5311
 4468SOL    HW225038   4.305   4.623   9.145  1.7237 -1.7219 -0.3297
 4469SOL     OW25039   1.193   1.124   6.451  0.0853 -0.4097  0.2797
 4469SOL    HW125040   1.218   1.168   6.532 -1.1929  0.3760  0.2592
 4469SOL    HW225041   1.260   1.058   6.435  1.0837  0.4880  0.8130
 4470SOL     OW25042   1.649   3.411   5.092  0.3943  0.0115 -0.1348
 4470SOL    HW125043   1.642   3.318   5.072 -0.7535  0.2693 -0.9318
 4470SOL    HW225044   1.703   3.432   5.015 -0.6882  2.7707 -0.1256
 4471SOL     OW25045   3.225   4.474   4.063 -0.9911 -0.1221 -0.5165
 4471SOL    HW125046   3.206   4.560   4.028  0.0828  1.6732  3.2836
 4471SOL    HW225047   3.203   4.481   4.156 -2.5423 -0.3043 -0.8572
 4472SOL     OW25048   4.011   0.222  11.054 -0.4619  0.1665 -0.5559
 4472SOL    HW125049   4.016   0.210  11.149 -0.1095  0.9118 -0.4826
 4472SOL    HW225050   4.088   0.278  11.048 -0.8741  0.8384  0.3809
 4473SOL     OW25051   2.177   2.392   0.369  0.0352 -0.0480 -0.3005
 4473SOL    HW125052   2.155   2.460   0.432 -1.4550 -1.9350  1.2240
 4473SOL    HW225053   2.226   2.333   0.427  1.2834  0.0500 -1.2555
 4474SOL     OW25054   0.768   2.604  13.933  0.2819 -0.5947  0.2020
 4474SOL    HW125055   0.696   2.576  13.877 -0.2842  0.4740  0.3879
 4474SOL    HW225056   0.807   2.670  13.877 -0.1173  0.0125  0.6377
 4475SOL     OW25057   2.410   3.863   3.636  0.0845 -0.5098  0.0753
 4475SOL    HW125058   2.326   3.849   3.593  1.3359 -1.5216 -2.0355
 4475SOL    HW225059   2.464   3.909   3.571  3.0860 -1.8799  1.5931
 4476SOL     OW25060   2.674   0.833   6.813 -0.4398  0.0854 -1.0700
 4476SOL    HW125061   2.678   0.927   6.833 -0.0536 -0.0770 -0.3780
 4476SOL    HW225062   2.764   0.815   6.786 -1.4480 -0.3841 -4.0972
 4477SOL     OW25063   2.047   1.668   8.214  0.6405  0.0100  0.4582
 4477SOL    HW125064   2.083   1.746   8.257  1.7514 -0.3293  0.1300
 4477SOL    HW225065   1.961   1.653   8.253 -0.3540  1.3673 -1.1823
 4478SOL     OW25066   0.121   1.022   4.684 -0.2141  0.2482 -0.6273
 4478SOL    HW125067   0.098   0.939   4.726  1.4023 -0.5512 -1.3037
 4478SOL    HW225068   0.211   1.004   4.655  0.5595  0.7618  1.4405
 4479SOL     OW25069   1.627   1.079  15.573 -0.3605 -0.3567  0.2205
 4479SOL    HW125070   1.561   1.069  15.642 -0.8787 -0.7859 -0.3404
 4479SOL    HW225071   1.670   1.161  15.600 -1.3916  0.4203 -0.5326
 4480SOL     OW25072   2.070   3.461   5.391  0.6744  0.3731 -0.3132
 4480SOL    HW125073   2.070   3.446   5.296  1.6072  1.3520 -0.4725
 4480SOL    HW225074   2.163   3.480   5.404  1.2368 -2.3640 -0.3025
 4481SOL     OW25075   4.318   3.958  16.168  0.0377 -0.3281 -0.2332
 4481SOL    HW125076   4.252   4.006  16.218  1.8369  0.6236  1.2500
 4481SOL    HW225077   4.382   4.026  16.146 -0.9195  0.5505 -0.2669
 4482SOL     OW25078   2.382   2.237   2.964 -0.0444  0.3763  0.0614
 4482SOL    HW125079   2.358   2.186   3.041 -1.4443  1.2116  0.1626
 4482SOL    HW225080   2.475   2.213   2.959 -1.0082 -3.4350  0.3111
 4483SOL     OW25081   4.272   3.914   7.018 -0.3787 -0.7232 -0.2584
 4483SOL    HW125082   4.257   3.933   7.111 -2.3318  0.6082 -0.8300
 4483SOL    HW225083   4.322   3.990   6.990 -0.9038 -0.5120 -0.6384
 4484SOL     OW25084   4.202   0.164   4.065 -0.2015 -0.1411  0.5061
 4484SOL    HW125085   4.292   0.137   4.081 -0.3816 -0.3828  1.1385
 4484SOL    HW225086   4.166   0.160   4.154 -0.2485  0.7409  0.5287
 4485SOL     OW25087   0.039   2.317   8.864 -0.0445 -0.2549 -0.8164
 4485SOL    HW125088   0.107   2.380   8.841  0.9222 -1.1529 -0.4660
 4485SOL    HW225089   0.082   2.233   8.847  0.3344 -0.6744  2.1711
 4486SOL     OW25090   1.620   1.498   5.959 -0.2684  0.3342 -0.5082
 4486SOL    HW125091   1.664   1.574   5.998 -1.0559  0.0752  0.8667
 4486SOL    HW225092   1.556   1.472   6.024  0.0042 -0.4265 -0.5349
 4487SOL     OW25093   2.827   4.145   1.694 -0.0081  0.3579  0.3607
 4487SOL    HW125094   2.752   4.094   1.727  0.2304 -0.1193  0.1614
 4487SOL    HW225095   2.785   4.196   1.625  0.6217 -1.6460 -1.4970
 4488SOL     OW25096   3.876   4.529  10.176 -0.3783 -0.0291 -0.2076
 4488SOL    HW125097   3.885   4.446  10.223 -0.4447 -0.6523 -1.2897
 4488SOL    HW225098   3.884   4.496  10.086  0.9089  3.4754 -1.3847
 4489SOL     OW25099   2.754   0.926   7.140 -0.2751 -0.5508  0.5508
 4489SOL    HW125100   2.757   0.886   7.227  1.0306  0.4522  0.9835
 4489SOL    HW225101   2.818   0.872   7.093  0.7944  0.2544  1.0495
 4490SOL     OW25102   1.724   3.502   6.960 -0.0591  0.3194 -0.3768
 4490SOL    HW125103   1.727   3.572   7.025  0.1298  1.9739 -2.1762
 4490SOL    HW225104   1.648   3.450   6.986  0.9805  0.1595  2.3348
 4491SOL     OW25105   4.575   3.600   5.772 -0.0901  0.4545  0.4516
 4491SOL    HW125106   4.636   3.650   5.718 -0.4197 -1.0035 -1.2581
 4491SOL    HW225107   4.597   3.640   5.857  1.0765  0.0658  0.3401
 4492SOL     OW25108   0.517   0.451   6.773 -0.0422  0.5260 -0.1900
 4492SOL    HW125109   0.587   0.508   6.741 -0.7261  1.3199 -0.2543
 4492SOL    HW225110   0.550   0.373   6.728  0.5156  0.3337  0.5612
 4493SOL     OW25111   2.591   4.655   3.888 -0.1229 -0.3345 -0.0025
 4493SOL    HW125112   2.607   4.663   3.982 -1.5256  0.1750  0.1991
 4493SOL    HW225113   2.656   4.716   3.854  1.2572 -3.0706 -2.3201
 4494SOL     OW25114   1.405   3.777   5.345 -0.2028  0.5834 -0.0808
 4494SOL    HW125115   1.416   3.712   5.276 -1.1014  2.2177 -1.7850
 4494SOL    HW225116   1.477   3.754   5.404 -0.6450 -0.6839 -0.0406
 4495SOL     OW25117   1.383   3.819   7.575  0.6401 -0.3111  0.7071
 4495SOL    HW125118   1.340   3.801   7.659  0.1418  0.4113  0.5974
 4495SOL    HW225119   1.433   3.894   7.607  0.9995 -1.0368  1.8554
 4496SOL     OW25120   1.537   4.350   8.684 -0.1982 -0.0805  0.2752
 4496SOL    HW125121   1.470   4.291   8.647 -0.1085  0.2074 -0.3471
 4496SOL    HW225122   1.564   4.297   8.759  0.0320 -1.8113 -1.0151
 4497SOL     OW25123   2.022   3.743   1.057 -0.2726  0.2589 -0.0961
 4497SOL    HW125124   1.955   3.811   1.053 -0.4783  0.0577 -0.0722
 4497SOL    HW225125   1.967   3.667   1.076  2.1583 -1.1781  1.2299
 4498SOL     OW25126   0.819   1.851   5.777 -0.1363 -0.5168 -0.1401
 4498SOL    HW125127   0.897   1.842   5.723  1.3741 -0.8829  2.0693
 4498SOL    HW225128   0.845   1.915   5.844  0.5038 -1.2747  0.3436
 4499SOL     OW25129   0.077   1.134   3.625  0.1772 -0.7264  0.0380
 4499SOL    HW125130   0.054   1.041   3.619  0.9422 -0.7740 -1.9777
 4499SOL    HW225131   4.726   1.179   3.623  1.3672  1.6155  2.0949
 4500SOL     OW25132   2.377   1.767   5.245  0.5384 -0.6232  0.1735
 4500SOL    HW125133   2.375   1.694   5.184 -3.0569 -0.2290 -0.1741
 4500SOL    HW225134   2.285   1.783   5.265  0.8151  0.8501  0.2689
 4501SOL     OW25135   2.738   0.331   9.468 -0.2167  0.3214 -0.0379
 4501SOL    HW125136   2.667   0.360   9.525 -0.5024  1.5092 -0.9961
 4501SOL    HW225137   2.801   0.282   9.521 -0.1216  2.1189  1.4951
 4502SOL     OW25138   2.086   2.376  10.825  0.4292  0.3982  0.5447
 4502SOL    HW125139   2.111   2.392  10.734  0.3864  0.0027  0.4643
 4502SOL    HW225140   2.038   2.457  10.846 -1.3214 -0.5875  0.3137
 4503SOL     OW25141   0.212   0.315   8.849 -0.2170 -0.2834  0.2242
 4503SOL    HW125142   0.141   0.263   8.885 -0.0960 -1.6740 -1.5563
 4503SOL    HW225143   0.287   0.262   8.876  0.9208 -1.1128 -4.4462
 4504SOL     OW25144   0.719   2.790   9.140 -0.0673 -0.1744  0.9422
 4504SOL    HW125145   0.814   2.799   9.153 -0.2371  0.8138  1.4332
 4504SOL    HW225146   0.713   2.727   9.068  0.9499  0.6297  0.1527
 4505SOL     OW25147   1.157   1.977   5.326 -0.0851 -0.6792  0.5279
 4505SOL    HW125148   1.158   1.886   5.296 -0.9286  0.3325 -2.6603
 4505SOL    HW225149   1.167   2.020   5.241  0.1004  1.2877  1.5352
 4506SOL     OW25150   0.834   1.721  12.146 -0.3563 -0.2949  0.1413
 4506SOL    HW125151   0.846   1.653  12.080 -0.6407 -0.5185  0.3193
 4506SOL    HW225152   0.757   1.765  12.108  1.5763  0.0668 -3.3356
 4507SOL     OW25153   2.889   2.232   9.478  0.0087 -0.1497  0.0159
 4507SOL    HW125154   2.946   2.183   9.537 -0.5429 -1.5920 -0.6664
 4507SOL    HW225155   2.853   2.294   9.542  2.1407 -1.4946  2.4937
 4508SOL     OW25156   3.492   0.140   8.713  0.3759 -0.1630  0.1442
 4508SOL    HW125157   3.443   0.081   8.655 -0.6814  3.8517 -3.0421
 4508SOL    HW225158   3.431   0.213   8.701  0.2243 -0.1271  1.1959
 4509SOL     OW25159   3.408   4.341   6.753  0.0011 -0.2583  0.1377
 4509SOL    HW125160   3.465   4.268   6.729 -0.1625 -1.0773  2.1666
 4509SOL    HW225161   3.322   4.301   6.753 -0.2894  0.3696 -0.2103
 4510SOL     OW25162   4.244   1.354  11.511  0.1223 -0.2102  0.1070
 4510SOL    HW125163   4.153   1.381  11.512  0.2287  0.1953 -0.9814
 4510SOL    HW225164   4.268   1.370  11.420 -0.7486  0.8014  0.0687
 4511SOL     OW25165   2.383   1.473   2.720  0.3786 -0.0485  0.1968
 4511SOL    HW125166   2.373   1.420   2.641 -1.5135  0.3190  0.1857
 4511SOL    HW225167   2.475   1.451   2.729  0.7208  0.5543 -1.7616
 4512SOL     OW25168   1.927   0.301  17.067 -0.1316 -0.6306 -0.2927
 4512SOL    HW125169   1.909   0.265  17.154  1.7018 -0.0007  0.3451
 4512SOL    HW225170   1.877   0.382  17.070 -2.4442 -2.1202  2.4104
 4513SOL     OW25171   4.672   0.869  16.249  0.0489  0.9442  0.1034
 4513SOL    HW125172   4.670   0.901  16.159 -1.0984  0.0074 -0.1968
 4513SOL    HW225173   4.599   0.917  16.289  0.1519  0.8632  0.3926
 4514SOL     OW25174   3.633   0.884   8.435  0.1607  0.1174  0.0932
 4514SOL    HW125175   3.559   0.894   8.376  0.8057  0.8310 -0.5940
 4514SOL    HW225176   3.589   0.885   8.520  1.0440 -0.2918  0.5623
 4515SOL     OW25177   0.540   3.300  12.054 -0.7673  0.0231  0.3744
 4515SOL    HW125178   0.558   3.368  12.119 -1.8059  0.2994  0.3801
 4515SOL    HW225179   0.543   3.216  12.099  2.9859 -0.5184 -0.8956
 4516SOL     OW25180   2.915   0.882  17.564  0.1458 -0.0189  0.5622
 4516SOL    HW125181   2.913   0.949  17.495  2.3345 -0.8367 -0.2881
 4516SOL    HW225182   3.000   0.902  17.603  0.1982 -0.3951  0.6437
 4517SOL     OW25183   4.731   4.154   5.406  0.6522 -0.0234  0.3785
 4517SOL    HW125184   0.061   4.098   5.363 -1.0864 -0.5846 -1.4863
 4517SOL    HW225185   4.695   4.085   5.463 -1.0590  1.6253  1.2977
 4518SOL     OW25186   2.970   0.774   7.683 -0.1790  0.9145 -0.0941
 4518SOL    HW125187   3.037   0.827   7.640  0.1298 -0.5623 -1.4040
 4518SOL    HW225188   2.942   0.722   7.608 -0.8904 -0.9549  1.4893
 4519SOL     OW25189   0.055   0.990  11.832 -0.3524  0.1853 -0.4210
 4519SOL    HW125190   0.058   0.999  11.927  0.3143 -2.0337 -0.2231
 4519SOL    HW225191   0.018   1.075  11.809 -1.0098 -0.5029 -1.9545
 4520SOL     OW25192   3.369   3.600  11.067 -0.0234 -0.1331  0.1141
 4520SOL    HW125193   3.439   3.603  11.133  0.2742  0.5089 -0.2306
 4520SOL    HW225194   3.350   3.693  11.059 -0.7443 -0.3785 -0.9261
 4521SOL     OW25195   3.730   4.675  16.719 -0.0056  0.2906 -0.7792
 4521SOL    HW125196   3.756   4.671  16.811  0.4066 -1.3043 -0.9752
 4521SOL    HW225197   3.734   4.583  16.696 -1.9305 -0.5911  2.4551
 4522SOL     OW25198   2.660   2.554   5.762 -0.1045  0.2789  0.5278
 4522SOL    HW125199   2.745   2.513   5.741  0.7416  2.5180 -0.3692
 4522SOL    HW225200   2.645   2.614   5.689  1.5373  3.2732  2.7114
 4523SOL     OW25201   1.838   2.028   4.577  0.0189 -0.3640  0.1530
 4523SOL    HW125202   1.859   1.940   4.544  0.7026 -0.8214  1.7798
 4523SOL    HW225203   1.867   2.017   4.668 -0.4223  0.5167  0.4031
 4524SOL     OW25204   2.365   4.228   3.088 -0.4251  0.5254  0.8576
 4524SOL    HW125205   2.321   4.144   3.073  0.5007  0.0291  0.9336
 4524SOL    HW225206   2.435   4.197   3.146  1.8030  2.2287 -0.9146
 4525SOL     OW25207   3.093   3.641   4.364  0.6724  0.4100  0.5129
 4525SOL    HW125208   3.157   3.655   4.295  0.2442 -0.9680 -0.1598
 4525SOL    HW225209   3.135   3.590   4.433  0.4025  2.0651  1.9111
 4526SOL     OW25210   0.584   2.596   6.688 -0.0014  0.1169 -0.0178
 4526SOL    HW125211   0.527   2.531   6.647  0.5179  0.7325 -1.7076
 4526SOL    HW225212   0.666   2.547   6.699 -0.5177 -0.6308  0.4767
 4527SOL     OW25213   3.695   0.495   3.957 -0.1935 -0.4703  0.3895
 4527SOL    HW125214   3.739   0.476   4.040 -0.4401  0.4509  0.7217
 4527SOL    HW225215   3.743   0.438   3.895 -2.0346 -1.3549 -0.2207
 4528SOL     OW25216   3.062   2.351   8.783 -0.6456 -0.0714  0.4605
 4528SOL    HW125217   3.009   2.371   8.860 -2.0855  1.1047 -0.8416
 4528SOL    HW225218   3.118   2.429   8.776 -0.8586 -0.0576 -1.1720
 4529SOL     OW25219   3.268   4.614   2.852 -0.4255 -0.0859 -0.2654
 4529SOL    HW125220   3.306   4.695   2.886  0.9835 -1.3925  1.2336
 4529SOL    HW225221   3.349   4.570   2.824 -0.7226 -1.3946  0.9263
 4530SOL     OW25222   3.285   4.240   2.905 -0.2230  0.1687 -0.0631
 4530SOL    HW125223   3.193   4.266   2.904  0.0891  1.2416 -2.6145
 4530SOL    HW225224   3.318   4.286   2.828  0.5449  0.6358  0.5493
 4531SOL     OW25225   0.519   4.293   4.654 -0.3344  0.2839 -0.3555
 4531SOL    HW125226   0.503   4.229   4.724  1.2763  0.6069  0.3210
 4531SOL    HW225227   0.493   4.239   4.580 -0.4704  1.5919 -1.2547
 4532SOL     OW25228   0.092   3.822   3.718 -0.4775  0.5500 -0.3879
 4532SOL    HW125229   0.054   3.890   3.663  1.6648  1.9654 -0.1565
 4532SOL    HW225230   0.097   3.741   3.668 -1.2191 -1.0982  2.2285
 4533SOL     OW25231   0.217   1.758   5.058  0.1831 -0.1857 -0.2465
 4533SOL    HW125232   0.299   1.803   5.039  0.5540 -0.7424  0.0467
 4533SOL    HW225233   0.238   1.677   5.012  2.4696  0.4880 -0.3730
 4534SOL     OW25234   3.820   2.456   6.635 -0.6882  0.8046 -0.3226
 4534SOL    HW125235   3.773   2.390   6.687 -0.3776 -0.4284 -1.5853
 4534SOL    HW225236   3.802   2.432   6.544  2.1962  0.9027 -0.9231
 4535SOL     OW25237   3.869   0.928  15.629  0.4635 -0.1621 -0.1697
 4535SOL    HW125238   3.867   0.964  15.717 -3.0692  1.2707 -0.8722
 4535SOL    HW225239   3.962   0.917  15.608  0.1761  1.7637 -2.3873
 4536SOL     OW25240   3.182   3.419  10.350 -0.1263  1.0007  0.0321
 4536SOL    HW125241   3.215   3.448  10.435  0.9223  1.6725 -0.6072
 4536SOL    HW225242   3.238   3.341  10.349 -0.4021  0.8230 -1.0604
 4537SOL     OW25243   3.606   2.452   0.962  0.8529 -0.4870 -0.0128
 4537SOL    HW125244   3.630   2.384   1.025  1.7528  0.9579  1.2299
 4537SOL    HW225245   3.572   2.515   1.026  2.1006 -0.6265  0.7829
 4538SOL     OW25246   4.165   1.552   8.692 -0.0544  0.7486  0.2629
 4538SOL    HW125247   4.246   1.596   8.669 -0.1720  1.2914  0.8903
 4538SOL    HW225248   4.203   1.465   8.682  0.6889  1.1941 -0.7546
 4539SOL     OW25249   4.623   4.660   1.468 -0.2619  0.5882  0.1417
 4539SOL    HW125250   4.543   4.642   1.418  0.6058  1.8972 -1.7384
 4539SOL    HW225251   4.587   0.004   1.511 -1.7262  1.3264 -2.4173
 4540SOL     OW25252   4.450   2.149  13.697 -0.0098  0.1279  0.2094
 4540SOL    HW125253   4.538   2.185  13.707  0.5974 -0.9505 -1.2303
 4540SOL    HW225254   4.418   2.179  13.612  0.5008 -0.3977 -0.1675
 4541SOL     OW25255   4.246   0.549   7.732 -0.4499  0.3519 -0.2573
 4541SOL    HW125256   4.174   0.512   7.783 -0.3169 -0.6985 -0.8346
 4541SOL    HW225257   4.194   0.613   7.684 -2.0625 -0.3085  0.5896
 4542SOL     OW25258   4.532   1.415  13.185  0.6697  1.3326  0.0240
 4542SOL    HW125259   4.552   1.409  13.092 -0.2567 -1.9945  0.0381
 4542SOL    HW225260   4.475   1.492  13.183 -0.6195  0.3575 -1.0131
 4543SOL     OW25261   3.836   2.034   3.232 -0.0047  0.4219 -0.1086
 4543SOL    HW125262   3.843   2.086   3.152 -0.2069  0.7391  0.0792
 4543SOL    HW225263   3.772   1.965   3.216  0.7096 -0.0575 -0.9352
 4544SOL     OW25264   4.680   2.076   2.134 -0.0656 -0.0695 -0.1568
 4544SOL    HW125265   0.031   2.102   2.168  0.0724 -0.6267 -0.0800
 4544SOL    HW225266   4.653   2.146   2.075 -0.6271  0.2339  0.4485
 4545SOL     OW25267   2.308   3.194   4.451 -0.2556  0.0575 -0.3584
 4545SOL    HW125268   2.279   3.281   4.424  2.2609  1.0456  0.0802
 4545SOL    HW225269   2.266   3.136   4.388  2.0581 -2.2141  0.2058
 4546SOL     OW25270   2.422   2.392   1.814  0.0942  0.4207 -0.5802
 4546SOL    HW125271   2.345   2.335   1.812  0.5985 -0.3242  1.0881
 4546SOL    HW225272   2.390   2.480   1.794 -2.5980 -0.5027 -0.2907
 4547SOL     OW25273   0.853   0.527   6.939 -0.2627  0.1677 -0.4425
 4547SOL    HW125274   0.808   0.564   6.863 -0.0431  0.2003 -0.5568
 4547SOL    HW225275   0.901   0.453   6.901 -1.7879 -1.2993  0.4361
 4548SOL     OW25276   4.668   3.456  15.205 -0.6206 -0.2933  0.0095
 4548SOL    HW125277   4.703   3.389  15.264  1.9341  1.1471  0.1549
 4548SOL    HW225278   4.700   3.420  15.122 -2.0026  3.5621 -2.1713
 4549SOL     OW25279   1.986   1.667   7.183 -0.2916 -0.3383  0.3747
 4549SOL    HW125280   1.985   1.573   7.170 -0.1743 -0.3093  0.1697
 4549SOL    HW225281   2.058   1.694   7.126 -0.2936 -1.6261 -0.2260
 4550SOL     OW25282   0.005   0.436   9.279  0.2927 -0.0011  0.2711
 4550SOL    HW125283   0.064   0.459   9.207 -0.2590  1.0014  0.1375
 4550SOL    HW225284   4.679   0.507   9.260 -0.0563 -0.4322 -0.2585
 4551SOL     OW25285   4.449   3.675   5.117  0.4315  0.2590 -0.1422
 4551SOL    HW125286   4.461   3.580   5.123 -0.6754  0.1875  0.9422
 4551SOL    HW225287   4.395   3.688   5.039  0.3056  2.9265  0.3786
 4552SOL     OW25288   0.261   2.866   2.511 -0.9330  0.2981 -0.2264
 4552SOL    HW125289   0.259   2.819   2.428  2.2376  0.5672 -0.4703
 4552SOL    HW225290   0.262   2.959   2.486  2.9785  0.3073 -0.1140
 4553SOL     OW25291   1.664   2.159  11.993 -0.8365 -0.2178  0.1867
 4553SOL    HW125292   1.650   2.116  12.078 -0.1589  1.6173  1.2364
 4553SOL    HW225293   1.698   2.248  12.006  0.6155 -0.9864  1.6542
 4554SOL     OW25294   1.653   0.545  12.846  0.2656  0.2941 -0.0163
 4554SOL    HW125295   1.565   0.507  12.838  2.1017 -3.7813 -1.2580
 4554SOL    HW225296   1.706   0.465  12.840  1.3364  0.8728  1.9696
 4555SOL     OW25297   1.887   1.652   3.862  0.7313 -0.1651  0.4571
 4555SOL    HW125298   1.875   1.563   3.830  0.2653  0.0910 -0.0679
 4555SOL    HW225299   1.940   1.625   3.937  1.8035 -0.4848 -0.4027
 4556SOL     OW25300   4.665   1.243  11.658 -0.3270  0.6442 -0.4596
 4556SOL    HW125301   4.593   1.255  11.596  0.1902 -2.2633 -1.5922
 4556SOL    HW225302   4.668   1.331  11.696 -1.4928  0.3412  0.3416
 4557SOL     OW25303   3.892   4.063   9.174 -0.1434  0.1316 -0.0631
 4557SOL    HW125304   3.832   4.132   9.144 -1.8925 -1.8726 -1.1079
 4557SOL    HW225305   3.838   4.024   9.243 -1.5011 -1.7893 -2.2087
 4558SOL     OW25306   3.748   0.152   1.402  0.1314  0.5053  0.1119
 4558SOL    HW125307   3.815   0.197   1.350  1.2210 -0.0608  1.0189
 4558SOL    HW225308   3.767   0.062   1.375  0.5692  0.8085 -0.5794
 4559SOL     OW25309   1.093   0.492   2.586  0.3253 -0.4289  0.4369
 4559SOL    HW125310   1.085   0.565   2.647 -1.8177  0.6038 -1.0908
 4559SOL    HW225311   1.170   0.514   2.533 -1.3244 -0.6249 -2.0502
 4560SOL     OW25312   1.347   1.043   4.913  0.1505  0.0679  0.3642
 4560SOL    HW125313   1.288   1.108   4.952  2.3426  2.5850 -0.5549
 4560SOL    HW225314   1.409   1.098   4.865 -0.0710 -0.0026  0.0013
 4561SOL     OW25315   4.236   1.393  11.221 -0.0945  0.0978  0.0287
 4561SOL    HW125316   4.247   1.479  11.181 -0.9467  0.8439  1.3651
 4561SOL    HW225317   4.200   1.341  11.150  0.4949 -1.5630  0.9400
 4562SOL     OW25318   0.682   0.109   1.108 -0.0703 -0.4270 -0.0718
 4562SOL    HW125319   0.619   0.126   1.038  0.9834  2.9753 -0.1972
 4562SOL    HW225320   0.744   0.064   1.050 -1.2374 -1.4916 -0.4909
 4563SOL     OW25321   3.084   0.433   5.110  0.0816 -0.2873  0.2915
 4563SOL    HW125322   3.121   0.427   5.198  1.0532  2.3672  0.0787
 4563SOL    HW225323   2.997   0.468   5.128  0.2122  0.9999 -1.4790
 4564SOL     OW25324   1.183   1.258   2.807 -0.0605 -0.2596 -0.0134
 4564SOL    HW125325   1.271   1.277   2.776 -0.4037 -0.4945 -1.1426
 4564SOL    HW225326   1.168   1.327   2.872 -0.5924 -1.1559  0.8182
 4565SOL     OW25327   2.664   4.581   2.380  0.1354 -1.1579  0.0092
 4565SOL    HW125328   2.630   4.511   2.323  0.0783  0.7911 -2.3593
 4565SOL    HW225329   2.755   4.578   2.348 -0.7886 -1.4484 -2.6366
 4566SOL     OW25330   2.898   2.942  14.504  0.1349  0.6868 -0.6181
 4566SOL    HW125331   2.822   2.999  14.512 -0.1831  0.1467  0.2218
 4566SOL    HW225332   2.965   2.994  14.548 -0.7021  0.8380  0.4591
 4567SOL     OW25333   1.259   2.955  15.016 -0.0857 -0.9002  0.2281
 4567SOL    HW125334   1.346   2.967  14.978  0.1797 -1.4837  0.6619
 4567SOL    HW225335   1.233   2.875  14.970  0.2959  0.1750 -1.8554
 4568SOL     OW25336   2.428   2.390   6.792 -0.3326  0.1716  0.0573
 4568SOL    HW125337   2.516   2.395   6.831  0.8941  0.2874 -2.7151
 4568SOL    HW225338   2.444   2.410   6.700  1.4686  0.7074  0.4809
 4569SOL     OW25339   0.625   4.657   9.086  0.3192 -0.4494  0.4646
 4569SOL    HW125340   0.602   4.565   9.100  0.2852 -0.1088  2.6884
 4569SOL    HW225341   0.640   4.660   8.991 -2.4761  0.2416  0.0299
 4570SOL     OW25342   3.182   2.840   7.523 -0.3697  0.0212 -0.0637
 4570SOL    HW125343   3.270   2.876   7.510 -0.4916 -0.3920 -1.9761
 4570SOL    HW225344   3.203   2.752   7.555 -0.0768  0.6396  1.4555
 4571SOL     OW25345   1.484   3.922   4.473 -0.2121  0.3181  0.2375
 4571SOL    HW125346   1.576   3.946   4.461  0.0509 -0.9544 -0.3324
 4571SOL    HW225347   1.470   3.838   4.428 -0.0412  0.8890 -0.8717
 4572SOL     OW25348   3.942   4.718   7.417 -0.0724  1.3753  0.2568
 4572SOL    HW125349   3.969   4.711   7.325  1.7407 -0.0302  0.9062
 4572SOL    HW225350   3.924   4.625   7.433  0.7731  0.7749 -2.1901
 4573SOL     OW25351   2.732   2.484   8.517  0.4975 -0.2636  0.6202
 4573SOL    HW125352   2.645   2.498   8.555  1.2207  1.4625  1.6166
 4573SOL    HW225353   2.699   2.474   8.428  1.3069  1.7824  0.1028
 4574SOL     OW25354   1.426   2.319  13.055 -0.5792 -0.0247  0.4237
 4574SOL    HW125355   1.445   2.352  12.968 -1.8390  2.3785  1.0487
 4574SOL    HW225356   1.361   2.249  13.051  0.5165 -1.0846  1.1441
 4575SOL     OW25357   2.081   2.666  16.868  0.0572 -0.1736 -0.3140
 4575SOL    HW125358   2.091   2.575  16.840 -0.9540 -0.2258 -0.5165
 4575SOL    HW225359   2.157   2.710  16.830  1.0539 -1.7280 -0.1019
 4576SOL     OW25360   1.327   0.683   1.324  0.6390 -0.3049  0.4788
 4576SOL    HW125361   1.349   0.642   1.407  1.3311 -0.5194  0.1936
 4576SOL    HW225362   1.385   0.643   1.259  0.2331 -2.8368  1.6932
 4577SOL     OW25363   1.398   2.232   6.017 -0.2709 -0.2993  0.0366
 4577SOL    HW125364   1.490   2.205   6.014 -0.3053 -0.7414  2.5836
 4577SOL    HW225365   1.368   2.145   6.043 -0.8860 -0.0730  0.0823
 4578SOL     OW25366   1.968   3.149   2.600 -0.2285  0.1142  0.5675
 4578SOL    HW125367   1.939   3.160   2.690  1.5957 -0.9365  1.2788
 4578SOL    HW225368   1.963   3.230   2.550 -0.8950  0.7837  1.7422
 4579SOL     OW25369   2.889   2.828   7.864 -0.4518 -0.2067  1.0291
 4579SOL    HW125370   2.826   2.785   7.806 -0.4992 -0.3315  1.1722
 4579SOL    HW225371   2.965   2.845   7.809  1.5474 -0.5990  3.6461
 4580SOL     OW25372   1.499   0.402   7.014 -0.1321 -0.4675 -0.1321
 4580SOL    HW125373   1.590   0.393   7.040 -0.5992 -1.6558  1.1139
 4580SOL    HW225374   1.461   0.358   7.089  0.1456  0.3926  0.5135
 4581SOL     OW25375   1.349   1.515   3.751 -0.4547  0.2108 -0.0008
 4581SOL    HW125376   1.417   1.452   3.728 -0.7524 -0.5097  1.0958
 4581SOL    HW225377   1.364   1.570   3.674 -0.3161  1.9671  1.2737
 4582SOL     OW25378   2.359   2.931  10.066 -0.0811  0.1137 -0.6094
 4582SOL    HW125379   2.356   2.985   9.987 -1.6757 -2.1972 -2.1221
 4582SOL    HW225380   2.398   2.984  10.136 -3.3321  0.3735  0.9991
 4583SOL     OW25381   1.933   2.458   3.198  0.3119  0.0749  0.1344
 4583SOL    HW125382   1.848   2.479   3.236  0.5283 -1.3384  1.3821
 4583SOL    HW225383   1.947   2.545   3.159 -1.8344 -0.6993 -2.3757
 4584SOL     OW25384   0.827   4.592  11.585  0.2619  0.3626  0.3084
 4584SOL    HW125385   0.833   4.500  11.610 -0.2970  0.3640  0.4488
 4584SOL    HW225386   0.846   4.627  11.673  1.6340 -1.1567  0.6214
 4585SOL     OW25387   2.795   1.442   2.988 -0.1426 -0.3024 -0.3690
 4585SOL    HW125388   2.796   1.347   2.992 -1.3599 -0.2576  1.2272
 4585SOL    HW225389   2.793   1.470   3.080  0.2005 -0.4160 -0.3287
 4586SOL     OW25390   0.895   1.249   4.583  0.4437  0.0721  0.1419
 4586SOL    HW125391   0.881   1.344   4.592  0.4975 -0.0702  1.7465
 4586SOL    HW225392   0.806   1.217   4.572  0.0623  1.2207 -0.1686
 4587SOL     OW25393   3.202   0.362   5.371 -0.2302 -0.4466  1.0223
 4587SOL    HW125394   3.267   0.291   5.369 -0.7635 -0.9015 -0.2858
 4587SOL    HW225395   3.118   0.317   5.379  0.0149 -0.6786  2.2783
 4588SOL     OW25396   0.454   3.845   8.355  0.4480  0.1988  0.1932
 4588SOL    HW125397   0.546   3.871   8.361  0.5672 -0.0079 -0.7508
 4588SOL    HW225398   0.414   3.918   8.402 -0.1093 -0.1290  0.2247
 4589SOL     OW25399   4.668   1.875  14.200 -0.1271  0.4570 -0.2798
 4589SOL    HW125400   4.605   1.946  14.213 -2.1465 -1.3739 -0.2208
 4589SOL    HW225401   4.620   1.801  14.238 -1.1076  1.6749  0.8777
 4590SOL     OW25402   3.094   0.758  10.026  1.1336 -0.0431  0.3935
 4590SOL    HW125403   3.167   0.701  10.004  1.1465  0.5798 -1.1546
 4590SOL    HW225404   3.028   0.693  10.051  1.3518 -0.8177 -1.0425
 4591SOL     OW25405   1.579   4.642   8.604 -0.6497 -0.6136 -0.7541
 4591SOL    HW125406   1.566   4.551   8.575 -0.8696 -0.9039  0.2666
 4591SOL    HW225407   1.570   4.634   8.699  3.4423 -0.1515 -0.3211
 4592SOL     OW25408   0.579   0.789   8.551  0.4864 -0.0206 -0.8245
 4592SOL    HW125409   0.548   0.879   8.557 -1.3783 -0.8366  2.2835
 4592SOL    HW225410   0.493   0.751   8.534  1.5930 -3.8144  1.9625
 4593SOL     OW25411   4.541   4.463   6.271  0.1255  0.5143  0.1899
 4593SOL    HW125412   4.547   4.528   6.341  1.0679 -1.0065  1.5411
 4593SOL    HW225413   4.613   4.489   6.214  1.5084  0.2446  1.8033
 4594SOL     OW25414   3.103   3.642   2.243 -0.3107 -0.5932  0.0800
 4594SOL    HW125415   3.064   3.665   2.158  0.2170  1.7717  0.4912
 4594SOL    HW225416   3.020   3.625   2.287 -0.0318  0.3076  0.9410
 4595SOL     OW25417   3.845   4.715  12.406 -0.3561 -0.5548  0.5954
 4595SOL    HW125418   3.853   4.660  12.328 -3.0226  0.0641 -0.1234
 4595SOL    HW225419   3.934   0.016  12.409 -0.4194 -0.3692  0.3434
 4596SOL     OW25420   4.002   2.387   2.432 -0.4198 -0.1060 -0.0762
 4596SOL    HW125421   4.006   2.292   2.420  0.3153  0.1457 -1.9021
 4596SOL    HW225422   4.059   2.411   2.359 -1.1582 -1.8180 -1.2288
 4597SOL     OW25423   0.210   0.085   9.209  0.0459  0.0206 -0.1605
 4597SOL    HW125424   0.259   0.147   9.263  2.2031 -1.4407 -0.4408
 4597SOL    HW225425   0.253   0.095   9.124 -0.8865  0.6060 -0.5691
 4598SOL     OW25426   3.294   1.308  10.812 -0.5517 -0.4244  0.0191
 4598SOL    HW125427   3.383   1.338  10.797 -0.5205 -0.9879 -0.9813
 4598SOL    HW225428   3.270   1.348  10.896 -2.8056 -0.6271 -0.5299
 4599SOL     OW25429   3.665   1.732   7.095 -0.1604  0.2020 -0.4227
 4599SOL    HW125430   3.592   1.716   7.155 -1.4112 -0.0678 -2.0324
 4599SOL    HW225431   3.731   1.699   7.156  0.2662  3.2224  0.7814
 4600SOL     OW25432   1.982   4.718   4.992 -0.2770  0.1032  0.0434
 4600SOL    HW125433   2.051   0.032   4.946 -0.2175  1.2990  1.3882
 4600SOL    HW225434   1.913   0.008   4.932 -1.3919 -1.7925  0.5575
 4601SOL     OW25435   0.004   3.494  10.416 -0.2972 -0.2904 -0.4130
 4601SOL    HW125436   4.667   3.487  10.353  1.4025 -2.3326 -2.1007
 4601SOL    HW225437   4.682   3.502  10.493 -1.8217  1.5931 -1.7617
 4602SOL     OW25438   3.481   1.555   2.244  0.5260 -0.3045  0.1156
 4602SOL    HW125439   3.498   1.564   2.338  0.4051  0.8909  0.0143
 4602SOL    HW225440   3.472   1.649   2.235 -0.4670 -0.3681  0.4744
 4603SOL     OW25441   4.447   4.050   2.969  0.0418  1.1895  0.1646
 4603SOL    HW125442   4.458   3.957   2.950 -1.0867  1.4453 -1.7003
 4603SOL    HW225443   4.422   4.049   3.061 -0.1071 -1.0745  0.1000
 4604SOL     OW25444   2.611   3.651   9.175  0.1911 -1.1496 -0.0178
 4604SOL    HW125445   2.586   3.559   9.165 -2.2809 -0.5249  0.5376
 4604SOL    HW225446   2.522   3.686   9.180  0.2646 -1.5901  4.3009
 4605SOL     OW25447   0.396   2.014  11.602 -0.1059 -0.0796  0.6519
 4605SOL    HW125448   0.463   2.012  11.535 -1.1737  0.4489 -0.4238
 4605SOL    HW225449   0.423   1.941  11.659  0.0387 -1.1617 -0.8043
 4606SOL     OW25450   2.049   2.333   3.504  0.9571  0.2870  0.4142
 4606SOL    HW125451   1.984   2.404   3.501  0.6191 -0.0785 -0.9952
 4606SOL    HW225452   2.109   2.363   3.572  0.4742 -0.8908  1.3567
 4607SOL     OW25453   3.212   2.384  12.055 -0.1053  0.6876  0.0715
 4607SOL    HW125454   3.235   2.344  12.139  0.0169  0.5225 -0.0406
 4607SOL    HW225455   3.293   2.432  12.040  0.3021 -0.3020 -0.8979
 4608SOL     OW25456   4.346   2.173   8.431 -0.0500 -0.3391 -0.3914
 4608SOL    HW125457   4.362   2.099   8.373  1.4425 -0.3616  0.0582
 4608SOL    HW225458   4.326   2.120   8.508  0.0751  0.6693  0.3433
 4609SOL     OW25459   3.789   3.048   6.591 -0.6744  0.0357  0.0139
 4609SOL    HW125460   3.742   2.971   6.558 -2.0183  1.0862 -0.4901
 4609SOL    HW225461   3.866   3.041   6.535 -0.0745 -1.2490  0.9901
 4610SOL     OW25462   1.574   2.299   5.388 -0.7721  0.0264  0.4095
 4610SOL    HW125463   1.662   2.337   5.387 -2.3273  3.6421  1.9081
 4610SOL    HW225464   1.584   2.234   5.319 -1.3330  1.9811 -1.5449
 4611SOL     OW25465   4.418   4.272   2.812 -0.5986  0.3948  0.3302
 4611SOL    HW125466   4.324   4.272   2.830 -0.2879  0.7580  1.9257
 4611SOL    HW225467   4.444   4.215   2.884 -0.3976 -1.1790 -1.0006
 4612SOL     OW25468   3.994   2.309   8.518  0.1291 -0.4956  0.2704
 4612SOL    HW125469   4.045   2.294   8.598  2.5846  2.1308 -0.7741
 4612SOL    HW225470   3.912   2.329   8.563  1.4901  1.6644  1.8191
 4613SOL     OW25471   2.116   0.838  13.675 -0.2614  0.3136  0.2793
 4613SOL    HW125472   2.211   0.842  13.673 -0.2294 -1.0831 -2.1588
 4613SOL    HW225473   2.090   0.852  13.583  1.1915  0.8397 -0.0427
 4614SOL     OW25474   3.612   4.380   6.924 -0.5030  0.3952 -0.0105
 4614SOL    HW125475   3.640   4.297   6.960 -1.6933  0.4589  1.0302
 4614SOL    HW225476   3.535   4.363   6.871 -1.4372  0.1859  1.4276
 4615SOL     OW25477   2.599   4.615   9.386  0.3506  0.2587 -0.1942
 4615SOL    HW125478   2.591   4.707   9.412  0.4066 -0.7879  3.4138
 4615SOL    HW225479   2.530   4.612   9.319  0.6145 -0.7264 -0.4125
 4616SOL     OW25480   2.063   1.534   5.006  0.2816  0.0055 -0.2701
 4616SOL    HW125481   2.119   1.502   5.076  0.1155 -0.4994 -0.3679
 4616SOL    HW225482   2.076   1.628   5.019 -1.2105  0.2581 -0.5458
 4617SOL     OW25483   0.801   2.213   3.536 -0.0406  0.0421  0.1061
 4617SOL    HW125484   0.833   2.208   3.626 -0.2089 -0.1508  0.1557
 4617SOL    HW225485   0.783   2.121   3.514  1.3600 -0.3325  0.4964
 4618SOL     OW25486   0.232   1.981  14.790 -0.2667 -0.6581 -0.2357
 4618SOL    HW125487   0.160   1.995  14.729  0.1467  1.0788 -0.3410
 4618SOL    HW225488   0.304   1.971  14.727 -1.4382 -1.5789 -1.4086
 4619SOL     OW25489   3.389   4.385  10.828  0.0388 -0.3309  0.3789
 4619SOL    HW125490   3.309   4.392  10.776 -0.3101  0.0450  0.9779
 4619SOL    HW225491   3.359   4.322  10.893  0.9701 -2.1084 -0.9031
 4620SOL     OW25492   2.658   0.241   4.231 -0.3026 -0.3405  0.1900
 4620SOL    HW125493   2.739   0.251   4.280  1.0546  1.9462 -2.5816
 4620SOL    HW225494   2.612   0.310   4.280 -1.0512 -0.2451 -0.6438
 4621SOL     OW25495   2.498   0.981  11.073 -0.5882 -0.0303  0.5462
 4621SOL    HW125496   2.471   0.982  11.165 -2.3883  0.6270  0.0192
 4621SOL    HW225497   2.450   1.056  11.038 -0.8882 -0.6003 -0.2708
 4622SOL     OW25498   1.045   2.724  16.707 -0.2344  0.1654  0.4745
 4622SOL    HW125499   1.044   2.819  16.697  0.4336  0.1264  0.0623
 4622SOL    HW225500   1.051   2.728  16.803  0.2916 -1.5381  0.5119
 4623SOL     OW25501   0.308   1.777   4.188 -0.4058  0.0068 -0.4345
 4623SOL    HW125502   0.226   1.816   4.160  0.1521 -0.7517 -3.0866
 4623SOL    HW225503   0.360   1.790   4.109 -0.9933 -3.2706 -1.3625
 4624SOL     OW25504   0.272   1.674   7.438  0.1853 -0.3773  0.3105
 4624SOL    HW125505   0.306   1.747   7.489 -0.9860  1.7462 -1.9266
 4624SOL    HW225506   0.265   1.727   7.358 -0.7520  1.6651  1.7537
 4625SOL     OW25507   2.044   4.193   1.954  0.3829 -0.6678  0.1764
 4625SOL    HW125508   1.982   4.165   2.022  0.5832 -1.1275  0.1730
 4625SOL    HW225509   2.037   4.288   1.958  0.9814 -0.6044 -0.2943
 4626SOL     OW25510   1.488   2.418   3.782  0.7590  0.8594 -0.5270
 4626SOL    HW125511   1.428   2.426   3.857  0.8189 -2.5400 -0.1424
 4626SOL    HW225512   1.560   2.475   3.810  0.9972  0.9373 -1.2908
 4627SOL     OW25513   3.333   1.513   6.038 -0.1646 -0.8411 -0.2419
 4627SOL    HW125514   3.290   1.512   5.953  1.5568 -0.5871 -1.1053
 4627SOL    HW225515   3.288   1.581   6.088 -0.8584 -3.5250  2.8236
 4628SOL     OW25516   2.292   2.721   3.168 -0.0809 -0.3955  0.4685
 4628SOL    HW125517   2.354   2.650   3.156 -0.3790  0.1276 -3.9674
 4628SOL    HW225518   2.242   2.702   3.247 -0.1218  0.7567  0.7338
 4629SOL     OW25519   0.964   2.504   4.125 -0.0822  0.0772  0.0973
 4629SOL    HW125520   1.013   2.586   4.117  1.4680 -0.7447  0.9532
 4629SOL    HW225521   1.041   2.448   4.138 -0.9126 -1.4731 -1.6297
 4630SOL     OW25522   1.604   1.039   6.540  0.1759 -0.2615  0.3364
 4630SOL    HW125523   1.586   1.020   6.632  2.1778 -0.7816  0.6155
 4630SOL    HW225524   1.683   0.988   6.523  0.0780 -0.7774  1.4254
 4631SOL     OW25525   0.384   3.688   8.560 -0.3138  0.3772 -0.1937
 4631SOL    HW125526   0.300   3.644   8.548 -1.2160  1.2010  3.0844
 4631SOL    HW225527   0.403   3.732   8.477  0.7367  1.2340  0.4945
 4632SOL     OW25528   0.665   1.811   2.041  0.3630 -0.5345 -0.2820
 4632SOL    HW125529   0.579   1.792   2.002 -0.9540  0.6513  2.0296
 4632SOL    HW225530   0.717   1.751   1.989 -0.7490 -0.0382 -1.9894
 4633SOL     OW25531   2.497   4.149   0.057 -0.0693 -0.0203  0.3534
 4633SOL    HW125532   2.403   4.165   0.062 -0.1309 -0.2516 -0.0794
 4633SOL    HW225533   2.514   4.243   0.062  1.2134 -0.2626  0.7237
 4634SOL     OW25534   1.254   3.547   1.807  0.0155  0.3189 -0.0483
 4634SOL    HW125535   1.215   3.634   1.792 -0.4671 -0.2407 -2.0282
 4634SOL    HW225536   1.296   3.535   1.722  0.0109  0.7965 -0.1205
 4635SOL     OW25537   4.649   1.888   3.912 -0.5259  0.4079 -0.3990
 4635SOL    HW125538   4.580   1.880   3.978 -1.7744  0.5328 -1.6900
 4635SOL    HW225539   4.681   1.976   3.931  1.2273 -0.7211  1.9510
 4636SOL     OW25540   1.290   3.304   2.350 -0.1522  0.2044 -0.0420
 4636SOL    HW125541   1.269   3.286   2.441  0.7038  0.2342  0.1570
 4636SOL    HW225542   1.224   3.252   2.303 -0.9322  0.6274  0.5833
 4637SOL     OW25543   3.438   3.573   3.128 -0.3862 -0.6939  0.3055
 4637SOL    HW125544   3.354   3.601   3.163 -0.6193 -0.6246 -0.3246
 4637SOL    HW225545   3.414   3.585   3.037 -0.1230 -0.3352  0.2860
 4638SOL     OW25546   3.176   0.080  11.660  0.3533  0.4197 -0.8847
 4638SOL    HW125547   3.267   0.073  11.688  0.3628  0.3757 -0.9270
 4638SOL    HW225548   3.137   0.130  11.732  1.3588 -0.3580  0.2016
 4639SOL     OW25549   1.531   3.968  13.419  0.4444  0.0585  0.3137
 4639SOL    HW125550   1.624   3.956  13.401 -0.0877 -1.1840 -1.6002
 4639SOL    HW225551   1.538   4.041  13.481  0.2816  1.2510 -1.0732
 4640SOL     OW25552   4.270   4.269  15.250 -1.0255  0.0009 -0.0938
 4640SOL    HW125553   4.184   4.306  15.269 -0.4838  1.2309 -0.0209
 4640SOL    HW225554   4.246   4.177  15.239 -0.5524 -0.1066 -0.2123
 4641SOL     OW25555   0.349   4.293   2.485 -0.2212 -0.4629  0.1166
 4641SOL    HW125556   0.307   4.377   2.502 -1.4128 -0.6128 -2.0937
 4641SOL    HW225557   0.303   4.277   2.403  1.0137  0.5964 -0.7885
 4642SOL     OW25558   1.520   0.918   3.298 -0.1749 -0.2900 -0.3277
 4642SOL    HW125559   1.585   0.874   3.244 -1.2729 -1.3146 -0.8040
 4642SOL    HW225560   1.458   0.960   3.239  1.3704  2.5044  0.0317
 4643SOL     OW25561   3.115   0.823   6.110  0.2112 -0.4276 -0.4024
 4643SOL    HW125562   3.207   0.825   6.081  0.0243 -1.8458 -1.0916
 4643SOL    HW225563   3.097   0.732   6.089  2.2949 -0.7017 -1.0445
 4644SOL     OW25564   0.355   1.860   5.843  0.8114  0.2607  0.0955
 4644SOL    HW125565   0.372   1.949   5.813 -1.0339  2.1574  4.6497
 4644SOL    HW225566   0.263   1.866   5.866  0.2236 -0.9460 -1.9215
 4645SOL     OW25567   3.472   1.470   6.509 -0.4034 -0.1959  0.1756
 4645SOL    HW125568   3.391   1.455   6.460  0.3994 -1.8044 -0.6519
 4645SOL    HW225569   3.439   1.467   6.599  0.5628  0.3859  0.5546
 4646SOL     OW25570   4.489   3.652   9.541  0.2150 -0.1426 -0.0800
 4646SOL    HW125571   4.520   3.565   9.518 -0.4688 -1.1481  2.8428
 4646SOL    HW225572   4.493   3.686   9.451 -2.0842 -2.1565 -0.9696
 4647SOL     OW25573   4.586   2.644   1.693  0.0884 -0.2229  0.3998
 4647SOL    HW125574   4.553   2.556   1.673 -1.3617  0.3189  0.3651
 4647SOL    HW225575   4.670   2.626   1.735  2.2008  2.2974 -2.7394
 4648SOL     OW25576   4.052   1.839   4.153 -0.4182  0.1960  0.2861
 4648SOL    HW125577   4.060   1.847   4.058  0.3069  1.7485  0.4762
 4648SOL    HW225578   3.958   1.822   4.163  0.0600 -1.0861  2.7574
 4649SOL     OW25579   3.559   4.565  10.704  0.1821  0.1872 -0.6785
 4649SOL    HW125580   3.484   4.522  10.746  1.2690 -1.6514 -0.6183
 4649SOL    HW225581   3.599   4.496  10.650 -0.0217 -1.4220  1.2060
 4650SOL     OW25582   0.702   4.012   9.519 -0.1554 -0.5050 -0.2601
 4650SOL    HW125583   0.641   4.029   9.591  0.3924  1.3303 -0.2165
 4650SOL    HW225584   0.779   3.987   9.571 -1.2593 -2.1856  0.5687
 4651SOL     OW25585   1.548   0.188   1.864 -0.3596 -0.1775  0.0210
 4651SOL    HW125586   1.500   0.271   1.872 -0.4602 -0.2584  0.2453
 4651SOL    HW225587   1.595   0.205   1.782 -3.0144  0.1855 -1.4243
 4652SOL     OW25588   1.330   0.905  15.525 -0.6310 -0.8373  0.2226
 4652SOL    HW125589   1.264   0.952  15.576 -1.8011 -0.6345 -1.4612
 4652SOL    HW225590   1.400   0.922  15.587  0.1523 -1.1533 -0.5714
 4653SOL     OW25591   4.214   3.058   6.795 -0.3720 -0.4941 -0.8609
 4653SOL    HW125592   4.211   3.099   6.881  0.8382 -3.0310  0.3840
 4653SOL    HW225593   4.246   2.974   6.828 -0.0652 -0.5418 -1.2760
 4654SOL     OW25594   2.369   0.128   1.079 -0.4031 -0.0123 -0.1980
 4654SOL    HW125595   2.285   0.087   1.101  0.3343 -1.4309 -0.0743
 4654SOL    HW225596   2.339   0.218   1.062 -1.2746 -0.2927 -0.1361
 4655SOL     OW25597   4.358   3.519   8.472 -0.2575  0.3311 -0.1014
 4655SOL    HW125598   4.346   3.488   8.562  0.1155 -0.0610 -0.1875
 4655SOL    HW225599   4.392   3.608   8.482 -0.2964  0.6156 -2.4724
 4656SOL     OW25600   3.563   1.634  17.214  0.3471 -0.0292  0.1618
 4656SOL    HW125601   3.653   1.644  17.247  0.6712 -1.4887 -0.2991
 4656SOL    HW225602   3.566   1.600  17.125 -1.7596  0.6778 -0.1714
 4657SOL     OW25603   3.382   0.984  12.368 -0.2685  0.5305  0.0857
 4657SOL    HW125604   3.339   1.031  12.297  0.1428  0.1536 -0.4125
 4657SOL    HW225605   3.370   1.059  12.426 -0.0373  2.3776 -2.2545
 4658SOL     OW25606   4.691   0.266   8.908 -0.4448  0.4254 -0.6005
 4658SOL    HW125607   4.616   0.208   8.914 -0.8732  1.1062  0.5522
 4658SOL    HW225608   4.646   0.343   8.874 -1.5246  0.8258  1.7592
 4659SOL     OW25609   4.711   4.277  15.968 -0.2251  0.3886 -0.0231
 4659SOL    HW125610   4.664   4.311  15.892 -0.8375  5.3550  2.6397
 4659SOL    HW225611   0.031   4.346  16.006  0.1128 -0.7393  1.5404
 4660SOL     OW25612   3.367   1.664   4.607 -0.7286 -0.3319  0.5055
 4660SOL    HW125613   3.399   1.612   4.533  2.0617  0.7439  0.9684
 4660SOL    HW225614   3.443   1.716   4.632  0.1900 -1.7296  0.6473
 4661SOL     OW25615   1.773   4.241  14.688  0.4400  0.3186 -0.2992
 4661SOL    HW125616   1.727   4.324  14.698  1.5013  1.0417 -1.4113
 4661SOL    HW225617   1.863   4.272  14.700 -0.2329  2.3012 -0.5040
 4662SOL     OW25618   1.007   0.890   2.052 -0.0977 -0.1285 -0.1581
 4662SOL    HW125619   1.037   0.971   2.094 -1.6181  0.1531  0.3948
 4662SOL    HW225620   1.072   0.829   2.086  0.5905  0.0600 -1.1224
 4663SOL     OW25621   1.615   4.597   4.461 -0.8069  0.2288  0.6381
 4663SOL    HW125622   1.556   4.570   4.390 -1.4739  0.2445  1.1894
 4663SOL    HW225623   1.682   4.529   4.450 -0.8464  0.1952  0.6027
 4664SOL     OW25624   2.469   0.963   1.722 -0.3819 -0.1023  0.3123
 4664SOL    HW125625   2.529   0.890   1.735  1.5505  1.3267 -0.6755
 4664SOL    HW225626   2.405   0.913   1.671 -0.4755  0.6280 -0.2921
 4665SOL     OW25627   0.440   2.395   6.579  0.3013  0.0418  0.5009
 4665SOL    HW125628   0.416   2.322   6.522 -0.2392  1.5498 -1.2117
 4665SOL    HW225629   0.360   2.428   6.620  0.9781  2.4828 -0.0820
 4666SOL     OW25630   3.753   2.457   1.595 -0.2290  0.4390 -0.0217
 4666SOL    HW125631   3.824   2.508   1.557  0.9677 -0.6868  0.7050
 4666SOL    HW225632   3.737   2.390   1.527 -0.3305  2.2408 -1.7718
 4667SOL     OW25633   3.409   0.897  15.624 -0.4453  0.9688  0.2626
 4667SOL    HW125634   3.465   0.957  15.672  1.7843  1.1576 -2.6017
 4667SOL    HW225635   3.361   0.849  15.691 -0.3354  0.7269  0.1685
 4668SOL     OW25636   1.220   2.834   1.386 -0.3182 -0.1134  0.1653
 4668SOL    HW125637   1.230   2.754   1.437 -0.5911  1.3125  2.4460
 4668SOL    HW225638   1.177   2.802   1.307  0.0258 -0.5252  0.1475
 4669SOL     OW25639   0.287   1.825  11.988  0.5589 -0.3299 -0.0907
 4669SOL    HW125640   0.342   1.853  11.915  0.1889 -1.0232 -0.6292
 4669SOL    HW225641   0.224   1.761  11.956  0.7739 -0.0318 -1.1085
 4670SOL     OW25642   1.554   4.106   4.187 -0.0510  0.5819 -0.1980
 4670SOL    HW125643   1.516   4.053   4.117  1.1865  2.6763 -2.4590
 4670SOL    HW225644   1.485   4.088   4.251 -0.1874 -1.1315 -0.8084
 4671SOL     OW25645   0.666   0.126   9.234 -0.2537 -0.3274  0.0983
 4671SOL    HW125646   0.648   0.039   9.198  0.1833 -0.3520 -0.0564
 4671SOL    HW225647   0.716   0.160   9.160 -1.4763  0.8890 -0.1734
 4672SOL     OW25648   2.807   0.235   7.512 -0.0624 -0.0461  0.5672
 4672SOL    HW125649   2.866   0.295   7.558 -0.8389  1.0213  0.1643
 4672SOL    HW225650   2.829   0.259   7.422 -1.6611 -2.4847 -0.4560
 4673SOL     OW25651   4.720   0.981  14.447  0.2150 -0.2600 -0.2901
 4673SOL    HW125652   4.696   0.940  14.364 -2.4518 -0.1747  0.4518
 4673SOL    HW225653   4.716   1.073  14.420  3.1254  0.3463  1.3703
 4674SOL     OW25654   1.133   0.401   2.861  0.1707 -0.2064 -0.0878
 4674SOL    HW125655   1.121   0.407   2.766 -0.6201  0.3482  0.0508
 4674SOL    HW225656   1.116   0.307   2.867 -1.0242 -0.1841 -3.0151
 4675SOL     OW25657   1.643   2.425  13.265 -0.9737 -0.2746  0.3774
 4675SOL    HW125658   1.615   2.366  13.336  0.6934  0.9523  2.0406
 4675SOL    HW225659   1.569   2.434  13.205  0.3966  0.7016 -1.1724
 4676SOL     OW25660   2.842   3.092   4.140 -0.2555 -0.0071  0.2950
 4676SOL    HW125661   2.928   3.093   4.180 -0.8143 -1.4366  1.5285
 4676SOL    HW225662   2.798   3.170   4.173  1.5937  0.2808  2.0199
 4677SOL     OW25663   0.594   4.475   2.885  0.8533  0.2154 -0.3036
 4677SOL    HW125664   0.594   4.462   2.980 -0.7238  1.7093 -0.0941
 4677SOL    HW225665   0.559   4.564   2.878 -1.8481 -0.9567 -1.6775
 4678SOL     OW25666   3.091   1.326  10.633 -0.1074  0.4157  0.6084
 4678SOL    HW125667   3.020   1.337  10.696 -1.7380 -1.4108 -0.8951
 4678SOL    HW225668   3.161   1.318  10.698 -1.8472  2.1032  2.6679
 4679SOL     OW25669   0.297   3.059   8.219  0.0519  0.5292 -0.1925
 4679SOL    HW125670   0.340   3.116   8.156  0.1551  0.8221  0.1410
 4679SOL    HW225671   0.337   2.974   8.200 -1.7630 -0.5258  0.6270
 4680SOL     OW25672   4.149   0.549   7.260  0.6762 -0.0138  0.5340
 4680SOL    HW125673   4.177   0.459   7.270 -0.1320 -0.6161 -2.5281
 4680SOL    HW225674   4.201   0.585   7.331 -2.3114  1.7732  1.8033
 4681SOL     OW25675   2.481   4.698   7.898  0.1411  0.6214 -0.6527
 4681SOL    HW125676   2.575   4.719   7.901 -0.1718  1.7720  0.8526
 4681SOL    HW225677   2.486   4.608   7.930 -1.9403  0.5176 -0.6392
 4682SOL     OW25678   2.569   4.623   3.537 -0.3737  0.6211 -0.2850
 4682SOL    HW125679   2.534   4.706   3.570  2.6028  1.0449  1.7391
 4682SOL    HW225680   2.516   4.602   3.460 -0.4657  1.9303 -0.5879
 4683SOL     OW25681   4.006   4.389  15.315 -0.1980  0.1043 -0.3797
 4683SOL    HW125682   3.944   4.335  15.364 -1.0881  0.5009 -1.0599
 4683SOL    HW225683   3.987   4.475  15.353 -1.5965 -0.8845  1.1852
 4684SOL     OW25684   0.099   3.438  17.403  0.1860  0.3084  0.9053
 4684SOL    HW125685   0.089   3.344  17.388 -0.1778  1.2272 -4.7404
 4684SOL    HW225686   0.079   3.488  17.324  1.3988 -2.0104 -0.8757
 4685SOL     OW25687   2.629   4.118   2.159  0.0560 -0.4296 -0.3456
 4685SOL    HW125688   2.558   4.053   2.157 -1.2941  1.0109  1.6891
 4685SOL    HW225689   2.662   4.125   2.069  2.5257 -0.4049  0.5659
 4686SOL     OW25690   3.739   0.512   6.549  0.4802  0.0693 -0.5758
 4686SOL    HW125691   3.762   0.605   6.556 -2.2467  0.6481  0.7835
 4686SOL    HW225692   3.779   0.484   6.466 -0.3472 -0.8179 -0.6736
 4687SOL     OW25693   2.333   3.986   9.091 -0.2867  0.0790  0.2448
 4687SOL    HW125694   2.427   4.004   9.090 -0.7285  2.3352 -0.5814
 4687SOL    HW225695   2.333   3.903   9.140 -1.3763  0.0534  0.1881
 4688SOL     OW25696   2.879   0.107   9.275 -0.3191  0.0006 -0.0507
 4688SOL    HW125697   2.871   0.097   9.370  3.0003  0.1848  0.2697
 4688SOL    HW225698   2.787   0.120   9.254 -0.3170  0.0165 -0.0497
 4689SOL     OW25699   2.442   1.818   7.841  0.1130  0.2117  0.2858
 4689SOL    HW125700   2.488   1.782   7.917  0.8312  0.0107 -0.2370
 4689SOL    HW225701   2.413   1.740   7.793 -1.4546  0.4491  0.8564
 4690SOL     OW25702   1.366   0.335   4.599 -0.0132  0.5348 -0.5105
 4690SOL    HW125703   1.419   0.275   4.651 -1.3668 -0.6810 -0.5229
 4690SOL    HW225704   1.388   0.420   4.638  0.3016  0.1357  0.1805
 4691SOL     OW25705   3.908   2.556   3.152 -0.4237  0.6626  0.0467
 4691SOL    HW125706   3.841   2.569   3.086  1.3831  0.1633 -1.8858
 4691SOL    HW225707   3.992   2.576   3.110  0.3391  0.8048  1.6203
 4692SOL     OW25708   4.096   2.266  16.452  0.1922  0.3502 -0.3505
 4692SOL    HW125709   4.109   2.307  16.367 -0.4761  1.9489  0.3242
 4692SOL    HW225710   4.151   2.325  16.502  1.4328 -2.5059  1.6837
 4693SOL     OW25711   3.609   1.049   3.214 -0.0123  0.6298 -0.3670
 4693SOL    HW125712   3.663   1.034   3.137 -0.2072 -0.1118 -0.3548
 4693SOL    HW225713   3.621   1.144   3.221  2.6077  0.3611 -1.1362
 4694SOL     OW25714   2.951   1.671  13.483 -0.4856 -0.1806 -0.2493
 4694SOL    HW125715   2.890   1.608  13.521 -1.5559  1.8229  1.2914
 4694SOL    HW225716   2.995   1.619  13.415  2.3410 -0.4880  1.8123
 4695SOL     OW25717   2.880   1.170   7.232 -0.4612 -0.4587  0.2666
 4695SOL    HW125718   2.907   1.113   7.304 -3.5475  0.9613  2.5697
 4695SOL    HW225719   2.841   1.109   7.169 -1.6419  1.1237 -0.5274
 4696SOL     OW25720   2.279   2.412   9.167  0.2687 -0.2991  0.2784
 4696SOL    HW125721   2.262   2.319   9.151 -2.4325  0.3826 -0.7830
 4696SOL    HW225722   2.349   2.431   9.104  0.1099  1.1088  0.5157
 4697SOL     OW25723   1.564   2.328   8.109 -0.5427 -0.3474 -0.2036
 4697SOL    HW125724   1.658   2.332   8.130 -0.9106  0.0409  1.3386
 4697SOL    HW225725   1.547   2.235   8.093 -1.6263 -0.0734 -0.6062
 4698SOL     OW25726   4.190   2.715  13.283 -0.5140  0.0278  0.0357
 4698SOL    HW125727   4.205   2.796  13.331 -1.5305 -0.0322  0.4464
 4698SOL    HW225728   4.238   2.739  13.204  1.0797  0.3892  1.1190
 4699SOL     OW25729   4.269   2.772   2.912 -0.0313  0.3884  0.2200
 4699SOL    HW125730   4.352   2.746   2.871 -0.0596 -0.8559  0.9673
 4699SOL    HW225731   4.233   2.819   2.837 -0.4717  2.0745  1.4934
 4700SOL     OW25732   1.401   3.357   7.747 -0.0316 -0.1842  0.5325
 4700SOL    HW125733   1.342   3.427   7.775  1.6574  1.1891  0.6131
 4700SOL    HW225734   1.387   3.352   7.653  0.3406  0.4275  0.4511
 4701SOL     OW25735   1.141   2.534  10.464 -1.0580 -0.0562 -0.3913
 4701SOL    HW125736   1.130   2.453  10.414 -0.0335 -0.5751  0.2351
 4701SOL    HW225737   1.148   2.504  10.554 -0.3766  0.1656 -0.3690
 4702SOL     OW25738   1.269   2.329   9.346 -0.1543  0.2439  0.1331
 4702SOL    HW125739   1.194   2.388   9.348  0.6816  1.3679 -1.7783
 4702SOL    HW225740   1.295   2.319   9.254 -1.4778  1.3331 -0.3485
 4703SOL     OW25741   1.329   3.780   9.843 -0.2574  0.5037 -0.7246
 4703SOL    HW125742   1.407   3.792   9.897 -0.5483  0.8100 -0.3729
 4703SOL    HW225743   1.331   3.685   9.850  1.2777  0.6538  1.0846
 4704SOL     OW25744   2.743   1.184   7.542 -0.7336  0.7562 -0.2540
 4704SOL    HW125745   2.735   1.126   7.617 -2.3584  0.5999 -0.5569
 4704SOL    HW225746   2.814   1.241   7.572 -0.6085  0.0208  0.8325
 4705SOL     OW25747   2.317   4.032   5.811  0.2384 -0.2857  0.0112
 4705SOL    HW125748   2.350   3.971   5.877 -2.0601 -0.1620  1.2501
 4705SOL    HW225749   2.227   4.001   5.807 -0.6658  2.4512 -1.2032
 4706SOL     OW25750   1.590   3.175   4.936 -0.2145  0.6037  0.1097
 4706SOL    HW125751   1.499   3.194   4.916 -0.3184 -0.0674 -0.0555
 4706SOL    HW225752   1.624   3.152   4.849  0.5055  1.0467  0.2746
 4707SOL     OW25753   4.712   4.179   7.478 -0.8790  0.9743 -0.5832
 4707SOL    HW125754   0.051   4.215   7.528 -0.5646 -0.6486  0.1060
 4707SOL    HW225755   4.633   4.222   7.511 -0.7739  1.0824 -0.4720
 4708SOL     OW25756   0.227   0.222  12.168 -0.3643 -0.2295  0.0416
 4708SOL    HW125757   0.168   0.158  12.209 -0.4373 -0.8657 -1.0542
 4708SOL    HW225758   0.211   0.217  12.074  0.4526 -2.7271  0.0321
 4709SOL     OW25759   1.964   0.397   0.609 -0.1965  0.2436  0.1305
 4709SOL    HW125760   1.977   0.336   0.536  0.1559  0.7311 -0.2206
 4709SOL    HW225761   2.033   0.464   0.603  1.8768 -1.8319  0.6443
 4710SOL     OW25762   2.469   3.093   9.863 -0.1781 -0.3280  0.2737
 4710SOL    HW125763   2.423   3.177   9.861 -0.1558 -0.3381 -0.6962
 4710SOL    HW225764   2.535   3.117   9.798 -1.3682  1.5340 -0.2258
 4711SOL     OW25765   4.324   1.560   2.075 -0.8272  0.6067 -0.1699
 4711SOL    HW125766   4.410   1.524   2.101 -0.4682 -0.3678 -2.7420
 4711SOL    HW225767   4.345   1.641   2.030  1.4242  1.8421  3.0558
 4712SOL     OW25768   0.059   4.680   0.778 -0.3480 -0.4130 -0.2115
 4712SOL    HW125769   0.003   4.607   0.803 -0.9446 -0.4586 -1.6888
 4712SOL    HW225770   0.066   4.664   0.683  0.3514 -3.7334  0.4119
 4713SOL     OW25771   4.590   1.086   3.191  0.4055 -0.0373 -0.8804
 4713SOL    HW125772   4.604   1.083   3.096  1.8816 -0.1294 -0.6620
 4713SOL    HW225773   4.496   1.070   3.189  0.4317 -0.5487  2.6364
 4714SOL     OW25774   1.950   4.597   7.542 -0.0531  0.3223  0.3090
 4714SOL    HW125775   1.970   4.651   7.618 -1.2080  2.3876 -0.8577
 4714SOL    HW225776   2.043   4.577   7.526  0.1080 -0.2009  1.9679
 4715SOL     OW25777   1.542   2.861   6.618  0.0279  0.4763 -0.0456
 4715SOL    HW125778   1.608   2.903   6.563 -1.3371  0.6060 -1.5851
 4715SOL    HW225779   1.592   2.866   6.699 -1.5251  0.0638  0.9323
 4716SOL     OW25780   2.680   4.579  11.473 -0.4187  0.7382  0.1455
 4716SOL    HW125781   2.657   4.486  11.467 -0.0384  0.6109  0.6096
 4716SOL    HW225782   2.596   4.620  11.494  0.1475  0.5034  2.9204
 4717SOL     OW25783   3.113   0.863   2.471 -0.4642 -0.3650  0.1247
 4717SOL    HW125784   3.100   0.900   2.559 -1.6238  0.3502 -0.3533
 4717SOL    HW225785   3.115   0.950   2.429 -0.6882  0.6426  2.1803
 4718SOL     OW25786   0.619   0.248   6.642 -0.0099 -0.4985 -0.8341
 4718SOL    HW125787   0.667   0.184   6.694 -0.7629 -0.8725 -0.5961
 4718SOL    HW225788   0.603   0.199   6.562 -1.4041 -1.8004  0.2409
 4719SOL     OW25789   0.499   4.041   2.494 -0.2820  0.5881  0.4686
 4719SOL    HW125790   0.457   4.127   2.501  1.4195  1.6612 -2.5175
 4719SOL    HW225791   0.557   4.061   2.421  0.4572 -0.0365  0.8837
 4720SOL     OW25792   4.328   2.574   3.280 -0.3735 -0.7157  0.0510
 4720SOL    HW125793   4.246   2.584   3.232 -1.2955 -2.1534  1.3338
 4720SOL    HW225794   4.396   2.613   3.224 -1.2719  3.1190  1.6646
 4721SOL     OW25795   1.671   3.286  17.393 -0.0187 -0.3361 -0.0083
 4721SOL    HW125796   1.662   3.301  17.487 -0.7770  0.4585 -0.2130
 4721SOL    HW225797   1.696   3.376  17.373 -0.1069 -0.2735  0.1612
 4722SOL     OW25798   4.632   4.374   5.287  0.5400  0.0261 -0.3332
 4722SOL    HW125799   4.689   4.309   5.328  2.1844  0.5951 -1.7386
 4722SOL    HW225800   4.568   4.317   5.244 -1.9641  3.4898 -1.1980
 4723SOL     OW25801   4.234   1.520   7.800 -0.0803 -0.3607  0.5287
 4723SOL    HW125802   4.190   1.443   7.764 -0.3025 -1.0822  2.3324
 4723SOL    HW225803   4.239   1.556   7.712  1.5288 -1.4373  0.1676
 4724SOL     OW25804   2.593   1.265   6.112  0.2716  0.0921  0.6094
 4724SOL    HW125805   2.580   1.358   6.134  1.3023  0.1261  1.0789
 4724SOL    HW225806   2.549   1.271   6.027 -0.4093 -1.3425  0.8670
 4725SOL     OW25807   3.194   1.875   2.776  0.4802 -0.0511  0.1271
 4725SOL    HW125808   3.149   1.921   2.847 -1.7524  2.3646 -2.8016
 4725SOL    HW225809   3.207   1.948   2.715  1.9078 -2.4896 -2.4676
 4726SOL     OW25810   1.659   1.484   8.157 -0.0838 -0.4363  0.4927
 4726SOL    HW125811   1.594   1.515   8.095  0.1888  0.0413  0.4462
 4726SOL    HW225812   1.734   1.464   8.101 -1.6821 -0.8486 -1.4641
 4727SOL     OW25813   1.816   4.089  16.612 -0.0443 -0.0758  0.3356
 4727SOL    HW125814   1.785   4.159  16.669 -0.1267 -0.4168  0.7117
 4727SOL    HW225815   1.732   4.044  16.605 -0.4094  0.5556  0.6794
 4728SOL     OW25816   4.474   1.695   9.810  0.1968  0.4212 -0.0083
 4728SOL    HW125817   4.444   1.711   9.899 -0.9205  1.2355 -0.5232
 4728SOL    HW225818   4.402   1.648   9.768  1.0480 -1.6192  0.8150
 4729SOL     OW25819   3.561   2.859  17.038 -0.1017  0.5534  0.4005
 4729SOL    HW125820   3.494   2.920  17.008 -0.1884  0.5180  0.5201
 4729SOL    HW225821   3.627   2.870  16.970  0.8049  0.0041  1.1945
 4730SOL     OW25822   3.808   2.963  11.955 -0.5920 -0.1981  0.1986
 4730SOL    HW125823   3.808   3.055  11.983 -0.9695 -0.6554  1.6935
 4730SOL    HW225824   3.742   2.928  12.015 -1.6586  1.3685 -0.0542
 4731SOL     OW25825   4.274   4.538   7.522  0.0710  0.5204  0.3908
 4731SOL    HW125826   4.262   4.549   7.428 -0.7720  0.3052  0.4732
 4731SOL    HW225827   4.268   4.630   7.546  1.1765  0.5749  0.4795
 4732SOL     OW25828   2.039   0.579   1.867 -0.4054 -0.2766  0.3159
 4732SOL    HW125829   2.059   0.570   1.961 -0.9184  1.1420  0.5668
 4732SOL    HW225830   2.070   0.669   1.858 -0.1330 -0.4089 -0.0475
 4733SOL     OW25831   1.014   3.199   2.542 -0.2259 -0.4904  0.4568
 4733SOL    HW125832   1.042   3.287   2.515  0.6388 -0.5491  1.1699
 4733SOL    HW225833   1.002   3.172   2.451  1.3589  0.4667 -0.0353
 4734SOL     OW25834   0.053   1.277  15.802 -0.2074 -0.1684 -0.1855
 4734SOL    HW125835   4.727   1.326  15.857  0.3392 -0.5830  0.7853
 4734SOL    HW225836   0.130   1.268  15.858  0.8457  0.3262 -1.5431
 4735SOL     OW25837   3.984   2.021   2.062 -0.4931 -0.0488 -0.0890
 4735SOL    HW125838   4.004   2.073   1.985  0.0421 -2.1551 -1.3920
 4735SOL    HW225839   4.058   2.038   2.120 -0.2118  2.1265 -1.1180
 4736SOL     OW25840   3.086   3.099   4.203  0.0125  0.7760 -0.2288
 4736SOL    HW125841   3.125   3.183   4.179 -0.1326  1.2305  1.1238
 4736SOL    HW225842   3.114   3.039   4.133  0.2997  0.7878 -0.1210
 4737SOL     OW25843   1.730   3.955   4.003 -0.1986 -0.3794 -0.0800
 4737SOL    HW125844   1.753   3.903   4.079 -0.0511 -0.0923  0.0713
 4737SOL    HW225845   1.784   3.908   3.939  1.9763  2.7980 -0.5548
 4738SOL     OW25846   2.314   3.199   6.392 -0.2932 -0.0428 -0.1149
 4738SOL    HW125847   2.316   3.262   6.463 -1.6937 -0.5038  0.3305
 4738SOL    HW225848   2.271   3.247   6.320  1.6583  2.1421  0.2036
 4739SOL     OW25849   1.209   0.585   0.191  0.1192  0.0672  0.2614
 4739SOL    HW125850   1.144   0.655   0.189  2.0645  1.8694 -0.2736
 4739SOL    HW225851   1.196   0.550   0.103 -1.5226 -0.0550  0.5478
 4740SOL     OW25852   2.748   4.138  10.755  0.6163  0.8197 -0.5236
 4740SOL    HW125853   2.723   4.111  10.843 -4.0943  2.3682 -1.4035
 4740SOL    HW225854   2.665   4.133  10.709 -0.3381  0.5928  1.2207
 4741SOL     OW25855   2.124   4.336   8.288 -0.1901 -0.2463 -0.0660
 4741SOL    HW125856   2.080   4.266   8.336  1.5802 -0.2674  1.5408
 4741SOL    HW225857   2.187   4.370   8.352 -1.5286  1.4326  0.3491
 4742SOL     OW25858   0.930   2.823   3.580 -0.1074 -0.2449  0.2748
 4742SOL    HW125859   0.996   2.847   3.645  1.0625 -1.9375 -0.2870
 4742SOL    HW225860   0.875   2.902   3.587  1.2756  0.5273  2.4518
 4743SOL     OW25861   3.819   1.589   2.822 -0.1638 -0.2705  0.1608
 4743SOL    HW125862   3.824   1.685   2.817 -1.1678 -0.1084  2.1467
 4743SOL    HW225863   3.727   1.574   2.798  0.1022  0.7088 -1.4743
 4744SOL     OW25864   3.462   4.636   3.681  0.1712 -0.1962  0.2124
 4744SOL    HW125865   3.369   4.632   3.702 -0.0089 -0.7281 -0.6881
 4744SOL    HW225866   3.499   4.681   3.757 -3.0877  0.3757  1.4439
 4745SOL     OW25867   1.434   0.284  13.656 -0.1625 -0.0572 -0.4678
 4745SOL    HW125868   1.491   0.271  13.581  0.3090 -2.5479  0.3083
 4745SOL    HW225869   1.493   0.318  13.723 -1.2661 -0.0815  0.5168
 4746SOL     OW25870   1.511   2.638   9.441 -0.7106  0.1127  0.3030
 4746SOL    HW125871   1.497   2.598   9.355  0.8661 -0.5865  0.3694
 4746SOL    HW225872   1.514   2.564   9.501 -0.6953 -0.1597 -0.0281
 4747SOL     OW25873   1.620   2.686   0.029 -0.5694 -0.2048 -0.3079
 4747SOL    HW125874   1.605   2.754  17.699 -0.2008 -0.5569 -0.7565
 4747SOL    HW225875   1.680   2.632  17.714  1.4173  1.7752 -0.0309
 4748SOL     OW25876   3.588   4.499   8.476  0.1911  0.0034  0.2669
 4748SOL    HW125877   3.671   4.465   8.445  0.1894  0.2232  0.0232
 4748SOL    HW225878   3.592   4.594   8.463 -1.0163 -0.0881 -0.7437
 4749SOL     OW25879   0.312   1.178   3.271 -0.0073  0.0570  0.4490
 4749SOL    HW125880   0.275   1.260   3.303  0.1856 -0.0699  1.0002
 4749SOL    HW225881   0.319   1.127   3.352 -0.2579  0.9816  1.0435
 4750SOL     OW25882   0.271   2.369  12.622  0.2368  0.1575  0.0536
 4750SOL    HW125883   0.235   2.281  12.608  2.0067 -0.3916 -1.0489
 4750SOL    HW225884   0.196   2.406  12.669  0.5663  0.1334  0.5974
 4751SOL     OW25885   3.667   2.680  12.374 -0.2596 -0.2707  0.4459
 4751SOL    HW125886   3.710   2.758  12.340 -0.0342 -0.3792  0.4854
 4751SOL    HW225887   3.721   2.662  12.451 -0.4830 -2.1899  0.1632
 4752SOL     OW25888   4.627   0.122   1.857 -0.0663 -0.7329 -0.0735
 4752SOL    HW125889   4.693   0.161   1.914 -0.3735 -0.3310  0.0106
 4752SOL    HW225890   4.624   0.031   1.887  1.0855 -0.8885 -0.4521
 4753SOL     OW25891   0.160   0.094   5.219 -0.2154 -0.0686 -0.3031
 4753SOL    HW125892   0.166   0.085   5.314  0.9399  0.2696 -0.3526
 4753SOL    HW225893   0.221   0.027   5.188  0.6674  1.5380 -1.9650
 4754SOL     OW25894   2.901   2.292  15.558  0.0208 -0.2994  0.1162
 4754SOL    HW125895   2.898   2.208  15.512  0.2778  0.2791 -0.9745
 4754SOL    HW225896   2.996   2.285  15.574  0.2412 -0.1353 -1.1173
 4755SOL     OW25897   4.634   0.021   5.104  0.7304  0.2071  0.0337
 4755SOL    HW125898   4.716   0.014   5.056  1.0041 -1.1482  0.6718
 4755SOL    HW225899   4.665   0.047   5.191  1.1104 -1.2933  0.3584
 4756SOL     OW25900   1.779   1.066  17.138  0.0380  0.7419 -0.1578
 4756SOL    HW125901   1.806   1.132  17.202 -2.1366  0.3636  1.1482
 4756SOL    HW225902   1.807   1.115  17.061  0.2437  1.9395  0.6869
 4757SOL     OW25903   2.541   4.613  14.697  0.5780 -0.4793  0.3167
 4757SOL    HW125904   2.585   4.590  14.615  1.5140 -0.9101  0.9436
 4757SOL    HW225905   2.462   4.563  14.675  0.3767  0.6199 -1.4637
 4758SOL     OW25906   2.435   2.160  17.547 -0.3603  0.5635  0.2543
 4758SOL    HW125907   2.410   2.115  17.466 -2.3781  1.0970  0.5688
 4758SOL    HW225908   2.527   2.181  17.530 -0.8559  0.5535 -2.4638
 4759SOL     OW25909   3.185   0.890   5.611  0.2315  0.1770  0.6072
 4759SOL    HW125910   3.232   0.807   5.619 -0.6133  0.1407  4.7857
 4759SOL    HW225911   3.155   0.890   5.701 -1.3737 -0.3302  0.0803
 4760SOL     OW25912   4.132   2.106   8.034 -0.5970 -0.3829 -0.0890
 4760SOL    HW125913   4.076   2.161   7.979  0.6489 -0.1195 -1.1058
 4760SOL    HW225914   4.096   2.134   8.118  2.3967  0.6315  0.8760
 4761SOL     OW25915   4.009   0.256   9.423 -0.4113  0.4509 -0.3947
 4761SOL    HW125916   3.982   0.333   9.374 -0.9917  0.3369 -0.2534
 4761SOL    HW225917   3.984   0.183   9.367  0.4634  0.0515 -0.2556
 4762SOL     OW25918   1.565   1.852   5.472 -0.5259  0.2865 -0.1849
 4762SOL    HW125919   1.502   1.917   5.503  0.6030  1.8332 -1.1450
 4762SOL    HW225920   1.630   1.856   5.543 -1.0134  2.2246  0.1479
 4763SOL     OW25921   3.693   4.482   5.817 -0.0171  0.4994  0.6849
 4763SOL    HW125922   3.786   4.480   5.795  0.1340  1.3963  1.2373
 4763SOL    HW225923   3.691   4.509   5.909  0.6915 -0.7164  1.0488
 4764SOL     OW25924   1.635   4.112   4.851  0.3908  0.5992 -0.3574
 4764SOL    HW125925   1.674   4.199   4.856  0.5137  0.4744  0.7204
 4764SOL    HW225926   1.680   4.080   4.772  1.2400  1.1183 -0.0756
 4765SOL     OW25927   1.980   2.102   1.363 -0.1185 -0.3571  0.0280
 4765SOL    HW125928   1.907   2.041   1.362 -0.4030 -0.0105 -0.8706
 4765SOL    HW225929   2.011   2.090   1.273 -0.4887 -1.7375  0.0797
 4766SOL     OW25930   4.609   4.087   2.452  0.0181 -0.1880 -0.6944
 4766SOL    HW125931   4.633   4.147   2.381  0.9179  0.4570  0.1510
 4766SOL    HW225932   4.684   4.099   2.510  0.0777 -2.0820 -0.3866
 4767SOL     OW25933   4.591   1.295   7.475  0.1791 -0.0977  0.0904
 4767SOL    HW125934   4.602   1.387   7.450 -0.8918 -0.2940 -1.1191
 4767SOL    HW225935   4.576   1.252   7.391 -1.7027 -0.6344  0.6875
 4768SOL     OW25936   0.684   1.860   5.534  0.2422 -0.1807 -0.2894
 4768SOL    HW125937   0.711   1.894   5.619  0.7567 -0.6977 -0.2475
 4768SOL    HW225938   0.728   1.776   5.522 -1.5838 -1.1949  0.1043
 4769SOL     OW25939   0.854   2.868  12.037 -0.3998 -0.4921  0.8028
 4769SOL    HW125940   0.921   2.922  12.079  0.1232  1.5786 -2.6201
 4769SOL    HW225941   0.887   2.778  12.046  0.2206 -0.5189 -1.4491
 4770SOL     OW25942   2.316   2.931   5.025 -0.1214 -0.0526 -0.0468
 4770SOL    HW125943   2.330   2.917   5.119  2.1764  0.4032 -0.3104
 4770SOL    HW225944   2.366   3.012   5.014  1.7355 -0.9040  2.2059
 4771SOL     OW25945   3.187   1.406   0.830  0.2064 -0.5407 -0.2755
 4771SOL    HW125946   3.244   1.353   0.776  0.1419  1.3518 -2.1725
 4771SOL    HW225947   3.258   1.460   0.865 -2.8783  1.1497  3.4656
 4772SOL     OW25948   1.653   3.190   9.701 -0.3446 -0.1378 -0.1662
 4772SOL    HW125949   1.700   3.107   9.691 -1.3995 -0.9458  1.4753
 4772SOL    HW225950   1.671   3.211   9.793 -1.8147 -1.1130  0.3387
 4773SOL     OW25951   1.426   3.652   2.033  0.5092  0.1904 -0.2968
 4773SOL    HW125952   1.382   3.629   1.951 -2.2706 -1.2226  1.5842
 4773SOL    HW225953   1.388   3.739   2.047 -2.7290 -1.3888  0.9012
 4774SOL     OW25954   0.308   1.885   8.714  0.4457  0.0239  0.3868
 4774SOL    HW125955   0.324   1.795   8.685  0.3389  0.0977  0.0963
 4774SOL    HW225956   0.367   1.940   8.663 -0.6752  0.8189 -0.0628
 4775SOL     OW25957   3.743   1.729  11.706  0.6570  0.0282  0.3085
 4775SOL    HW125958   3.753   1.824  11.715  0.7559  0.0798 -0.3551
 4775SOL    HW225959   3.682   1.718  11.633  1.7925 -2.1702 -0.3104
 4776SOL     OW25960   1.256   4.075   5.370 -0.3148 -0.1461  0.4135
 4776SOL    HW125961   1.232   3.997   5.420  1.4852 -1.0101 -0.0692
 4776SOL    HW225962   1.261   4.041   5.280  2.0517 -0.8750  0.8275
 4777SOL     OW25963   4.705   0.374   6.746 -0.1284  0.3474  1.0806
 4777SOL    HW125964   0.059   0.382   6.709 -0.2126 -0.2391  0.7590
 4777SOL    HW225965   4.704   0.280   6.760 -2.2349  0.3647  1.0250
 4778SOL     OW25966   0.519   1.396  11.069 -0.0993  0.6509 -0.4954
 4778SOL    HW125967   0.505   1.482  11.029 -3.4301 -1.3022 -3.4991
 4778SOL    HW225968   0.614   1.401  11.079  0.0125  1.1404 -1.8765
 4779SOL     OW25969   1.485   3.648   7.353 -0.4056 -0.0295 -0.0545
 4779SOL    HW125970   1.410   3.640   7.293 -1.7653 -0.8399  1.7716
 4779SOL    HW225971   1.470   3.738   7.382  0.6784 -0.1572  0.9081
 4780SOL     OW25972   0.325   3.844  15.982  0.5670 -0.6733  0.0304
 4780SOL    HW125973   0.294   3.933  15.967  0.9720 -0.6198 -0.4812
 4780SOL    HW225974   0.353   3.814  15.896  1.8106  0.9636 -0.1264
 4781SOL     OW25975   4.254   2.498   1.869 -0.1585 -0.5027  0.1441
 4781SOL    HW125976   4.295   2.472   1.786 -1.1056 -0.4382 -0.3521
 4781SOL    HW225977   4.285   2.588   1.878  0.4585 -0.7854  0.7624
 4782SOL     OW25978   1.424   2.362   3.312 -0.1894  0.1715 -0.0322
 4782SOL    HW125979   1.481   2.438   3.306  0.3283 -0.4102 -2.4884
 4782SOL    HW225980   1.368   2.391   3.384 -1.3646  1.2421 -1.3719
 4783SOL     OW25981   4.363   2.210   2.831 -0.5653  0.8056  0.1191
 4783SOL    HW125982   4.415   2.289   2.844  1.6080 -0.5140 -0.6165
 4783SOL    HW225983   4.431   2.147   2.806 -1.0733  0.1142  0.4638
 4784SOL     OW25984   3.057   1.206   4.325  0.3981  0.0150 -0.3044
 4784SOL    HW125985   2.986   1.160   4.370  0.7544  0.8562  1.0831
 4784SOL    HW225986   3.075   1.145   4.253 -6.3892 -0.3272 -1.7185
 4785SOL     OW25987   2.663   1.590   2.797  0.2667  0.4548 -0.4049
 4785SOL    HW125988   2.679   1.661   2.859 -0.2957 -2.3400  2.9802
 4785SOL    HW225989   2.683   1.519   2.859 -1.1487 -1.7692 -2.4910
 4786SOL     OW25990   2.580   1.814  10.041 -0.1201  0.2059 -0.1597
 4786SOL    HW125991   2.656   1.840   9.989  1.0859 -0.3210  1.3430
 4786SOL    HW225992   2.571   1.897  10.088 -1.4328  0.3458 -0.6449
 4787SOL     OW25993   0.606   0.218  12.013  0.0254  0.6131 -0.1314
 4787SOL    HW125994   0.681   0.195  11.959  0.6481 -0.2799  1.1333
 4787SOL    HW225995   0.617   0.169  12.094 -1.1662  0.4947 -0.0319
 4788SOL     OW25996   0.816   1.238   6.513 -0.9636  0.4048  0.6281
 4788SOL    HW125997   0.841   1.316   6.463  0.5389 -0.8835 -0.6141
 4788SOL    HW225998   0.797   1.273   6.600  0.1934 -0.4448  1.2190
 4789SOL     OW25999   0.029   0.743   7.445  0.0292  0.1412 -0.4370
 4789SOL    HW126000   0.063   0.655   7.430 -1.2569 -0.0258 -2.4741
 4789SOL    HW226001   0.086   0.801   7.394 -0.7570  0.7150 -0.6666
 4790SOL     OW26002   2.367   0.496   4.846 -0.0770 -0.0937  0.0276
 4790SOL    HW126003   2.455   0.473   4.817 -0.1426 -1.8335  1.2353
 4790SOL    HW226004   2.339   0.564   4.784 -1.3679 -0.3975  0.2827
 4791SOL     OW26005   2.017   1.041   7.504  0.4415 -0.3082  0.4875
 4791SOL    HW126006   2.072   0.980   7.553 -0.8037 -1.4425  0.4802
 4791SOL    HW226007   2.068   1.063   7.426 -0.5204 -0.3292 -0.1488
 4792SOL     OW26008   2.216   3.719   4.839  0.0719 -0.0530 -0.9716
 4792SOL    HW126009   2.192   3.639   4.792  1.3150  0.3398 -2.2683
 4792SOL    HW226010   2.281   3.759   4.781  0.0625 -0.6821 -1.4091
 4793SOL     OW26011   4.584   4.192  15.188  0.4318 -0.3193  0.0000
 4793SOL    HW126012   4.498   4.223  15.216  0.8655  0.1512  0.7942
 4793SOL    HW226013   4.557   4.131  15.119 -0.8656 -0.2834  0.4708
 4794SOL     OW26014   2.797   0.859   9.484 -0.6545 -1.1477  0.7459
 4794SOL    HW126015   2.808   0.860   9.579 -0.9127 -1.3072  0.7785
 4794SOL    HW226016   2.706   0.887   9.476 -0.1667 -0.4447 -2.1392
 4795SOL     OW26017   3.645   2.345   3.260 -0.1408  0.0585 -0.0974
 4795SOL    HW126018   3.592   2.269   3.281 -0.6229  1.2783  3.0234
 4795SOL    HW226019   3.729   2.320   3.298 -0.5435  0.2503  0.8990
 4796SOL     OW26020   0.529   1.236   4.473  0.5250  0.6431 -0.3486
 4796SOL    HW126021   0.435   1.228   4.486  0.4559  1.1972 -0.5264
 4796SOL    HW226022   0.562   1.184   4.546  1.2878 -1.5209 -2.2409
 4797SOL     OW26023   3.829   0.674   6.019  0.1107 -0.1462  0.3324
 4797SOL    HW126024   3.871   0.757   5.995  0.1032 -0.7120 -1.6086
 4797SOL    HW226025   3.877   0.642   6.096  1.5624  3.8080  1.0649
 4798SOL     OW26026   3.417   1.770   7.195  0.0973  0.0910  0.0956
 4798SOL    HW126027   3.389   1.738   7.109 -0.3368 -3.2603  1.4761
 4798SOL    HW226028   3.344   1.747   7.253 -0.6067 -0.3312 -0.9463
 4799SOL     OW26029   3.029   4.626   9.740 -0.1848  0.3085 -0.3369
 4799SOL    HW126030   3.053   4.646   9.830  2.2294  1.2028 -1.1886
 4799SOL    HW226031   3.032   4.530   9.748 -1.3131  0.1290 -2.0179
 4800SOL     OW26032   1.368   2.290   9.091 -0.8595 -0.2593 -0.3712
 4800SOL    HW126033   1.361   2.195   9.097  2.4774 -0.6588 -3.1167
 4800SOL    HW226034   1.460   2.303   9.068 -0.5721  0.8347  1.4192
 4801SOL     OW26035   1.088   2.301  10.303 -0.0882 -0.2870 -0.0991
 4801SOL    HW126036   1.069   2.337  10.216 -2.2268 -0.7178  0.1792
 4801SOL    HW226037   1.099   2.211  10.270 -0.2806 -0.3329 -0.0406
 4802SOL     OW26038   3.376   2.846   5.413  0.1819 -0.6640 -0.3428
 4802SOL    HW126039   3.420   2.789   5.476  0.3249  0.8657  0.9349
 4802SOL    HW226040   3.450   2.847   5.352  0.6629 -2.1649  0.2105
 4803SOL     OW26041   2.489   0.847   9.241  0.0373 -0.1308  0.9428
 4803SOL    HW126042   2.394   0.837   9.230  0.2724 -0.2047 -0.9584
 4803SOL    HW226043   2.518   0.768   9.286  2.1906  0.7719  1.1134
 4804SOL     OW26044   4.429   3.485   9.004  0.4251  0.7962 -0.1933
 4804SOL    HW126045   4.372   3.483   9.080  1.1975  0.5834  0.3864
 4804SOL    HW226046   4.393   3.563   8.963 -2.5030 -1.0311 -1.0639
 4805SOL     OW26047   2.937   2.316   3.767 -0.1180  0.9769  1.0404
 4805SOL    HW126048   2.901   2.230   3.789 -1.3294  0.9191 -1.1120
 4805SOL    HW226049   2.869   2.353   3.710  0.3680  0.4631  0.1311
 4806SOL     OW26050   0.445   1.394   3.637 -0.4064  0.6401  0.3797
 4806SOL    HW126051   0.380   1.443   3.688 -1.1978 -0.9754  0.9110
 4806SOL    HW226052   0.501   1.366   3.709  1.5784  1.3193 -0.9140
 4807SOL     OW26053   2.338   2.056   7.829 -0.9189 -0.2439  0.1483
 4807SOL    HW126054   2.370   1.967   7.819  0.4763 -0.1281  3.6985
 4807SOL    HW226055   2.346   2.089   7.739  0.1363 -0.1182  0.2874
 4808SOL     OW26056   2.759   3.534   5.079  0.4569 -0.0072 -0.5388
 4808SOL    HW126057   2.843   3.550   5.037  1.1900 -4.0097 -0.5783
 4808SOL    HW226058   2.697   3.554   5.009  0.1832  2.6181  0.4362
 4809SOL     OW26059   3.214   2.123   8.858 -0.0831  0.1058  0.4325
 4809SOL    HW126060   3.150   2.194   8.852  1.2258  1.4876  3.0615
 4809SOL    HW226061   3.187   2.077   8.937  0.0297  0.9220  0.9465
 4810SOL     OW26062   3.328   1.040   0.231 -0.4486 -1.2212 -0.0105
 4810SOL    HW126063   3.351   1.044   0.324 -2.9005 -0.3592  0.5658
 4810SOL    HW226064   3.416   1.048   0.194 -2.2191  0.0035 -3.9326
 4811SOL     OW26065   1.551   0.512  15.963 -0.0649 -0.5635  1.0144
 4811SOL    HW126066   1.620   0.537  16.024 -0.4509 -2.0619  2.0713
 4811SOL    HW226067   1.569   0.570  15.888  2.9101 -1.1155  1.2733
 4812SOL     OW26068   3.463   3.175   6.445  0.2422 -0.1221 -0.0547
 4812SOL    HW126069   3.497   3.204   6.530 -1.3033  1.0999  0.1574
 4812SOL    HW226070   3.432   3.256   6.405  1.0668 -0.8101 -2.0404
 4813SOL     OW26071   1.803   2.386   8.670 -1.0129 -0.0958  0.4958
 4813SOL    HW126072   1.834   2.346   8.589  1.3154  2.1931  0.2271
 4813SOL    HW226073   1.798   2.313   8.731  0.2825  0.3903  1.2059
 4814SOL     OW26074   4.055   3.543  17.497 -0.4639  0.0536 -0.9142
 4814SOL    HW126075   4.109   3.541  17.419 -0.3386 -0.0566 -0.8251
 4814SOL    HW226076   3.983   3.603  17.479 -2.4235 -1.2482  2.4859
 4815SOL     OW26077   0.816   4.551   9.352 -0.1366  0.4980  0.5774
 4815SOL    HW126078   0.887   4.493   9.378 -0.4602 -0.1192  0.0868
 4815SOL    HW226079   0.835   4.572   9.260 -1.4416 -2.1502 -0.2988
 4816SOL     OW26080   1.626   3.489   8.736 -0.0512  0.5604 -0.2458
 4816SOL    HW126081   1.563   3.539   8.789  2.0998  0.9908  1.9046
 4816SOL    HW226082   1.595   3.503   8.647 -2.7696  0.5483  0.6999
 4817SOL     OW26083   2.369   3.121   2.664 -0.7203  0.0354 -0.5976
 4817SOL    HW126084   2.371   3.216   2.675  0.8280 -0.2698  1.9186
 4817SOL    HW226085   2.305   3.112   2.594  0.0623 -2.0983 -1.0372
 4818SOL     OW26086   4.528   1.715   4.584  0.0933 -0.3311  0.3120
 4818SOL    HW126087   4.518   1.633   4.631 -1.1318 -0.4269 -0.0934
 4818SOL    HW226088   4.605   1.699   4.530 -0.8230 -1.2991 -0.7022
 4819SOL     OW26089   2.121   3.843   9.366  0.6946 -0.1802  0.2015
 4819SOL    HW126090   2.086   3.848   9.455 -0.7787  1.0629 -0.4498
 4819SOL    HW226091   2.040   3.877   9.327 -0.6113 -2.2459  1.1266
 4820SOL     OW26092   2.560   0.001   4.922  0.3046 -0.1746 -0.9088
 4820SOL    HW126093   2.468   0.018   4.901 -0.2373 -0.8012  1.0207
 4820SOL    HW226094   2.613   0.076   4.895 -0.0135 -0.5803 -2.6877
 4821SOL     OW26095   2.522   3.793   3.891 -0.5374  0.9354  0.1203
 4821SOL    HW126096   2.497   3.880   3.860  0.9177  1.6590  0.9889
 4821SOL    HW226097   2.568   3.765   3.813 -2.0835  0.4589 -0.6301
 4822SOL     OW26098   1.053   3.239   4.058  0.8620  0.0630  0.3723
 4822SOL    HW126099   1.027   3.148   4.076 -0.0963  0.4023  0.7134
 4822SOL    HW226100   1.047   3.281   4.143 -0.9489  0.6637 -0.0507
 4823SOL     OW26101   2.030   1.888   6.843  0.5664 -0.6016  0.8100
 4823SOL    HW126102   1.935   1.885   6.844  0.4551  2.2083 -0.8620
 4823SOL    HW226103   2.051   1.829   6.770 -1.3802 -0.4843  0.1670
 4824SOL     OW26104   4.101   3.455   4.044 -0.6706 -0.0999 -0.5840
 4824SOL    HW126105   4.070   3.369   4.015  1.2891 -1.2913  0.8199
 4824SOL    HW226106   4.030   3.489   4.099  1.2587  0.5021  1.5072
 4825SOL     OW26107   1.327   3.088   0.984  0.0663  0.1086 -0.2444
 4825SOL    HW126108   1.325   3.027   1.057  0.0105 -0.4828 -0.7448
 4825SOL    HW226109   1.420   3.102   0.966  0.6342  0.1918  2.8445
 4826SOL     OW26110   2.161   0.979   5.303  0.3227 -0.3252  0.0153
 4826SOL    HW126111   2.133   0.954   5.391  0.8759 -0.9816  0.0113
 4826SOL    HW226112   2.253   0.955   5.310  1.0437  2.6743  0.6899
 4827SOL     OW26113   0.911   2.493   0.788 -0.2195  0.0122 -0.4920
 4827SOL    HW126114   0.915   2.566   0.726 -0.1086  0.2508 -0.2022
 4827SOL    HW226115   0.897   2.420   0.727 -0.6458 -2.3557  2.4620
 4828SOL     OW26116   1.132   0.417   2.232  0.1105  0.4935 -0.3080
 4828SOL    HW126117   1.137   0.323   2.215 -2.6543  0.3662 -0.4499
 4828SOL    HW226118   1.200   0.424   2.298 -0.1741  3.6609 -0.3143
 4829SOL     OW26119   4.477   2.858   1.555 -0.1436  0.0764  0.6551
 4829SOL    HW126120   4.528   2.809   1.620 -1.9125 -0.3346  1.7245
 4829SOL    HW226121   4.453   2.928   1.616 -0.9545  0.2323  0.1643
 4830SOL     OW26122   1.671   2.995   2.438  0.5475  0.4910  0.1547
 4830SOL    HW126123   1.685   2.908   2.475  0.9962 -0.2212 -1.6932
 4830SOL    HW226124   1.688   2.989   2.343 -0.0076 -0.9283  0.1499
 4831SOL     OW26125   0.984   2.663  17.339 -0.4250 -0.1830 -0.4215
 4831SOL    HW126126   1.017   2.579  17.369  0.4220 -0.1167 -1.1676
 4831SOL    HW226127   0.959   2.703  17.422 -0.0497 -0.7005 -0.0586
 4832SOL     OW26128   3.021   3.540   1.442  0.7817 -0.0310 -0.4622
 4832SOL    HW126129   3.080   3.600   1.396  2.1511 -2.3334 -1.7275
 4832SOL    HW226130   3.051   3.561   1.530 -2.2406  0.9171  0.3232
 4833SOL     OW26131   1.699   4.721  15.610  0.1812 -0.6426  0.0156
 4833SOL    HW126132   1.755   0.009  15.536 -2.1875  0.8954 -1.3181
 4833SOL    HW226133   1.687   4.630  15.586  0.1288 -0.8856  0.9475
 4834SOL     OW26134   3.681   2.190  13.500 -0.1539  0.2373  0.0705
 4834SOL    HW126135   3.625   2.176  13.576  0.0833 -1.5412 -0.0810
 4834SOL    HW226136   3.628   2.236  13.434  1.1288  0.3142 -0.9210
 4835SOL     OW26137   1.180   3.871   9.067 -0.0731 -0.5267 -0.5302
 4835SOL    HW126138   1.242   3.816   9.020 -2.1261 -2.3598 -1.1148
 4835SOL    HW226139   1.151   3.805   9.131 -1.1693  0.9243  0.4873
 4836SOL     OW26140   0.446   4.595   4.325 -0.0106  0.4785 -0.6209
 4836SOL    HW126141   0.459   4.605   4.419 -1.0326  1.4534 -0.5787
 4836SOL    HW226142   0.531   4.559   4.300 -1.5504 -0.9734 -3.8912
 4837SOL     OW26143   3.232   4.664   8.667  0.2201 -0.1246 -0.0279
 4837SOL    HW126144   3.256   4.688   8.756 -0.4359  0.9462 -0.1405
 4837SOL    HW226145   3.220   4.570   8.674  1.1854 -0.3152 -0.8589
 4838SOL     OW26146   4.557   1.424   1.622  0.3513  0.1845  0.2149
 4838SOL    HW126147   4.488   1.387   1.567  0.0632  2.8456 -1.1891
 4838SOL    HW226148   4.519   1.511   1.629 -0.4273 -0.0937 -0.6404
 4839SOL     OW26149   1.941   2.777   4.103 -0.1249 -0.1742 -0.0253
 4839SOL    HW126150   1.884   2.828   4.160  0.4250 -0.2833  0.6185
 4839SOL    HW226151   2.021   2.783   4.155  1.0461  0.2688 -1.8559
 4840SOL     OW26152   2.635   1.660   7.589  0.0913 -0.2976 -0.3632
 4840SOL    HW126153   2.593   1.742   7.567  0.1843 -0.3029 -0.5629
 4840SOL    HW226154   2.583   1.612   7.525  1.7533  1.0184 -2.7275
 4841SOL     OW26155   3.274   1.356   2.414  0.0074 -0.4068  0.3469
 4841SOL    HW126156   3.258   1.341   2.321 -1.0786  2.2537  0.0914
 4841SOL    HW226157   3.185   1.343   2.448 -0.0055 -0.9913  0.0867
 4842SOL     OW26158   2.939   2.821   5.564 -0.3238 -0.0373 -0.7158
 4842SOL    HW126159   3.033   2.838   5.576 -0.1792 -1.7821  0.6314
 4842SOL    HW226160   2.917   2.810   5.657 -2.1131  2.8633 -0.7911
 4843SOL     OW26161   2.367   2.589   9.682  0.3403 -0.5275 -0.2566
 4843SOL    HW126162   2.272   2.579   9.681  0.3192 -0.2883 -0.6624
 4843SOL    HW226163   2.373   2.683   9.702 -0.1190 -0.7744  1.0440
 4844SOL     OW26164   2.409   4.054   5.366  0.6198 -0.1795 -0.4167
 4844SOL    HW126165   2.428   3.961   5.377  0.6310 -0.0541  0.6372
 4844SOL    HW226166   2.436   4.086   5.452  0.2514  0.5206 -0.5647
 4845SOL     OW26167   3.619   0.144  10.530  0.6281 -0.3558 -1.1214
 4845SOL    HW126168   3.590   0.141  10.439 -0.1327  0.9584 -0.9180
 4845SOL    HW226169   3.709   0.172  10.513  1.0109  0.7801  2.7939
 4846SOL     OW26170   1.720   3.014  14.729  0.6344  0.3456 -0.5916
 4846SOL    HW126171   1.708   3.005  14.635  2.2443 -2.1842 -0.5488
 4846SOL    HW226172   1.720   3.110  14.730  1.0901  0.3409 -0.2306
 4847SOL     OW26173   3.411   1.050   0.836 -0.2215  0.3190  0.1579
 4847SOL    HW126174   3.350   1.110   0.877 -0.3626 -0.3754  0.9603
 4847SOL    HW226175   3.494   1.098   0.836  0.6046 -1.1161  2.5008
 4848SOL     OW26176   3.560   2.597  17.001  0.0666 -0.4244 -0.1792
 4848SOL    HW126177   3.645   2.584  17.042  0.7524 -2.2503 -2.1728
 4848SOL    HW226178   3.551   2.691  17.012 -1.5466 -0.4357 -1.3700
 4849SOL     OW26179   1.271   2.575   6.887  0.4802 -0.2420 -0.0830
 4849SOL    HW126180   1.247   2.522   6.962 -0.4726  0.0210 -0.1950
 4849SOL    HW226181   1.210   2.534   6.825  0.1280 -1.1795  0.8904
 4850SOL     OW26182   4.057   4.484   9.442 -0.6269  0.7735 -0.0278
 4850SOL    HW126183   3.971   4.527   9.439 -0.7597  0.3734 -2.2430
 4850SOL    HW226184   4.078   4.478   9.349  1.8437  1.1905  0.5228
 4851SOL     OW26185   4.348   2.397   8.302 -0.1124  0.3937 -0.1167
 4851SOL    HW126186   4.357   2.309   8.338  0.3537  0.2308 -0.6201
 4851SOL    HW226187   4.348   2.453   8.379 -2.7780  0.4995 -0.1943
 4852SOL     OW26188   4.402   3.747   4.268 -0.3865  0.0183  0.0364
 4852SOL    HW126189   4.492   3.779   4.262 -0.3213 -0.0832  0.4795
 4852SOL    HW226190   4.398   3.692   4.190 -0.3232  0.5790 -0.3596
 4853SOL     OW26191   3.132   2.393   9.362  0.0437  0.1983 -0.4113
 4853SOL    HW126192   3.077   2.366   9.436  2.1255 -0.3695  0.9381
 4853SOL    HW226193   3.146   2.309   9.318  0.6334 -0.8651  1.7862
 4854SOL     OW26194   2.013   2.760  13.239 -0.0963 -0.5374 -0.1597
 4854SOL    HW126195   1.942   2.707  13.274 -1.1329  2.0174  1.6100
 4854SOL    HW226196   2.067   2.690  13.204 -0.7663 -1.3732  0.4839
 4855SOL     OW26197   1.075   3.985   8.345  0.1210  0.4236 -0.3032
 4855SOL    HW126198   0.993   3.989   8.393  1.7070  0.3020  2.4192
 4855SOL    HW226199   1.079   4.077   8.320 -0.3487  1.3392  2.9567
 4856SOL     OW26200   3.250   2.761   4.983  0.5366  0.6843 -0.4367
 4856SOL    HW126201   3.236   2.733   5.073  1.2460  1.3188 -0.1347
 4856SOL    HW226202   3.165   2.800   4.965 -0.7133 -1.8712 -0.1729
 4857SOL     OW26203   4.090   0.916   6.281 -0.2499 -0.1944 -0.6798
 4857SOL    HW126204   4.032   0.929   6.206 -1.3077  1.4154  0.4255
 4857SOL    HW226205   4.099   1.007   6.309 -0.4149 -0.5761  0.6124
 4858SOL     OW26206   4.286   4.658   4.837 -0.0540  0.0725  0.1026
 4858SOL    HW126207   4.369   4.654   4.883 -2.0139 -2.4471  3.3453
 4858SOL    HW226208   4.311   4.672   4.745 -0.0496 -1.9206 -0.1868
 4859SOL     OW26209   1.834   4.610   6.496  0.3894 -0.2338  0.1072
 4859SOL    HW126210   1.817   4.682   6.557 -0.7674 -1.6976  1.5348
 4859SOL    HW226211   1.796   4.639   6.413 -0.0549  0.2247  0.4721
 4860SOL     OW26212   3.210   1.227   6.314  0.2468 -0.4407 -0.0282
 4860SOL    HW126213   3.190   1.263   6.401 -1.4950  0.1883 -0.6883
 4860SOL    HW226214   3.129   1.242   6.266 -0.5898  2.6922  2.3204
 4861SOL     OW26215   0.284   3.902  13.798  0.3095 -0.4548  0.3984
 4861SOL    HW126216   0.314   3.919  13.709  0.7073 -0.1405  0.5953
 4861SOL    HW226217   0.362   3.858  13.832  0.4489 -0.3370  0.2309
 4862SOL     OW26218   0.629   3.602   8.253  0.1215 -1.0832 -0.6738
 4862SOL    HW126219   0.699   3.667   8.256  0.7452 -1.7922 -0.2096
 4862SOL    HW226220   0.565   3.635   8.316 -0.5238 -0.4139 -1.6715
 4863SOL     OW26221   3.481   4.201  12.194 -0.3067  0.7383  0.3276
 4863SOL    HW126222   3.389   4.176  12.203  0.5046 -2.5959 -0.5571
 4863SOL    HW226223   3.530   4.120  12.206  1.1909  1.6410  0.3639
 4864SOL     OW26224   1.015   3.896   5.444 -0.5096 -0.1090  0.3713
 4864SOL    HW126225   1.029   3.870   5.535  2.2359 -0.3249 -0.1315
 4864SOL    HW226226   1.012   3.815   5.394  1.1241 -1.6325  2.7805
 4865SOL     OW26227   1.514   2.810   6.208 -0.4560 -0.3270  0.0299
 4865SOL    HW126228   1.528   2.902   6.184 -3.0386  0.0309 -0.0437
 4865SOL    HW226229   1.419   2.801   6.202 -0.7152  0.5223  2.5543
 4866SOL     OW26230   1.006   1.561   8.592  0.2048 -0.0664  0.1367
 4866SOL    HW126231   0.919   1.527   8.611  0.3604 -0.4286  0.2183
 4866SOL    HW226232   1.008   1.534   8.500 -0.9580  2.2261 -0.5602
 4867SOL     OW26233   3.519   1.036   3.581 -0.5345  0.3810  0.0782
 4867SOL    HW126234   3.486   1.031   3.491 -1.3226  0.9307  0.3423
 4867SOL    HW226235   3.516   0.944   3.609  1.6459  0.4432  0.5442
 4868SOL     OW26236   1.564   2.538   6.947  0.5763  0.1776  0.8135
 4868SOL    HW126237   1.619   2.609   6.914  1.0886 -1.2780 -1.5304
 4868SOL    HW226238   1.477   2.576   6.938  0.8124  0.5752  0.2737
 4869SOL     OW26239   0.781   3.807  16.082 -0.4202 -0.0423 -0.4573
 4869SOL    HW126240   0.847   3.751  16.041 -2.5192 -3.5940  0.9700
 4869SOL    HW226241   0.718   3.811  16.011 -0.2330  1.8056 -0.5052
 4870SOL     OW26242   4.581   2.230  10.528  0.7071 -0.2846  0.4334
 4870SOL    HW126243   4.565   2.322  10.508  0.9964 -0.1503  0.8359
 4870SOL    HW226244   4.491   2.196  10.532  0.9499 -0.9918 -0.1394
 4871SOL     OW26245   0.205   3.918  15.523  0.9879 -0.1646 -0.6656
 4871SOL    HW126246   0.136   3.924  15.457  0.3006  0.0423  0.0730
 4871SOL    HW226247   0.203   4.007  15.560 -0.1156 -1.2536  1.9400
 4872SOL     OW26248   2.244   2.074  14.185 -0.3896 -0.2366 -0.4498
 4872SOL    HW126249   2.183   2.078  14.111  0.4848  0.2210 -1.1464
 4872SOL    HW226250   2.209   2.140  14.245  0.4276  0.4202 -0.7012
 4873SOL     OW26251   3.847   3.167  14.238 -0.2178  0.5442  0.3036
 4873SOL    HW126252   3.789   3.243  14.248 -0.9685 -0.1101  0.9298
 4873SOL    HW226253   3.795   3.093  14.269  0.0144 -0.0241 -0.6442
 4874SOL     OW26254   3.092   4.233   3.935  0.0204 -0.2411 -0.4847
 4874SOL    HW126255   3.127   4.169   3.996  0.8883  1.9291  1.2887
 4874SOL    HW226256   3.097   4.312   3.989  1.4999 -1.2982  0.9216
 4875SOL     OW26257   1.135   0.732  15.295  0.1912  0.1537 -0.2970
 4875SOL    HW126258   1.214   0.746  15.348  0.4998 -2.5122 -0.0516
 4875SOL    HW226259   1.163   0.664  15.234  0.9974 -0.4414  0.7372
 4876SOL     OW26260   3.865   2.106  16.219  0.7921 -0.0012 -0.4729
 4876SOL    HW126261   3.786   2.158  16.234 -0.5840 -1.5754 -2.3009
 4876SOL    HW226262   3.903   2.150  16.143 -2.1857  1.5087 -1.0831
 4877SOL     OW26263   0.892   4.442  17.060  0.7432 -0.1474 -0.4033
 4877SOL    HW126264   0.957   4.504  17.026  1.3013  0.9416  2.7157
 4877SOL    HW226265   0.874   4.472  17.149  0.3407  1.2918 -0.9721
 4878SOL     OW26266   2.816   2.072   3.807  0.9444  0.0833  0.3928
 4878SOL    HW126267   2.772   2.049   3.888  0.7172 -0.4344  0.1212
 4878SOL    HW226268   2.757   2.061   3.732  0.6359 -1.6547  0.9017
 4879SOL     OW26269   2.734   0.027   5.140  0.1781 -0.5931  0.2299
 4879SOL    HW126270   2.702   0.108   5.181 -0.3307 -1.4453  1.5028
 4879SOL    HW226271   2.667   0.012   5.073  0.2156 -2.9135  0.7218
 4880SOL     OW26272   0.930   0.049   4.930 -0.6268 -0.4193 -0.7390
 4880SOL    HW126273   0.953   4.693   4.956 -0.7877  0.2943  1.8682
 4880SOL    HW226274   0.920   0.085   5.018  1.4507 -0.5461 -0.4496
 4881SOL     OW26275   1.929   1.909   7.337  0.0498 -0.3130  0.2399
 4881SOL    HW126276   2.008   1.956   7.309  1.6760 -1.4122  3.0114
 4881SOL    HW226277   1.958   1.819   7.324  0.1069 -0.1914 -0.5071
 4882SOL     OW26278   3.820   3.223   5.689  0.1546  0.1375 -0.7386
 4882SOL    HW126279   3.830   3.131   5.713 -0.5217  1.0532  2.9195
 4882SOL    HW226280   3.818   3.276   5.768 -5.1746  0.0450 -0.7894
 4883SOL     OW26281   2.416   3.607  15.818  0.3130  1.0450  0.3248
 4883SOL    HW126282   2.344   3.549  15.842  1.2252 -0.2178  0.0230
 4883SOL    HW226283   2.366   3.687  15.798  0.5875  0.4107 -2.9653
 4884SOL     OW26284   0.230   3.394  12.117  0.6128  0.8813  0.6648
 4884SOL    HW126285   0.264   3.478  12.087 -0.7862 -0.2481 -3.9685
 4884SOL    HW226286   0.154   3.410  12.172  0.9867  0.1260  1.4160
 4885SOL     OW26287   1.066   1.937  12.437 -0.3362 -0.3157  0.1309
 4885SOL    HW126288   1.113   1.962  12.517  0.0202 -0.0710 -0.1546
 4885SOL    HW226289   0.979   1.912  12.469 -0.6670  2.1411  1.1933
 4886SOL     OW26290   2.859   3.175   9.584  0.2398  0.1964 -0.0099
 4886SOL    HW126291   2.931   3.194   9.644 -0.2917  1.5222  0.2147
 4886SOL    HW226292   2.884   3.090   9.549  0.7337  0.0770  0.6317
 4887SOL     OW26293   0.998   3.260  13.674 -0.1470 -0.4204  0.0347
 4887SOL    HW126294   1.025   3.303  13.593 -0.2256 -1.1810 -0.4011
 4887SOL    HW226295   1.067   3.195  13.687 -0.1919 -0.4458  0.1472
 4888SOL     OW26296   3.851   3.338   6.217 -0.5720  0.6858 -0.2065
 4888SOL    HW126297   3.872   3.343   6.310 -1.4019  0.0105  0.0201
 4888SOL    HW226298   3.935   3.338   6.172 -0.1073  0.2228  0.6706
 4889SOL     OW26299   0.146   0.532  12.657 -0.0878  0.3105 -0.3724
 4889SOL    HW126300   0.180   0.451  12.618 -1.1456 -0.3515  0.0691
 4889SOL    HW226301   0.220   0.568  12.705 -0.1897 -0.1172  0.1033
 4890SOL     OW26302   1.595   3.365   3.617 -0.0144  0.9229  0.0307
 4890SOL    HW126303   1.595   3.425   3.692 -0.9879  2.1933 -0.9795
 4890SOL    HW226304   1.519   3.401   3.571  0.9297  0.4952 -1.8897
 4891SOL     OW26305   1.539   3.658  13.265  0.1729  0.1917 -0.0095
 4891SOL    HW126306   1.635   3.659  13.258  0.1654 -1.3756 -0.4278
 4891SOL    HW226307   1.521   3.596  13.194  0.7570  0.7658 -0.6551
 4892SOL     OW26308   1.783   4.338   1.829  0.5385 -0.5429  0.8107
 4892SOL    HW126309   1.740   4.320   1.745 -1.2009 -0.6229  1.7103
 4892SOL    HW226310   1.847   4.403   1.802 -0.1548 -0.4420 -0.5635
 4893SOL     OW26311   4.414   0.086   1.669 -0.2910  0.0127  0.4335
 4893SOL    HW126312   4.480   0.072   1.737  0.0113  0.4865  0.2421
 4893SOL    HW226313   4.457   0.143   1.605  0.1320 -1.2508 -0.4164
 4894SOL     OW26314   4.098   3.919   8.899  0.3536 -0.2184  0.2323
 4894SOL    HW126315   4.083   4.004   8.858 -0.4589 -0.1292  0.6983
 4894SOL    HW226316   4.171   3.944   8.955  0.5987 -0.0902 -0.1449
 4895SOL     OW26317   2.004   3.633   1.609  0.2871  0.3463 -0.0143
 4895SOL    HW126318   2.011   3.604   1.700 -1.6242  0.1777  0.0891
 4895SOL    HW226319   1.963   3.558   1.566 -1.2676  1.3996 -0.3504
 4896SOL     OW26320   3.550   0.546   8.566  0.6978  0.3134 -0.1157
 4896SOL    HW126321   3.546   0.599   8.486  0.3665 -1.0728 -1.0174
 4896SOL    HW226322   3.566   0.458   8.532  1.7235 -0.7242  3.1175
 4897SOL     OW26323   1.422   3.815   5.999 -0.4504  0.1100 -0.0049
 4897SOL    HW126324   1.457   3.727   5.987  0.2169  0.1105  1.8872
 4897SOL    HW226325   1.407   3.852   5.912  1.2912  0.4311 -0.1726
 4898SOL     OW26326   0.502   4.318  14.955  0.4505  0.1754  0.0899
 4898SOL    HW126327   0.420   4.368  14.958  0.1221 -0.3266 -0.3553
 4898SOL    HW226328   0.561   4.363  15.016  0.4180  1.4053 -0.7907
 4899SOL     OW26329   1.917   2.605  16.058  0.1034 -0.4504  0.0735
 4899SOL    HW126330   1.919   2.690  16.014  1.3273  0.0747  1.1192
 4899SOL    HW226331   1.969   2.553  15.997 -0.9619 -2.3840  0.8213
 4900SOL     OW26332   4.466   2.040  17.339  0.1100 -0.3343  0.6521
 4900SOL    HW126333   4.416   1.962  17.364  0.3190 -0.4198  0.7955
 4900SOL    HW226334   4.418   2.091  17.273  1.0050 -0.6523 -0.2552
 4901SOL     OW26335   4.593   1.512   5.459 -0.1506  0.6009 -0.2299
 4901SOL    HW126336   4.661   1.565   5.419 -0.0749  2.4523  2.3106
 4901SOL    HW226337   4.631   1.424   5.464 -1.4100  0.0819  0.2112
 4902SOL     OW26338   3.793   2.829   8.897 -0.4048 -0.1003 -0.4275
 4902SOL    HW126339   3.761   2.900   8.840  0.4482  0.5871 -0.0514
 4902SOL    HW226340   3.737   2.758   8.868  1.3648 -1.2434 -1.0644
 4903SOL     OW26341   2.220   1.988  12.879  0.1621 -0.2361 -0.3956
 4903SOL    HW126342   2.168   2.047  12.824  2.9381  0.6898 -2.0444
 4903SOL    HW226343   2.304   2.032  12.887 -1.6860  3.0469  0.7361
 4904SOL     OW26344   0.895   0.254   8.082 -0.6111  0.0255  0.3836
 4904SOL    HW126345   0.963   0.237   8.018  0.2252 -1.3632  1.6288
 4904SOL    HW226346   0.955   0.259   8.157  1.6494  0.2657 -1.4400
 4905SOL     OW26347   3.681   1.851   2.797  0.0281 -0.3480  0.3278
 4905SOL    HW126348   3.738   1.927   2.786 -0.3457 -0.0629  0.3838
 4905SOL    HW226349   3.608   1.879   2.852  0.2075  0.0544  0.3606
 4906SOL     OW26350   1.720   3.535   5.757  0.6293 -0.0758 -0.3408
 4906SOL    HW126351   1.791   3.483   5.719 -0.4623 -1.0067 -1.1117
 4906SOL    HW226352   1.650   3.529   5.692  0.6708 -1.2960 -0.2799
 4907SOL     OW26353   1.864   2.722   7.268 -0.1995  0.4830 -0.1175
 4907SOL    HW126354   1.810   2.795   7.298 -1.3830  0.1641 -1.4547
 4907SOL    HW226355   1.814   2.648   7.304  1.6900 -0.8097 -0.1620
 4908SOL     OW26356   0.581   2.092  12.144 -0.4234  0.0849 -0.0469
 4908SOL    HW126357   0.560   2.179  12.108  1.1696  0.5313  0.1042
 4908SOL    HW226358   0.666   2.110  12.183  0.3838 -1.2487 -1.1932
 4909SOL     OW26359   3.162   4.495   8.125  0.6399 -0.2893  0.2370
 4909SOL    HW126360   3.136   4.587   8.123 -0.2461 -0.6470 -3.4597
 4909SOL    HW226361   3.105   4.459   8.193  1.6192 -0.8077  0.7858
 4910SOL     OW26362   3.697   3.184   9.223  0.1007 -1.0002  0.1416
 4910SOL    HW126363   3.639   3.204   9.149  1.7569 -3.3621 -1.8052
 4910SOL    HW226364   3.740   3.104   9.192  1.6543 -0.6875  1.4797
 4911SOL     OW26365   4.124   2.959   8.120  1.0978  0.6437 -0.3398
 4911SOL    HW126366   4.186   2.923   8.056  1.5086  1.7628 -0.5625
 4911SOL    HW226367   4.090   3.037   8.077 -1.7610 -0.5592 -0.2830
 4912SOL     OW26368   4.631   2.939   2.558  0.7215 -0.2709  0.3719
 4912SOL    HW126369   4.711   2.897   2.590 -0.1402 -0.9189  1.6796
 4912SOL    HW226370   4.662   2.958   2.470 -1.9984 -1.5199 -0.8700
 4913SOL     OW26371   0.911   3.406   7.561 -0.6434 -0.3730  0.2028
 4913SOL    HW126372   0.872   3.346   7.496  1.1856 -0.3672 -0.8974
 4913SOL    HW226373   0.983   3.350   7.590 -0.0646  0.4368  0.3050
 4914SOL     OW26374   2.119   2.048  16.058 -0.7026 -0.5997  0.0720
 4914SOL    HW126375   2.177   2.041  15.983 -0.9985  0.1865 -0.2348
 4914SOL    HW226376   2.059   2.120  16.037  1.3853  1.3854  0.8418
 4915SOL     OW26377   2.552   4.397   4.217 -0.8941 -0.2377 -0.4486
 4915SOL    HW126378   2.638   4.398   4.175 -0.3975  0.7153  0.6040
 4915SOL    HW226379   2.549   4.480   4.264 -0.4745 -0.7083  0.4165
 4916SOL     OW26380   3.978   3.443   8.659 -0.1018  0.1232  0.0409
 4916SOL    HW126381   3.936   3.364   8.623 -3.1274  1.8754 -0.2362
 4916SOL    HW226382   4.072   3.422   8.654 -0.4254 -1.6947  1.3931
 4917SOL     OW26383   1.971   2.546   2.257  0.5756  0.4729 -0.1375
 4917SOL    HW126384   1.919   2.586   2.187 -1.4551  0.7187  1.5196
 4917SOL    HW226385   2.051   2.515   2.214 -1.0614 -1.7866 -1.5482
 4918SOL     OW26386   0.054   1.797   6.358  0.2493  0.2543 -0.4518
 4918SOL    HW126387   0.040   1.782   6.264  3.7074 -2.0340 -0.5953
 4918SOL    HW226388   4.699   1.770   6.380  0.6423 -0.5814  0.1033
 4919SOL     OW26389   2.881   0.539   5.271  0.2858 -0.4932 -0.1614
 4919SOL    HW126390   2.858   0.623   5.312  0.5370  0.2290 -1.4808
 4919SOL    HW226391   2.789   0.516   5.259 -0.1500  1.1480  0.0400
 4920SOL     OW26392   4.030   2.948   6.053 -0.0826 -0.4131 -0.3859
 4920SOL    HW126393   4.033   3.035   6.013  2.4128 -0.7837 -1.0188
 4920SOL    HW226394   4.098   2.901   6.005  1.2453 -0.2979  1.3586
 4921SOL     OW26395   2.198   0.876   3.195  0.2977  0.4995  0.4253
 4921SOL    HW126396   2.281   0.856   3.151  0.6131  1.3464  0.6417
 4921SOL    HW226397   2.154   0.791   3.194  1.0970  0.0810  1.5242
 4922SOL     OW26398   2.227   3.945   8.373  0.5447 -0.2741  0.1535
 4922SOL    HW126399   2.246   3.944   8.279 -2.2565 -0.9924 -0.3933
 4922SOL    HW226400   2.209   3.852   8.384  0.6139 -0.2577  0.3981
 4923SOL     OW26401   0.899   1.255   1.544  0.3284 -0.5598  0.4475
 4923SOL    HW126402   0.968   1.190   1.530  1.1171  0.5756 -0.9695
 4923SOL    HW226403   0.819   1.241   1.492  0.2345 -1.1102  0.7432
 4924SOL     OW26404   4.280   1.566   3.283  0.6956  0.8746 -0.4027
 4924SOL    HW126405   4.198   1.610   3.309 -1.2344 -2.3336 -1.0656
 4924SOL    HW226406   4.318   1.538   3.365 -2.2811 -0.7698  0.4091
 4925SOL     OW26407   3.759   0.782   6.570 -0.5202 -0.3447 -0.3066
 4925SOL    HW126408   3.795   0.870   6.559 -1.3070  0.2815  2.1280
 4925SOL    HW226409   3.707   0.779   6.490 -0.7863  0.1962 -0.1558
 4926SOL     OW26410   1.801   4.115   6.427 -0.5101 -0.1840 -0.1195
 4926SOL    HW126411   1.838   4.151   6.347 -1.1678  2.5964  0.8384
 4926SOL    HW226412   1.857   4.154   6.494  0.2493 -1.5117  0.0059
 4927SOL     OW26413   4.283   0.884   5.333  0.1330 -0.3867 -0.4706
 4927SOL    HW126414   4.317   0.914   5.249  2.2184 -0.8950  0.1754
 4927SOL    HW226415   4.190   0.902   5.324  0.7139  1.9079 -1.8037
 4928SOL     OW26416   3.460   1.233   8.300  0.5100  0.4173  0.0804
 4928SOL    HW126417   3.513   1.298   8.253  0.3193 -0.8643 -1.8916
 4928SOL    HW226418   3.395   1.289   8.343 -0.6926 -0.9593  0.0786
 4929SOL     OW26419   1.314   4.476   2.796 -0.1423 -0.1651  0.1341
 4929SOL    HW126420   1.390   4.427   2.763  1.5653  2.3182  0.4145
 4929SOL    HW226421   1.255   4.401   2.805  0.1472 -0.8024 -3.2675
 4930SOL     OW26422   2.274   0.465   4.430  0.7460 -0.3789 -0.4925
 4930SOL    HW126423   2.303   0.556   4.435  1.5538 -0.6436 -0.2637
 4930SOL    HW226424   2.260   0.462   4.336 -0.0093 -0.6554 -0.3728
 4931SOL     OW26425   3.612   1.087   9.437 -1.1407 -0.0816 -0.1575
 4931SOL    HW126426   3.659   1.081   9.353  0.0596 -1.3296  0.6047
 4931SOL    HW226427   3.671   1.130   9.499 -1.3740  0.9660 -0.6588
 4932SOL     OW26428   2.182   1.865   2.106 -0.0687 -0.0577  0.1587
 4932SOL    HW126429   2.128   1.786   2.109 -0.6549  0.3602  0.4091
 4932SOL    HW226430   2.256   1.827   2.154  0.7297 -0.0514 -1.0622
 4933SOL     OW26431   4.161   0.019  14.086  0.3889 -0.1737  0.1232
 4933SOL    HW126432   4.083   4.710  14.121 -0.6438  1.8652  0.3361
 4933SOL    HW226433   4.143   0.100  14.134 -1.2778 -1.1646  1.1403
 4934SOL     OW26434   2.658   2.739  11.958 -0.2139 -0.4970  0.3474
 4934SOL    HW126435   2.681   2.700  12.042 -0.0743  0.9937  1.0120
 4934SOL    HW226436   2.711   2.683  11.902 -1.4747 -1.5652  0.2321
 4935SOL     OW26437   3.170   0.815   6.706  0.5453 -0.0066  0.3471
 4935SOL    HW126438   3.249   0.803   6.653 -0.5068  0.8184 -1.4121
 4935SOL    HW226439   3.200   0.860   6.785 -1.7469  0.0338  1.1968
 4936SOL     OW26440   4.119   3.668  15.125  0.0256 -0.0791  0.7459
 4936SOL    HW126441   4.050   3.731  15.144  2.0224  1.5646  2.6005
 4936SOL    HW226442   4.069   3.590  15.098  0.6272 -0.3688  0.4546
 4937SOL     OW26443   3.313   3.773   1.772  0.3339 -1.2795  0.2911
 4937SOL    HW126444   3.320   3.710   1.843  0.0586  0.3093  1.7341
 4937SOL    HW226445   3.407   3.777   1.753  0.6267  0.6429  2.0382
 4938SOL     OW26446   3.220   1.706  11.399  0.2745 -0.1884  0.0069
 4938SOL    HW126447   3.168   1.759  11.458  2.5181  1.1707  0.7859
 4938SOL    HW226448   3.276   1.650  11.453  0.4675  2.6693  2.7409
 4939SOL     OW26449   1.073   3.366  10.754  0.4875  0.3180  0.4418
 4939SOL    HW126450   0.981   3.391  10.748  0.7370  1.1397  0.0891
 4939SOL    HW226451   1.095   3.359  10.661 -1.4301 -0.2818  0.0227
 4940SOL     OW26452   3.735   0.218   9.126  0.5341 -0.7354 -0.4560
 4940SOL    HW126453   3.640   0.214   9.142  0.5033 -0.6261 -0.6126
 4940SOL    HW226454   3.756   0.308   9.105  0.0186 -0.2059  1.2699
 4941SOL     OW26455   3.107   4.499   7.453  0.3218 -0.2570 -0.2617
 4941SOL    HW126456   3.061   4.495   7.369 -0.8864 -2.6175  0.5121
 4941SOL    HW226457   3.036   4.481   7.514 -0.4779 -0.3226 -1.2112
 4942SOL     OW26458   0.639   3.127   5.271 -0.0466 -0.1896 -0.0964
 4942SOL    HW126459   0.563   3.112   5.327 -0.0511 -1.8392 -0.5306
 4942SOL    HW226460   0.612   3.089   5.187 -2.2504  0.5920  0.2770
 4943SOL     OW26461   2.278   1.909   3.323  0.1909 -0.4075 -0.2095
 4943SOL    HW126462   2.310   1.910   3.414  0.3213  0.3830 -0.2648
 4943SOL    HW226463   2.239   1.822   3.317 -1.5823  0.4294 -0.6375
 4944SOL     OW26464   2.386   0.160  12.439 -0.0352  0.1677  0.0263
 4944SOL    HW126465   2.446   0.086  12.451 -0.7372 -0.1295  1.6459
 4944SOL    HW226466   2.410   0.194  12.353 -2.7715 -1.8217 -1.5200
 4945SOL     OW26467   3.034   3.081   9.014  0.3132  0.3047  0.3648
 4945SOL    HW126468   3.125   3.054   9.022 -0.2107 -1.5085  0.2945
 4945SOL    HW226469   3.048   3.175   9.020 -1.2746  0.5347  0.5885
 4946SOL     OW26470   4.414   0.733   1.147  0.6341 -0.1956 -0.2032
 4946SOL    HW126471   4.453   0.733   1.234  2.4411 -3.2568 -1.0063
 4946SOL    HW226472   4.329   0.692   1.163 -0.1316  1.7841  0.7894
 4947SOL     OW26473   1.022   3.795   0.311 -0.2527  0.2905 -0.3441
 4947SOL    HW126474   1.091   3.732   0.330  1.4675  2.3328  0.1532
 4947SOL    HW226475   0.979   3.747   0.240 -1.2404  2.4790 -1.2127
 4948SOL     OW26476   0.570   2.011   2.519 -0.4524 -0.0100 -0.0145
 4948SOL    HW126477   0.481   2.028   2.488 -1.1365 -0.1458  1.8622
 4948SOL    HW226478   0.579   2.099   2.556 -0.2055  0.0586 -0.2396
 4949SOL     OW26479   2.901   2.969   5.271  0.5325 -0.1032  0.0664
 4949SOL    HW126480   2.908   3.063   5.252 -0.6528  0.0439  0.3909
 4949SOL    HW226481   2.943   2.967   5.357  1.2009 -0.0214 -0.2532
 4950SOL     OW26482   3.651   1.175   0.846  0.1616 -0.4997 -0.0030
 4950SOL    HW126483   3.742   1.184   0.820  0.6838 -1.0728  1.6230
 4950SOL    HW226484   3.656   1.209   0.935 -0.5020  0.9817 -0.5358
 4951SOL     OW26485   4.089   4.588  10.719  0.2091  0.1696  1.2462
 4951SOL    HW126486   4.176   4.581  10.680  0.2470 -1.2258  1.5818
 4951SOL    HW226487   4.040   4.514  10.683  3.3505 -1.6369  0.6807
 4952SOL     OW26488   4.184   2.138  17.473  0.0190  0.3024 -0.6709
 4952SOL    HW126489   4.125   2.213  17.473 -0.3777 -0.0038 -0.0524
 4952SOL    HW226490   4.131   2.078  17.527 -1.5574  0.2733 -2.2545
 4953SOL     OW26491   4.199   4.250   4.601  0.1931  0.3371 -0.3076
 4953SOL    HW126492   4.111   4.240   4.637  0.1603 -1.1102 -0.7940
 4953SOL    HW226493   4.175   4.240   4.509  0.7628  2.1343 -0.6420
 4954SOL     OW26494   1.484   1.121   2.496  0.0815  0.6553  0.0098
 4954SOL    HW126495   1.573   1.086   2.501 -0.1387  0.5629  3.1930
 4954SOL    HW226496   1.460   1.105   2.587  1.8545  0.2129  0.4085
 4955SOL     OW26497   2.748   1.992   4.994  0.2438  0.5280 -0.2901
 4955SOL    HW126498   2.684   2.010   4.924 -3.1103 -0.4244  2.5101
 4955SOL    HW226499   2.710   2.042   5.066  0.4206 -0.7395  0.6778
 4956SOL     OW26500   0.706   3.718   4.752  0.7112  0.0962  0.3150
 4956SOL    HW126501   0.702   3.709   4.847  1.5176  2.2886  0.5537
 4956SOL    HW226502   0.775   3.783   4.744  1.3536 -0.4899  1.0993
 4957SOL     OW26503   3.098   3.623   6.174  0.3326 -0.1470  0.3700
 4957SOL    HW126504   3.100   3.719   6.174 -0.6325 -0.1233  0.0904
 4957SOL    HW226505   3.151   3.597   6.249 -0.5783 -0.3518  0.9400
 4958SOL     OW26506   2.755   1.848   7.314 -1.1961 -0.4292  0.1658
 4958SOL    HW126507   2.699   1.865   7.390 -0.9804 -3.3597  0.9453
 4958SOL    HW226508   2.824   1.790   7.343 -0.6044 -0.0396 -0.4713
 4959SOL     OW26509   2.596   0.184   2.927 -0.4780 -0.1288  0.0132
 4959SOL    HW126510   2.571   0.101   2.886 -0.7695 -0.8644  1.7124
 4959SOL    HW226511   2.588   0.241   2.850 -0.1244 -0.1325 -0.0230
 4960SOL     OW26512   3.228   2.416   8.547 -0.0667 -0.0374 -0.3132
 4960SOL    HW126513   3.197   2.378   8.464 -0.0940 -2.4093  0.7885
 4960SOL    HW226514   3.154   2.402   8.606 -0.0719 -0.6640 -0.4709
 4961SOL     OW26515   3.717   0.786   4.596 -0.0760 -0.2533  0.1142
 4961SOL    HW126516   3.802   0.820   4.569  0.2183  0.1819  1.6374
 4961SOL    HW226517   3.672   0.859   4.639 -2.7028 -1.0603 -1.2301
 4962SOL     OW26518   1.524   1.237   6.889  0.8312  0.4640  0.0255
 4962SOL    HW126519   1.551   1.281   6.808  1.1794 -0.1864 -0.2140
 4962SOL    HW226520   1.596   1.270   6.942  0.5256  1.6279 -0.2776
 4963SOL     OW26521   3.128   3.450   4.957 -0.8421 -0.6284  0.2439
 4963SOL    HW126522   3.200   3.461   4.895 -1.2343  1.0353  0.0930
 4963SOL    HW226523   3.056   3.494   4.912 -1.0719 -0.3168  0.9192
 4964SOL     OW26524   3.828   2.308  13.880 -0.1500 -0.0890  0.4754
 4964SOL    HW126525   3.820   2.260  13.798 -1.8174  0.1665  0.4835
 4964SOL    HW226526   3.747   2.290  13.927 -0.6227  2.5636  0.6771
 4965SOL     OW26527   2.768   0.685   4.508  0.8753 -0.8065  0.0378
 4965SOL    HW126528   2.716   0.678   4.587  1.1462  1.7204  0.4427
 4965SOL    HW226529   2.860   0.697   4.534  0.4864  0.3424  0.8935
 4966SOL     OW26530   4.151   1.710  16.865  0.3751 -0.4441  0.5748
 4966SOL    HW126531   4.184   1.628  16.829 -0.8498 -1.2025  1.1540
 4966SOL    HW226532   4.234   1.754  16.881  0.2078  0.3206 -0.6316
 4967SOL     OW26533   3.713   1.322  13.659  0.3768  0.0981 -0.1343
 4967SOL    HW126534   3.660   1.401  13.647 -1.8221 -1.2837  0.5085
 4967SOL    HW226535   3.646   1.258  13.635 -1.1180  0.7979  2.1465
 4968SOL     OW26536   3.847   3.598   9.530  0.3496 -0.1305  0.0344
 4968SOL    HW126537   3.822   3.534   9.464  0.0525  1.9432 -1.8445
 4968SOL    HW226538   3.909   3.651   9.481 -1.0690  0.8870 -0.6532
 4969SOL     OW26539   2.076   2.801   2.379 -0.8151 -0.0229 -0.3682
 4969SOL    HW126540   1.996   2.782   2.331 -0.6500  3.2746 -1.9586
 4969SOL    HW226541   2.145   2.761   2.328  0.4200  0.8515  0.6203
 4970SOL     OW26542   1.221   1.476   2.950 -0.3979  0.3055  0.2842
 4970SOL    HW126543   1.298   1.526   2.923 -1.1624  0.7098 -1.1267
 4970SOL    HW226544   1.155   1.546   2.958 -0.1991  0.3538  1.5772
 4971SOL     OW26545   1.011   1.385  13.673  0.0944 -0.4128  0.2451
 4971SOL    HW126546   0.924   1.369  13.634 -0.7175  3.7741  0.3804
 4971SOL    HW226547   1.017   1.298  13.712 -0.7301  0.4275  2.2550
 4972SOL     OW26548   1.210   4.705   8.763  0.1766  0.0638  0.4690
 4972SOL    HW126549   1.125   4.662   8.755  0.8134 -0.6023 -2.7404
 4972SOL    HW226550   1.256   4.624   8.783 -0.4297 -0.2639  0.5189
 4973SOL     OW26551   1.639   0.881  11.951 -0.4628  0.3478 -0.4573
 4973SOL    HW126552   1.594   0.932  12.019  1.2557  1.6468 -0.2953
 4973SOL    HW226553   1.732   0.900  11.966 -0.8652  1.3255  0.8665
 4974SOL     OW26554   2.279   4.238   6.308 -0.7215 -0.1828 -0.0888
 4974SOL    HW126555   2.209   4.303   6.316  0.9456  1.9081 -2.6993
 4974SOL    HW226556   2.276   4.218   6.402 -1.4296  0.0703 -0.0619
 4975SOL     OW26557   3.983   4.534   1.727 -0.6101  0.0597 -0.3809
 4975SOL    HW126558   4.073   4.565   1.742 -1.7442  2.3613  1.6695
 4975SOL    HW226559   4.001   4.466   1.662  0.4316  1.6783 -1.7801
 4976SOL     OW26560   3.477   4.292   9.228  0.0603 -0.1583  0.4995
 4976SOL    HW126561   3.431   4.304   9.311  0.3948  0.9391  0.5330
 4976SOL    HW226562   3.429   4.348   9.167  1.3146 -0.3390 -0.6654
 4977SOL     OW26563   4.706   0.585  15.685 -0.1883  0.3435  0.0921
 4977SOL    HW126564   0.034   0.630  15.628 -1.0542  2.9457  1.2219
 4977SOL    HW226565   4.728   0.635  15.763  0.6062  0.7153 -0.3724
 4978SOL     OW26566   0.995   1.002   2.885 -0.3138 -0.2268  0.0984
 4978SOL    HW126567   0.928   1.061   2.920 -0.6179 -1.4882  1.5886
 4978SOL    HW226568   1.076   1.032   2.927 -0.4129 -2.2626  1.7129
 4979SOL     OW26569   0.907   0.506   7.818 -0.7675 -0.7740 -0.3063
 4979SOL    HW126570   0.875   0.596   7.805  2.1785  0.5793  1.8425
 4979SOL    HW226571   0.840   0.455   7.772 -0.7114 -0.1567 -1.0720
 4980SOL     OW26572   0.317   1.437  14.977 -0.1134  0.7204  0.1178
 4980SOL    HW126573   0.272   1.513  15.014 -0.7256  0.3101  0.2130
 4980SOL    HW226574   0.344   1.469  14.891 -0.1789 -1.0866 -0.5828
 4981SOL     OW26575   0.940   2.242  17.554  0.5669 -1.0454  0.3276
 4981SOL    HW126576   0.882   2.186  17.503 -0.7182 -0.7271  1.4369
 4981SOL    HW226577   0.911   2.206  17.638  2.7391 -1.4142  0.9416
 4982SOL     OW26578   1.353   2.437   4.303 -0.0344 -0.1029 -0.3361
 4982SOL    HW126579   1.396   2.355   4.279  1.8380  0.0816  2.4166
 4982SOL    HW226580   1.431   2.480   4.335  0.3980  0.3155 -1.9756
 4983SOL     OW26581   0.564   2.931  10.292  0.2579 -0.2302  0.2288
 4983SOL    HW126582   0.531   2.917  10.380 -4.4305 -0.1372 -1.4758
 4983SOL    HW226583   0.508   3.003  10.262 -2.9376 -1.6698  2.8036
 4984SOL     OW26584   1.688   1.915   4.148 -0.1993  0.6497  0.0296
 4984SOL    HW126585   1.654   1.829   4.125 -0.4683  0.8717 -0.4033
 4984SOL    HW226586   1.667   1.962   4.067  0.4751  2.0396  0.6522
 4985SOL     OW26587   4.142   1.815   3.886 -0.1049 -0.1472  0.2442
 4985SOL    HW126588   4.188   1.849   3.809 -1.4323 -1.6420 -1.2071
 4985SOL    HW226589   4.095   1.738   3.855  0.6973  0.2429 -1.8879
 4986SOL     OW26590   1.137   0.244   4.925  0.5055  0.2868  0.3061
 4986SOL    HW126591   1.218   0.200   4.900  0.2769  0.5961 -0.9932
 4986SOL    HW226592   1.075   0.206   4.864  2.0841 -0.5395 -0.7812
 4987SOL     OW26593   2.885   3.411   6.247 -0.2191 -0.2686  0.0774
 4987SOL    HW126594   2.856   3.352   6.177  0.6286  0.6313 -1.0493
 4987SOL    HW226595   2.919   3.485   6.196  2.2343 -1.0147  0.6220
 4988SOL     OW26596   0.096   2.753  10.583 -0.3044 -0.1482 -0.8963
 4988SOL    HW126597   0.057   2.839  10.565  0.7765  0.5890  0.2373
 4988SOL    HW226598   0.020   2.696  10.597  0.0783 -0.2900  0.5629
 4989SOL     OW26599   3.089   2.818   8.099  0.2552 -0.2180  0.6580
 4989SOL    HW126600   3.141   2.752   8.053 -2.2027 -0.6437 -1.5201
 4989SOL    HW226601   3.019   2.758   8.124 -0.8020  0.3867 -0.8632
 4990SOL     OW26602   4.602   2.657  10.657  0.1488  0.2863 -0.4405
 4990SOL    HW126603   4.565   2.667  10.745  0.2586  2.2087 -0.6173
 4990SOL    HW226604   4.528   2.682  10.602  0.5216 -1.5806 -1.8093
 4991SOL     OW26605   1.399   3.174  17.693 -0.1005  0.3684  0.0155
 4991SOL    HW126606   1.443   3.257  17.675  1.1271 -0.3506 -0.3094
 4991SOL    HW226607   1.345   3.211   0.027 -1.3254 -0.9831 -0.2091
 4992SOL     OW26608   4.245   0.286  16.205  0.1425  0.0309 -0.0438
 4992SOL    HW126609   4.262   0.193  16.188  3.5265  0.5547  0.5086
 4992SOL    HW226610   4.203   0.280  16.291 -0.6902 -0.6647 -0.4944
 4993SOL     OW26611   4.070   2.253  13.966  0.3473 -0.1601  0.1594
 4993SOL    HW126612   4.052   2.182  13.904  0.0629  0.1883 -0.1556
 4993SOL    HW226613   3.992   2.308  13.955 -0.2015 -1.0002 -0.1505
 4994SOL     OW26614   3.650   4.723   7.290  0.5720 -0.2360 -0.2152
 4994SOL    HW126615   3.641   4.665   7.214  1.0091 -1.4508  0.6543
 4994SOL    HW226616   3.712   4.677   7.347  0.7697 -2.0279 -1.8838
 4995SOL     OW26617   0.321   0.650   3.333 -0.1724  0.4268 -0.1874
 4995SOL    HW126618   0.332   0.699   3.414 -1.2121  0.1937  0.0880
 4995SOL    HW226619   0.410   0.614   3.339  0.3932  2.0045  0.9515
 4996SOL     OW26620   0.404   2.389   5.251 -0.0510  0.2321 -0.4580
 4996SOL    HW126621   0.412   2.442   5.172 -1.6754 -0.0693 -0.8397
 4996SOL    HW226622   0.423   2.455   5.318  1.0978 -0.6966  0.1340
 4997SOL     OW26623   2.680   3.864   2.388  0.3060 -0.2387 -0.3998
 4997SOL    HW126624   2.728   3.920   2.327  0.3056  0.5991  0.3841
 4997SOL    HW226625   2.597   3.911   2.394  0.2980 -0.3569  0.3706
 4998SOL     OW26626   2.633   1.136   6.493  0.5129  0.2279  0.1936
 4998SOL    HW126627   2.720   1.128   6.533  0.6835 -1.8669 -0.6259
 4998SOL    HW226628   2.622   1.231   6.489  1.7902  0.3699 -0.1520
 4999SOL     OW26629   2.022   2.518  15.313  0.6248 -0.0514 -0.4861
 4999SOL    HW126630   2.006   2.601  15.269  1.6423 -0.0558 -0.8749
 4999SOL    HW226631   1.942   2.508  15.364  0.6628 -1.5919 -0.7213
 5000SOL     OW26632   0.124   2.561   9.320  0.3344  0.1339  0.2916
 5000SOL    HW126633   0.122   2.517   9.405  1.6694  1.0342  0.7893
 5000SOL    HW226634   0.218   2.552   9.304  0.2556 -0.6600  0.2784
 5001SOL     OW26635   0.953   0.345  13.712  0.0624  0.2970 -0.8600
 5001SOL    HW126636   0.973   0.353  13.805  0.1814  0.2101 -0.8787
 5001SOL    HW226637   1.022   0.398  13.671 -0.6266  1.3139 -0.7148
 5002SOL     OW26638   1.911   0.101   3.535  0.6120 -0.3463  0.3016
 5002SOL    HW126639   1.901   0.181   3.482 -1.1510  0.1679  1.3968
 5002SOL    HW226640   1.973   0.135   3.599 -0.2007  2.4179 -0.3738
 5003SOL     OW26641   4.545   3.299   4.747 -0.6778 -0.1054  0.3464
 5003SOL    HW126642   4.458   3.284   4.785  0.0245  1.4311  2.6022
 5003SOL    HW226643   4.538   3.392   4.726  0.7256 -0.6929 -2.5784
 5004SOL     OW26644   2.680   3.282   6.827  0.1998 -0.5239 -0.2921
 5004SOL    HW126645   2.732   3.334   6.765  0.1093  1.2152  1.0838
 5004SOL    HW226646   2.725   3.314   6.905  1.4032  1.8606 -1.9697
 5005SOL     OW26647   4.583   0.780  16.736  0.1941 -0.6879 -0.2579
 5005SOL    HW126648   4.640   0.724  16.789  0.1539 -1.1769 -0.7346
 5005SOL    HW226649   4.649   0.811  16.674 -0.0266  1.6817  0.6819
 5006SOL     OW26650   0.909   0.910   8.472  0.2531  0.1994 -0.0667
 5006SOL    HW126651   0.985   0.872   8.429 -0.2890 -0.7351 -0.1994
 5006SOL    HW226652   0.852   0.834   8.477 -1.1120  1.0875 -1.8329
 5007SOL     OW26653   3.731   2.565   5.478  0.2551 -0.1350 -0.0720
 5007SOL    HW126654   3.801   2.622   5.510 -1.2156 -0.4831  3.7255
 5007SOL    HW226655   3.777   2.500   5.425  0.0609  0.6111 -1.1519
 5008SOL     OW26656   0.145   1.314   5.994 -0.0814  0.1700 -0.6711
 5008SOL    HW126657   0.127   1.315   6.088  1.2904  0.5830 -0.4258
 5008SOL    HW226658   0.213   1.381   5.991  1.8060 -1.7445 -0.9727
 5009SOL     OW26659   1.196   4.683   5.776 -0.1222  0.0142  0.1325
 5009SOL    HW126660   1.236   4.715   5.857  2.1693  1.4288 -1.5387
 5009SOL    HW226661   1.174   4.590   5.786  3.3746 -0.7697  0.8713
 5010SOL     OW26662   1.922   4.074   1.712  0.7429 -0.3285  0.4404
 5010SOL    HW126663   1.935   4.087   1.806 -2.1465 -1.4287  0.9748
 5010SOL    HW226664   1.852   4.134   1.685  0.5256 -1.0513 -0.5821
 5011SOL     OW26665   1.308   0.448   8.041  0.4445  0.2845  0.3003
 5011SOL    HW126666   1.241   0.404   7.988  1.7501 -1.2129 -0.1353
 5011SOL    HW226667   1.380   0.389   8.018 -0.8121 -1.4959  0.9288
 5012SOL     OW26668   3.482   2.800   9.499 -0.0275  0.2127  0.4534
 5012SOL    HW126669   3.517   2.787   9.411 -2.3367 -0.1105 -0.4211
 5012SOL    HW226670   3.428   2.721   9.502 -0.6544  0.5767 -1.4796
 5013SOL     OW26671   3.510   2.158  11.749  0.4506 -0.1587  0.1975
 5013SOL    HW126672   3.554   2.189  11.829  1.1135 -0.5884  0.0090
 5013SOL    HW226673   3.425   2.200  11.757 -0.0429 -0.9680 -0.8131
 5014SOL     OW26674   4.092   3.111  14.398  0.1967 -0.0794  0.0141
 5014SOL    HW126675   4.009   3.155  14.378 -1.6135 -2.7485  1.7474
 5014SOL    HW226676   4.104   3.058  14.319 -0.6781 -1.1301  0.5861
 5015SOL     OW26677   0.158   4.445   3.752  0.2196 -0.2204 -0.5234
 5015SOL    HW126678   0.096   4.439   3.679 -2.3768 -0.8251  1.7069
 5015SOL    HW226679   0.227   4.498   3.713  1.7001 -0.6422  1.5502
 5016SOL     OW26680   0.631   0.327   4.101  0.2837  0.2810 -0.0931
 5016SOL    HW126681   0.710   0.364   4.140  0.2218 -1.5803  1.8367
 5016SOL    HW226682   0.577   0.294   4.173  1.2064 -4.3054 -1.5242
 5017SOL     OW26683   2.803   1.675   4.151 -0.2296 -0.8644  0.2191
 5017SOL    HW126684   2.741   1.692   4.081  0.6645  1.8092  0.0913
 5017SOL    HW226685   2.848   1.758   4.170 -2.1759  0.2971 -0.2819
 5018SOL     OW26686   0.307   2.207  13.410 -0.4297 -0.0160  0.2043
 5018SOL    HW126687   0.213   2.195  13.395 -0.7374  1.6055  0.8502
 5018SOL    HW226688   0.325   2.114  13.418  0.4728  0.2502  1.2324
 5019SOL     OW26689   1.312   2.523   4.736  0.1746  0.1597  0.5641
 5019SOL    HW126690   1.310   2.434   4.771  1.7821  0.8169  2.3322
 5019SOL    HW226691   1.339   2.584   4.804  1.7080 -0.0369  0.1315
 5020SOL     OW26692   3.450   2.607   6.953  0.1682 -0.2289 -0.2506
 5020SOL    HW126693   3.382   2.674   6.962  0.8589  0.3337  0.6973
 5020SOL    HW226694   3.512   2.643   6.890  0.2162  0.1836  0.0344
 5021SOL     OW26695   4.688   0.982   9.417  0.2726 -0.1837 -0.7583
 5021SOL    HW126696   0.022   0.964   9.482  0.2736  0.6206 -0.5381
 5021SOL    HW226697   0.011   1.007   9.345  0.7432 -0.6515 -0.5448
 5022SOL     OW26698   1.985   1.747  15.022 -0.2283 -0.2148  0.5730
 5022SOL    HW126699   2.020   1.782  14.940 -3.4597  0.9226 -0.2810
 5022SOL    HW226700   1.912   1.808  15.033 -0.8298 -0.8511  0.0792
 5023SOL     OW26701   3.034   2.817  12.425 -0.2783 -0.4234 -0.3665
 5023SOL    HW126702   3.102   2.856  12.369 -0.8773  0.2518 -0.6178
 5023SOL    HW226703   3.080   2.824  12.509 -1.9780 -0.2606  0.5471
 5024SOL     OW26704   1.744   0.049   4.846  0.6142  0.2155 -0.4190
 5024SOL    HW126705   1.729   4.725   4.771  1.5418  0.2715 -0.6476
 5024SOL    HW226706   1.729   0.133   4.803 -1.0597  0.6036  0.9236
 5025SOL     OW26707   1.745   0.089   4.547  0.1977 -0.0730 -0.4475
 5025SOL    HW126708   1.808   0.135   4.491  2.3022 -1.5790  0.6962
 5025SOL    HW226709   1.700   0.032   4.484 -0.1629  1.2021 -1.3560
 5026SOL     OW26710   2.652   0.808   3.298 -0.5416  0.5669  0.4128
 5026SOL    HW126711   2.656   0.730   3.243 -1.5062 -0.5839  1.9715
 5026SOL    HW226712   2.739   0.842   3.277 -0.0389 -1.2825 -0.5129
 5027SOL     OW26713   4.537   3.238  12.437  0.1778  0.5123 -0.3105
 5027SOL    HW126714   4.567   3.205  12.521 -1.1091  0.6309  0.1995
 5027SOL    HW226715   4.453   3.278  12.460  0.5626  2.0608 -1.6205
 5028SOL     OW26716   0.828   1.688   9.378  0.0052  0.2304  0.3559
 5028SOL    HW126717   0.825   1.607   9.327  1.2077  0.6230 -0.3412
 5028SOL    HW226718   0.922   1.693   9.396  0.6425  3.2389 -4.1461
 5029SOL     OW26719   4.312   0.983   7.885  0.8270 -0.3587  0.0490
 5029SOL    HW126720   4.318   0.950   7.795 -1.3933 -1.1980  0.2072
 5029SOL    HW226721   4.403   0.997   7.912  0.4060  1.0656  0.7215
 5030SOL     OW26722   4.119   1.559  10.295  0.0660  0.5317  0.0110
 5030SOL    HW126723   4.177   1.516  10.358 -0.9397  0.4268  0.8584
 5030SOL    HW226724   4.132   1.490  10.230 -0.2850 -0.1278  0.6471
 5031SOL     OW26725   0.985   3.667  15.975  0.0791  0.1051  0.2794
 5031SOL    HW126726   1.028   3.628  15.899 -2.3502 -1.7659 -0.1546
 5031SOL    HW226727   1.059   3.677  16.035  0.7404  0.4467 -0.5912
 5032SOL     OW26728   0.479   2.149   3.240 -0.1605 -0.5151 -0.5554
 5032SOL    HW126729   0.457   2.179   3.329 -1.5703 -0.3691 -0.9493
 5032SOL    HW226730   0.431   2.067   3.230 -0.0808 -0.4384 -1.5140
 5033SOL     OW26731   0.574   1.605   4.146  0.1165 -0.4466  0.4455
 5033SOL    HW126732   0.545   1.626   4.057 -0.2064  1.8543  1.0969
 5033SOL    HW226733   0.646   1.667   4.162 -0.8231  0.9160 -0.6299
 5034SOL     OW26734   1.404   1.026   2.756 -0.0694 -0.5203 -0.1841
 5034SOL    HW126735   1.451   1.062   2.832  2.4152  1.6031 -2.7071
 5034SOL    HW226736   1.332   1.089   2.751  0.4920  0.2893  1.7778
 5035SOL     OW26737   0.936   2.870   9.493 -0.2902  0.1530  0.2979
 5035SOL    HW126738   0.971   2.876   9.404 -1.1651  0.3950 -0.0260
 5035SOL    HW226739   0.855   2.823   9.475 -0.9200  0.3207  2.7377
 5036SOL     OW26740   1.648   3.099   5.563  0.3834 -0.4549 -0.1844
 5036SOL    HW126741   1.579   3.078   5.499 -1.5431  0.3151  1.6396
 5036SOL    HW226742   1.717   3.040   5.534 -1.4671 -2.6247 -0.2296
 5037SOL     OW26743   3.671   2.878   5.744 -0.4396 -0.1351 -0.0223
 5037SOL    HW126744   3.757   2.900   5.708  0.2304 -2.0803  0.3852
 5037SOL    HW226745   3.699   2.880   5.835 -1.8236  1.7884  0.3717
 5038SOL     OW26746   3.549   0.179   1.047  0.1253 -0.6373 -0.5593
 5038SOL    HW126747   3.506   0.230   1.115  2.1665  0.3665 -0.0208
 5038SOL    HW226748   3.473   0.147   0.998  0.1321 -0.8289 -0.4458
 5039SOL     OW26749   4.040   2.282   4.782  0.6833 -0.2142 -0.3079
 5039SOL    HW126750   4.075   2.212   4.837  0.9203  1.5545  1.8205
 5039SOL    HW226751   4.110   2.348   4.775 -0.7936  1.3754 -0.1083
 5040SOL     OW26752   4.596   1.214  17.090 -0.1439 -0.1537  0.9028
 5040SOL    HW126753   4.629   1.142  17.036 -0.1798  1.1814 -0.8864
 5040SOL    HW226754   4.674   1.268  17.081 -1.0640  0.6504 -2.3557
 5041SOL     OW26755   1.343   4.440  14.614  0.3787  0.3434  0.3313
 5041SOL    HW126756   1.388   4.463  14.533  0.1089  3.4080  1.0239
 5041SOL    HW226757   1.377   4.501  14.679  3.0778 -1.9806  1.0624
 5042SOL     OW26758   2.995   3.786  17.702  0.0474 -0.8113 -0.0600
 5042SOL    HW126759   2.906   3.782   0.002 -1.2972  1.2201 -3.0956
 5042SOL    HW226760   3.056   3.754   0.032 -2.1718 -2.7620  1.0452
 5043SOL     OW26761   1.714   0.596  16.165 -0.0382  0.4933  0.4124
 5043SOL    HW126762   1.754   0.510  16.166 -3.5028 -1.1378 -0.3486
 5043SOL    HW226763   1.796   0.644  16.154 -0.3414  1.0893  0.7698
 5044SOL     OW26764   3.711   3.406  17.145  0.1234 -0.3707 -0.5452
 5044SOL    HW126765   3.663   3.442  17.219  1.6568  0.3529  0.0896
 5044SOL    HW226766   3.639   3.366  17.095 -0.1070  0.8318 -1.1692
 5045SOL     OW26767   2.625   2.545   6.045  0.1444 -0.0147  0.6657
 5045SOL    HW126768   2.694   2.612   6.052 -0.5331  0.5845  1.5789
 5045SOL    HW226769   2.636   2.515   5.954  0.7587  0.3069  0.6316
 5046SOL     OW26770   2.931   2.400   7.776 -0.2167 -0.2514 -0.3423
 5046SOL    HW126771   3.000   2.453   7.816  2.1128 -1.2737 -3.0413
 5046SOL    HW226772   2.856   2.459   7.773  1.9218  2.2243 -3.7204
 5047SOL     OW26773   1.386   2.693  13.847  0.0506 -0.0481 -0.2648
 5047SOL    HW126774   1.416   2.693  13.756  1.8558 -1.5508  0.3171
 5047SOL    HW226775   1.291   2.691  13.838 -0.3289  2.6057  3.1908
 5048SOL     OW26776   1.810   1.762  12.220 -0.9974  0.5723  0.2129
 5048SOL    HW126777   1.758   1.695  12.264 -0.3622 -0.2065 -0.2204
 5048SOL    HW226778   1.790   1.845  12.263 -1.0257  1.3696 -1.3101
 5049SOL     OW26779   1.354   0.293   6.549  0.0293  0.2829 -0.0462
 5049SOL    HW126780   1.388   0.360   6.608  1.4763 -1.0896  0.6853
 5049SOL    HW226781   1.437   0.284   6.501  0.7387 -0.9917  1.4576
 5050SOL     OW26782   3.543   0.681   6.041 -0.2708  0.3189  0.2653
 5050SOL    HW126783   3.632   0.690   6.007 -1.2952  1.2849 -2.2157
 5050SOL    HW226784   3.520   0.622   5.969  0.5544  0.8553 -0.4379
 5051SOL     OW26785   2.240   2.600   1.823 -0.3326  0.6607  0.3787
 5051SOL    HW126786   2.166   2.584   1.765  1.9036 -1.4080 -1.8635
 5051SOL    HW226787   2.230   2.696   1.825  0.6201  0.7793 -1.1434
 5052SOL     OW26788   4.448   0.979   4.745  0.4053 -0.6978  0.2990
 5052SOL    HW126789   4.464   0.902   4.690 -0.3829 -1.9469  1.8243
 5052SOL    HW226790   4.475   0.945   4.831  2.6128 -0.3684 -0.2524
 5053SOL     OW26791   3.293   1.833   5.399 -0.6201 -0.2272 -0.7007
 5053SOL    HW126792   3.212   1.809   5.354  0.2001 -0.3229 -2.1201
 5053SOL    HW226793   3.353   1.793   5.336 -0.6735  0.6658 -1.3162
 5054SOL     OW26794   0.228   1.037   7.974  0.6664 -0.1859  0.0853
 5054SOL    HW126795   0.259   1.096   8.042  0.7421 -1.8376  1.4961
 5054SOL    HW226796   0.299   1.053   7.912  0.3449 -0.1683 -0.2795
 5055SOL     OW26797   0.494   2.573   6.979  0.1603 -0.7448 -0.2188
 5055SOL    HW126798   0.496   2.585   6.884 -2.6484 -0.0093 -0.1711
 5055SOL    HW226799   0.400   2.574   6.992 -0.0720  0.0154 -1.9452
 5056SOL     OW26800   4.678   2.682   2.197  0.5734 -0.2453  0.0235
 5056SOL    HW126801   4.700   2.740   2.124  0.6834  1.4638  1.4189
 5056SOL    HW226802   4.614   2.739   2.241 -0.0692 -0.7653 -0.2395
 5057SOL     OW26803   3.242   1.426   3.289  0.2149  0.1211  0.2431
 5057SOL    HW126804   3.311   1.455   3.230  1.6607 -0.4657  1.6405
 5057SOL    HW226805   3.248   1.330   3.289  1.0861  0.1832 -1.9244
 5058SOL     OW26806   4.024   4.233   4.001  0.4457  0.4515 -0.6000
 5058SOL    HW126807   3.937   4.270   3.986 -0.4430 -1.7516 -0.8556
 5058SOL    HW226808   4.032   4.248   4.096 -1.7399 -1.7981 -0.0766
 5059SOL     OW26809   2.185   4.187  17.728  0.1129 -0.6519 -0.7739
 5059SOL    HW126810   2.178   4.263   0.049 -1.0260 -2.4447  1.4491
 5059SOL    HW226811   2.137   4.227  17.655  0.0133  1.1507  0.2787
 5060SOL     OW26812   0.283   1.863  12.259  0.1652 -0.1185  0.1945
 5060SOL    HW126813   0.290   1.855  12.164 -3.8752 -0.5101 -0.0475
 5060SOL    HW226814   0.320   1.947  12.289 -1.2380  0.5401  0.0646
 5061SOL     OW26815   3.887   2.829   4.069  0.0248  0.3902 -0.5351
 5061SOL    HW126816   3.840   2.817   4.151 -0.6981  1.5494 -0.7719
 5061SOL    HW226817   3.912   2.739   4.048 -3.1490 -0.6021 -0.0184
 5062SOL     OW26818   3.864   2.827   4.343  0.0437  0.3280 -0.0997
 5062SOL    HW126819   3.959   2.818   4.328 -0.0744 -1.9718  0.6608
 5062SOL    HW226820   3.847   2.798   4.432  1.2583 -0.7612 -0.2165
 5063SOL     OW26821   1.718   1.322   9.648  0.0609  0.3485  0.3306
 5063SOL    HW126822   1.631   1.319   9.610  0.3926  1.2825 -0.4948
 5063SOL    HW226823   1.758   1.387   9.590  0.1718  0.2201  0.2629
 5064SOL     OW26824   2.026   0.192   2.657  0.2979 -0.1216 -0.5182
 5064SOL    HW126825   2.087   0.140   2.605  2.0910  0.0834  1.3594
 5064SOL    HW226826   2.073   0.205   2.740  2.2574  1.7219 -1.8922
 5065SOL     OW26827   1.684   4.488   8.103 -0.8868  0.1714  0.3726
 5065SOL    HW126828   1.718   4.430   8.035  0.8428  1.2679  0.3016
 5065SOL    HW226829   1.711   4.571   8.064  0.5683 -0.2800  0.3886
 5066SOL     OW26830   2.517   3.347   8.464  0.4162  0.0382  0.0819
 5066SOL    HW126831   2.461   3.270   8.475  0.1218 -0.0081 -1.6520
 5066SOL    HW226832   2.458   3.418   8.489  2.4558  2.0404 -0.7279
 5067SOL     OW26833   2.045   2.807   7.463  0.6005  0.0007  0.3907
 5067SOL    HW126834   1.973   2.792   7.403 -0.1095 -1.2720  1.5731
 5067SOL    HW226835   2.023   2.762   7.544 -0.4501  1.5875  0.9909
 5068SOL     OW26836   2.853   3.962  16.742  0.1022  0.0893  0.2013
 5068SOL    HW126837   2.820   3.876  16.766  2.1798 -0.7162  0.1769
 5068SOL    HW226838   2.942   3.930  16.728 -0.0864 -0.8817  1.2217
 5069SOL     OW26839   0.338   0.740   2.780 -0.4166  0.1006  0.3680
 5069SOL    HW126840   0.371   0.656   2.811 -0.0090  0.4289  0.8404
 5069SOL    HW226841   0.384   0.811   2.825  0.2956  0.1936 -0.5010
 5070SOL     OW26842   2.700   0.960   5.568 -0.0639 -0.3023  0.6272
 5070SOL    HW126843   2.623   1.017   5.570 -0.2895 -0.4520 -2.4825
 5070SOL    HW226844   2.763   1.031   5.559 -1.3976  0.8183  0.1824
 5071SOL     OW26845   4.378   4.017   8.758  0.4961 -0.0956 -0.4407
 5071SOL    HW126846   4.373   4.016   8.854 -0.2925  0.7162 -0.4645
 5071SOL    HW226847   4.376   4.109   8.731 -0.0434  0.3434  1.0705
 5072SOL     OW26848   1.183   4.192  17.521  0.2898  0.3405 -0.0885
 5072SOL    HW126849   1.156   4.268  17.572 -0.8367 -1.9315  2.6885
 5072SOL    HW226850   1.113   4.130  17.543  0.5267  0.1002 -0.0234
 5073SOL     OW26851   1.331   0.862  11.543 -0.0581 -0.6204 -0.5977
 5073SOL    HW126852   1.348   0.950  11.511  3.1039 -1.6001 -1.6942
 5073SOL    HW226853   1.409   0.849  11.598 -0.0515  0.2791 -0.3958
 5074SOL     OW26854   1.141   2.464   2.994 -0.5290 -0.1541  0.1326
 5074SOL    HW126855   1.154   2.533   3.059 -0.1767  1.5421 -1.7334
 5074SOL    HW226856   1.106   2.388   3.041  0.2855 -1.9129 -2.0857
 5075SOL     OW26857   0.930   3.263  15.359 -0.5269  0.0970  0.6235
 5075SOL    HW126858   0.901   3.225  15.442  1.1311 -1.1110  0.6585
 5075SOL    HW226859   0.871   3.337  15.345 -1.2554 -0.9953 -2.0566
 5076SOL     OW26860   3.492   1.936   3.355  0.3855 -0.2677 -0.4348
 5076SOL    HW126861   3.534   1.923   3.270 -0.8294 -2.4928 -0.7071
 5076SOL    HW226862   3.504   1.849   3.393 -0.0973 -0.0464  0.2233
 5077SOL     OW26863   3.581   1.253   5.566 -0.3428 -0.5582 -0.2763
 5077SOL    HW126864   3.647   1.184   5.552  1.3685  1.2321 -0.9806
 5077SOL    HW226865   3.504   1.204   5.537 -0.4947 -0.3582 -0.2126
 5078SOL     OW26866   0.638   0.455   6.075  0.1232  0.0041  0.6127
 5078SOL    HW126867   0.702   0.525   6.060  1.3419 -1.3631 -0.5030
 5078SOL    HW226868   0.629   0.428   5.984  1.0161 -0.9681  0.8238
 5079SOL     OW26869   0.823   4.575   6.258  0.4036  0.4696  0.3097
 5079SOL    HW126870   0.758   4.530   6.312  0.1300  0.9272  0.3663
 5079SOL    HW226871   0.838   4.651   6.314 -2.5414  1.6393 -0.4585
 5080SOL     OW26872   4.523   3.783  15.517 -0.3244 -0.2892  0.1543
 5080SOL    HW126873   4.516   3.746  15.430 -2.9782 -0.9001  0.6178
 5080SOL    HW226874   4.430   3.776  15.539 -0.3887  0.8725  0.2669
 5081SOL     OW26875   3.602   1.219   3.767  0.5108  0.4444 -0.2739
 5081SOL    HW126876   3.581   1.147   3.708  0.7176  0.0385  0.1563
 5081SOL    HW226877   3.515   1.256   3.782  1.0285  2.8336 -3.2082
 5082SOL     OW26878   3.933   4.294   3.247 -0.3853 -0.6694 -0.3464
 5082SOL    HW126879   3.933   4.271   3.339  0.9130 -3.8805 -1.1391
 5082SOL    HW226880   3.881   4.373   3.256  1.4999  0.7583 -1.7322
 5083SOL     OW26881   3.816   1.311  16.736 -0.1242  0.1374  0.6413
 5083SOL    HW126882   3.816   1.289  16.643  0.2768 -1.5840  1.0383
 5083SOL    HW226883   3.777   1.230  16.769  1.7080 -1.9008 -2.2156
 5084SOL     OW26884   4.180   2.184   3.179  0.0742 -0.3908 -0.2845
 5084SOL    HW126885   4.201   2.154   3.267 -1.9012  0.9239  0.6172
 5084SOL    HW226886   4.086   2.202   3.179  0.4726  1.7145  1.7621
 5085SOL     OW26887   1.325   3.412   3.142  0.4926  0.5664  0.0112
 5085SOL    HW126888   1.401   3.454   3.183  1.1555 -0.7374  0.1291
 5085SOL    HW226889   1.346   3.321   3.162 -1.4671  1.1118  4.5308
 5086SOL     OW26890   4.656   2.680   6.169  0.3468  0.5620  0.1406
 5086SOL    HW126891   0.011   2.648   6.159 -0.7568 -1.5814 -2.8087
 5086SOL    HW226892   4.657   2.753   6.108 -1.4344 -1.5320 -2.3766
 5087SOL     OW26893   0.217   4.646   6.457 -0.0507  0.3910 -0.0100
 5087SOL    HW126894   0.213   4.560   6.499  2.2881 -0.1697 -0.9638
 5087SOL    HW226895   0.278   4.693   6.514 -0.1463 -1.1097  1.3524
 5088SOL     OW26896   1.972   0.167  13.897 -0.1977  0.3112  0.1148
 5088SOL    HW126897   2.002   0.253  13.868  1.1264  0.2416  1.2724
 5088SOL    HW226898   1.887   0.188  13.937  0.4307 -0.3971  1.8103
 5089SOL     OW26899   1.758   3.993   8.993 -0.0853 -0.0385 -0.5433
 5089SOL    HW126900   1.771   4.031   9.080  2.6921 -1.7475 -0.2274
 5089SOL    HW226901   1.849   3.987   8.963  0.8420 -0.4923  2.3270
 5090SOL     OW26902   3.816   0.698  17.338  0.4372 -0.1237 -0.0198
 5090SOL    HW126903   3.886   0.658  17.389  0.0460  0.4081  0.9404
 5090SOL    HW226904   3.752   0.632  17.313  0.3819 -0.4649  0.9936
 5091SOL     OW26905   0.743   0.045   9.497  0.0024 -0.1489 -0.6286
 5091SOL    HW126906   0.722   0.063   9.406  0.4852  0.6053 -0.5974
 5091SOL    HW226907   0.772   4.689   9.492  0.9074  0.0635  0.6931
 5092SOL     OW26908   2.837   0.594   7.810  0.0556 -0.2805  0.8111
 5092SOL    HW126909   2.866   0.659   7.745 -0.1799  0.4511  1.4456
 5092SOL    HW226910   2.867   0.625   7.896 -1.7776  0.1016  1.3006
 5093SOL     OW26911   2.646   1.262   3.992  0.4137 -0.2648 -0.4279
 5093SOL    HW126912   2.728   1.306   4.017  0.8828  0.6757 -3.5568
 5093SOL    HW226913   2.589   1.330   4.029  0.4272 -0.8255  0.6204
 5094SOL     OW26914   2.503   0.713   6.594 -0.0350 -0.0519  0.1157
 5094SOL    HW126915   2.594   0.736   6.609  0.0107 -0.3958  0.3614
 5094SOL    HW226916   2.493   0.641   6.656 -0.7743 -1.6317 -1.8523
 5095SOL     OW26917   0.640   4.701   7.038 -0.3747  0.0075 -0.1260
 5095SOL    HW126918   0.640   0.002   7.128 -0.0655  0.4103 -0.2824
 5095SOL    HW226919   0.560   0.008   7.006 -1.1616 -1.7771 -0.3992
 5096SOL     OW26920   0.732   3.511   3.510  0.5326 -0.2262  0.3079
 5096SOL    HW126921   0.669   3.539   3.444  1.1576 -1.2973 -0.7569
 5096SOL    HW226922   0.713   3.576   3.577 -3.1993 -0.0231 -0.9655
 5097SOL     OW26923   0.302   4.582   2.531  0.1406  0.0910  0.7069
 5097SOL    HW126924   0.342   4.668   2.518  1.2458 -0.5604 -0.1355
 5097SOL    HW226925   0.237   4.600   2.599 -0.6659  0.0688 -0.0560
 5098SOL     OW26926   2.626   4.096   3.126 -1.0626 -0.2359  0.2658
 5098SOL    HW126927   2.650   4.188   3.136 -0.8711 -0.3513  0.8702
 5098SOL    HW226928   2.693   4.045   3.171  0.7778 -0.9218 -3.2214
 5099SOL     OW26929   4.596   4.483   3.586  0.0048  0.1936 -0.0070
 5099SOL    HW126930   4.524   4.517   3.533 -0.5669  3.1513  2.6738
 5099SOL    HW226931   4.608   4.553   3.651  0.4650 -0.2159  0.3503
 5100SOL     OW26932   3.559   3.201   8.998  0.0507 -0.4131 -0.1696
 5100SOL    HW126933   3.521   3.289   8.995 -1.2180 -1.0162 -1.7093
 5100SOL    HW226934   3.593   3.195   8.909  2.3117 -2.2226  0.8456
 5101SOL     OW26935   2.423   1.545   8.098 -0.3583 -0.4800  0.4888
 5101SOL    HW126936   2.504   1.555   8.048  0.2463 -0.9673  1.3687
 5101SOL    HW226937   2.363   1.536   8.023 -0.7929 -1.7313  0.9790
 5102SOL     OW26938   1.280   0.651   7.574  0.1753  0.1531 -0.1769
 5102SOL    HW126939   1.312   0.575   7.622 -0.7930 -0.8474 -1.1017
 5102SOL    HW226940   1.248   0.699   7.650  0.9002  1.3706 -0.6523
 5103SOL     OW26941   1.210   1.656   6.044  0.2156 -0.2795 -0.5552
 5103SOL    HW126942   1.213   1.655   5.948 -1.7874  1.5092 -0.6281
 5103SOL    HW226943   1.222   1.564   6.070  1.3198 -0.2319 -0.8906
 5104SOL     OW26944   4.683   0.292   3.127 -0.5003 -0.0275  0.2674
 5104SOL    HW126945   4.621   0.272   3.197 -0.1601 -2.4524 -0.1221
 5104SOL    HW226946   0.023   0.328   3.177 -0.8223 -0.4294  1.0406
 5105SOL     OW26947   1.156   1.041   3.855 -0.3537 -0.1185  0.6050
 5105SOL    HW126948   1.115   0.954   3.857  0.3557 -0.3964  2.5983
 5105SOL    HW226949   1.084   1.090   3.815 -1.2539 -1.5558  0.4620
 5106SOL     OW26950   4.372   0.830   8.362  0.2768 -0.3056 -0.2847
 5106SOL    HW126951   4.287   0.813   8.403 -0.6712  0.1326 -2.1099
 5106SOL    HW226952   4.338   0.837   8.273 -0.4619 -0.0403  0.0136
 5107SOL     OW26953   0.154   2.188  14.961 -0.2577  0.1679 -0.0959
 5107SOL    HW126954   0.176   2.276  14.931  0.5980  0.5226  1.6207
 5107SOL    HW226955   0.179   2.132  14.887 -0.7336  0.8238 -0.7467
 5108SOL     OW26956   1.030   3.905   8.744  0.2995  0.1961  0.5344
 5108SOL    HW126957   0.994   3.819   8.765  0.7129  0.3834  1.9941
 5108SOL    HW226958   1.085   3.864   8.677 -0.6630  0.4438 -0.4010
 5109SOL     OW26959   0.611   1.525   5.725 -0.2055  0.5459 -0.1984
 5109SOL    HW126960   0.615   1.502   5.632 -0.7767  1.0618 -0.3484
 5109SOL    HW226961   0.537   1.468   5.742  1.3396 -1.5378 -0.4920
 5110SOL     OW26962   1.640   2.824   0.962 -0.3221 -0.2871  0.0540
 5110SOL    HW126963   1.552   2.811   0.998 -1.4800 -0.0236 -2.6919
 5110SOL    HW226964   1.640   2.781   0.877  1.5747 -1.2746  0.5641
 5111SOL     OW26965   2.007   0.711   6.313 -0.2078  0.2133  0.0107
 5111SOL    HW126966   1.987   0.755   6.230  0.8325  1.2490  0.3146
 5111SOL    HW226967   2.093   0.742   6.339 -0.9004  0.4483  1.9678
 5112SOL     OW26968   4.353   4.494   8.415  0.0832  0.3442 -0.3669
 5112SOL    HW126969   4.325   4.545   8.339  1.4363 -1.7266 -2.2719
 5112SOL    HW226970   4.337   4.557   8.485  2.5168  1.4474 -0.7598
 5113SOL     OW26971   4.302   2.506  10.403 -0.4947 -0.2367  0.5255
 5113SOL    HW126972   4.321   2.599  10.396  1.8679 -0.7915 -0.2103
 5113SOL    HW226973   4.338   2.482  10.488  0.2801 -1.1181 -0.0433
 5114SOL     OW26974   0.513   4.583   6.593 -0.2019 -0.3103  0.4526
 5114SOL    HW126975   0.479   4.672   6.585  0.3026 -0.3309 -1.8417
 5114SOL    HW226976   0.608   4.593   6.586 -0.0361 -1.4589  0.9543
 5115SOL     OW26977   2.327   0.700   7.720  0.2237 -0.6455  0.0454
 5115SOL    HW126978   2.317   0.756   7.797 -1.2435 -1.8931  0.7624
 5115SOL    HW226979   2.350   0.619   7.766 -1.3794 -1.5734 -0.8175
 5116SOL     OW26980   2.329   0.927   6.768  0.1477 -0.0016  0.0541
 5116SOL    HW126981   2.364   0.841   6.794 -1.3506 -0.4611  0.5237
 5116SOL    HW226982   2.277   0.956   6.842 -2.2028 -1.5080 -1.0259
 5117SOL     OW26983   0.611   1.882  17.489 -0.4272  0.1402  0.0302
 5117SOL    HW126984   0.614   1.976  17.508  2.6207  0.1728 -0.7021
 5117SOL    HW226985   0.544   1.847  17.549 -0.1756  0.1367  0.3103
 5118SOL     OW26986   0.549   3.205   5.795  0.6597  0.3085  0.0325
 5118SOL    HW126987   0.629   3.209   5.741  0.4560 -0.7787 -0.3444
 5118SOL    HW226988   0.526   3.298   5.791  0.3573  0.2012 -0.7694
 5119SOL     OW26989   3.583   1.529   7.857 -0.5077  0.2229  0.1082
 5119SOL    HW126990   3.673   1.510   7.832 -1.5815 -2.0965 -1.9637
 5119SOL    HW226991   3.531   1.516   7.778 -0.2847  0.5239 -0.0860
 5120SOL     OW26992   2.441   2.307   4.421 -0.2292 -0.6853 -0.3671
 5120SOL    HW126993   2.536   2.296   4.423 -0.2416 -0.6852  0.2046
 5120SOL    HW226994   2.422   2.379   4.481  0.2100 -1.2288  0.4093
 5121SOL     OW26995   0.516   2.716   6.456  0.0637  0.3961 -0.0744
 5121SOL    HW126996   0.570   2.665   6.396 -0.1884  0.2931 -0.2099
 5121SOL    HW226997   0.543   2.673   6.537 -0.3059  1.6180  0.6936
 5122SOL     OW26998   0.726   0.520  12.320 -0.2870  0.2594 -0.2049
 5122SOL    HW126999   0.811   0.529  12.276 -1.0935  1.3135 -1.5510
 5122SOL    HW227000   0.667   0.507  12.246 -0.7074  1.1331 -0.0144
 5123SOL     OW27001   3.227   2.509   2.176 -0.0170  0.2235  0.0881
 5123SOL    HW127002   3.313   2.472   2.159 -0.8871 -1.3327 -0.8913
 5123SOL    HW227003   3.173   2.469   2.108 -0.5989  0.7288  0.2502
 5124SOL     OW27004   1.054   4.452   6.156  0.0675  0.2837 -0.1683
 5124SOL    HW127005   0.979   4.491   6.201 -0.1972 -1.9381  1.3798
 5124SOL    HW227006   1.061   4.365   6.196  2.8435  0.6822  0.2015
 5125SOL     OW27007   0.671   4.632   0.272  0.0301  0.3792  0.2564
 5125SOL    HW127008   0.753   4.621   0.320  0.8281  1.2193 -0.9201
 5125SOL    HW227009   0.603   4.607   0.334 -0.2429  0.7498  0.1037
 5126SOL     OW27010   2.213   2.282   5.242 -0.1498  0.1649 -0.3139
 5126SOL    HW127011   2.287   2.277   5.302  0.4889 -0.0511 -1.1095
 5126SOL    HW227012   2.253   2.340   5.177 -0.7665 -1.8139 -2.4806
 5127SOL     OW27013   2.675   0.729   8.523  0.0679 -0.5930  0.2425
 5127SOL    HW127014   2.758   0.758   8.484 -0.5899  1.3882  0.3142
 5127SOL    HW227015   2.643   0.662   8.462  1.3208 -0.3558 -0.6831
 5128SOL     OW27016   3.424   4.412   9.939  0.6796 -0.1939  0.8058
 5128SOL    HW127017   3.409   4.402   9.846  1.1013  0.1395  0.7020
 5128SOL    HW227018   3.503   4.466   9.943  0.3016  0.3575  0.8339
 5129SOL     OW27019   1.188   0.460  13.655  0.5995 -0.1807  0.4102
 5129SOL    HW127020   1.255   0.392  13.656 -0.6231 -1.3917  0.5763
 5129SOL    HW227021   1.211   0.500  13.572 -0.5571 -0.3800 -0.0053
 5130SOL     OW27022   0.895   1.887  17.399  0.5235  0.1279  0.7341
 5130SOL    HW127023   0.934   1.964  17.358 -0.3673  1.0966  1.7074
 5130SOL    HW227024   0.809   1.909  17.435 -0.5027 -1.2396 -0.8915
 5131SOL     OW27025   3.731   1.061   8.046  0.0861 -0.4232  0.0748
 5131SOL    HW127026   3.778   1.043   7.965  1.0751 -1.3347  0.8495
 5131SOL    HW227027   3.797   1.106   8.100 -2.0946 -1.6217  3.7081
 5132SOL     OW27028   0.052   0.323  14.907 -0.2670  0.0063 -0.2988
 5132SOL    HW127029   4.695   0.293  14.899  0.2057 -2.2553  3.1483
 5132SOL    HW227030   0.090   0.242  14.940  0.0391 -0.2559 -1.3015
 5133SOL     OW27031   3.357   0.427   3.433  0.0408  0.5017 -0.3844
 5133SOL    HW127032   3.403   0.345   3.414 -0.0935 -0.0208  1.5010
 5133SOL    HW227033   3.384   0.452   3.521  2.1959 -0.7312 -0.6878
 5134SOL     OW27034   1.367   4.068   4.815 -0.2802  0.0554  0.4961
 5134SOL    HW127035   1.412   3.996   4.771  0.0375  0.1989  0.5904
 5134SOL    HW227036   1.438   4.114   4.860  0.5194  1.7243 -2.5099
 5135SOL     OW27037   1.203   2.506   0.613  0.2019 -0.1784 -0.3103
 5135SOL    HW127038   1.209   2.591   0.656 -0.7465 -0.1022 -0.3259
 5135SOL    HW227039   1.267   2.524   0.544 -0.0684  0.5533 -0.3692
 5136SOL     OW27040   2.978   0.143   2.749 -0.1213 -0.3864  0.1664
 5136SOL    HW127041   2.927   0.165   2.826  1.0615  0.6234  0.6518
 5136SOL    HW227042   2.920   0.178   2.681 -0.9088 -0.0578  1.0190
 5137SOL     OW27043   3.101   3.767   9.182  0.0228  0.2132 -0.4490
 5137SOL    HW127044   3.141   3.762   9.269 -0.4420 -1.0967 -0.3044
 5137SOL    HW227045   3.047   3.844   9.198  0.4284  0.2962  0.5070
 5138SOL     OW27046   0.225   2.947   9.469  0.2198 -0.2003  0.4122
 5138SOL    HW127047   0.174   3.025   9.448  1.0759  0.7708  1.9893
 5138SOL    HW227048   0.291   2.986   9.527  1.0733  0.4218 -0.9638
 5139SOL     OW27049   0.713   0.616   6.682  1.1309 -0.4250  0.2029
 5139SOL    HW127050   0.726   0.711   6.685  2.6456 -0.6952  2.0784
 5139SOL    HW227051   0.776   0.593   6.614  0.3440 -0.6054 -0.4621
 5140SOL     OW27052   1.281   2.625   6.034  0.5706  0.1284 -0.2895
 5140SOL    HW127053   1.273   2.701   5.976 -2.1930 -0.7474 -1.0296
 5140SOL    HW227054   1.232   2.661   6.108  0.7479  0.5383 -0.3687
 5141SOL     OW27055   3.927   0.264   5.687  0.4675 -0.0618  0.3893
 5141SOL    HW127056   3.923   0.169   5.689 -1.6044  0.0407  0.3506
 5141SOL    HW227057   3.868   0.285   5.615  0.7284  1.2244  0.5483
 5142SOL     OW27058   1.483   2.449   8.345  0.0204  0.1618  0.1885
 5142SOL    HW127059   1.515   2.429   8.257  0.4595 -0.8990  0.5969
 5142SOL    HW227060   1.477   2.544   8.343 -0.1173  0.1187 -1.5815
 5143SOL     OW27061   0.533   3.101   4.632 -0.7490 -0.0756  0.0721
 5143SOL    HW127062   0.585   3.126   4.556 -0.8338  1.3309  0.4617
 5143SOL    HW227063   0.596   3.090   4.703 -0.9862  0.1445  0.3191
 5144SOL     OW27064   1.789   3.506  13.729  0.2546 -0.1500 -0.6591
 5144SOL    HW127065   1.882   3.524  13.741  0.8554 -3.7052  0.1437
 5144SOL    HW227066   1.771   3.588  13.684 -0.5537 -0.1198 -0.2797
 5145SOL     OW27067   3.424   3.585   3.929 -0.2473 -0.6491  0.5599
 5145SOL    HW127068   3.490   3.636   3.881 -2.1598  2.4060  1.1767
 5145SOL    HW227069   3.453   3.592   4.020  0.2203  2.3925  0.1812
 5146SOL     OW27070   2.802   2.539   8.101  0.8830 -0.1530 -0.6276
 5146SOL    HW127071   2.791   2.634   8.096  1.7272 -0.0479 -0.4341
 5146SOL    HW227072   2.712   2.515   8.123  0.8120  1.6733  1.0516
 5147SOL     OW27073   0.733   1.823   9.875  0.2644 -0.1579  0.2815
 5147SOL    HW127074   0.811   1.868   9.841  1.1095 -1.3378  0.6774
 5147SOL    HW227075   0.760   1.740   9.913  1.1504 -0.7562 -1.6740
 5148SOL     OW27076   2.852   3.699   3.471 -0.0318  0.2416 -0.0917
 5148SOL    HW127077   2.863   3.661   3.383 -0.1997  1.4477 -0.6289
 5148SOL    HW227078   2.886   3.788   3.464  0.0121  0.3168  1.1752
 5149SOL     OW27079   0.884   2.788   2.442  0.5056 -0.4351  0.5674
 5149SOL    HW127080   0.949   2.842   2.485 -0.4269  0.2273  1.1479
 5149SOL    HW227081   0.861   2.845   2.369  0.2535  1.1578  1.8823
 5150SOL     OW27082   4.543   3.224   3.590  0.4343 -0.2992 -0.3478
 5150SOL    HW127083   4.546   3.172   3.509  1.8918 -0.5954 -0.1136
 5150SOL    HW227084   4.503   3.303   3.555  2.6370  1.3945  0.9457
 5151SOL     OW27085   0.969   0.795   4.429 -0.1863  0.4253 -0.0046
 5151SOL    HW127086   1.037   0.741   4.470 -0.6684  0.8726  1.3956
 5151SOL    HW227087   0.985   0.868   4.489  0.0350 -1.2278  1.9531
 5152SOL     OW27088   0.277   0.483   4.901 -0.1892 -0.2308 -0.0163
 5152SOL    HW127089   0.288   0.427   4.978 -0.1477  2.5983  2.0445
 5152SOL    HW227090   0.182   0.485   4.891 -0.0085 -3.7505 -2.4075
 5153SOL     OW27091   3.751   2.917  16.661  0.2436 -0.1349 -0.4825
 5153SOL    HW127092   3.760   2.915  16.756  1.1614  1.5015 -0.5405
 5153SOL    HW227093   3.792   3.002  16.644  1.0857 -0.1494  1.5514
 5154SOL     OW27094   1.434   2.703   8.376  0.1851 -0.0935 -0.3867
 5154SOL    HW127095   1.366   2.753   8.332 -0.2206  0.1297  0.5013
 5154SOL    HW227096   1.520   2.732   8.346  0.6194 -1.8717 -0.8953
 5155SOL     OW27097   3.150   0.763   7.444  0.2330 -0.2952 -0.5125
 5155SOL    HW127098   3.218   0.755   7.378  2.3302  1.4024  1.4502
 5155SOL    HW227099   3.175   0.698   7.510 -0.7228 -0.6678 -0.5151
 5156SOL     OW27100   2.674   4.305   1.512  0.3857 -0.3502  0.0065
 5156SOL    HW127101   2.591   4.330   1.552  1.6024  0.1960  2.1891
 5156SOL    HW227102   2.639   4.255   1.437 -1.7240  0.4814  0.4319
 5157SOL     OW27103   4.182   0.170   6.599  0.2420  0.0712  0.1861
 5157SOL    HW127104   4.222   0.257   6.589  0.4962  0.0145  0.7506
 5157SOL    HW227105   4.088   0.190   6.608 -0.1426 -1.7651  0.1568
 5158SOL     OW27106   1.949   3.407   1.450 -0.1558 -0.1799  0.2521
 5158SOL    HW127107   1.908   3.435   1.368 -0.2484  2.5094  1.1947
 5158SOL    HW227108   1.939   3.312   1.452 -0.0372 -0.2455 -2.3426
 5159SOL     OW27109   1.208   4.256  14.986  0.2302 -0.3550  0.0113
 5159SOL    HW127110   1.153   4.331  15.008  2.2406  1.6821 -1.9183
 5159SOL    HW227111   1.290   4.304  14.992 -0.5340  0.9871 -0.2243
 5160SOL     OW27112   0.837   0.589   5.349  0.2243 -0.4897  0.2359
 5160SOL    HW127113   0.855   0.635   5.267 -0.3097  0.5832  0.7244
 5160SOL    HW227114   0.885   0.646   5.409  1.1299 -0.9158 -0.0935
 5161SOL     OW27115   0.458   1.583  10.013  0.2306 -0.3991  0.4496
 5161SOL    HW127116   0.470   1.677  10.031 -2.2593  0.3510 -1.7716
 5161SOL    HW227117   0.377   1.572  10.063  1.0577 -0.0708  1.8862
 5162SOL     OW27118   3.139   4.254   1.698 -0.6334  0.0899  0.0101
 5162SOL    HW127119   3.092   4.286   1.775 -0.1665 -1.2217  0.8383
 5162SOL    HW227120   3.152   4.160   1.703 -1.3679  0.0364  0.9069
 5163SOL     OW27121   1.004   3.340  10.478 -0.0536  0.5503  0.1048
 5163SOL    HW127122   1.085   3.314  10.435  0.5605  0.2903  1.4052
 5163SOL    HW227123   0.941   3.272  10.456 -0.9559  1.7376 -0.9743
 5164SOL     OW27124   1.637   1.539   2.540  0.5480  0.2232  0.3214
 5164SOL    HW127125   1.668   1.521   2.629 -2.2003  1.0667  1.4523
 5164SOL    HW227126   1.664   1.456   2.500 -2.8794 -0.8147  0.1103
 5165SOL     OW27127   3.847   3.265   3.172 -0.1562 -0.4979 -0.5990
 5165SOL    HW127128   3.760   3.250   3.135 -1.3573  0.2383  1.9369
 5165SOL    HW227129   3.894   3.183   3.158 -0.2899 -0.6675 -0.0572
 5166SOL     OW27130   3.789   4.319   4.371  0.1829 -0.1777 -0.0117
 5166SOL    HW127131   3.743   4.314   4.455  0.6563 -1.8997  0.1509
 5166SOL    HW227132   3.767   4.231   4.339  0.3902 -1.0074  2.1349
 5167SOL     OW27133   4.320   1.498   7.413 -0.3747  0.1719  0.4971
 5167SOL    HW127134   4.304   1.574   7.468 -1.3905  0.6368 -0.4525
 5167SOL    HW227135   4.267   1.425   7.445  0.7824 -0.8182  0.1831
 5168SOL     OW27136   3.724   4.061   1.649  0.0226  0.0430  0.1411
 5168SOL    HW127137   3.704   4.115   1.726 -0.6898 -0.4163  0.2816
 5168SOL    HW227138   3.744   3.980   1.695  1.3549 -0.4621 -1.3537
 5169SOL     OW27139   1.757   0.998   1.912 -0.3402  0.3788 -0.0167
 5169SOL    HW127140   1.772   0.911   1.949  0.2695 -0.4311 -2.1621
 5169SOL    HW227141   1.816   1.011   1.838  1.4847 -0.2291  1.3121
 5170SOL     OW27142   0.237   4.613   3.550 -0.2894  0.3171  0.7242
 5170SOL    HW127143   0.178   4.646   3.483 -1.8160 -1.8220  1.0373
 5170SOL    HW227144   0.220   4.683   3.614  0.6109  0.7360  0.5144
 5171SOL     OW27145   3.124   4.337  10.958  0.2768 -0.0862  0.0275
 5171SOL    HW127146   3.096   4.389  11.034  1.1346  0.8399 -0.2962
 5171SOL    HW227147   3.055   4.360  10.896  0.5467 -0.1318 -0.2893
 5172SOL     OW27148   0.934   4.542   5.046 -0.0473  0.1719  0.3831
 5172SOL    HW127149   1.002   4.491   5.090 -1.3956 -2.9465 -1.1406
 5172SOL    HW227150   0.868   4.477   5.019  1.8420 -1.6816  0.1947
 5173SOL     OW27151   4.075   4.212   6.239 -0.3485 -0.1802  0.0303
 5173SOL    HW127152   4.138   4.271   6.197  0.4508 -0.6799  0.5248
 5173SOL    HW227153   3.993   4.246   6.203  0.4417  1.7632  0.0671
 5174SOL     OW27154   4.197   0.325   0.597  0.3926  0.0732  0.2062
 5174SOL    HW127155   4.243   0.339   0.514 -0.2454  1.6726  0.1070
 5174SOL    HW227156   4.249   0.374   0.661  0.9606 -1.3877  0.8628
 5175SOL     OW27157   1.685   2.559   8.869  0.4978  0.4635  0.2720
 5175SOL    HW127158   1.727   2.519   8.793 -0.6251  0.4092 -0.3349
 5175SOL    HW227159   1.667   2.487   8.929  0.0480  0.8628  0.6136
 5176SOL     OW27160   1.536   4.001   2.656 -0.0381 -0.0289 -0.2543
 5176SOL    HW127161   1.505   4.002   2.747 -2.7478  1.4682 -1.2053
 5176SOL    HW227162   1.485   3.930   2.617 -0.7755 -0.0127  0.6666
 5177SOL     OW27163   1.812   4.065   8.717 -0.1091  0.6796 -0.7210
 5177SOL    HW127164   1.757   4.071   8.796  0.2855  1.2362 -0.4851
 5177SOL    HW227165   1.893   4.038   8.760 -0.0333  0.1355 -1.1974
 5178SOL     OW27166   4.350   4.264   8.602  0.2303 -0.5142 -0.2001
 5178SOL    HW127167   4.320   4.200   8.537  1.3939 -0.3730 -0.8703
 5178SOL    HW227168   4.382   4.334   8.546 -0.2790  0.5402  0.8334
 5179SOL     OW27169   1.898   1.409   3.410 -0.1241  0.0053 -0.3544
 5179SOL    HW127170   1.966   1.445   3.466 -2.7214  0.0722  2.7274
 5179SOL    HW227171   1.880   1.325   3.452  2.5742  0.5465  1.8784
 5180SOL     OW27172   2.235   1.853   3.815 -0.3278  0.3510 -0.5192
 5180SOL    HW127173   2.209   1.932   3.863  0.1647  1.4253 -2.0062
 5180SOL    HW227174   2.146   1.823   3.799 -0.1825 -1.3018  1.7718
 5181SOL     OW27175   2.537   0.614   0.569  0.3834 -0.4944  0.4005
 5181SOL    HW127176   2.630   0.638   0.574  0.3479 -0.0485 -1.0429
 5181SOL    HW227177   2.511   0.694   0.615 -0.1313 -1.1417  1.2220
 5182SOL     OW27178   3.163   4.634   3.765  0.5070 -0.6149  0.0924
 5182SOL    HW127179   3.116   4.695   3.708  0.5346 -1.2135 -0.5781
 5182SOL    HW227180   3.145   4.669   3.852 -0.2150 -1.8403  0.4334
 5183SOL     OW27181   2.133   3.494   7.034  0.0050 -0.2317 -0.0975
 5183SOL    HW127182   2.102   3.429   7.097  0.5745  0.0885  0.5080
 5183SOL    HW227183   2.046   3.516   6.999 -0.3116  0.1851  0.9502
 5184SOL     OW27184   3.337   2.368  17.581  0.1488  0.2261 -0.4283
 5184SOL    HW127185   3.388   2.319  17.517  0.4849  0.1039 -0.0669
 5184SOL    HW227186   3.370   2.458  17.585  0.3368  0.1601 -0.4746
 5185SOL     OW27187   4.597   0.467  10.774 -0.0885  0.0311  0.6481
 5185SOL    HW127188   4.644   0.463  10.857  1.3068 -0.3388 -0.1660
 5185SOL    HW227189   4.645   0.532  10.723  1.9895 -2.2120 -0.2361
 5186SOL     OW27190   2.061   1.529   9.091 -0.2378 -0.7224 -0.4999
 5186SOL    HW127191   2.095   1.573   9.169 -4.7212 -1.2627  1.7691
 5186SOL    HW227192   2.064   1.437   9.118  1.4302 -0.3924  0.4720
 5187SOL     OW27193   4.703   3.420   7.226  0.2535 -0.5099 -0.5145
 5187SOL    HW127194   4.667   3.452   7.308  2.0683  0.1412  0.0272
 5187SOL    HW227195   4.623   3.391   7.181 -0.8079  2.5044 -0.5542
 5188SOL     OW27196   1.767   4.093   8.422 -0.5018  0.4750  0.1400
 5188SOL    HW127197   1.736   4.127   8.506 -0.0387 -1.0226  0.9055
 5188SOL    HW227198   1.859   4.117   8.425 -0.5917  0.5665  2.2154
 5189SOL     OW27199   0.066   3.613  12.427 -0.0171 -0.0858 -0.0390
 5189SOL    HW127200   0.154   3.582  12.445 -0.6511 -0.4852  2.4154
 5189SOL    HW227201   0.051   3.654  12.512 -0.0502  2.4431 -1.2682
 5190SOL     OW27202   3.330   2.372   6.043  0.2687  0.9374 -0.4644
 5190SOL    HW127203   3.251   2.342   5.999  0.4665  1.5929 -1.2687
 5190SOL    HW227204   3.318   2.467   6.036  0.1820  1.0017  0.6560
 5191SOL     OW27205   3.467   2.964   2.952 -0.2224 -0.1880 -0.0398
 5191SOL    HW127206   3.424   2.902   3.010  2.5553 -1.0058  1.1459
 5191SOL    HW227207   3.389   2.999   2.909  0.1180  1.1593  0.4199
 5192SOL     OW27208   3.550   1.234   6.319  0.2793 -0.1437  0.1199
 5192SOL    HW127209   3.542   1.319   6.363  0.7723 -0.0769  0.0825
 5192SOL    HW227210   3.491   1.258   6.247  0.9269  1.4286  0.1142
 5193SOL     OW27211   1.668   3.271   1.250  0.2763  0.2669 -0.3399
 5193SOL    HW127212   1.637   3.360   1.263  1.2326  0.1160  2.9297
 5193SOL    HW227213   1.586   3.224   1.264 -0.0230  1.3941  1.6002
 5194SOL     OW27214   0.417   2.899  13.469  0.2200  0.3868  0.0763
 5194SOL    HW127215   0.376   2.943  13.543 -1.8640 -0.7845 -0.3978
 5194SOL    HW227216   0.346   2.855  13.424 -1.3854  0.7428  2.2755
 5195SOL     OW27217   0.185   4.152   0.273  0.0547 -0.2559  0.4186
 5195SOL    HW127218   0.185   4.074   0.217 -1.7277 -1.2162  1.7726
 5195SOL    HW227219   0.091   4.161   0.289  0.0328  0.0605  0.1014
 5196SOL     OW27220   3.965   4.320   7.207  0.1657 -0.2069  0.3015
 5196SOL    HW127221   4.001   4.284   7.127  1.2251 -0.6090  0.9706
 5196SOL    HW227222   4.011   4.282   7.282 -1.0002  0.2245  1.2372
 5197SOL     OW27223   1.628   0.535   8.996 -0.2488 -0.0618 -0.4163
 5197SOL    HW127224   1.534   0.517   8.991  0.0830 -2.3855  1.4805
 5197SOL    HW227225   1.622   0.547   9.091  1.6887  0.9515 -0.4180
 5198SOL     OW27226   1.231   1.472   6.384 -0.4932 -0.8676  0.1782
 5198SOL    HW127227   1.223   1.432   6.298  1.9056  1.0670 -0.9473
 5198SOL    HW227228   1.319   1.445   6.410  0.5889  1.4458 -1.0179
 5199SOL     OW27229   1.181   3.112   7.342  0.1631  0.5781  0.2874
 5199SOL    HW127230   1.183   3.108   7.247 -1.0879 -0.4055  0.3076
 5199SOL    HW227231   1.094   3.076   7.356  0.3541  0.5423  1.3986
 5200SOL     OW27232   2.699   2.474   1.748  0.1379  0.0065  0.7746
 5200SOL    HW127233   2.631   2.406   1.753  0.7546 -0.7038 -0.4569
 5200SOL    HW227234   2.651   2.550   1.780 -1.0090  0.8343 -2.9114
 5201SOL     OW27235   4.354   0.347  12.290  0.0100 -0.0172 -0.1287
 5201SOL    HW127236   4.377   0.430  12.333 -0.5691  0.9295 -1.6413
 5201SOL    HW227237   4.355   0.386  12.203 -2.2984  2.8703  1.1165
 5202SOL     OW27238   1.524   1.907   4.969 -0.0232 -0.0899 -0.0025
 5202SOL    HW127239   1.526   1.823   4.924 -1.6241 -0.3172  0.3423
 5202SOL    HW227240   1.466   1.893   5.044  2.8303  0.8553  2.3793
 5203SOL     OW27241   3.429   1.903   9.592 -0.1544  0.2925  0.1385
 5203SOL    HW127242   3.439   1.883   9.685  2.7529  0.9143 -0.0307
 5203SOL    HW227243   3.442   1.997   9.598 -2.3496  0.5799  0.3039
 5204SOL     OW27244   0.238   3.427   8.211  0.0251  0.4856  0.4024
 5204SOL    HW127245   0.158   3.377   8.227  1.6713 -1.5649  2.3792
 5204SOL    HW227246   0.208   3.482   8.139 -1.6458 -0.3379  0.4693
 5205SOL     OW27247   4.316   2.136   4.580  0.1296  0.1477  0.0412
 5205SOL    HW127248   4.372   2.156   4.655 -0.4783 -0.3004  0.6202
 5205SOL    HW227249   4.378   2.116   4.511  1.3649 -0.8539  1.4402
 5206SOL     OW27250   4.548   0.659   8.517  0.5940 -0.9010 -0.2610
 5206SOL    HW127251   4.620   0.632   8.460 -0.0541 -3.3674  0.0669
 5206SOL    HW227252   4.487   0.701   8.457  0.4564  0.5364  0.9006
 5207SOL     OW27253   2.958   2.935   0.595  0.0515  0.1688  0.1109
 5207SOL    HW127254   3.034   2.927   0.537  1.2257  0.6613  1.5531
 5207SOL    HW227255   2.960   3.027   0.620  2.8424  0.6540 -1.8591
 5208SOL     OW27256   3.341   3.453  15.411  0.1783  0.1243 -0.4295
 5208SOL    HW127257   3.347   3.523  15.347 -1.4583  0.2455 -0.4527
 5208SOL    HW227258   3.353   3.492  15.498 -0.2642  0.1353 -0.3700
 5209SOL     OW27259   3.244   0.583   7.633  0.2565 -0.2747 -0.1067
 5209SOL    HW127260   3.320   0.525   7.625  2.9307  3.2797 -0.4424
 5209SOL    HW227261   3.255   0.629   7.716 -3.1832  0.2141  0.0794
 5210SOL     OW27262   1.849   3.488   6.189 -0.3380 -0.2869  0.0845
 5210SOL    HW127263   1.759   3.465   6.166  0.5292 -0.7559 -2.8705
 5210SOL    HW227264   1.885   3.406   6.223 -0.3547 -0.3367 -0.0149
 5211SOL     OW27265   3.774   0.668  15.498 -0.2853 -0.2904  0.6806
 5211SOL    HW127266   3.825   0.739  15.536 -2.2178  1.4773 -0.0309
 5211SOL    HW227267   3.687   0.704  15.512 -0.2994 -0.5833  1.3301
 5212SOL     OW27268   1.600   0.318   4.879 -0.1731  0.1158  0.4703
 5212SOL    HW127269   1.671   0.362   4.927  0.5569 -0.7620  0.1868
 5212SOL    HW227270   1.548   0.297   4.957 -0.3546 -1.1937 -0.0130
 5213SOL     OW27271   3.944   1.495   5.819  0.0692 -0.1780  0.3492
 5213SOL    HW127272   4.002   1.508   5.893  0.7616  0.5465 -0.3231
 5213SOL    HW227273   3.895   1.418   5.849 -1.4767  0.0772 -1.4883
 5214SOL     OW27274   4.264   1.833   3.618  0.2591  0.5546  0.2204
 5214SOL    HW127275   4.341   1.887   3.635  2.4245 -2.8970  1.3769
 5214SOL    HW227276   4.301   1.749   3.593 -0.6580  0.1363  0.2751
 5215SOL     OW27277   1.973   2.245   6.552  0.0938  0.7663  0.3017
 5215SOL    HW127278   1.922   2.193   6.489  1.3200  0.0170 -0.0757
 5215SOL    HW227279   1.907   2.305   6.585 -2.0283 -1.0641 -0.6059
 5216SOL     OW27280   1.303   4.558   0.295  0.0360 -0.0304  0.0307
 5216SOL    HW127281   1.315   4.578   0.202 -0.0676  1.0634  0.2636
 5216SOL    HW227282   1.211   4.533   0.296 -0.0066 -0.0158 -2.3868
 5217SOL     OW27283   1.420   3.065   5.426  0.0794  0.0800  0.1874
 5217SOL    HW127284   1.404   2.977   5.458  2.7344  0.5147  2.7317
 5217SOL    HW227285   1.378   3.055   5.341 -0.0150  1.2491  0.0953
 5218SOL     OW27286   3.556   2.185   7.222 -0.8607 -0.3332  0.6019
 5218SOL    HW127287   3.624   2.245   7.252  0.3673 -0.1950 -2.4427
 5218SOL    HW227288   3.483   2.247   7.213 -0.3339 -0.0232 -1.4815
 5219SOL     OW27289   2.721   3.082   0.526 -0.0555 -0.7409  0.0177
 5219SOL    HW127290   2.632   3.047   0.525  0.1188 -1.1364 -1.4473
 5219SOL    HW227291   2.767   3.006   0.561  1.7348  1.2516  1.9288
 5220SOL     OW27292   1.761   3.768   2.659  0.6536 -0.6141  0.1713
 5220SOL    HW127293   1.727   3.772   2.569 -1.6972 -2.0329  0.9932
 5220SOL    HW227294   1.850   3.792   2.635  0.0813  0.0545 -1.2940
 5221SOL     OW27295   3.530   0.567   2.718  0.2181  0.3407  0.3152
 5221SOL    HW127296   3.587   0.631   2.675  1.6148 -0.4987  0.9707
 5221SOL    HW227297   3.593   0.496   2.722 -1.4275 -1.0956  0.9345
 5222SOL     OW27298   3.310   1.120   5.277 -1.0987  0.2271  0.0524
 5222SOL    HW127299   3.243   1.052   5.266  1.3349 -1.8032 -1.9672
 5222SOL    HW227300   3.256   1.199   5.289  0.2885  1.5738 -2.5987
 5223SOL     OW27301   0.681   1.372   3.808 -0.6008 -0.0661  0.3200
 5223SOL    HW127302   0.709   1.461   3.787 -0.8531  0.0658  0.5448
 5223SOL    HW227303   0.771   1.341   3.820  0.1280  1.7107 -0.5593
 5224SOL     OW27304   3.562   1.025   6.599  0.2573 -0.3894 -0.3611
 5224SOL    HW127305   3.651   1.050   6.575  0.7510 -0.8089  1.0211
 5224SOL    HW227306   3.517   1.110   6.606 -2.0541 -1.5011 -1.7012
 5225SOL     OW27307   2.417   0.875   4.415 -0.1839 -0.7094  0.1322
 5225SOL    HW127308   2.415   0.805   4.349  0.8040  0.5611 -1.2315
 5225SOL    HW227309   2.395   0.952   4.363  0.4945 -0.5384  0.1066
 5226SOL     OW27310   0.836   2.028   8.030 -0.1368  0.4329  0.9053
 5226SOL    HW127311   0.837   2.106   8.086  0.9477  0.8878  0.2396
 5226SOL    HW227312   0.857   1.953   8.085 -0.5081 -0.8478 -0.7190
 5227SOL     OW27313   0.027   3.534   3.300  0.0722 -0.1507  0.4747
 5227SOL    HW127314   0.036   3.441   3.321 -1.7899 -0.7346 -1.3491
 5227SOL    HW227315   0.106   3.578   3.332 -0.1207  0.2886  0.3419
 5228SOL     OW27316   3.245   4.495   5.344 -0.0240 -0.0248 -0.3956
 5228SOL    HW127317   3.306   4.538   5.404 -1.3112 -0.7067  1.3773
 5228SOL    HW227318   3.164   4.546   5.352 -0.5387 -0.2012 -4.4551
 5229SOL     OW27319   2.115   4.427   1.424  0.2086 -0.5538  0.0757
 5229SOL    HW127320   2.038   4.407   1.371  0.0054  1.4827 -0.4185
 5229SOL    HW227321   2.181   4.422   1.355 -0.4136  1.2201 -0.6519
 5230SOL     OW27322   2.082   1.160   7.207 -0.3871 -0.1980  0.4756
 5230SOL    HW127323   1.990   1.152   7.179 -0.1233  0.7851 -0.6779
 5230SOL    HW227324   2.079   1.227   7.276 -1.8970 -0.2686  0.4856
 5231SOL     OW27325   4.588   1.988   6.137 -0.3178  0.2098 -0.6170
 5231SOL    HW127326   4.584   2.083   6.132  2.2565  0.1442 -4.2648
 5231SOL    HW227327   4.662   1.978   6.077 -0.7806  0.2762 -1.2025
 5232SOL     OW27328   1.636   0.770   4.552  0.0707  0.0387 -0.0432
 5232SOL    HW127329   1.656   0.861   4.572  0.9114 -0.3420  0.8231
 5232SOL    HW227330   1.721   0.730   4.533 -0.1561 -0.2517 -0.4466
 5233SOL     OW27331   3.781   1.799   3.533 -0.2677  0.0024  0.3845
 5233SOL    HW127332   3.815   1.872   3.482 -0.1208 -0.1268  0.2974
 5233SOL    HW227333   3.858   1.764   3.579  1.1204  4.1844  1.2233
 5234SOL     OW27334   4.339   3.767  17.551  0.6694  0.3033  0.0403
 5234SOL    HW127335   4.411   3.830  17.551  1.7829 -0.9611 -2.6730
 5234SOL    HW227336   4.313   3.763  17.459  1.3226  1.5999 -0.2000
 5235SOL     OW27337   3.755   3.594  14.548  0.3061 -0.3000  0.7426
 5235SOL    HW127338   3.695   3.571  14.477 -1.0181 -1.5542  2.2745
 5235SOL    HW227339   3.785   3.680  14.519 -0.4141 -0.1317  0.5015
 5236SOL     OW27340   1.829   1.588   4.832  0.4056  0.3101 -0.1092
 5236SOL    HW127341   1.879   1.568   4.911 -2.4377 -0.3143  1.5509
 5236SOL    HW227342   1.887   1.584   4.757 -1.1203 -0.7259 -1.2420
 5237SOL     OW27343   0.790   1.404   8.585 -0.1483 -0.1086  0.2809
 5237SOL    HW127344   0.791   1.317   8.545 -2.1427  0.0676 -0.1381
 5237SOL    HW227345   0.740   1.370   8.659 -2.1268 -1.3949 -1.6463
 5238SOL     OW27346   0.516   4.089   7.093  0.4496  0.4029 -0.1276
 5238SOL    HW127347   0.433   4.134   7.107 -0.4517 -1.2159 -0.1949
 5238SOL    HW227348   0.501   4.057   7.004  1.2358 -1.3954  0.3663
 5239SOL     OW27349   1.587   0.162   7.349  0.1783 -0.0243  0.0922
 5239SOL    HW127350   1.614   0.253   7.361  1.1567 -0.7605  3.4147
 5239SOL    HW227351   1.518   0.161   7.282  0.3702  1.3043 -0.1325
 5240SOL     OW27352   1.828   0.476  14.361 -0.5641  0.0667  0.0296
 5240SOL    HW127353   1.890   0.433  14.420  0.3837 -0.6960 -1.5291
 5240SOL    HW227354   1.877   0.558  14.356 -1.0528  0.2592 -1.4910
 5241SOL     OW27355   1.390   0.704   2.608  0.2791  0.2665  0.0970
 5241SOL    HW127356   1.380   0.652   2.689 -0.6854  0.5272  0.1485
 5241SOL    HW227357   1.471   0.752   2.622  0.5086 -0.8841  2.8198
 5242SOL     OW27358   3.759   1.411   3.509  0.1371 -0.5542  0.3322
 5242SOL    HW127359   3.853   1.429   3.519  0.0350 -0.3280  0.8701
 5242SOL    HW227360   3.760   1.324   3.548  0.9220 -0.3506  0.7733
 5243SOL     OW27361   0.934   3.536  13.552 -0.2086 -0.6279  0.0506
 5243SOL    HW127362   0.947   3.590  13.630 -2.1433 -0.0726 -0.0213
 5243SOL    HW227363   0.985   3.581  13.484  0.9892  1.9274  2.6476
 5244SOL     OW27364   3.704   1.165   1.763 -0.4492  0.2182  0.3035
 5244SOL    HW127365   3.750   1.214   1.695 -0.9153 -0.1144 -0.2508
 5244SOL    HW227366   3.783   1.156   1.816  1.0859  1.4121 -1.7510
 5245SOL     OW27367   0.931   3.503   8.571  0.2044 -0.2308  0.0230
 5245SOL    HW127368   0.895   3.449   8.501 -0.3800 -0.2671  0.3519
 5245SOL    HW227369   0.974   3.568   8.515  1.0898  2.1166  3.4540
 5246SOL     OW27370   3.467   4.396   2.125 -0.1536 -0.4136  0.1438
 5246SOL    HW127371   3.556   4.430   2.115 -0.5325  0.5564  0.0502
 5246SOL    HW227372   3.467   4.326   2.060 -1.1003 -1.4986  1.3083
 5247SOL     OW27373   2.293   1.956   8.553 -0.4613 -0.9560 -0.2757
 5247SOL    HW127374   2.325   2.035   8.598 -1.2964  0.1878 -1.7045
 5247SOL    HW227375   2.267   1.906   8.630  2.2947 -1.3854  0.3851
 5248SOL     OW27376   0.257   3.295   1.845 -0.3953  0.2525  0.5060
 5248SOL    HW127377   0.315   3.228   1.809 -1.6784 -1.1631  1.0948
 5248SOL    HW227378   0.281   3.304   1.937  0.0148 -2.1346  0.6296
 5249SOL     OW27379   3.599   4.015   5.069 -0.1688 -0.2689 -0.3402
 5249SOL    HW127380   3.679   4.058   5.098  0.2822 -0.0430 -1.9128
 5249SOL    HW227381   3.632   3.976   4.988  0.7196 -1.7985  0.7673
 5250SOL     OW27382   2.362   0.163   7.616  0.4213 -0.2172  0.3792
 5250SOL    HW127383   2.306   0.223   7.665  1.8023 -0.3471  2.1371
 5250SOL    HW227384   2.386   0.225   7.547 -0.7990  2.2878  2.1962
 5251SOL     OW27385   1.645   1.707   1.720  0.5390  0.4564  0.0199
 5251SOL    HW127386   1.725   1.654   1.714  1.0860  1.0888  1.7552
 5251SOL    HW227387   1.594   1.660   1.654  2.3698 -1.1252 -0.2835
 5252SOL     OW27388   0.835   3.693  13.287 -0.1263  0.6040  0.6863
 5252SOL    HW127389   0.892   3.628  13.246  0.5309  1.6010  0.0168
 5252SOL    HW227390   0.779   3.717  13.213  0.2284 -0.1526  0.1747
 5253SOL     OW27391   3.341   1.814  17.215 -0.3432 -0.8247 -0.0585
 5253SOL    HW127392   3.256   1.772  17.205 -1.3952  1.4716 -0.5800
 5253SOL    HW227393   3.397   1.742  17.246  3.8454  2.3975 -0.1867
 5254SOL     OW27394   4.528   2.509   7.528 -0.0584 -0.4444  0.4382
 5254SOL    HW127395   4.605   2.566   7.521 -0.8164  0.4243 -0.7905
 5254SOL    HW227396   4.571   2.434   7.569  0.9104 -1.2301 -2.0392
 5255SOL     OW27397   2.659   3.788  10.522  0.1649  0.3874  0.0873
 5255SOL    HW127398   2.712   3.846  10.467  0.9252  1.9790  2.5142
 5255SOL    HW227399   2.712   3.786  10.602  0.8827  0.6457 -0.3846
 5256SOL     OW27400   1.120   2.933   2.541 -0.0983  0.1558  0.3115
 5256SOL    HW127401   1.183   2.885   2.595  1.8633  1.4006 -0.9139
 5256SOL    HW227402   1.118   3.021   2.580  1.6338  1.1097 -1.8091
 5257SOL     OW27403   2.789   4.101   3.388  0.1322  0.5552 -0.0875
 5257SOL    HW127404   2.855   4.040   3.356  0.3954 -0.1494  1.7797
 5257SOL    HW227405   2.837   4.158   3.448  1.7521 -0.5822 -0.3020
 5258SOL     OW27406   3.401   0.039  11.804 -0.1403  0.8265 -0.3694
 5258SOL    HW127407   3.352   4.705  11.850  1.0394  1.6866  2.1512
 5258SOL    HW227408   3.480   0.039  11.859  0.4715  1.0383 -1.2448
 5259SOL     OW27409   3.151   4.097   3.206  0.5002  0.1285 -0.5460
 5259SOL    HW127410   3.242   4.123   3.193  0.5193  1.3350  1.9512
 5259SOL    HW227411   3.100   4.171   3.174 -0.0365  0.3176  0.7543
 5260SOL     OW27412   4.235   2.801   1.753  0.6826 -0.2563 -0.7756
 5260SOL    HW127413   4.292   2.777   1.827  1.6633  1.4079 -0.9699
 5260SOL    HW227414   4.201   2.884   1.788 -0.8966 -1.2917  0.1197
 5261SOL     OW27415   1.913   0.712   4.402 -0.0942  0.4822 -0.0417
 5261SOL    HW127416   1.942   0.742   4.316  0.1796  0.2573 -0.0267
 5261SOL    HW227417   1.972   0.640   4.424  1.1366  1.4095 -0.2705
 5262SOL     OW27418   3.392   4.723  15.644  0.7645  0.2985  0.0344
 5262SOL    HW127419   3.339   0.063  15.672 -0.4879  0.3966 -2.6190
 5262SOL    HW227420   3.369   4.655  15.708 -0.6392 -0.0692 -0.8827
 5263SOL     OW27421   2.596   1.061   0.576  0.0207  0.3571 -0.0054
 5263SOL    HW127422   2.555   0.993   0.629  1.3128  0.6796  1.4181
 5263SOL    HW227423   2.642   1.103   0.649 -0.2732  3.9366 -1.8737
 5264SOL     OW27424   2.592   0.050   5.640 -0.1869 -0.0805  0.0670
 5264SOL    HW127425   2.654   0.123   5.640  1.3858 -1.3865  1.4602
 5264SOL    HW227426   2.578   0.046   5.735 -1.4457 -0.2190 -0.1301
 5265SOL     OW27427   3.679   3.737   7.888 -0.0503  0.1944  0.1074
 5265SOL    HW127428   3.676   3.650   7.850  0.1840  1.1924 -2.1854
 5265SOL    HW227429   3.752   3.778   7.842  0.8146 -2.5617 -0.9839
 5266SOL     OW27430   1.121   3.929   8.041  0.4111  0.0194  0.2767
 5266SOL    HW127431   1.084   3.873   8.110 -1.5993 -0.4112 -1.1448
 5266SOL    HW227432   1.087   3.892   7.960 -1.2463  0.4284  0.7859
 5267SOL     OW27433   2.659   1.611   2.296 -0.1075 -0.3109 -0.2490
 5267SOL    HW127434   2.616   1.618   2.381  0.6259 -0.8294  0.1598
 5267SOL    HW227435   2.673   1.697   2.255  2.6259 -0.4607  0.3841
 5268SOL     OW27436   4.365   0.736   2.879 -0.2266  0.0718  0.1500
 5268SOL    HW127437   4.335   0.820   2.845  0.7135 -0.9379 -3.2124
 5268SOL    HW227438   4.430   0.713   2.813 -0.2277  3.1528 -0.9142
 5269SOL     OW27439   0.668   3.899   1.785  0.2398  0.6431  0.1696
 5269SOL    HW127440   0.615   3.828   1.818  0.5821  1.0186  1.5194
 5269SOL    HW227441   0.705   3.871   1.701 -1.1970 -1.0908  0.1360
 5270SOL     OW27442   1.220   1.377   6.080  0.0691  0.0106 -0.6076
 5270SOL    HW127443   1.225   1.289   6.115  1.1866  0.1964 -0.3117
 5270SOL    HW227444   1.146   1.374   6.019 -1.0899  2.4676  0.6835
 5271SOL     OW27445   1.680   0.287   6.598 -0.3395  0.6318  0.4705
 5271SOL    HW127446   1.710   0.285   6.507  0.5345 -1.5796  0.7901
 5271SOL    HW227447   1.703   0.197   6.623 -0.9709  0.1566 -0.6555
 5272SOL     OW27448   2.066   4.224   4.469  0.0883  0.0609  0.9387
 5272SOL    HW127449   2.082   4.130   4.461 -0.2786 -0.0777  1.8081
 5272SOL    HW227450   2.071   4.220   4.565 -1.0109 -1.8849  0.9007
 5273SOL     OW27451   4.683   4.025   4.545  0.0246 -0.0779 -0.1169
 5273SOL    HW127452   4.662   4.113   4.513  0.0601  0.1245  0.4221
 5273SOL    HW227453   0.031   4.053   4.585 -1.1329  2.5798  0.4610
 5274SOL     OW27454   2.487   4.718   1.816 -0.1629  0.3918 -0.0923
 5274SOL    HW127455   2.462   4.629   1.791 -1.4656  0.4833  0.9017
 5274SOL    HW227456   2.547   0.009   1.745 -0.9853  0.3285 -0.8100
 5275SOL     OW27457   2.283   0.537  14.640 -0.6165  0.2533  0.0353
 5275SOL    HW127458   2.363   0.577  14.607 -1.7012  1.1900 -1.4612
 5275SOL    HW227459   2.332   0.485  14.704  1.1397 -0.3004 -1.7647
 5276SOL     OW27460   4.288   1.416  17.416 -0.8104 -0.0785 -0.3587
 5276SOL    HW127461   4.281   1.326  17.448 -0.6253  0.2300  0.5402
 5276SOL    HW227462   4.326   1.420  17.328  0.7000  0.1818  0.3016
 5277SOL     OW27463   3.090   0.825   1.257 -0.5266 -0.2313 -0.1868
 5277SOL    HW127464   3.074   0.920   1.260 -0.2163 -0.1803 -0.1329
 5277SOL    HW227465   3.079   0.788   1.344  0.1451 -1.8140 -0.7774
 5278SOL     OW27466   3.055   2.007   7.255 -0.3099  0.0799 -0.0291
 5278SOL    HW127467   2.982   2.047   7.207 -1.0514  0.6401  1.5566
 5278SOL    HW227468   3.111   2.083   7.266  1.9076 -1.3546 -1.3975
 5279SOL     OW27469   1.029   2.644   6.447 -0.1604 -0.2333  0.3589
 5279SOL    HW127470   1.012   2.550   6.454  1.1596 -0.4739  0.2923
 5279SOL    HW227471   0.997   2.666   6.535  0.4684  0.1803  0.4787
 5280SOL     OW27472   0.747   4.414   5.903  0.3444 -0.0428  0.4017
 5280SOL    HW127473   0.804   4.485   5.931  1.0250 -0.2281 -0.5133
 5280SOL    HW227474   0.780   4.417   5.813 -1.1253 -0.0709 -0.1386
 5281SOL     OW27475   0.946   3.180   4.468  0.0129  0.4795  0.1169
 5281SOL    HW127476   0.888   3.107   4.447 -2.0473  1.3958  2.5608
 5281SOL    HW227477   1.008   3.174   4.396  2.1708 -1.1739  2.1135
 5282SOL     OW27478   3.659   4.409  12.413 -0.3908 -0.0272  0.3592
 5282SOL    HW127479   3.618   4.343  12.469 -1.8493 -0.1459 -0.8520
 5282SOL    HW227480   3.624   4.391  12.326  1.3839 -0.9766 -0.1503
 5283SOL     OW27481   1.362   3.052   6.050 -0.0542  0.0957 -0.0622
 5283SOL    HW127482   1.367   2.988   5.979 -1.2721  0.9240 -0.8801
 5283SOL    HW227483   1.392   3.135   6.013  0.3761  0.0205  0.1088
 5284SOL     OW27484   2.146   4.397   5.022  0.1861  0.1659  0.9126
 5284SOL    HW127485   2.185   4.325   4.972 -1.4841 -0.4120  0.4267
 5284SOL    HW227486   2.188   4.471   4.979  2.8867 -0.5571  2.3157
 5285SOL     OW27487   2.328   0.684   4.614 -0.1296 -0.3715 -0.5387
 5285SOL    HW127488   2.245   0.726   4.637 -0.1766 -0.4296 -0.6046
 5285SOL    HW227489   2.367   0.754   4.561 -0.7241 -0.5547 -1.2141
 5286SOL     OW27490   3.109   2.293   8.316  0.0991 -0.4203  0.3199
 5286SOL    HW127491   3.063   2.217   8.353 -0.3951 -1.3209 -2.1222
 5286SOL    HW227492   3.073   2.309   8.228 -0.2304 -0.6325  0.4161
 5287SOL     OW27493   4.170   0.239   8.424 -0.6589 -0.0495 -0.4051
 5287SOL    HW127494   4.149   0.320   8.378  1.8741  1.0413  0.3385
 5287SOL    HW227495   4.236   0.270   8.486  1.2035  1.5281 -3.2041
 5288SOL     OW27496   3.081   1.642   3.684  0.3779  0.0729  0.3697
 5288SOL    HW127497   3.144   1.604   3.623 -0.3433  1.0753 -0.9964
 5288SOL    HW227498   3.021   1.569   3.696  0.7942 -0.3524 -0.1670
 5289SOL     OW27499   0.671   3.748   5.011  0.7233 -0.3986 -0.5113
 5289SOL    HW127500   0.642   3.823   5.063  0.0753 -0.7690 -0.3390
 5289SOL    HW227501   0.708   3.683   5.071 -3.6229 -0.1482  2.5029
 5290SOL     OW27502   2.574   3.356   3.397 -0.4870  0.2870  0.1103
 5290SOL    HW127503   2.505   3.349   3.463 -1.0440  0.5505 -0.4407
 5290SOL    HW227504   2.532   3.388   3.318 -1.1169  0.6479  0.5913
 5291SOL     OW27505   2.590   4.689  12.479  0.3239 -0.0365  0.1005
 5291SOL    HW127506   2.668   4.677  12.533 -0.2803 -0.3562  0.9159
 5291SOL    HW227507   2.532   4.621  12.514  2.0449  0.6305  4.3136
 5292SOL     OW27508   2.198   3.880   7.306 -0.3044  0.1113 -0.6613
 5292SOL    HW127509   2.138   3.931   7.361  1.1752  1.6859 -0.5099
 5292SOL    HW227510   2.257   3.850   7.375 -1.7164  1.4151  1.1303
 5293SOL     OW27511   0.476   0.555   6.271  0.4419 -0.3358 -0.1096
 5293SOL    HW127512   0.529   0.630   6.296 -0.3426  0.4405 -0.7780
 5293SOL    HW227513   0.533   0.515   6.206 -0.4020  0.1134 -1.1313
 5294SOL     OW27514   3.242   3.618   2.553  0.4842  0.0320  0.3364
 5294SOL    HW127515   3.285   3.650   2.474  0.5086  1.7849  1.0712
 5294SOL    HW227516   3.300   3.543   2.570  0.1019 -0.1453  0.8537
 5295SOL     OW27517   1.289   4.210   9.924  0.4231 -0.3281  0.0420
 5295SOL    HW127518   1.202   4.204   9.964  1.8636 -3.2943  2.6676
 5295SOL    HW227519   1.336   4.238  10.003  0.9871  0.4432 -0.5622
 5296SOL     OW27520   3.688   3.425   9.341 -0.0240  0.2750 -0.5319
 5296SOL    HW127521   3.683   3.336   9.306  1.4620  0.5717 -1.4949
 5296SOL    HW227522   3.604   3.462   9.314  0.9233  2.7353 -0.1039
 5297SOL     OW27523   0.937   3.661   8.803 -0.4696 -0.5106 -0.4016
 5297SOL    HW127524   0.934   3.614   8.719  0.3023 -0.8377 -0.2490
 5297SOL    HW227525   0.994   3.604   8.855 -0.3784  1.1686  1.3346
 5298SOL     OW27526   1.353   3.693   4.290  0.1265  0.4429 -0.9527
 5298SOL    HW127527   1.259   3.690   4.310  0.0171  1.8701 -1.2312
 5298SOL    HW227528   1.366   3.601   4.265  0.2505 -0.3295  1.9673
 5299SOL     OW27529   3.865   4.589  12.141 -0.5560 -0.4543  0.2153
 5299SOL    HW127530   3.787   4.537  12.124 -0.8413  0.3988 -1.0574
 5299SOL    HW227531   3.924   4.524  12.181 -1.4180 -0.9788  0.6415
 5300SOL     OW27532   1.397   3.441  17.397 -0.1724  0.4324 -0.0801
 5300SOL    HW127533   1.437   3.524  17.370 -3.3478  2.1257  0.3270
 5300SOL    HW227534   1.441   3.416  17.478 -0.0213 -3.2692 -1.3217
 5301SOL     OW27535   3.185   1.346   0.067 -0.1540  0.3500 -0.4555
 5301SOL    HW127536   3.224   1.301  17.728  0.3119  0.9474 -0.5702
 5301SOL    HW227537   3.113   1.394   0.026 -0.0295  0.9810  0.0681
 5302SOL     OW27538   4.325   3.095   1.929 -0.0353 -0.2414  0.3113
 5302SOL    HW127539   4.368   3.160   1.873  2.7680 -1.0628  1.5285
 5302SOL    HW227540   4.398   3.038   1.952 -0.5221 -1.2445 -0.6452
 5303SOL     OW27541   2.474   3.378   3.059  0.3335 -0.6324 -0.5935
 5303SOL    HW127542   2.510   3.358   2.972  0.4213  0.1056 -0.7286
 5303SOL    HW227543   2.438   3.293   3.083 -0.8654  0.3859  1.1465
 5304SOL     OW27544   3.577   4.667  17.040 -0.3628  0.3930 -0.3345
 5304SOL    HW127545   3.663   4.692  17.007 -0.3642 -0.5625 -1.0593
 5304SOL    HW227546   3.605   4.668  17.132  0.3674 -0.4153 -0.5402
 5305SOL     OW27547   1.715   4.493  12.699 -0.2540 -0.6025 -0.2398
 5305SOL    HW127548   1.695   4.402  12.720 -0.8383 -0.2027  0.9212
 5305SOL    HW227549   1.648   4.520  12.636 -0.5461  1.2239  0.8484
 5306SOL     OW27550   2.608   4.008  11.188  0.6540 -0.1967  0.3290
 5306SOL    HW127551   2.526   3.982  11.146  0.8689  1.4063 -1.1142
 5306SOL    HW227552   2.609   3.943  11.258  0.4814 -0.3180  0.2209
 5307SOL     OW27553   2.163   2.600   5.961 -0.2423 -0.7323  0.3010
 5307SOL    HW127554   2.243   2.630   6.004  0.1168 -0.4154 -0.5656
 5307SOL    HW227555   2.114   2.677   5.932 -0.5107 -1.1082 -0.2656
 5308SOL     OW27556   1.807   3.280   0.907 -0.2471  0.3117 -0.2366
 5308SOL    HW127557   1.794   3.320   0.821  0.3694  0.0512 -0.4461
 5308SOL    HW227558   1.902   3.274   0.906 -0.1199  2.4291 -0.7190
 5309SOL     OW27559   3.859   3.834   2.058 -0.0375 -0.6527 -0.1501
 5309SOL    HW127560   3.909   3.896   2.112  0.7842  0.8395 -2.6374
 5309SOL    HW227561   3.788   3.891   2.028 -0.3281 -0.2767  1.2253
 5310SOL     OW27562   1.224   3.308   3.658 -0.2284  0.4345 -0.2627
 5310SOL    HW127563   1.137   3.337   3.631 -0.6210 -0.2478  0.2547
 5310SOL    HW227564   1.284   3.355   3.599  2.1317 -1.5503  0.5305
 5311SOL     OW27565   3.947   0.914   7.769 -0.1387  0.5586 -0.1647
 5311SOL    HW127566   3.999   0.862   7.830 -1.8196 -0.7593  0.1537
 5311SOL    HW227567   3.930   0.841   7.709 -0.2832  1.1101 -0.7936
 5312SOL     OW27568   3.746   1.066   5.530  0.6468 -0.1109 -0.5223
 5312SOL    HW127569   3.817   1.050   5.468  2.1639  1.0165  0.9164
 5312SOL    HW227570   3.742   0.974   5.559 -0.8068 -0.1508 -0.8643
 5313SOL     OW27571   1.752   2.390   1.708 -0.8288 -0.6727  0.6212
 5313SOL    HW127572   1.748   2.300   1.674  0.1985 -0.4662 -0.0388
 5313SOL    HW227573   1.703   2.446   1.648 -0.7728 -2.1407 -0.7943
 5314SOL     OW27574   1.061   4.224   8.214  0.5090  0.4063 -0.1307
 5314SOL    HW127575   1.113   4.305   8.212  1.6264 -0.3237 -0.3986
 5314SOL    HW227576   0.990   4.243   8.153 -1.9780  1.1280  2.9530
 5315SOL     OW27577   2.930   2.726   6.265 -0.3385  0.4798 -0.1488
 5315SOL    HW127578   2.883   2.714   6.183 -0.4900  2.6276 -0.3546
 5315SOL    HW227579   3.003   2.780   6.237  0.6302 -0.6159  0.2457
 5316SOL     OW27580   3.425   2.017  15.179 -0.1572  0.2167 -1.0009
 5316SOL    HW127581   3.345   1.994  15.227  0.6616  1.8733  1.2065
 5316SOL    HW227582   3.415   1.939  15.126 -2.3519  0.5442 -1.0775
 5317SOL     OW27583   2.349   1.326   5.739 -0.5595 -0.1471  0.3541
 5317SOL    HW127584   2.283   1.382   5.698 -2.0922 -1.1774  1.4681
 5317SOL    HW227585   2.352   1.355   5.830  0.2017  2.3704 -0.4615
 5318SOL     OW27586   0.969   3.314   2.955 -0.2124  0.5230  0.4934
 5318SOL    HW127587   0.921   3.342   3.033 -1.7614  1.8642 -0.9456
 5318SOL    HW227588   0.902   3.261   2.911  0.9533 -0.4301 -0.1204
 5319SOL     OW27589   2.942   4.467   2.329 -0.6298 -0.0458  0.2021
 5319SOL    HW127590   3.000   4.439   2.259 -0.1110  2.0046 -0.1958
 5319SOL    HW227591   2.990   4.432   2.404 -0.3545  2.5490  1.2295
 5320SOL     OW27592   3.523   4.475   7.539 -0.6181 -0.3071 -0.0003
 5320SOL    HW127593   3.594   4.468   7.604 -1.9119 -0.8931  1.3526
 5320SOL    HW227594   3.453   4.511   7.593  1.7384 -1.3174  3.7618
 5321SOL     OW27595   3.505   1.815   2.186  0.0622  0.5732 -0.6345
 5321SOL    HW127596   3.453   1.862   2.120 -0.1094  1.7284  0.3399
 5321SOL    HW227597   3.538   1.882   2.246 -0.1392  0.2010 -0.1102
 5322SOL     OW27598   2.862   0.605  13.680  0.8523 -0.2362  0.3934
 5322SOL    HW127599   2.911   0.611  13.598  0.1179 -1.4590 -0.1471
 5322SOL    HW227600   2.827   0.516  13.678 -0.2911  0.2134  0.3797
 5323SOL     OW27601   3.950   0.223   5.053 -0.1507  0.3466 -0.4213
 5323SOL    HW127602   4.010   0.178   4.995 -1.2965 -0.7676 -0.7186
 5323SOL    HW227603   3.943   0.302   4.999  2.2982 -1.0794 -2.8036
 5324SOL     OW27604   0.462   0.935  14.259  0.0767 -0.2515 -0.0278
 5324SOL    HW127605   0.374   0.900  14.277 -1.5001  3.1611 -1.2524
 5324SOL    HW227606   0.462   0.908  14.167 -3.4922 -1.7937  0.4118
 5325SOL     OW27607   3.239   2.796  13.245  0.5801 -0.5181  0.4794
 5325SOL    HW127608   3.310   2.856  13.266 -1.1600  1.1251  1.7460
 5325SOL    HW227609   3.168   2.856  13.220  0.0587 -0.5143  1.9771
 5326SOL     OW27610   4.154   4.377   1.971  0.4852  0.1937 -0.0434
 5326SOL    HW127611   4.247   4.382   1.993  0.1876  0.4302  1.1322
 5326SOL    HW227612   4.165   4.388   1.877 -1.6557  2.1122 -0.0670
 5327SOL     OW27613   1.233   1.912   3.123 -0.0224 -0.2624  0.3137
 5327SOL    HW127614   1.266   1.970   3.054 -0.0787 -2.5727 -1.6422
 5327SOL    HW227615   1.316   1.899   3.168  0.6704 -1.4599 -1.3023
 5328SOL     OW27616   3.667   0.658   2.212  0.5639 -0.3225  0.1888
 5328SOL    HW127617   3.601   0.714   2.253  1.2908  1.8981 -1.7067
 5328SOL    HW227618   3.702   0.606   2.285 -1.1031 -0.8268  0.6283
 5329SOL     OW27619   4.496   2.722  14.999  0.5827 -0.1578 -0.2239
 5329SOL    HW127620   4.434   2.733  14.927  1.7972  1.8557 -0.9562
 5329SOL    HW227621   4.433   2.705  15.068  0.2416  1.9244 -0.0111
 5330SOL     OW27622   3.529   4.274  12.758  0.6444 -0.3634 -0.4543
 5330SOL    HW127623   3.525   4.362  12.720 -0.4876  0.3368  1.2778
 5330SOL    HW227624   3.492   4.224  12.686  0.2764  0.6947 -1.0052
 5331SOL     OW27625   3.100   1.424  13.634  0.5257 -0.9043 -0.1754
 5331SOL    HW127626   3.150   1.505  13.620  0.4828 -0.8383  0.0467
 5331SOL    HW227627   3.008   1.451  13.640  0.8757  0.8462 -2.6465
 5332SOL     OW27628   0.195   1.443   5.508 -0.2410 -0.0448  0.1529
 5332SOL    HW127629   0.149   1.511   5.460  1.5160  1.7004  0.9362
 5332SOL    HW227630   0.253   1.490   5.568 -1.3978 -0.5165  1.6200
 5333SOL     OW27631   1.286   2.866   8.728 -0.4002  0.0899  0.4000
 5333SOL    HW127632   1.346   2.940   8.731  0.9458 -0.8991 -1.5453
 5333SOL    HW227633   1.346   2.807   8.683  0.1232  1.0428 -0.1625
 5334SOL     OW27634   2.305   0.804   7.955 -0.3479  0.4078 -0.4643
 5334SOL    HW127635   2.222   0.833   7.995 -0.5269  0.0708 -0.5904
 5334SOL    HW227636   2.340   0.754   8.030 -0.7552 -0.2517 -0.7098
 5335SOL     OW27637   2.385   3.040   5.290  0.0081 -0.4802  0.3822
 5335SOL    HW127638   2.436   3.102   5.239  0.2386 -1.0754 -0.1120
 5335SOL    HW227639   2.321   3.102   5.325  3.0444  2.9826 -0.2585
 5336SOL     OW27640   2.611   2.328   9.968  0.4694 -0.1896 -0.1187
 5336SOL    HW127641   2.602   2.393  10.037 -0.6941 -1.2576  0.7507
 5336SOL    HW227642   2.555   2.256   9.998  0.1372  0.0065 -0.2620
 5337SOL     OW27643   2.059   0.632   3.646  0.1100 -0.5252  0.1139
 5337SOL    HW127644   2.142   0.671   3.618  0.2948 -0.6636  0.4689
 5337SOL    HW227645   2.057   0.549   3.599  2.4477  0.1240 -1.1205
 5338SOL     OW27646   3.536   2.348   5.257 -0.2884 -0.1355  0.8280
 5338SOL    HW127647   3.497   2.433   5.233  0.1437 -0.9218 -2.6653
 5338SOL    HW227648   3.471   2.319   5.322 -0.3007 -0.7142  0.5555
 5339SOL     OW27649   3.119   2.560  10.152  0.4673 -0.4645  0.2606
 5339SOL    HW127650   3.142   2.569  10.244  0.0276  0.3360  0.2982
 5339SOL    HW227651   3.084   2.647  10.133 -0.5614 -0.8564  0.3538
 5340SOL     OW27652   1.800   0.945  13.638 -0.0709  0.7152  0.0218
 5340SOL    HW127653   1.791   0.983  13.551 -1.2202  0.8025  0.1715
 5340SOL    HW227654   1.710   0.956  13.671 -0.0423 -1.7388  0.8672
 5341SOL     OW27655   0.581   3.590  10.637  0.0462  0.1215 -0.4121
 5341SOL    HW127656   0.532   3.599  10.719 -0.7039  1.0598 -0.9742
 5341SOL    HW227657   0.512   3.563  10.577 -1.0296 -0.4677  1.0919
 5342SOL     OW27658   1.210   0.511   5.059  0.6717  0.2683 -0.1846
 5342SOL    HW127659   1.142   0.446   5.043  0.1751  0.5547  0.7576
 5342SOL    HW227660   1.273   0.491   4.991 -0.6880  0.4107 -1.4962
 5343SOL     OW27661   0.085   4.443  14.033 -0.2867 -0.2246 -0.2445
 5343SOL    HW127662   0.012   4.485  14.079  1.2490  0.1943  1.8188
 5343SOL    HW227663   0.083   4.357  14.074  0.8363 -0.1564 -0.0514
 5344SOL     OW27664   0.480   3.152   2.470 -0.2132  0.0230 -0.2979
 5344SOL    HW127665   0.464   3.114   2.557 -0.5056  0.6519 -0.0706
 5344SOL    HW227666   0.414   3.222   2.466  0.6499  0.8218 -0.6386
 5345SOL     OW27667   3.397   2.429   7.163 -0.4601  0.1477 -0.4935
 5345SOL    HW127668   3.389   2.517   7.198 -1.3036  0.2218 -0.8756
 5345SOL    HW227669   3.425   2.454   7.075 -1.0677 -1.2325 -1.0825
 5346SOL     OW27670   0.225   2.583   7.018 -0.2065  0.4532  0.3656
 5346SOL    HW127671   0.195   2.657   7.069 -0.1223  0.0133  1.0518
 5346SOL    HW227672   0.166   2.587   6.943  1.3330 -0.6349 -0.9316
 5347SOL     OW27673   0.777   1.050  15.894 -0.1209  0.2869  0.2508
 5347SOL    HW127674   0.870   1.068  15.912 -0.0655  0.9031 -0.6586
 5347SOL    HW227675   0.758   0.982  15.959  3.4518 -0.7827  0.2001
 5348SOL     OW27676   4.303   0.488   0.354 -0.1510 -0.2005 -0.2915
 5348SOL    HW127677   4.372   0.532   0.304 -0.3624 -0.1389 -0.5310
 5348SOL    HW227678   4.218   0.525   0.329 -0.7575 -1.8446 -0.6826
 5349SOL     OW27679   4.535   2.826   9.124  0.3662 -0.1765  0.1689
 5349SOL    HW127680   4.609   2.770   9.099  0.2160 -0.9103  1.4229
 5349SOL    HW227681   4.570   2.892   9.184 -1.1771 -0.4593  1.3603
 5350SOL     OW27682   0.548   0.064   3.604  0.1709 -0.7323  0.1265
 5350SOL    HW127683   0.518   0.144   3.560 -0.8643 -1.3652 -0.3193
 5350SOL    HW227684   0.496   0.048   3.683  2.2484 -0.8279  1.4722
 5351SOL     OW27685   1.288   0.547  13.430 -0.3890  0.3708  0.5934
 5351SOL    HW127686   1.354   0.598  13.476 -0.6154  0.7194  0.5327
 5351SOL    HW227687   1.343   0.514  13.358  0.1575  2.9727 -0.1621
 5352SOL     OW27688   3.796   2.636   5.979  0.1295  0.1403  0.1374
 5352SOL    HW127689   3.782   2.730   5.975 -0.4867 -0.0205 -1.6221
 5352SOL    HW227690   3.707   2.603   5.988 -1.4684  4.7330  0.9217
 5353SOL     OW27691   3.720   1.367   7.509  0.1650 -0.6918 -0.2222
 5353SOL    HW127692   3.727   1.277   7.540 -1.6848 -0.8226 -0.2142
 5353SOL    HW227693   3.812   1.379   7.486 -0.2962  0.1432 -1.6661
 5354SOL     OW27694   0.568   1.068  15.505  0.4287 -0.1712  0.7922
 5354SOL    HW127695   0.655   1.107  15.500  1.0713 -2.1724 -4.0044
 5354SOL    HW227696   0.515   1.143  15.479 -1.7326 -1.4626  1.3886
 5355SOL     OW27697   2.378   3.745   7.457 -0.3594  0.8226 -0.0971
 5355SOL    HW127698   2.441   3.742   7.385 -1.2407 -0.7223 -0.7906
 5355SOL    HW227699   2.398   3.668   7.509  0.1364  1.1845  0.2533
 5356SOL     OW27700   1.013   3.085   9.042  0.1891 -0.3610  0.1607
 5356SOL    HW127701   1.031   3.174   9.013 -0.4523 -0.6212 -1.0048
 5356SOL    HW227702   1.097   3.045   9.017  1.1981  2.5413 -1.0517
 5357SOL     OW27703   1.335   3.241   4.807 -0.2022  0.3913 -0.1922
 5357SOL    HW127704   1.309   3.245   4.715  2.8578  3.2765 -0.9411
 5357SOL    HW227705   1.309   3.155   4.842  0.1337 -0.0110 -0.9417
 5358SOL     OW27706   1.289   0.959   7.396 -0.0124 -0.0598 -0.3086
 5358SOL    HW127707   1.356   0.933   7.333  0.5808  1.5077 -0.3046
 5358SOL    HW227708   1.344   0.986   7.469 -0.4814  0.4977 -0.1642
 5359SOL     OW27709   2.544   3.116  10.742  0.3119 -0.2538 -0.2088
 5359SOL    HW127710   2.610   3.112  10.811  1.5414  1.9711 -1.2428
 5359SOL    HW227711   2.580   3.189  10.691 -2.1781  0.7013 -0.5884
 5360SOL     OW27712   0.407   0.481   0.501 -0.0832 -0.4831 -0.1529
 5360SOL    HW127713   0.413   0.554   0.439  1.2852  0.0407  0.5780
 5360SOL    HW227714   0.499   0.473   0.527  0.5833  2.2984 -1.6875
 5361SOL     OW27715   0.941   3.885   9.631 -0.3899  0.0489 -0.3921
 5361SOL    HW127716   1.011   3.926   9.681 -0.9680  2.7241 -1.7642
 5361SOL    HW227717   0.991   3.826   9.574 -1.4862 -0.9576 -0.3127
 5362SOL     OW27718   0.057   0.125   6.026  0.3724 -0.0470 -0.1749
 5362SOL    HW127719   0.102   0.080   6.097  1.1780 -2.1960 -2.0539
 5362SOL    HW227720   0.125   0.136   5.959 -1.3853  0.4366 -1.8925
 5363SOL     OW27721   3.628   0.586  12.865 -0.0969  0.1706 -0.2876
 5363SOL    HW127722   3.605   0.565  12.775 -0.3707 -0.5141 -0.0562
 5363SOL    HW227723   3.609   0.502  12.907 -0.2896  1.2351  1.7456
 5364SOL     OW27724   2.698   4.533   4.800 -0.0272 -0.1665 -0.7591
 5364SOL    HW127725   2.719   4.451   4.845  1.4365 -0.4431 -1.9678
 5364SOL    HW227726   2.621   4.568   4.846  0.4288 -1.1009  0.7176
 5365SOL     OW27727   3.663   2.509   8.413 -0.3387 -0.8462 -0.1280
 5365SOL    HW127728   3.710   2.470   8.487  1.8748  0.1285 -1.0163
 5365SOL    HW227729   3.590   2.551   8.458 -0.5853  1.0776 -2.2924
 5366SOL     OW27730   3.173   2.511   1.469 -0.1234 -0.0138 -0.1364
 5366SOL    HW127731   3.109   2.548   1.407  1.5720  3.7730  0.3648
 5366SOL    HW227732   3.199   2.585   1.525  0.3271  0.0355 -0.4146
 5367SOL     OW27733   2.521   2.376  12.648  0.8647  0.6740 -0.5551
 5367SOL    HW127734   2.550   2.332  12.568  0.5796  0.2792 -0.4386
 5367SOL    HW227735   2.507   2.465  12.616  0.9702  1.2361  0.9277
 5368SOL     OW27736   4.217   3.578   7.595 -0.0562 -0.2769  0.5310
 5368SOL    HW127737   4.126   3.607   7.595  0.0473  0.0470  1.1463
 5368SOL    HW227738   4.261   3.654   7.632 -0.6207 -0.2188  1.0959
 5369SOL     OW27739   2.331   4.411   9.866 -0.1560 -0.1763 -0.2303
 5369SOL    HW127740   2.293   4.325   9.847  0.7978 -0.7875  0.5882
 5369SOL    HW227741   2.275   4.468   9.813 -0.5728 -0.8733 -0.5414
 5370SOL     OW27742   2.707   0.997   6.227  0.0587 -0.0776  0.1420
 5370SOL    HW127743   2.671   1.046   6.301  1.2132 -1.8210  1.8774
 5370SOL    HW227744   2.796   0.984   6.259 -0.1552  2.6830  1.8280
 5371SOL     OW27745   1.558   1.949   0.220  0.0012  0.0144 -0.7779
 5371SOL    HW127746   1.526   1.967   0.132  0.2056  0.4611 -0.7587
 5371SOL    HW227747   1.540   2.035   0.257  1.5781  0.1390 -0.3073
 5372SOL     OW27748   1.076   2.569  14.399 -0.0317 -0.0337  0.2312
 5372SOL    HW127749   1.029   2.562  14.316 -0.0160  0.4010  0.1891
 5372SOL    HW227750   1.083   2.664  14.410  2.6381  0.0190 -1.8906
 5373SOL     OW27751   3.822   0.166  15.636 -0.4444 -0.3333 -0.5030
 5373SOL    HW127752   3.863   0.249  15.661 -0.6049 -0.7585  1.1710
 5373SOL    HW227753   3.893   0.128  15.584  0.6402  2.5482 -1.1764
 5374SOL     OW27754   2.044   3.177   4.690  0.3613  0.4322 -0.1240
 5374SOL    HW127755   2.012   3.142   4.773 -0.2130 -0.8081 -0.8668
 5374SOL    HW227756   2.112   3.233   4.728 -0.0487  0.1758  0.9977
 5375SOL     OW27757   0.503   1.198  10.882  0.6338 -0.0997  0.5307
 5375SOL    HW127758   0.489   1.266  10.948  2.8017 -0.7947  1.7264
 5375SOL    HW227759   0.543   1.255  10.816  2.1646 -1.1630  0.5359
 5376SOL     OW27760   2.680   3.677  15.591  0.6864  0.2704  0.1001
 5376SOL    HW127761   2.746   3.639  15.533  1.5304  1.5568  0.2145
 5376SOL    HW227762   2.613   3.609  15.599  3.4324 -2.5697 -1.2297
 5377SOL     OW27763   2.411   3.485  12.588  0.2104 -0.6246 -0.9761
 5377SOL    HW127764   2.472   3.513  12.519 -0.0173 -0.6850 -1.1996
 5377SOL    HW227765   2.321   3.475  12.558  0.6082 -0.1254 -2.3427
 5378SOL     OW27766   0.074   1.189  17.643 -0.4012 -0.2089 -0.2310
 5378SOL    HW127767   0.040   1.104  17.615 -0.4835 -0.8805  1.9136
 5378SOL    HW227768   0.162   1.168  17.674  0.0980  1.3665 -0.5802
 5379SOL     OW27769   0.166   3.106  16.888 -0.2228 -0.3778 -0.5900
 5379SOL    HW127770   0.137   3.104  16.797 -0.4772 -0.5045 -0.5075
 5379SOL    HW227771   0.100   3.165  16.924  0.8840  0.7136 -0.3573
 5380SOL     OW27772   2.876   1.540   8.710  0.2967  0.1405 -0.2170
 5380SOL    HW127773   2.841   1.466   8.760  2.3925 -0.2618  0.6216
 5380SOL    HW227774   2.937   1.496   8.650  2.1649 -0.4394  2.1285
 5381SOL     OW27775   4.588   1.927  14.498 -0.1836 -0.2587  0.2576
 5381SOL    HW127776   4.592   1.867  14.573 -0.3979 -1.1469 -0.4474
 5381SOL    HW227777   4.508   1.900  14.453 -0.1358  0.0291  0.0036
 5382SOL     OW27778   1.555   2.619   4.939 -0.5482 -0.0084  0.4917
 5382SOL    HW127779   1.495   2.582   5.003  0.5909  1.1818  2.2560
 5382SOL    HW227780   1.632   2.627   4.995  0.6305 -0.3732 -1.0544
 5383SOL     OW27781   0.580   0.006   5.998 -0.0266 -0.1068  0.0890
 5383SOL    HW127782   0.550   0.022   5.909  1.5906  1.8323 -0.1085
 5383SOL    HW227783   0.511   4.688   6.039  0.1520 -1.2741 -1.1132
 5384SOL     OW27784   0.840   1.170   7.005 -0.6273  0.6540  0.2795
 5384SOL    HW127785   0.869   1.257   7.030  2.5570 -0.4783  0.4695
 5384SOL    HW227786   0.925   1.127   7.007 -1.8204 -1.7099  0.9048
 5385SOL     OW27787   2.184   0.286  14.835 -0.1877 -0.0449  0.2589
 5385SOL    HW127788   2.134   0.216  14.877  0.9233 -1.3575 -0.6113
 5385SOL    HW227789   2.123   0.360  14.834 -1.6983 -1.2716  1.5955
 5386SOL     OW27790   0.650   0.729  10.076  0.0121 -0.0022  0.3038
 5386SOL    HW127791   0.708   0.775  10.015 -0.2627 -1.5720 -1.1519
 5386SOL    HW227792   0.708   0.677  10.132  0.2503 -0.4076 -0.3117
 5387SOL     OW27793   4.149   4.080   9.183 -0.0415  0.2618  0.3075
 5387SOL    HW127794   4.125   4.142   9.116 -0.4333  0.2260  0.4173
 5387SOL    HW227795   4.060   4.072   9.217  0.0287  1.0244  0.6618
 5388SOL     OW27796   1.851   0.961  12.998  0.2125  0.1950  0.4096
 5388SOL    HW127797   1.813   1.046  12.978 -1.9231 -0.6496  0.8481
 5388SOL    HW227798   1.777   0.903  13.016  0.0157 -0.0574 -1.2295
 5389SOL     OW27799   3.263   4.396   9.430  0.0312  0.2168  0.0208
 5389SOL    HW127800   3.219   4.348   9.360 -1.2742  0.9536  0.3444
 5389SOL    HW227801   3.183   4.435   9.464  0.2153 -0.8630  1.6394
 5390SOL     OW27802   2.555   2.127   3.726  0.1777 -0.0823  0.1992
 5390SOL    HW127803   2.546   2.185   3.650  0.9426 -0.9863 -0.5717
 5390SOL    HW227804   2.481   2.067   3.727  0.8162 -0.8975 -1.1671
 5391SOL     OW27805   1.166   4.176   9.062  0.4556  0.6532  0.3240
 5391SOL    HW127806   1.131   4.200   8.976  0.3386 -1.0544 -0.0972
 5391SOL    HW227807   1.190   4.088   9.032 -1.3174  0.5988 -0.9189
 5392SOL     OW27808   0.230   2.490   8.828  0.3677 -0.4517  0.4742
 5392SOL    HW127809   0.305   2.460   8.776  1.5748  0.5185  1.6752
 5392SOL    HW227810   0.280   2.544   8.889  0.6043 -0.5605  0.3767
 5393SOL     OW27811   3.368   3.498   2.267 -0.0073  0.2298 -0.6009
 5393SOL    HW127812   3.305   3.568   2.253  0.7705  0.3952 -3.2194
 5393SOL    HW227813   3.307   3.431   2.235 -0.9996  1.1753 -0.6690
 5394SOL     OW27814   2.802   1.427   4.267  0.2583  0.1935  0.3402
 5394SOL    HW127815   2.804   1.518   4.238 -2.2541  0.1460 -0.0090
 5394SOL    HW227816   2.842   1.386   4.190  1.0961  1.9470 -0.1373
 5395SOL     OW27817   0.236   1.149   7.374 -0.2197 -0.8791  0.5543
 5395SOL    HW127818   0.303   1.080   7.379  0.8005  0.1243  0.8552
 5395SOL    HW227819   0.184   1.113   7.302  1.7345 -0.5340 -1.0610
 5396SOL     OW27820   3.209   2.600   8.818 -0.5726  0.8742 -0.4427
 5396SOL    HW127821   3.136   2.662   8.824 -1.1833  0.3021 -1.8757
 5396SOL    HW227822   3.260   2.651   8.754  1.2962  1.3370  1.4253
 5397SOL     OW27823   2.592   3.096   1.752 -0.1509 -0.3648  0.5335
 5397SOL    HW127824   2.644   3.032   1.800 -0.0097 -1.5773 -1.2192
 5397SOL    HW227825   2.517   3.044   1.723  0.0414 -0.5424  0.3543
 5398SOL     OW27826   0.264   1.944  15.131  0.6546  0.3202  0.6326
 5398SOL    HW127827   0.224   2.022  15.092  0.2926  0.0522  0.4708
 5398SOL    HW227828   0.351   1.956  15.093 -0.2592  0.0790 -1.5517
 5399SOL     OW27829   1.386   4.206   8.322 -0.0280  0.0175  0.7066
 5399SOL    HW127830   1.409   4.121   8.286 -1.7841  0.0850 -0.5432
 5399SOL    HW227831   1.331   4.244   8.254  1.1841 -3.0661 -1.9771
 5400SOL     OW27832   4.261   1.736   9.592  0.4945  0.7551 -0.1236
 5400SOL    HW127833   4.240   1.687   9.512 -0.8747  0.4178  0.4294
 5400SOL    HW227834   4.355   1.749   9.587  0.3633  1.6785 -0.1962
 5401SOL     OW27835   1.318   1.188   7.080  0.2099 -0.8884  0.6170
 5401SOL    HW127836   1.347   1.201   6.989 -1.2263 -0.2423  0.2610
 5401SOL    HW227837   1.406   1.203   7.116  0.7669 -2.0796 -0.2427
 5402SOL     OW27838   2.315   3.530   8.100  0.0911  0.1441 -0.7241
 5402SOL    HW127839   2.279   3.444   8.117  0.5158  0.4095  1.5103
 5402SOL    HW227840   2.347   3.504   8.013 -1.1834 -0.7368 -0.9138
 5403SOL     OW27841   4.155   2.506   5.437  0.2070 -0.2473 -0.3593
 5403SOL    HW127842   4.245   2.491   5.466  0.7263  1.8615 -0.8770
 5403SOL    HW227843   4.102   2.455   5.499 -0.1666  0.0539 -0.4341
 5404SOL     OW27844   2.520   0.972   7.856 -0.0779 -0.3010  0.2577
 5404SOL    HW127845   2.546   1.061   7.882 -2.0564  0.4842 -0.4710
 5404SOL    HW227846   2.432   0.967   7.893  0.4961 -2.1699  1.3594
 5405SOL     OW27847   2.016   2.467   1.048  0.0283  0.1875 -0.0375
 5405SOL    HW127848   2.066   2.433   1.122  0.7220  2.2903  0.4552
 5405SOL    HW227849   2.073   2.532   1.007 -1.0358  0.2674 -1.3934
 5406SOL     OW27850   3.446   3.371   4.750  0.4536 -0.2686  0.5052
 5406SOL    HW127851   3.435   3.400   4.659 -0.3435  0.7080  0.9023
 5406SOL    HW227852   3.469   3.453   4.795 -0.0606  0.5037 -0.6197
 5407SOL     OW27853   0.031   1.425   5.092 -0.5719  0.3691 -0.0682
 5407SOL    HW127854   0.049   1.431   4.999 -0.8589 -0.0526 -0.1516
 5407SOL    HW227855   0.058   1.333   5.098  2.3500  1.1463 -1.6455
 5408SOL     OW27856   3.378   4.652   5.555  0.1814  0.2835  0.4677
 5408SOL    HW127857   3.471   4.677   5.559  0.3346  0.2065 -2.4395
 5408SOL    HW227858   3.389   4.565   5.593 -2.1924  0.1829  0.9014
 5409SOL     OW27859   0.456   2.963   7.935 -0.0192 -0.3095 -0.1093
 5409SOL    HW127860   0.402   2.885   7.927 -2.1143  1.0695  0.6107
 5409SOL    HW227861   0.515   2.956   7.860 -0.0502  0.6429 -0.2211
 5410SOL     OW27862   3.345   1.157   4.334  0.1617  0.4274 -0.3181
 5410SOL    HW127863   3.259   1.155   4.376  0.3565  0.9565  0.1029
 5410SOL    HW227864   3.328   1.205   4.253  1.2694  0.5384 -0.4746
 5411SOL     OW27865   0.739   1.703   7.026  0.6346  0.2174  0.1008
 5411SOL    HW127866   0.644   1.713   7.025  0.7114  0.9612 -0.0938
 5411SOL    HW227867   0.748   1.609   7.013  0.5893  0.3235 -0.6888
 5412SOL     OW27868   4.220   3.781   6.370 -0.3701  0.3984  0.1787
 5412SOL    HW127869   4.127   3.795   6.352  0.0349  1.3827 -1.1367
 5412SOL    HW227870   4.263   3.842   6.310  0.2415  1.6680  1.9198
 5413SOL     OW27871   2.493   4.475   2.926 -0.4650 -0.0319  0.0519
 5413SOL    HW127872   2.460   4.501   3.012  1.0069 -0.1792  0.6666
 5413SOL    HW227873   2.494   4.556   2.875 -2.4469 -2.9940 -4.7048
 5414SOL     OW27874   0.005   2.986  10.473  1.0640  0.3952 -1.0369
 5414SOL    HW127875   4.656   3.004  10.429 -0.1458 -1.2451  0.5858
 5414SOL    HW227876   0.026   3.079  10.488  0.6975  0.3754 -0.4131
 5415SOL     OW27877   3.253   4.628  12.857  0.0637 -0.2596  0.1359
 5415SOL    HW127878   3.280   4.661  12.943 -0.9912 -0.0427  0.3966
 5415SOL    HW227879   3.340   4.608  12.823 -0.5116  0.9569 -1.9983
 5416SOL     OW27880   1.546   3.949  10.138  0.0284  0.7200  0.1080
 5416SOL    HW127881   1.458   3.955  10.174  0.1016  1.0465  0.2265
 5416SOL    HW227882   1.589   4.007  10.201  0.8128 -1.9626  2.0773
 5417SOL     OW27883   2.907   2.722   5.165  0.7582  0.5548  0.3102
 5417SOL    HW127884   2.862   2.732   5.081 -1.0825  1.5830  1.4334
 5417SOL    HW227885   2.907   2.810   5.202  1.7660  0.6533  0.0645
 5418SOL     OW27886   0.723   3.769   3.146 -0.0670 -0.2779  0.0092
 5418SOL    HW127887   0.696   3.732   3.062 -1.3012  0.3315  0.1406
 5418SOL    HW227888   0.766   3.849   3.116  1.1338 -0.3445  1.5492
 5419SOL     OW27889   2.394   3.906   6.027 -0.1356  0.0794 -0.0741
 5419SOL    HW127890   2.437   3.944   6.104  1.3031  0.9252 -1.2913
 5419SOL    HW227891   2.473   3.865   5.992 -0.0946  2.4360 -2.7393
 5420SOL     OW27892   2.720   1.545   6.210  0.5996  0.3043 -0.2242
 5420SOL    HW127893   2.698   1.576   6.297 -1.1068 -1.3952 -0.0575
 5420SOL    HW227894   2.810   1.513   6.219 -0.1218 -1.0187  2.2044
 5421SOL     OW27895   2.065   0.399   9.059 -0.1328 -0.0323 -0.2047
 5421SOL    HW127896   2.049   0.441   9.143 -1.9265 -0.3847 -0.3736
 5421SOL    HW227897   2.124   0.467   9.027 -0.5370  0.9786  1.2005
 5422SOL     OW27898   2.045   1.641  13.624  0.5652  0.0385 -0.6154
 5422SOL    HW127899   2.057   1.572  13.558  2.5088 -0.1484 -0.0864
 5422SOL    HW227900   1.957   1.678  13.620  0.0503 -1.1705 -0.4491
 5423SOL     OW27901   3.636   0.045   4.571 -0.0468  0.0497 -0.2009
 5423SOL    HW127902   3.676   4.702   4.531 -2.2063 -1.6046  0.7769
 5423SOL    HW227903   3.705   0.110   4.560 -2.7479  2.9771  0.0940
 5424SOL     OW27904   1.523   3.509   6.479  0.3561 -0.0830  0.0461
 5424SOL    HW127905   1.544   3.418   6.499 -0.5914 -0.6000 -1.3063
 5424SOL    HW227906   1.518   3.538   6.570 -1.4753 -0.1540 -0.0316
 5425SOL     OW27907   4.012   3.419   9.013 -0.2774  0.6600 -0.7620
 5425SOL    HW127908   3.949   3.491   9.008 -0.4255  0.5963  0.0639
 5425SOL    HW227909   4.006   3.375   8.929 -0.6350 -0.7758  0.0117
 5426SOL     OW27910   2.731   0.480   2.401  0.4083  0.3418  0.4469
 5426SOL    HW127911   2.788   0.405   2.385  0.1822 -0.1949  2.1550
 5426SOL    HW227912   2.793   0.547   2.372 -0.9399  0.6762 -1.7259
 5427SOL     OW27913   1.756   2.003  16.693  0.1883  0.1688  0.1781
 5427SOL    HW127914   1.790   1.948  16.764 -1.0968 -0.6594  0.1482
 5427SOL    HW227915   1.744   1.943  16.620  1.3938 -0.3694  0.4196
 5428SOL     OW27916   2.168   2.730   4.237 -0.0441  0.3652  0.0937
 5428SOL    HW127917   2.222   2.729   4.316 -0.9795  1.3291  0.7389
 5428SOL    HW227918   2.226   2.758   4.166 -0.2570 -0.6712 -0.4994
 5429SOL     OW27919   0.397   0.220   6.025  0.2650  0.1873 -0.0875
 5429SOL    HW127920   0.349   0.303   6.019  1.5466  0.8311 -1.4041
 5429SOL    HW227921   0.355   0.176   5.951  0.2441  2.1203 -1.2143
 5430SOL     OW27922   3.396   0.502  13.798 -0.1279  0.0164 -0.4162
 5430SOL    HW127923   3.442   0.578  13.833  2.5925 -1.7998 -0.0761
 5430SOL    HW227924   3.410   0.432  13.862  2.3628  0.9962  0.1200
 5431SOL     OW27925   1.802   0.844   8.324 -0.2703  0.3199  0.0436
 5431SOL    HW127926   1.802   0.847   8.420  1.9211 -1.2854  0.1008
 5431SOL    HW227927   1.738   0.774   8.309  0.2461 -0.4675  1.4527
 5432SOL     OW27928   0.525   1.462   9.780  0.0417  0.2623  0.3488
 5432SOL    HW127929   0.447   1.408   9.794 -0.3428  0.5685 -0.6491
 5432SOL    HW227930   0.542   1.476   9.873  0.1268  0.0143  0.3712
 5433SOL     OW27931   2.171   0.915   1.870 -0.5586  0.0439  0.7878
 5433SOL    HW127932   2.196   1.000   1.835  0.4480 -0.1430  1.0507
 5433SOL    HW227933   2.093   0.943   1.917  1.0794  0.4785  3.2081
 5434SOL     OW27934   3.248   2.471   4.757  0.0192 -0.2371  0.2313
 5434SOL    HW127935   3.327   2.521   4.776 -0.6653  1.3418 -1.1235
 5434SOL    HW227936   3.207   2.532   4.696 -0.7978  2.2953  3.3433
 5435SOL     OW27937   2.214   1.791   8.791 -0.0569  0.2435 -0.2708
 5435SOL    HW127938   2.284   1.819   8.850 -0.5085 -0.0620  0.4097
 5435SOL    HW227939   2.141   1.776   8.852 -0.7168  1.4393 -0.7615
 5436SOL     OW27940   0.693   2.228   9.557  0.1067  0.2842 -0.6969
 5436SOL    HW127941   0.658   2.247   9.470 -2.1382 -2.6333 -0.4365
 5436SOL    HW227942   0.618   2.221   9.615 -0.0642 -0.3820 -0.9958
 5437SOL     OW27943   2.115   3.514   4.714  0.1101 -0.0762 -0.1701
 5437SOL    HW127944   2.027   3.544   4.693 -0.4315 -0.1365  1.9787
 5437SOL    HW227945   2.158   3.495   4.631  0.4565 -0.1480  0.0276
 5438SOL     OW27946   1.042   3.849   5.059 -0.3234 -0.1799 -0.8001
 5438SOL    HW127947   1.104   3.913   5.094  2.2514 -1.7827 -2.4043
 5438SOL    HW227948   0.969   3.909   5.045 -0.3280  0.4087  1.7828
 5439SOL     OW27949   3.058   0.391   7.594  0.6651  0.7582  0.1388
 5439SOL    HW127950   3.076   0.352   7.679 -0.1898 -2.5206 -1.1993
 5439SOL    HW227951   3.116   0.466   7.607  2.6901 -0.5004 -1.5567
 5440SOL     OW27952   2.067   0.294  10.128 -0.2641 -0.0287 -0.2862
 5440SOL    HW127953   2.051   0.266  10.218  1.0572  1.4609  0.4142
 5440SOL    HW227954   2.020   0.376  10.138 -0.2691  0.0941 -1.3827
 5441SOL     OW27955   3.088   3.720   4.875  0.0770  0.5706  0.0880
 5441SOL    HW127956   3.010   3.767   4.845 -1.6218 -2.0458  0.4443
 5441SOL    HW227957   3.063   3.705   4.966  1.9251  0.0871  0.5137
 5442SOL     OW27958   1.563   1.717   4.004 -0.0125  0.3899  0.0143
 5442SOL    HW127959   1.614   1.668   3.939 -0.4703 -1.2606  0.9050
 5442SOL    HW227960   1.484   1.663   4.006  1.2831 -1.5858 -2.2441
 5443SOL     OW27961   1.262   0.484   8.310 -0.1056  0.6186 -0.6596
 5443SOL    HW127962   1.287   0.484   8.217  0.0230 -0.5279 -0.6254
 5443SOL    HW227963   1.346   0.483   8.354 -0.7045 -0.9681  0.4618
 5444SOL     OW27964   0.636   3.881   6.549 -1.0501 -0.4280  0.4454
 5444SOL    HW127965   0.712   3.929   6.518 -0.4126  0.6197  3.6792
 5444SOL    HW227966   0.632   3.821   6.474  0.7948 -0.1967  0.1803
 5445SOL     OW27967   0.117   0.151  13.919  0.4892 -0.4913  0.6818
 5445SOL    HW127968   0.024   0.168  13.937  0.4322  0.1574 -0.2149
 5445SOL    HW227969   0.113   0.056  13.925  0.8822 -0.3441  3.0271
 5446SOL     OW27970   3.805   3.507   6.831  0.6251  0.1874 -0.3458
 5446SOL    HW127971   3.811   3.475   6.921 -0.6423 -1.4609 -0.8334
 5446SOL    HW227972   3.775   3.431   6.780 -2.7204 -0.4221  2.4755
 5447SOL     OW27973   3.464   2.573   4.332 -0.3910  0.4401  0.4264
 5447SOL    HW127974   3.500   2.653   4.293 -0.3488  0.8293  1.2489
 5447SOL    HW227975   3.520   2.507   4.290 -0.3789  0.7041  0.0288
 5448SOL     OW27976   3.927   2.025  12.285  0.3729  0.1387  0.1281
 5448SOL    HW127977   3.983   2.092  12.324 -0.3070  0.5453  0.3937
 5448SOL    HW227978   3.971   1.944  12.312  0.0068  0.2760  1.1180
 5449SOL     OW27979   4.425   0.177   4.951 -0.1135 -0.1592 -0.2667
 5449SOL    HW127980   4.435   0.248   5.014 -0.9054 -0.5402  0.2863
 5449SOL    HW227981   4.481   0.116   4.998  2.0813  2.4283  0.4146
 5450SOL     OW27982   3.126   3.202   8.423 -0.0151 -0.6891 -0.0389
 5450SOL    HW127983   3.131   3.187   8.329  1.9024 -2.1466  0.3030
 5450SOL    HW227984   3.088   3.124   8.463 -1.2181  0.8155  1.7474
 5451SOL     OW27985   1.609   0.929  14.070 -0.5549  0.3960  0.2578
 5451SOL    HW127986   1.626   0.839  14.043 -1.8469  0.2043  0.1001
 5451SOL    HW227987   1.592   0.969  13.985  1.8156  2.3954  0.7358
 5452SOL     OW27988   4.420   0.812   4.995  0.3106 -0.6437 -0.1067
 5452SOL    HW127989   4.504   0.782   5.028  1.6010 -0.4384 -3.1773
 5452SOL    HW227990   4.405   0.886   5.054 -0.4257  0.4085 -1.5975
 5453SOL     OW27991   1.692   4.568   3.458  0.3821 -0.1180  0.0787
 5453SOL    HW127992   1.677   4.646   3.404 -2.1958 -1.7473 -1.5525
 5453SOL    HW227993   1.609   4.524   3.440 -0.2179 -0.1569  2.9970
 5454SOL     OW27994   0.615   0.371  12.501 -0.1958  0.1430  0.5293
 5454SOL    HW127995   0.591   0.298  12.445 -1.0436  0.7626  0.0843
 5454SOL    HW227996   0.664   0.422  12.436  0.5021 -1.9741 -0.6138
 5455SOL     OW27997   1.652   2.622  15.840  0.0160  0.1816 -0.1346
 5455SOL    HW127998   1.653   2.618  15.935  2.0964  0.2721 -0.1580
 5455SOL    HW227999   1.573   2.670  15.817 -0.8493 -0.3691  1.7152
 5456SOL     OW28000   4.405   2.478   9.851  0.0568  0.1067  0.0221
 5456SOL    HW128001   4.424   2.448   9.762 -3.5736  1.1532 -1.0867
 5456SOL    HW228002   4.337   2.542   9.830  0.5463  0.4566 -0.5297
 5457SOL     OW28003   3.053   1.827  13.733 -0.1268  0.2427  0.2322
 5457SOL    HW128004   3.030   1.788  13.818 -0.4679 -1.6117 -0.7180
 5457SOL    HW228005   2.987   1.792  13.673 -1.2793  1.0309  1.0443
 5458SOL     OW28006   4.106   4.075  16.286 -0.4936  0.5782 -0.2525
 5458SOL    HW128007   4.012   4.091  16.293 -0.4540 -0.0935  1.6087
 5458SOL    HW228008   4.121   4.026  16.366  0.0236  0.1755 -0.5937
 5459SOL     OW28009   3.775   4.520   9.416  0.0996 -0.3852  0.5081
 5459SOL    HW128010   3.723   4.507   9.337 -0.7072  2.1480  0.5984
 5459SOL    HW228011   3.717   4.586   9.456  0.2455 -0.5296  0.9660
 5460SOL     OW28012   2.929   0.882   3.289  0.3829 -0.0956  0.3900
 5460SOL    HW128013   2.976   0.878   3.206 -0.1480 -0.5257  0.1067
 5460SOL    HW228014   2.993   0.864   3.358  0.0924  0.8515  0.9040
 5461SOL     OW28015   0.266   0.660  16.085 -0.3392 -0.2998  0.1882
 5461SOL    HW128016   0.316   0.580  16.105  0.2671 -0.9660 -4.0613
 5461SOL    HW228017   0.319   0.725  16.131  0.1268  0.6848 -1.7295
 5462SOL     OW28018   0.699   4.270  12.180  0.2884  0.2127 -0.2246
 5462SOL    HW128019   0.616   4.236  12.213 -1.6787  2.0298 -3.3649
 5462SOL    HW228020   0.754   4.230  12.247  2.3439 -0.7053 -2.4361
 5463SOL     OW28021   2.953   0.992   4.957  0.7578 -0.1888 -0.1082
 5463SOL    HW128022   2.955   1.053   4.883  1.5938 -0.4454 -0.2888
 5463SOL    HW228023   2.990   0.908   4.930 -0.5317 -1.9229  3.5418
 5464SOL     OW28024   1.698   0.926   4.959 -0.3327 -0.1007 -0.4129
 5464SOL    HW128025   1.726   1.015   4.978 -2.9563  0.8835 -1.2724
 5464SOL    HW228026   1.604   0.924   4.974 -0.4368  0.2782 -1.0263
 5465SOL     OW28027   3.778   4.007   2.911  0.5138  0.2983 -0.3348
 5465SOL    HW128028   3.873   4.000   2.921  0.7001  1.0790 -1.6107
 5465SOL    HW228029   3.758   3.915   2.892  1.0782  0.1874 -0.3780
 5466SOL     OW28030   4.354   2.622   8.866 -0.0221  0.5418  0.2089
 5466SOL    HW128031   4.376   2.529   8.857 -0.7656  0.5022 -1.2137
 5466SOL    HW228032   4.263   2.618   8.838  0.3838  0.1456 -1.0765
 5467SOL     OW28033   4.538   0.943   8.065  0.2418 -0.0618  0.2630
 5467SOL    HW128034   4.618   0.893   8.082 -0.9764 -1.1336  2.9537
 5467SOL    HW228035   4.558   1.036   8.081 -1.3821  0.2570  0.4742
 5468SOL     OW28036   3.233   1.451   5.422  0.2925 -0.1912  0.3385
 5468SOL    HW128037   3.149   1.408   5.439 -2.1395  3.3261 -2.8597
 5468SOL    HW228038   3.278   1.438   5.506  0.1339  1.0130  0.5986
 5469SOL     OW28039   0.382   4.427   7.052 -0.1303 -0.4868 -0.3789
 5469SOL    HW128040   0.405   4.423   6.959  4.8968  1.8389  0.7723
 5469SOL    HW228041   0.343   4.342   7.074  0.1365 -0.0259  1.8267
 5470SOL     OW28042   3.873   2.083   5.513 -0.0028  0.2016  0.0206
 5470SOL    HW128043   3.906   2.064   5.425  1.0156  0.4651  0.3515
 5470SOL    HW228044   3.810   2.011   5.514 -0.0468  0.2139 -2.1888
 5471SOL     OW28045   3.725   0.591   3.231 -0.4513  0.2023  0.0554
 5471SOL    HW128046   3.725   0.501   3.264  1.4374 -0.0157 -0.5309
 5471SOL    HW228047   3.731   0.639   3.313  1.1190  1.0927 -0.5821
 5472SOL     OW28048   0.262   3.095  14.415  0.5399 -0.0734  0.1352
 5472SOL    HW128049   0.339   3.062  14.459  1.2801 -0.0708 -1.1545
 5472SOL    HW228050   0.184   3.069  14.465  0.1407 -0.4061 -0.6432
 5473SOL     OW28051   4.155   4.029   3.086  0.2130  0.6541 -0.2063
 5473SOL    HW128052   4.210   3.987   3.153 -1.1457  1.3997  1.3860
 5473SOL    HW228053   4.181   4.120   3.106  1.7276  0.4435 -1.2553
 5474SOL     OW28054   2.454   0.739   2.484 -0.0394 -0.1818  0.0932
 5474SOL    HW128055   2.523   0.708   2.542 -0.8308 -2.8156 -0.3923
 5474SOL    HW228056   2.433   0.677   2.415  0.8908 -1.0248  0.5724
 5475SOL     OW28057   3.811   2.639   5.128 -0.1067 -0.0547  0.0826
 5475SOL    HW128058   3.788   2.597   5.211  0.7402  0.4482  0.5739
 5475SOL    HW228059   3.905   2.650   5.140  0.3503  0.1284 -3.6030
 5476SOL     OW28060   4.355   1.296   1.507 -0.0524 -0.2429  0.0571
 5476SOL    HW128061   4.336   1.314   1.415 -3.8001 -1.2733  0.6195
 5476SOL    HW228062   4.346   1.201   1.517 -0.2746 -0.2650 -0.3319
 5477SOL     OW28063   1.923   2.556   1.373 -0.0160 -0.0269  0.2520
 5477SOL    HW128064   1.831   2.540   1.355 -0.1321  2.2394 -1.1378
 5477SOL    HW228065   1.928   2.645   1.338  0.1791 -0.3975 -0.6559
 5478SOL     OW28066   3.762   3.680   3.455 -0.2430 -0.1360 -0.1517
 5478SOL    HW128067   3.698   3.697   3.386  0.1285  0.5405 -0.3278
 5478SOL    HW228068   3.711   3.612   3.498 -0.4656 -0.5292 -1.0275
 5479SOL     OW28069   0.128   4.248   4.277 -0.2239  0.0338 -0.1650
 5479SOL    HW128070   0.035   4.240   4.298 -0.5231 -0.1301 -1.5650
 5479SOL    HW228071   0.121   4.290   4.192 -0.2087 -1.2973 -0.8258
 5480SOL     OW28072   3.098   3.819  16.678 -0.0030  0.8156 -0.0280
 5480SOL    HW128073   3.070   3.830  16.587  0.5818 -1.1471 -0.4512
 5480SOL    HW228074   3.180   3.866  16.689 -0.2303  1.1802  0.0990
 5481SOL     OW28075   3.314   3.399  16.109  0.0638  0.3107  0.0414
 5481SOL    HW128076   3.388   3.341  16.094  0.0397  0.2663  0.0903
 5481SOL    HW228077   3.247   3.338  16.141  0.1120  1.2671  1.9374
 5482SOL     OW28078   3.955   4.046   3.821 -0.4044 -0.2274 -0.0112
 5482SOL    HW128079   4.009   4.087   3.889 -0.4053 -1.2415  0.6083
 5482SOL    HW228080   3.872   4.091   3.834  0.0138  0.7074 -0.5454
 5483SOL     OW28081   2.996   3.821   1.117  0.9331 -0.0250 -0.1032
 5483SOL    HW128082   2.995   3.908   1.157 -0.3879  1.0619 -2.4955
 5483SOL    HW228083   2.911   3.815   1.074  0.2083 -1.4440  1.5258
 5484SOL     OW28084   0.034   1.781   0.035  0.5108 -0.1357  1.0987
 5484SOL    HW128085   4.710   1.706   0.020  0.1141  0.4109 -0.1279
 5484SOL    HW228086   0.015   1.798   0.127 -0.5128  0.6540  0.7385
 5485SOL     OW28087   3.663   2.203   2.957  0.5652 -0.4077  0.0487
 5485SOL    HW128088   3.737   2.235   3.008  0.3955  1.4174 -0.8530
 5485SOL    HW228089   3.698   2.116   2.940  1.1694  0.1920 -1.7191
 5486SOL     OW28090   2.514   1.471   4.078 -0.1416 -0.3793  0.2282
 5486SOL    HW128091   2.483   1.546   4.028  0.3278 -0.5969 -0.3927
 5486SOL    HW228092   2.482   1.494   4.165 -2.1281 -1.2917 -0.2772
 5487SOL     OW28093   0.844   1.586   2.052  0.2806  0.0231 -0.0178
 5487SOL    HW128094   0.925   1.536   2.045  0.4125  0.2903 -0.4019
 5487SOL    HW228095   0.877   1.675   2.042 -2.3798  0.8774 -1.1961
 5488SOL     OW28096   0.062   0.379   2.572 -0.0102 -0.0496 -0.5233
 5488SOL    HW128097   0.015   0.462   2.564  0.1436 -0.1284 -2.2788
 5488SOL    HW228098   0.057   0.344   2.483  0.9473  1.8686 -1.3422
 5489SOL     OW28099   4.040   1.020  16.853 -0.0863  0.7792  0.0326
 5489SOL    HW128100   3.990   0.963  16.911 -1.9640  0.8420 -1.5482
 5489SOL    HW228101   4.040   0.974  16.769  1.0745  0.1347  0.3817
 5490SOL     OW28102   0.424   0.750   1.505  0.0633 -0.2034  0.4394
 5490SOL    HW128103   0.410   0.740   1.599 -0.5458 -1.0933  0.2522
 5490SOL    HW228104   0.488   0.821   1.506 -0.6854  0.4487  3.1496
 5491SOL     OW28105   1.905   0.101   3.155  0.5202 -0.7034 -0.1555
 5491SOL    HW128106   1.891   0.120   3.062  1.3672 -3.1489 -0.7991
 5491SOL    HW228107   1.970   0.032   3.167  0.6228 -1.1693 -3.4453
 5492SOL     OW28108   1.219   3.046   5.213 -0.1408 -0.3900 -1.1187
 5492SOL    HW128109   1.181   3.108   5.275  0.3192 -1.7026  0.4673
 5492SOL    HW228110   1.172   2.970   5.246  0.6055 -0.5678 -0.4790
 5493SOL     OW28111   1.877   4.730   1.862 -0.5297 -0.8853  0.4914
 5493SOL    HW128112   1.926   0.049   1.799 -1.8381 -0.3801 -0.1078
 5493SOL    HW228113   1.871   0.052   1.939 -1.6370 -2.3981  1.5011
 5494SOL     OW28114   1.100   1.446  11.788  0.1784  0.2095  0.0207
 5494SOL    HW128115   1.189   1.483  11.784 -0.2665  1.4547  1.8695
 5494SOL    HW228116   1.107   1.378  11.855  0.6761 -0.4705 -0.7056
 5495SOL     OW28117   2.068   1.693   5.808 -0.2638  0.4023  0.4690
 5495SOL    HW128118   2.051   1.764   5.870  0.5604  0.6283  0.4325
 5495SOL    HW228119   2.149   1.731   5.775  0.2355 -1.7510 -0.7464
 5496SOL     OW28120   2.842   1.790   4.525 -0.4913 -0.5306  0.3262
 5496SOL    HW128121   2.753   1.777   4.494 -0.0194 -0.5675 -1.0043
 5496SOL    HW228122   2.832   1.881   4.552  0.9848 -0.4029  0.4453
 5497SOL     OW28123   0.932   0.816   9.032  0.4108 -0.2750 -0.3534
 5497SOL    HW128124   0.864   0.748   9.026 -1.2330  1.1410  2.4547
 5497SOL    HW228125   0.938   0.849   8.943  1.1498 -2.3931 -1.0928
 5498SOL     OW28126   0.082   1.298  16.219 -0.4615  1.2855 -0.4885
 5498SOL    HW128127   0.103   1.391  16.231  0.1526  1.2531 -1.2942
 5498SOL    HW228128   0.122   1.286  16.133  1.3132 -1.5995  0.7185
 5499SOL     OW28129   2.921   2.510   2.504 -0.3811 -0.4885  0.4659
 5499SOL    HW128130   3.011   2.525   2.475 -1.4405  1.3754 -1.8816
 5499SOL    HW228131   2.898   2.449   2.433  2.5873 -1.1123  0.0631
 5500SOL     OW28132   2.237   1.030   7.020  0.3283 -0.0154 -0.2126
 5500SOL    HW128133   2.189   1.082   7.085 -0.4566 -0.4421 -0.4669
 5500SOL    HW228134   2.324   1.021   7.059 -0.0394 -2.4435  0.0190
 5501SOL     OW28135   2.769   4.388   4.566  0.4090 -0.4319  0.4898
 5501SOL    HW128136   2.679   4.355   4.573  0.7420 -1.0343  1.8689
 5501SOL    HW228137   2.774   4.436   4.648 -0.7010 -2.2302  1.6077
 5502SOL     OW28138   2.041   0.344  12.480 -0.4059  0.3284  0.1908
 5502SOL    HW128139   2.059   0.430  12.441 -1.5796 -0.2724 -1.6735
 5502SOL    HW228140   1.999   0.370  12.561  1.0092  0.6981  0.8140
 5503SOL     OW28141   2.838   4.293   8.882  0.7968 -0.0071 -0.3338
 5503SOL    HW128142   2.744   4.302   8.895  1.0995  4.0077 -1.1365
 5503SOL    HW228143   2.847   4.226   8.813 -0.1561  0.1207 -0.5869
 5504SOL     OW28144   3.930   2.504   8.032 -0.2182 -0.4157  0.1717
 5504SOL    HW128145   3.981   2.430   8.065  0.0624  0.1053  0.8984
 5504SOL    HW228146   3.932   2.551   8.115  0.3102  2.4450 -1.4698
 5505SOL     OW28147   1.161   2.047   6.716  0.0387 -0.0031 -0.0819
 5505SOL    HW128148   1.140   2.072   6.626  0.4465 -1.6711 -0.6244
 5505SOL    HW228149   1.249   2.083   6.731  0.2432 -0.1370 -0.9506
 5506SOL     OW28150   3.181   2.543   2.433  0.2245 -0.0048 -0.5738
 5506SOL    HW128151   3.254   2.605   2.439  0.4150  0.0125 -2.8753
 5506SOL    HW228152   3.192   2.523   2.340 -2.2604  1.0541 -1.0746
 5507SOL     OW28153   0.101   0.559   3.957  0.1844 -0.4673  0.4509
 5507SOL    HW128154   0.137   0.564   4.046  0.7032 -3.6748  0.4349
 5507SOL    HW228155   0.129   0.646   3.928  3.8663 -1.7774  0.0150
 5508SOL     OW28156   3.988   3.250   4.546  0.1762 -0.0982 -0.0208
 5508SOL    HW128157   3.962   3.304   4.621  1.0049  0.2709  0.0013
 5508SOL    HW228158   4.079   3.230   4.572 -0.2029 -0.3536  1.1413
 5509SOL     OW28159   3.222   4.719   6.919 -0.4671 -0.3065  0.3667
 5509SOL    HW128160   3.212   4.680   7.006 -0.6628 -1.0056  0.0329
 5509SOL    HW228161   3.292   0.049   6.929 -0.5249 -0.1113 -0.4811
 5510SOL     OW28162   1.192   0.044   4.514 -0.3795  0.1896  0.3376
 5510SOL    HW128163   1.146   0.128   4.515 -3.7819 -1.6397 -1.9767
 5510SOL    HW228164   1.275   0.068   4.473 -0.5382  1.4485  0.7464
 5511SOL     OW28165   1.053   3.948  13.280 -0.7003 -0.0453 -0.4122
 5511SOL    HW128166   1.136   3.904  13.300 -0.1070  1.2988  0.1116
 5511SOL    HW228167   1.040   3.921  13.189 -0.5484  1.7518 -0.9684
 5512SOL     OW28168   0.297   0.681   2.418  0.3171  0.0041  0.0337
 5512SOL    HW128169   0.320   0.635   2.498  0.4297 -0.2685 -0.1523
 5512SOL    HW228170   0.380   0.718   2.390 -0.5636  0.8462 -1.4986
 5513SOL     OW28171   0.880   0.013   0.380  0.0912  0.1024  0.2230
 5513SOL    HW128172   0.953   4.721   0.437  0.5703  2.9943  0.9480
 5513SOL    HW228173   0.911   0.089   0.330 -0.0605  0.0126 -0.0067
 5514SOL     OW28174   0.497   2.335   6.140 -0.2076  0.7145 -0.6792
 5514SOL    HW128175   0.512   2.417   6.188 -0.6266  0.8916 -0.8494
 5514SOL    HW228176   0.563   2.347   6.072  0.1151 -0.9502 -0.6488
 5515SOL     OW28177   2.476   2.876   6.040 -0.7711  0.0347  0.1191
 5515SOL    HW128178   2.422   2.831   6.105  0.2342 -0.7545  0.3941
 5515SOL    HW228179   2.466   2.964   6.076  0.7845  0.4459 -0.4982
 5516SOL     OW28180   2.506   1.495  14.506  0.3559  0.2191  0.0055
 5516SOL    HW128181   2.432   1.553  14.490  2.1238  2.2348 -0.8001
 5516SOL    HW228182   2.457   1.415  14.485  2.6742 -0.8100 -1.4679
 5517SOL     OW28183   2.607   2.498   9.756  0.3360  0.1974 -0.7301
 5517SOL    HW128184   2.523   2.532   9.729 -0.0311  0.9753  1.3857
 5517SOL    HW228185   2.579   2.425   9.812 -1.0461  1.2589 -0.0452
 5518SOL     OW28186   1.244   0.731   5.673 -0.2614  0.0788 -0.0141
 5518SOL    HW128187   1.296   0.652   5.687 -1.6108 -0.7781  0.2558
 5518SOL    HW228188   1.308   0.801   5.663 -0.3290 -0.0659 -1.4666
 5519SOL     OW28189   3.435   3.829   6.067 -0.2868  0.2765  0.0352
 5519SOL    HW128190   3.419   3.908   6.119 -0.5386  0.4748 -0.3491
 5519SOL    HW228191   3.480   3.771   6.130  2.3313  0.1838 -1.9135
 5520SOL     OW28192   2.285   0.125  11.901  0.0813 -0.6130 -0.2482
 5520SOL    HW128193   2.259   0.171  11.821  0.7540  1.1745  0.5583
 5520SOL    HW228194   2.216   0.147  11.963 -0.5374  0.7678 -1.4323
 5521SOL     OW28195   1.619   2.360   2.269 -0.4923  0.2708  0.3658
 5521SOL    HW128196   1.559   2.347   2.342 -1.1881 -3.1935 -0.7923
 5521SOL    HW228197   1.644   2.270   2.249 -2.2866  0.0352 -0.7989
 5522SOL     OW28198   1.202   0.469   6.379 -0.1145 -0.0304 -0.1707
 5522SOL    HW128199   1.249   0.405   6.432  2.0178  1.8608  0.2178
 5522SOL    HW228200   1.278   0.514   6.343  0.0139 -0.5511 -0.5524
 5523SOL     OW28201   1.452   1.159   6.213  0.4482 -0.4188 -0.8454
 5523SOL    HW128202   1.420   1.122   6.295 -0.5215  1.4647 -0.3633
 5523SOL    HW228203   1.405   1.105   6.150  1.4872  0.2975 -2.2466
 5524SOL     OW28204   0.815   3.794  16.348 -0.1410  0.3111  0.4295
 5524SOL    HW128205   0.760   3.854  16.398 -0.7920  0.4346 -0.4257
 5524SOL    HW228206   0.798   3.821  16.258 -4.3913 -1.0221  0.8014
 5525SOL     OW28207   0.141   3.374   7.901 -0.1723  0.1855 -0.9697
 5525SOL    HW128208   0.216   3.335   7.947 -2.1098 -3.0383 -0.5420
 5525SOL    HW228209   0.185   3.452   7.867  1.7116 -1.5631 -2.5193
 5526SOL     OW28210   1.590   4.578  15.988 -0.3046 -0.0580  0.0785
 5526SOL    HW128211   1.594   4.495  16.035  2.1516 -0.8786 -1.5922
 5526SOL    HW228212   1.680   4.609  15.979 -0.4746  0.1393 -0.8905
 5527SOL     OW28213   3.955   3.663   5.442  0.3334 -0.0787 -0.1312
 5527SOL    HW128214   3.889   3.722   5.406  1.7296 -0.4090 -3.1694
 5527SOL    HW228215   3.896   3.589   5.461  0.7692 -0.0171  1.5328
 5528SOL     OW28216   0.684   4.157   8.256 -0.1616  0.4888 -0.5322
 5528SOL    HW128217   0.605   4.191   8.214 -1.2819 -0.3955  0.8766
 5528SOL    HW228218   0.692   4.203   8.340  1.1528 -1.2368  0.2761
 5529SOL     OW28219   0.473   1.833  11.780  0.1867 -0.0321 -0.5471
 5529SOL    HW128220   0.516   1.782  11.849 -0.0393  0.2544 -0.1900
 5529SOL    HW228221   0.461   1.778  11.703  0.3015  0.8288 -1.1754
 5530SOL     OW28222   2.854   2.017   0.851 -0.1223 -0.0995 -0.7751
 5530SOL    HW128223   2.846   2.045   0.760  0.2135  1.2758 -0.3811
 5530SOL    HW228224   2.935   2.066   0.863 -0.3026 -0.1048  0.4564
 5531SOL     OW28225   4.070   1.101   6.649 -0.0322 -0.3802  0.2496
 5531SOL    HW128226   4.111   1.139   6.571 -0.6468  0.5471  0.3739
 5531SOL    HW228227   4.132   1.126   6.718  0.3044  1.2540 -0.6415
 5532SOL     OW28228   0.936   3.624  14.812  0.3548 -0.0011  0.3525
 5532SOL    HW128229   0.978   3.648  14.730 -0.0167  1.4680  0.5860
 5532SOL    HW228230   0.943   3.529  14.811  1.2943  0.0780 -0.4952
 5533SOL     OW28231   3.902   1.932  14.901  0.3512  0.3840  0.3396
 5533SOL    HW128232   3.865   1.881  14.972  1.6233  0.5077  1.1056
 5533SOL    HW228233   3.881   1.862  14.839  1.6768  0.0753  0.2346
 5534SOL     OW28234   0.818   1.941   3.494  0.2012  0.0303  0.2162
 5534SOL    HW128235   0.803   1.846   3.500 -1.1938  0.2774  0.7180
 5534SOL    HW228236   0.876   1.948   3.418 -1.8145 -0.3274 -1.3461
 5535SOL     OW28237   1.287   1.103   8.088  0.0617 -0.4775  0.2366
 5535SOL    HW128238   1.382   1.106   8.084  0.2160 -1.6539  3.4126
 5535SOL    HW228239   1.274   1.019   8.132 -3.4082 -0.8095 -1.4332
 5536SOL     OW28240   2.660   0.857   1.928 -0.6848  0.4726  0.2326
 5536SOL    HW128241   2.754   0.844   1.934 -0.8990 -0.5400  1.2747
 5536SOL    HW228242   2.656   0.947   1.960  1.3101 -0.0306  1.8728
 5537SOL     OW28243   3.574   0.685   3.493  0.1228  0.0338  0.4602
 5537SOL    HW128244   3.638   0.756   3.499  0.7904 -0.3716 -1.8218
 5537SOL    HW228245   3.592   0.638   3.575  2.0358 -0.1922 -0.0812
 5538SOL     OW28246   4.262   4.024   2.719  0.5106  0.1087  0.3656
 5538SOL    HW128247   4.298   3.995   2.803  1.7878  0.5992 -0.0144
 5538SOL    HW228248   4.300   4.112   2.713 -0.2349  0.2932 -1.4771
 5539SOL     OW28249   1.782   2.791   8.622 -0.2081 -0.6056 -0.1826
 5539SOL    HW128250   1.864   2.742   8.614 -0.2263 -0.3484 -1.8730
 5539SOL    HW228251   1.755   2.781   8.531  1.8176  0.9430 -0.9414
 5540SOL     OW28252   2.517   1.864   6.493  0.2451 -0.4181 -0.1321
 5540SOL    HW128253   2.566   1.786   6.519  2.5226  0.4664 -1.7938
 5540SOL    HW228254   2.546   1.874   6.402  0.6138 -1.7190 -0.1667
 5541SOL     OW28255   3.265   4.692   8.941 -0.4024  0.3433 -0.1459
 5541SOL    HW128256   3.306   0.003   9.015  1.6119 -1.3281 -0.2424
 5541SOL    HW228257   3.172   4.705   8.958 -0.4104  1.7861 -1.2743
 5542SOL     OW28258   2.878   0.641   6.305  0.0955  0.6742  0.3637
 5542SOL    HW128259   2.842   0.720   6.266  2.0037  0.0862 -2.6396
 5542SOL    HW228260   2.939   0.604   6.240 -2.7176 -1.1097 -1.2478
 5543SOL     OW28261   2.555   3.796  15.936 -0.6838  0.3034 -0.4383
 5543SOL    HW128262   2.511   3.733  15.879 -1.4095  0.9989 -0.6595
 5543SOL    HW228263   2.578   3.731  16.002 -1.3525 -0.0698 -0.5653
 5544SOL     OW28264   1.577   4.199   6.868  0.0128  0.1309 -0.2872
 5544SOL    HW128265   1.483   4.205   6.850  0.4524 -0.6145 -2.8017
 5544SOL    HW228266   1.598   4.273   6.811  1.5223  0.4021  0.6071
 5545SOL     OW28267   3.676   1.365   4.246  0.5482  0.0587 -0.1897
 5545SOL    HW128268   3.590   1.403   4.227  1.1459  0.5707 -1.8862
 5545SOL    HW228269   3.693   1.390   4.337 -2.4625  1.8636 -0.1339
 5546SOL     OW28270   2.849   0.001  12.591 -0.0343  0.3430  0.0194
 5546SOL    HW128271   2.909   4.662  12.576 -1.2546 -1.0363  1.9451
 5546SOL    HW228272   2.921   0.064  12.601 -0.6418  0.9261  0.7577
 5547SOL     OW28273   3.214   2.519   1.131  0.1354 -0.0654  0.4441
 5547SOL    HW128274   3.168   2.436   1.122  1.0177 -0.4994 -0.1375
 5547SOL    HW228275   3.204   2.556   1.044 -1.6419  0.0304  0.6994
 5548SOL     OW28276   4.314   0.843   2.606  0.6370  0.3531  0.4809
 5548SOL    HW128277   4.280   0.758   2.579  1.4512  0.4215 -0.8018
 5548SOL    HW228278   4.401   0.819   2.576 -0.2383 -1.6138 -0.4651
 5549SOL     OW28279   3.315   2.716   1.603 -0.5142 -0.3670 -0.5547
 5549SOL    HW128280   3.402   2.679   1.621 -0.2048  1.7427  2.2342
 5549SOL    HW228281   3.339   2.794   1.552 -1.7975  0.5438  0.2166
 5550SOL     OW28282   0.557   1.552   4.488 -0.5706  0.2019  0.0724
 5550SOL    HW128283   0.543   1.457   4.498 -2.4901  0.5150  0.3351
 5550SOL    HW228284   0.652   1.560   4.498 -0.3856  0.8636 -2.2618
 5551SOL     OW28285   0.355   2.327   3.086  0.3870  0.3013 -0.5251
 5551SOL    HW128286   0.292   2.258   3.067 -0.1624  0.3929  0.9724
 5551SOL    HW228287   0.425   2.275   3.125 -0.4521 -0.6349 -0.2652
 5552SOL     OW28288   3.288   0.288   4.391  0.2000 -0.1007 -0.0666
 5552SOL    HW128289   3.349   0.312   4.460  1.5200 -1.0909 -0.8732
 5552SOL    HW228290   3.233   0.366   4.382 -1.2992 -1.0712  0.7264
 5553SOL     OW28291   2.461   2.891   6.529  0.5312  0.0587 -0.2509
 5553SOL    HW128292   2.483   2.863   6.617  0.9711 -2.4672 -1.1742
 5553SOL    HW228293   2.518   2.968   6.524 -1.1404  1.3694  1.3020
 5554SOL     OW28294   0.267   2.006   2.156  0.7194  0.2095  0.6657
 5554SOL    HW128295   0.264   1.919   2.117  0.3909  0.5635 -0.0937
 5554SOL    HW228296   0.271   2.065   2.081  0.3874 -0.1875  0.3387
 5555SOL     OW28297   3.875   2.617   2.487 -0.3345  0.3913  0.5078
 5555SOL    HW128298   3.907   2.529   2.468  2.0536  1.2915  0.3439
 5555SOL    HW228299   3.889   2.653   2.399 -0.3445  0.4349  0.5240
 5556SOL     OW28300   3.246   0.604   3.871 -0.9388  0.3754 -0.1715
 5556SOL    HW128301   3.154   0.625   3.886 -0.6111  0.3053  1.9392
 5556SOL    HW228302   3.297   0.680   3.898  1.1546 -0.1667 -2.6059
 5557SOL     OW28303   4.050   3.039   1.940  0.4045 -0.0896  0.3977
 5557SOL    HW128304   4.126   3.097   1.941 -1.3201  2.2081 -0.6234
 5557SOL    HW228305   4.033   3.027   2.033  1.7089  1.0162  0.7732
 5558SOL     OW28306   2.006   2.157   2.976 -0.1963 -0.3023  0.2927
 5558SOL    HW128307   1.963   2.133   3.058  0.7890  0.8864  1.1568
 5558SOL    HW228308   1.981   2.084   2.920 -1.9806 -0.1381  0.8673
 5559SOL     OW28309   0.235   0.882  16.926  0.3077 -0.4399  0.3283
 5559SOL    HW128310   0.240   0.946  16.997  1.2397 -0.5064  0.3163
 5559SOL    HW228311   0.218   0.941  16.852 -0.5576 -1.5163 -0.3335
 5560SOL     OW28312   0.102   2.634   1.799  0.8095  0.0156  0.3562
 5560SOL    HW128313   0.192   2.649   1.771  0.7566 -1.1766 -0.4270
 5560SOL    HW228314   0.107   2.539   1.802  0.7755 -0.0238 -1.3392
 5561SOL     OW28315   0.138   0.795   3.842  0.0173 -0.3438 -0.2385
 5561SOL    HW128316   0.197   0.828   3.774  1.0205  1.1095  1.3654
 5561SOL    HW228317   0.174   0.852   3.910  3.6445 -1.5414 -1.1649
 5562SOL     OW28318   0.737   4.347   8.472  0.3825 -0.1455 -0.2367
 5562SOL    HW128319   0.812   4.351   8.532  0.7344  0.8435 -0.7445
 5562SOL    HW228320   0.661   4.353   8.530  0.8821  0.8257  0.3194
 5563SOL     OW28321   0.949   4.194   3.009  0.2438 -0.3271 -0.7626
 5563SOL    HW128322   0.967   4.262   3.075 -0.0611 -1.4576  0.4744
 5563SOL    HW228323   0.899   4.242   2.942  1.7620 -0.2649 -1.8546
 5564SOL     OW28324   4.600   1.590  12.289 -0.3332  0.6446  0.1356
 5564SOL    HW128325   4.642   1.676  12.281  0.8241 -0.0344 -1.2256
 5564SOL    HW228326   4.676   1.534  12.306  0.1951  1.0302 -0.9383
 5565SOL     OW28327   3.899   3.055  13.971  0.0261 -0.0386  0.5190
 5565SOL    HW128328   3.937   2.967  13.976 -1.2273 -0.5435  1.0177
 5565SOL    HW228329   3.870   3.075  14.060  1.3536  0.2678  0.8844
 5566SOL     OW28330   1.817   1.664   5.181 -0.1410 -0.2314 -0.3569
 5566SOL    HW128331   1.822   1.727   5.253 -0.1794  1.5329 -1.8777
 5566SOL    HW228332   1.879   1.701   5.117  1.9236 -0.6993  1.3859
 5567SOL     OW28333   4.187   0.215   2.409  0.1742  0.7578 -0.4264
 5567SOL    HW128334   4.263   0.209   2.467 -1.8229 -0.9132  2.0288
 5567SOL    HW228335   4.115   0.245   2.465 -0.2149  0.4997 -0.7860
 5568SOL     OW28336   4.596   1.192   0.729  0.2018  0.5919 -0.0674
 5568SOL    HW128337   4.633   1.110   0.762  2.5319  1.6057 -0.1939
 5568SOL    HW228338   4.657   1.250   0.774  1.4998  1.3445 -2.8516
 5569SOL     OW28339   2.153   0.602   3.155  0.4292  0.1355 -0.3591
 5569SOL    HW128340   2.080   0.611   3.216  1.2869  0.9882  0.5655
 5569SOL    HW228341   2.107   0.573   3.077  0.6824 -0.3550 -0.3240
 5570SOL     OW28342   1.219   1.719   5.219  0.6054  0.0630  0.3725
 5570SOL    HW128343   1.188   1.633   5.193  0.4562  0.2009  0.0899
 5570SOL    HW228344   1.311   1.701   5.236  0.6594  1.4421  1.5422
 5571SOL     OW28345   4.126   0.051  12.403 -0.2015  0.4747 -0.1277
 5571SOL    HW128346   4.164   4.733  12.332 -2.5136  0.7534 -1.5712
 5571SOL    HW228347   4.157   4.725  12.471 -0.1074 -1.3696 -1.8166
 5572SOL     OW28348   1.829   0.262   6.092 -0.2360 -0.2378  0.8200
 5572SOL    HW128349   1.895   0.244   6.025 -1.5353  2.3817 -1.1749
 5572SOL    HW228350   1.752   0.246   6.037  0.3371  2.9159 -0.9253
 5573SOL     OW28351   1.588   3.335   9.486 -0.1107  0.4182 -0.0999
 5573SOL    HW128352   1.534   3.256   9.482 -0.2577  0.5977 -1.5845
 5573SOL    HW228353   1.637   3.316   9.566 -0.1533 -0.3223 -0.2483
 5574SOL     OW28354   0.352   0.370  14.364 -0.0144 -0.0252  0.3240
 5574SOL    HW128355   0.264   0.393  14.337 -0.0084  0.0830  0.3947
 5574SOL    HW228356   0.395   0.348  14.282  0.3371  0.2906  0.4229
 5575SOL     OW28357   2.889   3.365   9.369 -0.0161  0.6049  0.3472
 5575SOL    HW128358   2.840   3.329   9.295  0.1286  1.0561  0.0303
 5575SOL    HW228359   2.852   3.307   9.435  0.7732  0.5183  0.6992
 5576SOL     OW28360   2.761   4.249   6.135  0.4434 -0.3052  0.1602
 5576SOL    HW128361   2.665   4.256   6.131  0.4272 -0.9343 -0.4149
 5576SOL    HW228362   2.778   4.169   6.185  2.4489  0.3348  0.4719
 5577SOL     OW28363   0.793   1.323   6.774 -0.4250 -0.0027 -0.5043
 5577SOL    HW128364   0.821   1.289   6.859  1.1693  1.2909 -0.5052
 5577SOL    HW228365   0.717   1.368   6.812 -1.0096 -0.8410 -0.6827
 5578SOL     OW28366   2.930   0.298   3.012 -0.8552 -0.1950 -0.1675
 5578SOL    HW128367   3.020   0.321   3.035  0.3485 -3.3651 -1.7910
 5578SOL    HW228368   2.908   0.235   3.081  0.8927  0.0250  0.5862
 5579SOL     OW28369   4.039   4.698   9.757 -0.2251 -0.0767 -0.3706
 5579SOL    HW128370   4.013   4.656   9.675 -2.0830 -2.1274  1.2845
 5579SOL    HW228371   3.995   0.049   9.750 -0.9835 -0.3598  0.9587
 5580SOL     OW28372   1.369   3.362   6.797  0.3403 -0.9956 -0.5735
 5580SOL    HW128373   1.275   3.380   6.800  0.8161  1.1028  1.3854
 5580SOL    HW228374   1.369   3.267   6.790  0.3765 -1.1863  1.8355
 5581SOL     OW28375   1.180   1.152   9.269  0.1164 -0.1918 -0.5763
 5581SOL    HW128376   1.165   1.061   9.294  0.7267 -0.5141 -1.3923
 5581SOL    HW228377   1.103   1.199   9.303  0.2593 -0.0766 -0.4102
 5582SOL     OW28378   2.324   1.388   1.275 -0.4968 -0.4972  0.5651
 5582SOL    HW128379   2.321   1.292   1.272 -0.9694 -0.5215  1.8697
 5582SOL    HW228380   2.237   1.405   1.240  0.5692  0.9792 -1.3549
 5583SOL     OW28381   0.320   3.391  17.036  0.2326 -0.2141  0.1348
 5583SOL    HW128382   0.375   3.442  17.095 -2.1608  1.7910  0.6349
 5583SOL    HW228383   0.320   3.314  17.093  0.4740  0.2508  0.7592
 5584SOL     OW28384   1.243   0.811   5.027  0.5467  0.5103  1.0833
 5584SOL    HW128385   1.279   0.900   5.028  0.9746  0.3329  1.5569
 5584SOL    HW228386   1.243   0.792   4.933 -0.0860 -0.7685  1.3472
 5585SOL     OW28387   0.884   0.116   1.504  0.1714  0.0107  0.4206
 5585SOL    HW128388   0.800   0.075   1.524  0.5343 -1.7198 -1.5812
 5585SOL    HW228389   0.858   0.186   1.444 -0.5903 -0.9015 -0.3103
 5586SOL     OW28390   0.794   1.718   4.170  0.8337  0.0694 -0.3788
 5586SOL    HW128391   0.845   1.721   4.089  0.4407 -1.9924 -0.7094
 5586SOL    HW228392   0.819   1.628   4.191 -1.5527 -0.3213  0.7777
 5587SOL     OW28393   2.082   0.419   6.590 -0.2365 -0.1631 -0.4936
 5587SOL    HW128394   1.996   0.435   6.551  0.4713  2.5495 -0.9607
 5587SOL    HW228395   2.069   0.333   6.630 -0.0405 -0.5923 -1.3499
 5588SOL     OW28396   4.155   2.754   2.066 -0.0586 -0.0586 -0.3803
 5588SOL    HW128397   4.139   2.770   2.159  1.5281 -1.2920  0.1104
 5588SOL    HW228398   4.100   2.815   2.016  1.4017 -1.1711 -3.2895
 5589SOL     OW28399   2.524   1.651   8.496 -0.7624  0.2266  0.6689
 5589SOL    HW128400   2.608   1.669   8.539  0.1025 -1.7839 -0.1733
 5589SOL    HW228401   2.506   1.564   8.531 -2.4513 -0.4751 -2.0014
 5590SOL     OW28402   0.487   4.068   1.701  0.1840  0.0560 -0.6005
 5590SOL    HW128403   0.416   4.004   1.710 -0.0033  0.3681  0.0816
 5590SOL    HW228404   0.561   4.026   1.745 -1.5911 -0.1747  2.1351
 5591SOL     OW28405   4.057   1.802   5.616  0.1374 -0.4420  0.1012
 5591SOL    HW128406   4.110   1.738   5.663 -2.0770 -4.2058 -2.5510
 5591SOL    HW228407   3.978   1.749   5.607 -0.6600  0.6014  1.0002
 5592SOL     OW28408   3.577   2.789  17.301 -0.0164  0.1344  0.0561
 5592SOL    HW128409   3.568   2.832  17.216 -1.5216 -0.1665  0.0567
 5592SOL    HW228410   3.506   2.817  17.359  0.1461  1.8391 -0.5537
 5593SOL     OW28411   4.585   1.343   2.891  0.8150  0.1762  0.6394
 5593SOL    HW128412   4.677   1.364   2.908  1.1650 -0.3664 -0.5790
 5593SOL    HW228413   4.588   1.247   2.886  0.0766  0.0068  3.1566
 5594SOL     OW28414   1.361   4.037  17.404 -0.3832  0.0472  0.0675
 5594SOL    HW128415   1.299   4.096  17.446  0.0151 -0.3847  1.2592
 5594SOL    HW228416   1.314   4.010  17.325 -0.1810 -0.2080  0.0359
 5595SOL     OW28417   3.707   1.629  14.405  0.9099 -0.8647 -0.0752
 5595SOL    HW128418   3.717   1.724  14.396 -0.2154 -0.6614  0.7489
 5595SOL    HW228419   3.650   1.626  14.482 -0.0931  0.9803 -0.7184
 5596SOL     OW28420   3.149   2.881   6.528 -0.4347  0.3883  0.1097
 5596SOL    HW128421   3.098   2.879   6.447  2.9241 -1.4580 -1.9767
 5596SOL    HW228422   3.149   2.787   6.549 -0.8335  0.5852  1.0155
 5597SOL     OW28423   1.882   4.111   7.214  0.0751 -0.1588 -0.2642
 5597SOL    HW128424   1.943   4.117   7.289 -0.1760 -0.5627 -0.0310
 5597SOL    HW228425   1.806   4.117   7.272  0.0829 -2.5510 -0.0069
 5598SOL     OW28426   1.613   0.644   6.484 -0.0123  0.2998 -0.2415
 5598SOL    HW128427   1.642   0.734   6.500 -0.7968  0.7358 -1.2919
 5598SOL    HW228428   1.568   0.624   6.566  1.8148 -0.3995  0.5840
 5599SOL     OW28429   3.443   2.170   2.090 -0.1261 -0.3141 -0.4713
 5599SOL    HW128430   3.527   2.145   2.129 -1.1160  2.6916  3.5358
 5599SOL    HW228431   3.467   2.180   1.997 -0.8106 -0.1314 -0.6221
 5600SOL     OW28432   3.530   1.360   5.803 -0.1147  0.2597 -0.5202
 5600SOL    HW128433   3.440   1.330   5.793  0.0981 -0.6482  0.2347
 5600SOL    HW228434   3.570   1.341   5.718 -0.0190 -1.2278 -0.1420
 5601SOL     OW28435   1.087   1.726  17.251 -0.2468 -0.1176 -0.1841
 5601SOL    HW128436   1.085   1.632  17.270  2.8955 -0.5726 -2.1013
 5601SOL    HW228437   1.011   1.754  17.302  0.7513  1.4937  0.3813
 5602SOL     OW28438   4.521   3.720   9.261 -0.4013  0.5134  0.2561
 5602SOL    HW128439   4.583   3.765   9.204 -1.3165  0.0345 -1.1103
 5602SOL    HW228440   4.454   3.785   9.280 -1.3773 -0.2780 -0.4688
 5603SOL     OW28441   4.481   1.829   8.038  0.1951 -0.0651  0.0981
 5603SOL    HW128442   4.464   1.736   8.051 -1.7976  0.4871  1.4076
 5603SOL    HW228443   4.514   1.835   7.948 -0.4822 -1.2926 -0.2446
 5604SOL     OW28444   3.136   3.323   2.898  0.8004 -0.4957 -0.1651
 5604SOL    HW128445   3.177   3.402   2.933 -0.9351  0.3684 -0.0996
 5604SOL    HW228446   3.076   3.292   2.966  0.3050 -1.3052 -0.9791
 5605SOL     OW28447   2.034   3.923  16.575 -0.1354  0.2246  0.2649
 5605SOL    HW128448   1.957   3.979  16.583 -2.4066 -2.7515 -0.9109
 5605SOL    HW228449   2.083   3.974  16.511 -1.0842 -0.1886 -0.7907
 5606SOL     OW28450   2.241   2.879  11.675 -0.7294 -0.1656  0.1381
 5606SOL    HW128451   2.322   2.829  11.667 -0.4111  0.6606 -1.8102
 5606SOL    HW228452   2.192   2.849  11.599  0.1262 -0.6985 -0.2004
 5607SOL     OW28453   1.679   0.660   1.229 -0.1959  0.2629 -0.0420
 5607SOL    HW128454   1.616   0.591   1.211  0.7557 -0.5096 -0.4242
 5607SOL    HW228455   1.663   0.686   1.319  2.5580  0.0999  0.4900
 5608SOL     OW28456   2.630   2.122   9.696  0.1414 -0.7160  0.0574
 5608SOL    HW128457   2.660   2.199   9.648 -0.1885 -0.6639 -0.0633
 5608SOL    HW228458   2.603   2.159   9.780  0.9936 -1.6384  0.7444
 5609SOL     OW28459   1.897   0.269  17.321  0.3896 -0.4656  0.2571
 5609SOL    HW128460   1.931   0.257  17.410 -0.2676  2.5649  0.9003
 5609SOL    HW228461   1.808   0.235  17.334 -1.5413  3.9192 -1.5394
 5610SOL     OW28462   3.373   0.161   9.921 -0.2498  0.7003 -0.7261
 5610SOL    HW128463   3.460   0.128   9.896 -0.3018 -0.5378  0.7623
 5610SOL    HW228464   3.399   0.238   9.971  0.1206 -0.1050  0.3340
 5611SOL     OW28465   2.570   0.306   7.019 -0.1282  0.4435 -0.3470
 5611SOL    HW128466   2.576   0.315   6.924 -0.2026 -2.2479 -0.5977
 5611SOL    HW228467   2.495   0.246   7.017 -0.1562  0.5171 -1.5627
 5612SOL     OW28468   1.573   3.919   7.330 -0.3733  0.4079  0.6283
 5612SOL    HW128469   1.522   3.975   7.389 -0.6671  0.3542  0.4292
 5612SOL    HW228470   1.646   3.901   7.389 -1.3210 -1.8063  1.1227
 5613SOL     OW28471   2.793   4.229  10.253  0.1092 -1.0163  0.0009
 5613SOL    HW128472   2.774   4.287  10.179 -0.9459 -0.4565  0.7120
 5613SOL    HW228473   2.848   4.286  10.306 -0.8904  0.8942 -1.0184
 5614SOL     OW28474   1.123   3.458   2.751  0.3569 -0.0522  0.3858
 5614SOL    HW128475   1.071   3.405   2.811  0.4845  0.4477  0.9361
 5614SOL    HW228476   1.186   3.400   2.708  0.4717  0.0455  0.4203
 5615SOL     OW28477   4.142   3.885   2.504 -0.0134 -0.4264 -0.1787
 5615SOL    HW128478   4.174   3.940   2.576  0.7584 -2.5088  1.0760
 5615SOL    HW228479   4.224   3.869   2.459 -0.4254 -0.6320 -0.8624
 5616SOL     OW28480   3.864   1.588  14.770 -0.5516  0.0045 -0.3565
 5616SOL    HW128481   3.888   1.553  14.856  0.9547 -3.0425 -1.9951
 5616SOL    HW228482   3.900   1.537  14.697 -1.4255 -0.1198 -0.7023
 5617SOL     OW28483   2.500   1.413   2.240  0.7971  0.2683 -0.2975
 5617SOL    HW128484   2.549   1.490   2.268  0.3654  0.8309 -1.0806
 5617SOL    HW228485   2.493   1.431   2.146  0.0611  2.0815  0.1051
 5618SOL     OW28486   2.645   3.231   1.461 -0.5907 -0.3341 -0.2017
 5618SOL    HW128487   2.727   3.267   1.426 -2.3994  2.9909 -0.9999
 5618SOL    HW228488   2.677   3.185   1.539  2.4357 -1.4973 -2.1434
 5619SOL     OW28489   1.234   1.546   3.284 -0.2165 -0.0792  0.2678
 5619SOL    HW128490   1.300   1.520   3.219  0.8045  1.4545  0.7117
 5619SOL    HW228491   1.292   1.531   3.358  0.2893  2.3464  0.3349
 5620SOL     OW28492   3.110   3.473   7.469  0.7279 -0.8029 -0.4176
 5620SOL    HW128493   3.069   3.523   7.540  1.0813 -1.1445  0.0320
 5620SOL    HW228494   3.035   3.417   7.449  0.7538 -1.1111  0.3492
 5621SOL     OW28495   2.230   4.101   2.302  0.0404 -0.0274 -0.4393
 5621SOL    HW128496   2.193   4.183   2.335  1.1736 -0.2135  1.3329
 5621SOL    HW228497   2.153   4.046   2.288 -0.4219 -0.2289  2.9349
 5622SOL     OW28498   0.299   3.513   1.111 -0.3902 -0.0215  0.3683
 5622SOL    HW128499   0.207   3.533   1.125 -0.4679 -0.2785  0.2268
 5622SOL    HW228500   0.346   3.563   1.178  0.2495  0.2090 -0.2489
 5623SOL     OW28501   3.517   4.390   3.920  0.1667 -0.5163  0.5683
 5623SOL    HW128502   3.435   4.414   3.963 -0.9826  0.3005 -2.0450
 5623SOL    HW228503   3.498   4.378   3.827 -0.8290  2.0505  0.4339
 5624SOL     OW28504   4.202   1.310   6.818 -0.0929  0.6001 -0.2157
 5624SOL    HW128505   4.273   1.281   6.762  1.0738 -0.6425  1.8950
 5624SOL    HW228506   4.217   1.258   6.897  1.5592 -0.1312 -1.0206
 5625SOL     OW28507   2.027   1.652   6.631 -0.0865  1.0578 -0.0979
 5625SOL    HW128508   2.085   1.610   6.568 -2.4457 -0.8678 -0.9951
 5625SOL    HW228509   1.965   1.690   6.569 -0.0673  3.2363  1.1988
 5626SOL     OW28510   2.825   0.851   5.217  0.5720  0.2921 -0.1031
 5626SOL    HW128511   2.899   0.866   5.275  1.0157 -0.3402 -0.4980
 5626SOL    HW228512   2.855   0.908   5.146 -0.7865  1.2714  0.1300
 5627SOL     OW28513   4.107   1.552   2.813 -0.0838 -0.5205 -0.1446
 5627SOL    HW128514   4.014   1.541   2.793  0.1393  1.4328 -2.1779
 5627SOL    HW228515   4.159   1.493   2.758 -1.6109 -3.4302  1.5338
 5628SOL     OW28516   3.792   0.912  13.110  0.1879 -0.4445  0.6080
 5628SOL    HW128517   3.763   0.894  13.200 -0.7248 -2.1247 -0.0262
 5628SOL    HW228518   3.881   0.877  13.120  0.5986  0.3012 -0.4880
 5629SOL     OW28519   3.436   3.483   9.231  0.1002 -0.4372 -0.1958
 5629SOL    HW128520   3.409   3.573   9.249  0.6692 -0.1564 -0.7446
 5629SOL    HW228521   3.438   3.480   9.135 -3.2654 -2.3096 -0.2304
 5630SOL     OW28522   3.613   2.375   4.689  0.0827  0.0071 -0.3972
 5630SOL    HW128523   3.577   2.454   4.647 -0.3486  0.3060  0.5434
 5630SOL    HW228524   3.596   2.393   4.781 -1.0665  0.2433 -0.6484
 5631SOL     OW28525   1.307   0.554  15.615  0.0984 -0.6716 -0.1699
 5631SOL    HW128526   1.226   0.600  15.635 -0.3938 -1.9968  0.9526
 5631SOL    HW228527   1.359   0.584  15.690 -0.5610 -1.7651  0.7356
 5632SOL     OW28528   4.147   0.723   9.393 -0.0157 -0.5020  0.1266
 5632SOL    HW128529   4.120   0.797   9.447 -0.5172 -0.6948  0.1465
 5632SOL    HW228530   4.208   0.674   9.447 -1.8051  0.3705  2.9635
 5633SOL     OW28531   1.120   4.222  10.508  0.4061 -0.0234 -0.4099
 5633SOL    HW128532   1.056   4.151  10.504 -0.9531  1.1601  0.1700
 5633SOL    HW228533   1.122   4.244  10.601 -0.9469  0.0822 -0.4097
 5634SOL     OW28534   3.789   0.830  17.676 -0.6264  0.0948 -0.2054
 5634SOL    HW128535   3.733   0.754  17.691  0.5030 -0.5777  0.6537
 5634SOL    HW228536   3.722   0.892  17.704 -2.1032 -2.0413  1.0772
 5635SOL     OW28537   2.591   0.965   2.826  0.4600 -0.1767  0.2264
 5635SOL    HW128538   2.508   0.982   2.780 -0.8868 -1.0312  2.3260
 5635SOL    HW228539   2.593   0.872   2.852 -1.2289 -0.6538 -1.3308
 5636SOL     OW28540   2.012   2.972  10.049 -0.0805  0.5782 -0.0729
 5636SOL    HW128541   2.081   2.910  10.022 -0.2710 -0.1387  1.1027
 5636SOL    HW228542   2.064   3.048  10.074 -0.3104  0.4658  0.7273
 5637SOL     OW28543   3.384   0.673   7.864  0.2951  0.0973  0.4405
 5637SOL    HW128544   3.428   0.741   7.814  2.1738 -0.6817  1.0526
 5637SOL    HW228545   3.328   0.717   7.927 -0.4903 -1.1914  0.6379
 5638SOL     OW28546   3.581   2.775   5.206 -0.8362  0.2244 -0.2080
 5638SOL    HW128547   3.615   2.863   5.220 -0.5392  0.5514 -3.0561
 5638SOL    HW228548   3.650   2.741   5.149 -0.5106  1.4535 -0.5417
 5639SOL     OW28549   4.727   0.462   4.918  0.5565  0.6138  0.3923
 5639SOL    HW128550   4.666   0.424   4.855  2.1587 -1.9619  0.4036
 5639SOL    HW228551   4.690   0.435   5.002 -2.6874  1.1761 -0.8596
 5640SOL     OW28552   4.272   3.483   8.727 -0.1356 -0.2200  0.1482
 5640SOL    HW128553   4.205   3.536   8.683  0.9584 -0.9668 -2.4584
 5640SOL    HW228554   4.312   3.554   8.777 -1.0190 -0.3560  1.0470
 5641SOL     OW28555   1.784   2.596   1.100  0.1352  0.0279  0.4034
 5641SOL    HW128556   1.847   2.537   1.058  2.0170  2.3984 -0.0906
 5641SOL    HW228557   1.826   2.679   1.122 -0.8546  1.0094 -1.4257
 5642SOL     OW28558   2.875   0.016   6.055  0.1132  0.3960  0.6973
 5642SOL    HW128559   2.954   0.045   6.009 -1.7931  0.6140 -2.4749
 5642SOL    HW228560   2.918   4.695   6.121 -0.2959 -1.8753 -0.9168
 5643SOL     OW28561   3.782   3.410   5.932  0.4623 -0.2357  0.0313
 5643SOL    HW128562   3.762   3.408   6.025 -0.9819  4.0764 -0.1887
 5643SOL    HW228563   3.825   3.495   5.924  0.3436 -0.1450  0.4089
 5644SOL     OW28564   3.166   1.226  15.204 -0.4353 -0.5208 -0.1809
 5644SOL    HW128565   3.077   1.194  15.214 -0.6822  0.2328  0.0895
 5644SOL    HW228566   3.211   1.158  15.254  0.0919 -0.9571 -1.2599
 5645SOL     OW28567   3.738   0.739   6.299  0.0259  0.0091  0.4119
 5645SOL    HW128568   3.747   0.644   6.288  1.5649  0.1583  0.4751
 5645SOL    HW228569   3.666   0.752   6.237  0.2227 -3.2820 -0.4892
 5646SOL     OW28570   3.662   3.380  16.771 -0.0232 -0.2394 -0.5883
 5646SOL    HW128571   3.612   3.359  16.850 -4.1295  0.2158 -3.0371
 5646SOL    HW228572   3.748   3.408  16.802 -0.6269 -2.3409  2.9927
 5647SOL     OW28573   3.767   0.234   1.934 -0.5191  0.2873 -0.2279
 5647SOL    HW128574   3.749   0.167   1.868 -1.2935 -1.6571  1.9666
 5647SOL    HW228575   3.837   0.182   1.972 -0.4757  1.2437  1.0345
 5648SOL     OW28576   3.342   4.585   7.688  0.4926  0.3067  0.2075
 5648SOL    HW128577   3.381   4.537   7.761 -1.8374  2.3909  2.8053
 5648SOL    HW228578   3.257   4.585   7.732 -0.1754  1.5745 -1.0695
 5649SOL     OW28579   4.283   1.097   7.322  0.3372 -0.7595 -0.1083
 5649SOL    HW128580   4.258   1.136   7.238  0.3627  0.0026  0.2395
 5649SOL    HW228581   4.200   1.053   7.338  1.0407 -0.8136  3.2575
 5650SOL     OW28582   2.630   0.340   1.232 -0.6831  1.2791  0.0330
 5650SOL    HW128583   2.566   0.314   1.298  1.0524  1.8764  1.9602
 5650SOL    HW228584   2.581   0.343   1.150 -0.4981  1.2327 -0.0812
 5651SOL     OW28585   1.105   4.318   1.878  0.0743 -0.5328 -0.0437
 5651SOL    HW128586   1.027   4.345   1.830  1.4928 -0.1778 -2.1405
 5651SOL    HW228587   1.097   4.377   1.953  0.5765 -1.3003  0.6036
 5652SOL     OW28588   0.261   3.805  13.406 -0.0558  0.3694  0.0794
 5652SOL    HW128589   0.323   3.862  13.451 -2.4109  3.0222 -0.0468
 5652SOL    HW228590   0.189   3.809  13.469  0.5630 -0.8522  0.8635
 5653SOL     OW28591   2.244   3.296   5.661  0.2969 -0.3232  0.4071
 5653SOL    HW128592   2.175   3.355   5.693  1.5569  1.4011 -0.0465
 5653SOL    HW228593   2.313   3.358   5.686 -1.3065  2.5900 -2.3487
 5654SOL     OW28594   3.963   4.532   8.661 -0.0896 -0.1728 -0.0432
 5654SOL    HW128595   3.911   4.520   8.581 -3.1587  4.2716  1.2475
 5654SOL    HW228596   3.996   4.621   8.653  0.8308 -0.4950  0.2364
 5655SOL     OW28597   0.756   2.419   4.956 -0.3159  0.0674  0.2857
 5655SOL    HW128598   0.676   2.416   4.903 -0.7843  0.8698  0.9414
 5655SOL    HW228599   0.833   2.407   4.900 -2.2527  2.7334 -2.9413
 5656SOL     OW28600   3.046   0.957   5.372  0.0692 -0.0476  0.1831
 5656SOL    HW128601   3.074   0.907   5.449 -2.4591  1.3596  2.0509
 5656SOL    HW228602   3.054   1.044   5.413 -0.1597  0.6639 -1.2727
 5657SOL     OW28603   1.871   1.642   1.384  0.3601  0.0346  0.3056
 5657SOL    HW128604   1.930   1.693   1.329  1.5731 -0.4909  1.1218
 5657SOL    HW228605   1.811   1.610   1.317  0.9267  1.8029 -1.0600
 5658SOL     OW28606   0.362   1.513   8.919  0.1315 -0.6312  0.1565
 5658SOL    HW128607   0.353   1.438   8.861  2.8620 -0.8930  0.0994
 5658SOL    HW228608   0.455   1.534   8.909  0.7220 -2.3194  2.1713
 5659SOL     OW28609   3.362   4.432   9.017  0.1515 -0.3111  0.4464
 5659SOL    HW128610   3.443   4.389   8.987  0.6523  2.0051 -1.4779
 5659SOL    HW228611   3.316   4.466   8.941  3.8471 -1.1943 -2.2086
 5660SOL     OW28612   3.518   0.956   4.688 -0.4995 -0.3707 -0.0953
 5660SOL    HW128613   3.511   0.995   4.776 -0.5536 -0.5515 -0.0189
 5660SOL    HW228614   3.430   0.918   4.681 -1.0308  0.8858 -0.2576
 5661SOL     OW28615   4.289   1.042  10.109 -1.0372  0.3183 -0.0427
 5661SOL    HW128616   4.298   0.951  10.080  0.4856  0.5037 -0.1425
 5661SOL    HW228617   4.282   1.023  10.203  1.9904 -0.8342 -0.0480
 5662SOL     OW28618   1.678   3.114   4.677  0.2103  0.2478 -0.2251
 5662SOL    HW128619   1.750   3.074   4.628  1.2794  1.6347  0.2145
 5662SOL    HW228620   1.617   3.145   4.610 -0.3329  1.1842  0.6916
 5663SOL     OW28621   2.550   0.726   1.658  0.3527  0.2912 -0.4816
 5663SOL    HW128622   2.498   0.712   1.737 -0.7040  0.3440 -1.1640
 5663SOL    HW228623   2.542   0.638   1.622  0.9843  1.5556 -3.6774
 5664SOL     OW28624   0.235   3.680   6.453 -0.2255 -0.1851 -0.0280
 5664SOL    HW128625   0.265   3.708   6.367  2.5444  0.6110  1.1911
 5664SOL    HW228626   0.216   3.765   6.492 -0.9214 -0.1608 -0.4258
 5665SOL     OW28627   1.903   0.393   6.355 -0.5373  0.2990  0.0055
 5665SOL    HW128628   1.998   0.403   6.365 -0.3397 -1.8708  0.2540
 5665SOL    HW228629   1.888   0.322   6.293 -0.8807 -0.5393  1.0483
 5666SOL     OW28630   4.482   1.105   8.410 -0.2331 -0.2447  0.3782
 5666SOL    HW128631   4.458   1.013   8.421 -1.0049  0.1175  1.7044
 5666SOL    HW228632   4.400   1.134   8.369  0.7370  1.4797 -0.3705
 5667SOL     OW28633   1.947   0.691   7.166  0.1359  0.1152  0.1720
 5667SOL    HW128634   1.922   0.602   7.191  1.4283 -0.0525  0.8149
 5667SOL    HW228635   2.016   0.670   7.103 -0.5463 -3.0436  0.4905
 5668SOL     OW28636   2.391   0.543   5.122  0.0583 -0.1695  0.1053
 5668SOL    HW128637   2.441   0.621   5.146  1.8164 -0.4993 -2.4299
 5668SOL    HW228638   2.375   0.560   5.029 -2.2749 -2.3219  0.1065
 5669SOL     OW28639   1.903   0.347  16.685  0.0876 -0.4274 -0.2005
 5669SOL    HW128640   1.983   0.297  16.698 -0.5662 -1.3165  0.3186
 5669SOL    HW228641   1.939   0.429  16.721  2.0643 -2.5214  2.5437
 5670SOL     OW28642   2.127   3.226   2.166 -0.1581 -0.2648  0.2533
 5670SOL    HW128643   2.104   3.279   2.243  0.9687 -0.9802  1.0822
 5670SOL    HW228644   2.156   3.295   2.107 -1.3161  0.7586  0.8876
 5671SOL     OW28645   2.873   2.054   5.893 -0.7651  0.1517  0.1928
 5671SOL    HW128646   2.844   2.067   5.983  0.2165 -0.1881  0.5562
 5671SOL    HW228647   2.892   2.141   5.860  0.0535  0.3459  1.1844
 5672SOL     OW28648   1.056   1.046   0.056  0.5011 -0.4889 -0.1456
 5672SOL    HW128649   1.018   1.045  17.704 -0.5439 -0.2716  0.3058
 5672SOL    HW228650   1.031   1.133   0.085  0.6542 -0.4177 -0.2260
 5673SOL     OW28651   3.498   4.187   7.953 -0.4735  0.5461 -0.4186
 5673SOL    HW128652   3.535   4.162   8.037  0.0449  0.6335 -0.6224
 5673SOL    HW228653   3.487   4.101   7.911  0.2848 -0.0621  0.6513
 5674SOL     OW28654   1.852   4.056   2.139 -0.5293  0.4273 -0.4136
 5674SOL    HW128655   1.765   4.078   2.172 -0.1968  1.2062 -0.0567
 5674SOL    HW228656   1.817   4.006   2.066 -0.6204 -0.5190  0.2755
 5675SOL     OW28657   4.561   0.609   2.372  0.6333 -0.1648  0.3533
 5675SOL    HW128658   4.650   0.638   2.353  0.4161  0.2142 -0.1015
 5675SOL    HW228659   4.568   0.517   2.349  1.0032  0.4986 -2.1303
 5676SOL     OW28660   3.601   2.533  17.348 -0.4044 -0.0084  0.1343
 5676SOL    HW128661   3.590   2.620  17.309  1.1061 -0.2309 -0.7848
 5676SOL    HW228662   3.635   2.485  17.273 -1.1211  0.7523 -0.6710
 5677SOL     OW28663   1.958   2.743   6.679  0.1983  0.5339 -0.2367
 5677SOL    HW128664   2.044   2.716   6.712  0.9925  1.1069 -1.7823
 5677SOL    HW228665   1.964   2.838   6.688 -0.1911  0.6153 -0.8431
 5678SOL     OW28666   2.030   1.118  16.828  0.4118  0.1277  0.0786
 5678SOL    HW128667   1.985   1.180  16.885 -0.6750 -1.0147  0.4716
 5678SOL    HW228668   2.052   1.055  16.897 -0.9195 -0.8984 -0.4389
 5679SOL     OW28669   4.408   1.127   6.011 -0.5460  0.6022  0.0323
 5679SOL    HW128670   4.374   1.074   6.083 -2.6620  3.4493  1.1216
 5679SOL    HW228671   4.456   1.190   6.063 -2.6867  0.8054  1.7695
 5680SOL     OW28672   2.910   2.396   6.853  0.2854 -0.1191 -0.2736
 5680SOL    HW128673   2.932   2.445   6.932  1.4660 -1.0568 -0.0128
 5680SOL    HW228674   2.863   2.318   6.883 -0.5298  1.2728  2.0610
 5681SOL     OW28675   1.035   3.694   8.436 -0.4337  0.4713  0.3424
 5681SOL    HW128676   1.046   3.752   8.361 -2.4526 -0.1722 -0.4728
 5681SOL    HW228677   1.106   3.728   8.489 -0.0588 -0.3222  0.3542
 5682SOL     OW28678   0.209   2.917   0.476  0.3807 -0.6221  0.4717
 5682SOL    HW128679   0.291   2.894   0.432  2.0461  0.9485  2.7236
 5682SOL    HW228680   0.166   2.944   0.395 -1.2494  0.1221  1.5760
 5683SOL     OW28681   0.880   3.123   7.068  0.3539  0.2705 -0.2857
 5683SOL    HW128682   0.813   3.120   7.000  1.7163 -0.4707 -1.5828
 5683SOL    HW228683   0.848   3.193   7.125  1.0135 -2.1599  3.0212
 5684SOL     OW28684   0.426   3.700   9.691 -0.3832  0.1269  0.4027
 5684SOL    HW128685   0.478   3.679   9.769 -1.4831 -1.0056  0.8245
 5684SOL    HW228686   0.340   3.660   9.704  0.6153 -0.8458  4.1714
 5685SOL     OW28687   3.680   2.712   7.196 -0.3829 -0.3708  0.2205
 5685SOL    HW128688   3.685   2.704   7.291  0.4720  0.7361  0.2639
 5685SOL    HW228689   3.586   2.720   7.184 -0.1546  0.2648 -1.1878
 5686SOL     OW28690   1.847   1.554  13.362 -0.0150 -0.0710 -0.6006
 5686SOL    HW128691   1.934   1.540  13.325 -0.3753  1.3832 -2.0211
 5686SOL    HW228692   1.848   1.645  13.391  0.8371 -0.8942  1.8850
 5687SOL     OW28693   2.034   3.562   3.138 -0.5829 -0.4783  0.1323
 5687SOL    HW128694   2.061   3.551   3.047 -1.0593 -1.2952  0.0823
 5687SOL    HW228695   1.995   3.648   3.128 -0.5821 -0.3914  0.8267
 5688SOL     OW28696   0.253   4.225   3.320 -0.3563  0.3209  0.0516
 5688SOL    HW128697   0.282   4.250   3.232 -0.2785 -0.1945 -0.0701
 5688SOL    HW228698   0.174   4.278   3.324  1.2938  2.8977 -1.8245
 5689SOL     OW28699   0.623   2.713   8.538 -0.1424 -0.0768 -0.6651
 5689SOL    HW128700   0.715   2.736   8.553 -0.4687  1.0675 -0.4118
 5689SOL    HW228701   0.582   2.787   8.583 -0.1527 -1.1209  1.0710
 5690SOL     OW28702   1.898   0.392  16.147  0.1102 -0.1519  0.0881
 5690SOL    HW128703   1.906   0.308  16.103 -0.7071  0.0916 -0.5383
 5690SOL    HW228704   1.953   0.380  16.225 -1.6398  3.5210  1.9279
 5691SOL     OW28705   0.859   2.418   7.233 -0.1659 -0.4042 -0.1275
 5691SOL    HW128706   0.872   2.332   7.274 -0.0602 -0.5244 -0.4103
 5691SOL    HW228707   0.795   2.376   7.175  0.5632  0.8066 -1.8039
 5692SOL     OW28708   4.449   1.192   6.442 -0.5627 -0.4307 -0.2320
 5692SOL    HW128709   4.490   1.206   6.357 -0.6846  1.1942 -0.0245
 5692SOL    HW228710   4.522   1.233   6.490  0.4148 -2.3705 -0.0643
 5693SOL     OW28711   0.056   0.865   6.590  0.0560 -0.0976  0.4223
 5693SOL    HW128712   0.060   0.818   6.673  0.4957 -1.5969 -0.4490
 5693SOL    HW228713   0.073   0.954   6.621 -0.1283  0.0329  0.1526
 5694SOL     OW28714   2.784   0.882   1.649  0.2369  0.6486  0.6252
 5694SOL    HW128715   2.762   0.968   1.685  0.4598  0.9684 -0.0044
 5694SOL    HW228716   2.704   0.831   1.653  1.5417 -1.5762 -1.5146
 5695SOL     OW28717   0.999   1.401   4.319 -0.8586 -0.8785 -0.1055
 5695SOL    HW128718   0.918   1.364   4.354 -1.6492  0.1104 -0.9094
 5695SOL    HW228719   1.055   1.324   4.304  0.7647  0.7863 -2.6158
 5696SOL     OW28720   2.655   2.255  12.435 -0.4089  0.3201 -0.4063
 5696SOL    HW128721   2.624   2.168  12.411  3.0897 -0.4893 -1.9647
 5696SOL    HW228722   2.737   2.230  12.479  1.1993  1.5860 -2.6849
 5697SOL     OW28723   0.185   3.906   3.190 -0.2340  0.1266 -0.3781
 5697SOL    HW128724   0.219   3.995   3.187 -1.5175  0.6216 -0.4988
 5697SOL    HW228725   0.198   3.884   3.098 -0.2583 -1.6859  0.0414
 5698SOL     OW28726   1.904   1.684   5.493  0.6598 -0.0755  0.3895
 5698SOL    HW128727   1.850   1.744   5.544  0.5782  0.8731 -0.8236
 5698SOL    HW228728   1.847   1.608   5.498 -0.6784  0.7278 -2.5618
 5699SOL     OW28729   3.283   0.667   9.051 -0.3527  0.3287 -0.4312
 5699SOL    HW128730   3.194   0.655   9.082  0.6164  2.5508  3.2256
 5699SOL    HW228731   3.317   0.738   9.105  2.2230  0.8728 -2.7248
 5700SOL     OW28732   3.003   0.385   7.029 -0.7709 -0.0335 -0.1892
 5700SOL    HW128733   2.953   0.404   6.949  0.1570 -0.4947 -0.8894
 5700SOL    HW228734   3.051   0.309   6.996  0.0139 -0.0166  0.9043
 5701SOL     OW28735   0.221   0.010   0.134 -0.5690  0.4804  0.0136
 5701SOL    HW128736   0.164   0.046   0.202 -2.3174  1.5103 -2.0145
 5701SOL    HW228737   0.167   0.025   0.057 -0.6835  3.1776  0.6126
 5702SOL     OW28738   0.594   2.667  15.286 -0.0784 -0.6190  0.1259
 5702SOL    HW128739   0.622   2.619  15.208 -2.0139 -0.3972 -0.7017
 5702SOL    HW228740   0.523   2.616  15.325 -0.4939 -1.0042 -1.1257
 5703SOL     OW28741   0.056   4.343   0.477 -0.5359 -0.2025 -0.4168
 5703SOL    HW128742   4.731   4.288   0.426 -1.4677  1.2925 -0.9413
 5703SOL    HW228743   0.071   4.300   0.561 -2.5767 -0.5083 -0.1969
 5704SOL     OW28744   3.727   2.966   7.881 -0.0428 -1.0324 -0.6106
 5704SOL    HW128745   3.779   2.954   7.961  0.0406 -0.0076 -0.5076
 5704SOL    HW228746   3.735   3.056   7.849  0.9771 -0.4918  1.1210
 5705SOL     OW28747   2.461   2.771   7.683  0.1485  0.4589  0.1569
 5705SOL    HW128748   2.432   2.821   7.759 -1.7808 -0.1465 -0.1705
 5705SOL    HW228749   2.429   2.682   7.698 -1.1444  0.6520 -1.4076
 5706SOL     OW28750   3.222   3.573   6.447  0.1384  0.0220  0.4874
 5706SOL    HW128751   3.307   3.538   6.420 -0.3232  1.0201 -2.2035
 5706SOL    HW228752   3.254   3.640   6.507  0.6887  0.1848  0.0098
 5707SOL     OW28753   0.917   1.146   5.710 -0.2022 -0.1029 -0.8039
 5707SOL    HW128754   0.898   1.092   5.787 -2.0722  0.7675 -0.6604
 5707SOL    HW228755   0.874   1.095   5.641 -1.7394 -0.0150  0.1106
 5708SOL     OW28756   3.207   0.872  14.684  0.0595  0.1494  1.0155
 5708SOL    HW128757   3.211   0.943  14.621 -2.5459  1.0560  1.9075
 5708SOL    HW228758   3.285   0.884  14.739  0.4017  1.6111  0.1849
 5709SOL     OW28759   1.510   3.584   5.953  0.0496  0.1245 -0.4662
 5709SOL    HW128760   1.530   3.528   6.029 -0.1377  0.9309  0.1772
 5709SOL    HW228761   1.567   3.549   5.884 -0.1879 -2.4567  0.6309
 5710SOL     OW28762   1.035   3.975  15.529  0.0680 -0.3865 -0.3830
 5710SOL    HW128763   1.042   3.978  15.625 -2.4811  1.5946 -0.2686
 5710SOL    HW228764   1.078   4.059  15.511  0.5933 -0.0952  2.2354
 5711SOL     OW28765   4.697   3.019   3.440  0.4542  0.2025 -0.2851
 5711SOL    HW128766   0.005   2.934   3.442 -1.4117 -0.6922  0.8029
 5711SOL    HW228767   4.612   3.001   3.398  0.9345  0.0661 -1.2068
 5712SOL     OW28768   2.349   4.468   7.668 -0.5648  0.0468 -0.1708
 5712SOL    HW128769   2.293   4.544   7.686 -2.8589 -1.6862 -0.1013
 5712SOL    HW228770   2.421   4.513   7.623 -0.5190  1.0525  0.9068
 5713SOL     OW28771   0.906   2.306  11.189  0.4552  0.0010  0.2239
 5713SOL    HW128772   0.834   2.264  11.237  1.1109 -1.4280 -0.0190
 5713SOL    HW228773   0.973   2.312  11.257 -0.2252  1.1989  0.7797
 5714SOL     OW28774   2.548   2.045   2.458 -0.9482 -0.0296 -0.0426
 5714SOL    HW128775   2.608   2.079   2.524 -0.2416 -1.0476 -0.1569
 5714SOL    HW228776   2.547   2.117   2.395  1.2315 -0.8688 -1.0306
 5715SOL     OW28777   0.868   4.414   5.653 -0.0750  0.1500  0.0306
 5715SOL    HW128778   0.958   4.447   5.654  0.8155 -2.1841 -2.1447
 5715SOL    HW228779   0.882   4.320   5.661  1.2635  0.4376  1.2155
 5716SOL     OW28780   2.029   3.856   2.514  0.2518  0.5579 -0.2742
 5716SOL    HW128781   2.030   3.900   2.429 -1.1890  1.8450  0.3943
 5716SOL    HW228782   2.116   3.815   2.519  1.8130  3.9980  0.4742
 5717SOL     OW28783   0.807   4.127   4.176  0.2640 -0.3237 -0.0903
 5717SOL    HW128784   0.902   4.137   4.173  0.1770  0.5215 -0.0209
 5717SOL    HW228785   0.776   4.130   4.085 -0.0864  1.5584  0.0961
 5718SOL     OW28786   1.509   2.146   6.468 -0.6576  0.0928 -0.2870
 5718SOL    HW128787   1.515   2.240   6.449  0.8321 -0.0142 -0.3542
 5718SOL    HW228788   1.505   2.139   6.563  3.0253 -2.7536 -0.3425
 5719SOL     OW28789   3.645   1.737   8.042  0.2295  0.2209 -0.3966
 5719SOL    HW128790   3.680   1.682   7.972  0.6713  2.6800 -2.1254
 5719SOL    HW228791   3.700   1.701   8.112  1.4807  1.2819 -0.8384
 5720SOL     OW28792   2.522   3.756  10.831  0.5002  0.0843 -0.3063
 5720SOL    HW128793   2.578   3.825  10.867 -0.9479 -0.1545  2.4368
 5720SOL    HW228794   2.432   3.782  10.851  0.5205 -0.9310  1.0893
 5721SOL     OW28795   2.290   1.732  12.881  0.0549  0.4866  0.0463
 5721SOL    HW128796   2.294   1.726  12.976 -1.5887 -1.1977 -0.0050
 5721SOL    HW228797   2.259   1.822  12.875  1.7303  1.0666  0.0366
 5722SOL     OW28798   3.008   3.399   3.324  0.2543  0.0310 -0.2718
 5722SOL    HW128799   2.966   3.470   3.275  0.0706  0.6820  0.8090
 5722SOL    HW228800   2.982   3.326   3.268 -1.0401  0.5878 -0.4005
 5723SOL     OW28801   2.007   2.459   7.880  0.0730 -0.2439 -0.0073
 5723SOL    HW128802   2.054   2.396   7.827 -0.6849 -1.3839  0.6734
 5723SOL    HW228803   1.931   2.465   7.822 -0.3005  1.9677  0.7008
 5724SOL     OW28804   0.330   4.049  13.154  0.0871 -0.4655  0.2254
 5724SOL    HW128805   0.322   4.079  13.244 -2.0186 -0.5835  0.0807
 5724SOL    HW228806   0.375   4.128  13.123 -0.9351  0.8703  2.1675
 5725SOL     OW28807   0.072   0.415  10.269 -0.4799  0.0135  1.0167
 5725SOL    HW128808   0.134   0.461  10.326 -1.8378  1.9742  0.9100
 5725SOL    HW228809   0.109   0.328  10.278  1.3616  0.7703  0.8552
 5726SOL     OW28810   3.179   3.938   5.641  0.1909  0.0038  0.2686
 5726SOL    HW128811   3.086   3.929   5.620 -0.8557  3.2230  3.5603
 5726SOL    HW228812   3.180   4.018   5.694  2.3130  1.0537 -1.3146
 5727SOL     OW28813   3.485   1.747  15.302  0.0608 -0.2017  0.0799
 5727SOL    HW128814   3.552   1.684  15.273 -2.1002 -1.5393 -1.9882
 5727SOL    HW228815   3.411   1.717  15.249  0.5362  0.5722 -1.0295
 5728SOL     OW28816   0.315   4.065   9.107 -0.3703 -0.7514 -0.0797
 5728SOL    HW128817   0.338   4.068   9.200  0.4885 -1.5827 -0.2600
 5728SOL    HW228818   0.404   4.039   9.081  0.0591  0.7293 -0.1160
 5729SOL     OW28819   0.839   1.580   2.325 -0.6932  0.2330  0.5199
 5729SOL    HW128820   0.901   1.651   2.341 -3.4453  2.3707  1.7693
 5729SOL    HW228821   0.846   1.565   2.231 -3.8267  1.3479  0.0756
 5730SOL     OW28822   2.652   4.247   6.904 -0.2998 -0.2968 -0.5119
 5730SOL    HW128823   2.733   4.209   6.869 -0.0760 -1.5737  1.4374
 5730SOL    HW228824   2.640   4.190   6.979 -2.5120 -1.1045 -1.4718
 5731SOL     OW28825   4.019   4.228   2.426 -0.0446  0.2304  0.1703
 5731SOL    HW128826   4.041   4.292   2.494  1.4626  0.3316 -0.4088
 5731SOL    HW228827   3.951   4.280   2.383 -1.2632 -1.0514  0.5484
 5732SOL     OW28828   3.777   2.081  12.059  0.1151 -0.4101  0.2267
 5732SOL    HW128829   3.810   2.062  12.147  0.3385 -3.8711 -0.6019
 5732SOL    HW228830   3.848   2.054  12.002  0.1305  1.1479 -0.4886
 5733SOL     OW28831   3.047   0.169   4.245  0.1675 -0.2134  0.0622
 5733SOL    HW128832   3.115   0.232   4.267 -0.3698  0.3756  0.0408
 5733SOL    HW228833   3.048   0.117   4.325  1.0448 -1.8654 -1.0103
 5734SOL     OW28834   3.406   3.588  15.617  0.0676  0.1922 -0.0371
 5734SOL    HW128835   3.486   3.609  15.666  0.3992  0.1986 -0.5847
 5734SOL    HW228836   3.352   3.573  15.695 -0.8923  0.5106 -0.6435
 5735SOL     OW28837   2.992   1.787   8.800  0.0537 -0.1935  0.2353
 5735SOL    HW128838   3.077   1.773   8.759  0.3261 -2.1639  1.4434
 5735SOL    HW228839   2.937   1.727   8.750  0.0118 -2.6679  3.2605
 5736SOL     OW28840   3.188   0.078   7.895 -0.2801  0.1615  0.1634
 5736SOL    HW128841   3.283   0.069   7.890 -0.4678 -0.4951 -2.3367
 5736SOL    HW228842   3.156   4.726   7.868 -2.9198  0.2380  3.1129
 5737SOL     OW28843   0.876   0.284   3.886 -0.0753 -0.1266  0.3566
 5737SOL    HW128844   0.957   0.318   3.848 -1.3326  1.0842 -1.3007
 5737SOL    HW228845   0.903   0.221   3.953 -1.5321 -0.4838  0.6188
 5738SOL     OW28846   0.981   3.559   5.777 -0.2526 -0.4047  0.1135
 5738SOL    HW128847   0.921   3.526   5.844 -0.5814 -1.0905 -0.5059
 5738SOL    HW228848   1.056   3.580   5.832 -0.3554 -2.1771  0.9461
 5739SOL     OW28849   3.134   0.046   5.519 -0.2233 -0.5084  0.1864
 5739SOL    HW128850   3.079   0.027   5.442 -0.6054 -0.0457  0.3452
 5739SOL    HW228851   3.205   4.716   5.508  0.2581 -0.0693  0.8012
 5740SOL     OW28852   4.694   0.580   5.663  0.1864  0.9371  0.2097
 5740SOL    HW128853   4.637   0.623   5.727 -0.6515  0.8961 -0.5194
 5740SOL    HW228854   4.712   0.647   5.597  1.4776  0.7978  0.4044
 5741SOL     OW28855   0.336   3.822   3.408 -0.3354 -0.9429 -0.1441
 5741SOL    HW128856   0.291   3.835   3.325  0.0380  1.9451  0.1344
 5741SOL    HW228857   0.430   3.819   3.388 -0.6473  0.0635 -1.7881
 5742SOL     OW28858   1.648   2.109   3.952 -0.1671  0.0075 -0.3272
 5742SOL    HW128859   1.662   2.124   3.858  1.0765 -3.2459 -0.6629
 5742SOL    HW228860   1.662   2.192   3.996  0.6926 -0.3098 -0.0098
 5743SOL     OW28861   3.861   2.859   6.804  0.1294  0.4081 -0.1695
 5743SOL    HW128862   3.871   2.931   6.741 -0.2131 -0.4523 -1.1978
 5743SOL    HW228863   3.882   2.908   6.884 -1.4667  1.7543 -0.5621
 5744SOL     OW28864   0.431   3.984  13.538  0.2067 -0.0115  0.1353
 5744SOL    HW128865   0.519   3.997  13.503 -0.3687  1.6224 -0.7203
 5744SOL    HW228866   0.410   4.077  13.527  1.6614  0.2176 -0.6917
 5745SOL     OW28867   1.656   3.200   6.144 -0.4700 -0.1529  0.4270
 5745SOL    HW128868   1.704   3.156   6.215  0.3353 -1.4131 -0.9012
 5745SOL    HW228869   1.693   3.178   6.058  1.3749 -2.7677  1.8690
 5746SOL     OW28870   0.673   0.503   5.674  0.0031 -0.3377 -0.2251
 5746SOL    HW128871   0.655   0.418   5.714  0.5221 -0.2882  0.1155
 5746SOL    HW228872   0.725   0.543   5.743 -0.8275 -0.1533  0.2932
 5747SOL     OW28873   0.649   3.758   5.890  0.7348 -0.0544  0.2732
 5747SOL    HW128874   0.672   3.793   5.976 -3.2055 -2.2093  2.1804
 5747SOL    HW228875   0.730   3.777   5.842  0.8201  1.0413  0.8481
 5748SOL     OW28876   3.233   3.489   4.543  0.2013 -0.0125 -0.1771
 5748SOL    HW128877   3.292   3.558   4.575  0.3989  0.1054 -0.8065
 5748SOL    HW228878   3.303   3.436   4.504 -1.2196 -0.8012 -1.6372
 5749SOL     OW28879   0.483   3.613   2.506 -0.2930  0.2688 -0.1936
 5749SOL    HW128880   0.413   3.670   2.475 -0.3133 -0.2784 -1.1800
 5749SOL    HW228881   0.471   3.636   2.598 -0.7441  0.1660 -0.2261
 5750SOL     OW28882   0.218   4.078  15.836  0.3854  0.0281  0.0678
 5750SOL    HW128883   0.143   4.138  15.834 -0.6822 -1.3878 -2.2148
 5750SOL    HW228884   0.263   4.093  15.753 -1.4310  0.9057 -0.7699
 5751SOL     OW28885   0.719   4.524   5.430  0.7108  0.3594 -0.0609
 5751SOL    HW128886   0.783   4.469   5.474 -0.4953 -2.4563 -1.8387
 5751SOL    HW228887   0.742   4.612   5.460  1.1283 -0.0697  0.8985
 5752SOL     OW28888   1.617   3.830   3.745  0.1221  0.0461 -0.1858
 5752SOL    HW128889   1.646   3.889   3.814  0.0048  0.2147 -0.2809
 5752SOL    HW228890   1.526   3.858   3.738  0.0939 -0.1798 -0.7218
 5753SOL     OW28891   1.111   2.858   3.772 -0.7252  0.3036  0.5264
 5753SOL    HW128892   1.171   2.790   3.804 -0.3751  1.0715  1.4853
 5753SOL    HW228893   1.174   2.927   3.753 -1.5804  1.1609  0.8290
 5754SOL     OW28894   2.433   1.940  11.836 -0.2327 -0.4548 -0.1891
 5754SOL    HW128895   2.452   2.027  11.800  1.8734 -0.3301  1.1631
 5754SOL    HW228896   2.513   1.889  11.823  0.4425  0.8414 -1.2083
 5755SOL     OW28897   1.038   1.607   8.305  0.6112 -0.3538  0.6584
 5755SOL    HW128898   1.123   1.587   8.266 -1.4200  1.1518 -4.4740
 5755SOL    HW228899   0.991   1.527   8.284 -1.8553  1.6499 -1.3154
 5756SOL     OW28900   3.809   0.039   8.198 -0.2643 -0.3013 -0.2124
 5756SOL    HW128901   3.727   4.725   8.188  0.1360 -1.0957  0.3904
 5756SOL    HW228902   3.874   4.704   8.207 -1.0471 -1.1046 -0.7416
 5757SOL     OW28903   2.418   0.306   1.425  0.0022 -0.1833  0.6969
 5757SOL    HW128904   2.425   0.228   1.480  0.2630 -1.0442 -0.5823
 5757SOL    HW228905   2.325   0.303   1.401 -0.2021  0.9531  1.3355
 5758SOL     OW28906   1.698   4.556   7.047 -0.0098  0.2306  0.4206
 5758SOL    HW128907   1.636   4.545   7.119 -1.0940 -0.9380 -0.7020
 5758SOL    HW228908   1.741   4.634   7.081  0.3192 -0.0717  0.6926
 5759SOL     OW28909   0.025   3.918  15.913 -0.1896 -0.5057  0.3482
 5759SOL    HW128910   0.107   3.966  15.924 -1.2058  1.0892  0.9051
 5759SOL    HW228911   0.013   3.931  15.819 -0.2965  1.1425  0.5797
 5760SOL     OW28912   1.319   2.671  14.980  0.3553 -0.2765  0.1065
 5760SOL    HW128913   1.240   2.647  15.028  0.1666 -2.4381 -1.2851
 5760SOL    HW228914   1.295   2.671  14.887 -0.2011  0.8619  0.2533
 5761SOL     OW28915   2.110   2.250   7.723 -0.2136  0.7647 -0.1405
 5761SOL    HW128916   2.062   2.174   7.754 -1.9156  1.5003 -0.9935
 5761SOL    HW228917   2.198   2.223   7.750 -0.4393  1.1574  0.9849
 5762SOL     OW28918   3.829   0.233   4.546 -0.3087 -0.4769  0.2170
 5762SOL    HW128919   3.849   0.232   4.640  0.4982  0.9212  0.0655
 5762SOL    HW228920   3.881   0.302   4.506 -0.0672 -0.2403  0.9338
 5763SOL     OW28921   2.137   4.366  13.116  0.1836  0.0535 -0.3373
 5763SOL    HW128922   2.179   4.384  13.031 -2.0480  1.5160 -1.1155
 5763SOL    HW228923   2.196   4.297  13.148 -1.3962 -1.4589 -0.6914
 5764SOL     OW28924   1.966   1.004   3.820 -0.3129 -0.6755  0.0435
 5764SOL    HW128925   1.921   0.972   3.742 -0.0386 -1.1319  0.0690
 5764SOL    HW228926   1.900   1.066   3.851  2.1395  0.9058  2.0740
 5765SOL     OW28927   0.611   1.847   3.291 -0.0389 -0.3419  0.1560
 5765SOL    HW128928   0.663   1.817   3.217 -1.0224 -0.7411 -0.3715
 5765SOL    HW228929   0.633   1.783   3.358  0.4785 -0.7625 -0.4151
 5766SOL     OW28930   2.989   3.959   6.491  0.2945 -0.0729  0.3904
 5766SOL    HW128931   3.083   3.958   6.504  0.4863  0.2456 -0.9075
 5766SOL    HW228932   2.966   3.996   6.576  0.2754  0.6273  0.0890
 5767SOL     OW28933   3.106   2.298   5.168 -0.2531 -0.3884 -0.1556
 5767SOL    HW128934   3.171   2.236   5.202 -0.6362 -1.1038 -0.7257
 5767SOL    HW228935   3.149   2.293   5.083 -0.8333  0.2581 -0.4827
 5768SOL     OW28936   3.636   3.255   5.027 -0.1561  0.2560  0.4898
 5768SOL    HW128937   3.676   3.238   4.942 -1.9658  3.2044 -0.9326
 5768SOL    HW228938   3.548   3.225   5.005  0.1920  0.8494 -1.6753
 5769SOL     OW28939   0.401   0.820   0.370 -0.2504  0.1725 -0.2121
 5769SOL    HW128940   0.384   0.736   0.328  1.0867  0.9162 -2.2608
 5769SOL    HW228941   0.338   0.871   0.318  2.3964  0.9807 -2.6297
 5770SOL     OW28942   2.025   3.005   5.332  0.5253  0.3877  0.0362
 5770SOL    HW128943   2.036   2.988   5.238 -0.5255  1.7666 -0.3426
 5770SOL    HW228944   2.089   3.076   5.344  0.0307  0.6749  0.9395
 5771SOL     OW28945   3.450   0.395   6.191 -0.0314 -0.2852 -0.5786
 5771SOL    HW128946   3.383   0.449   6.234 -1.0996 -0.1105 -2.4770
 5771SOL    HW228947   3.415   0.397   6.102  0.7089 -1.1739 -0.8862
 5772SOL     OW28948   1.019   4.675   7.196 -0.1784  0.0519 -0.6814
 5772SOL    HW128949   0.924   4.682   7.183 -0.1766 -0.1372 -0.7991
 5772SOL    HW228950   1.040   4.605   7.135 -2.4760 -2.1024  1.0001
 5773SOL     OW28951   2.111   3.172  11.495  0.0399 -0.1239 -0.1947
 5773SOL    HW128952   2.077   3.166  11.406  0.9813 -1.3769 -0.4825
 5773SOL    HW228953   2.203   3.149  11.477  0.5865  1.6585  0.3359
 5774SOL     OW28954   3.849   4.060   5.384 -0.0945 -0.2460 -0.1013
 5774SOL    HW128955   3.923   4.105   5.344 -1.7489  2.4694 -0.1543
 5774SOL    HW228956   3.892   3.992   5.436  0.5640  0.3086  0.0796
 5775SOL     OW28957   4.530   3.219   2.385 -0.4491  0.5032  0.1092
 5775SOL    HW128958   4.514   3.276   2.460 -0.4156  2.4440 -1.3486
 5775SOL    HW228959   4.441   3.210   2.352  0.0705 -1.7625 -0.7110
 5776SOL     OW28960   4.126   2.797   2.365  0.0795 -0.3590  0.4958
 5776SOL    HW128961   4.041   2.820   2.402  1.0686  3.5962  0.3166
 5776SOL    HW228962   4.175   2.748   2.430  1.5323 -0.0816 -0.3992
 5777SOL     OW28963   0.531   1.670   5.289  0.0633 -0.1897  0.5887
 5777SOL    HW128964   0.618   1.709   5.298  0.0580 -0.1905  0.6412
 5777SOL    HW228965   0.519   1.662   5.194 -2.6703 -0.2202  0.9307
 5778SOL     OW28966   0.159   3.249   6.252  0.4231 -0.1059  0.4812
 5778SOL    HW128967   0.141   3.304   6.328 -0.6702 -2.6207  2.0776
 5778SOL    HW228968   0.214   3.307   6.200  1.6964  0.7706  2.8221
 5779SOL     OW28969   1.776   1.269   3.153  0.4205  0.2704 -0.2767
 5779SOL    HW128970   1.805   1.328   3.084 -0.9273  0.5539 -0.6078
 5779SOL    HW228971   1.833   1.305   3.220 -0.2470 -0.2136  0.5435
 5780SOL     OW28972   1.014   4.597   4.577 -0.1730  0.2606 -0.2569
 5780SOL    HW128973   1.068   4.654   4.522  0.0103  0.6594  0.3421
 5780SOL    HW228974   1.085   4.553   4.623 -0.3457 -0.7827 -0.9777
 5781SOL     OW28975   4.520   1.499   2.324  0.2871  0.0996  0.0439
 5781SOL    HW128976   4.551   1.579   2.281  0.4798 -0.3159 -0.5861
 5781SOL    HW228977   4.570   1.442   2.266  0.3535 -0.3929  0.5842
 5782SOL     OW28978   4.507   4.083  15.988  0.8897 -0.0670 -0.4283
 5782SOL    HW128979   4.554   4.001  15.994 -0.7872 -1.1715 -2.1075
 5782SOL    HW228980   4.580   4.144  15.995  1.5457 -0.9030 -0.0717
 5783SOL     OW28981   0.469   1.989  14.980  0.4389 -0.0167 -0.1360
 5783SOL    HW128982   0.511   2.058  14.930  2.1207  0.0975  1.4378
 5783SOL    HW228983   0.453   1.926  14.910 -0.3792  1.2693 -1.1083
 5784SOL     OW28984   0.717   0.468   1.831  0.6262 -0.2523 -0.2790
 5784SOL    HW128985   0.776   0.497   1.901 -0.3720  1.5308 -0.1791
 5784SOL    HW228986   0.684   0.549   1.793 -0.7093 -0.5509  0.2360
 5785SOL     OW28987   3.066   2.259   1.459  0.0059 -0.0102 -0.2185
 5785SOL    HW128988   3.037   2.291   1.544  0.2772  0.3519 -0.2623
 5785SOL    HW228989   3.083   2.348   1.426  0.4509  0.0475  0.1682
 5786SOL     OW28990   4.003   1.489   8.898  0.1400  0.2332 -0.4939
 5786SOL    HW128991   3.961   1.571   8.924  0.7769  1.3833 -3.0238
 5786SOL    HW228992   4.065   1.528   8.836  1.3899  0.5619  0.9816
 5787SOL     OW28993   4.328   3.068   8.439  0.6719  0.1101 -0.0887
 5787SOL    HW128994   4.330   2.975   8.461  2.2433  0.7247  2.3814
 5787SOL    HW228995   4.388   3.089   8.367  0.7077  0.8061  0.1418
 5788SOL     OW28996   4.102   0.755   8.449 -0.5521  0.0675  0.3191
 5788SOL    HW128997   4.027   0.770   8.506 -3.1825 -0.7374 -2.9328
 5788SOL    HW228998   4.075   0.672   8.409 -1.4271 -0.1600  1.4000
 5789SOL     OW28999   3.613   1.120  13.080  0.1608  0.3067  0.2703
 5789SOL    HW129000   3.675   1.048  13.073 -0.6544 -0.4359  0.6390
 5789SOL    HW229001   3.651   1.166  13.155  1.4117  0.3362 -0.3844
 5790SOL     OW29002   1.071   1.835   1.629 -0.6761  0.3350 -0.5392
 5790SOL    HW129003   0.983   1.854   1.662 -0.0277 -2.1130  2.6422
 5790SOL    HW229004   1.074   1.743   1.655  0.1232  0.3688 -0.5163
 5791SOL     OW29005   1.782   0.362   8.129  0.0616  0.1183  0.3983
 5791SOL    HW129006   1.754   0.401   8.212  1.8372 -1.2052  1.6418
 5791SOL    HW229007   1.872   0.331   8.144 -0.0874  0.6415  2.4231
 5792SOL     OW29008   1.821   3.879   4.751  0.0936  0.3479  0.1540
 5792SOL    HW129009   1.905   3.912   4.782  0.0819 -0.0603  0.6179
 5792SOL    HW229010   1.786   3.954   4.702  0.1319  1.7723  2.2860
 5793SOL     OW29011   2.143   2.637   0.510 -0.4065  0.4739  0.3708
 5793SOL    HW129012   2.120   2.684   0.430 -3.0496  0.6314  1.2182
 5793SOL    HW229013   2.060   2.626   0.556 -2.3499  1.1563 -2.9626
 5794SOL     OW29014   3.378   2.523  12.473  0.1197  0.2156 -0.1317
 5794SOL    HW129015   3.455   2.550  12.523  0.3279 -1.9220  0.6942
 5794SOL    HW229016   3.376   2.578  12.394  1.1497 -1.6534 -1.4701
 5795SOL     OW29017   1.318   0.528   2.410 -0.5394 -0.2688  0.5248
 5795SOL    HW129018   1.394   0.469   2.402 -0.2998  0.2796 -1.2732
 5795SOL    HW229019   1.353   0.598   2.465  0.1814 -0.6200  0.5220
 5796SOL     OW29020   3.210   2.831   9.864 -0.3130  0.2842 -0.1041
 5796SOL    HW129021   3.171   2.901   9.917  0.2575  0.3665  0.2111
 5796SOL    HW229022   3.136   2.782   9.828 -0.9870 -1.6418  3.8570
 5797SOL     OW29023   1.312   4.334   3.113 -0.0315  0.0448  0.3656
 5797SOL    HW129024   1.303   4.367   3.024  0.1963 -0.3131  0.2112
 5797SOL    HW229025   1.375   4.265   3.095  1.9334  1.8166  0.4648
 5798SOL     OW29026   3.504   4.064   7.556  0.2612 -0.3172  0.0592
 5798SOL    HW129027   3.525   4.137   7.497 -0.7771 -2.3091 -2.7563
 5798SOL    HW229028   3.409   4.066   7.573 -0.0042 -1.7055 -1.2593
 5799SOL     OW29029   2.762   1.976   9.061  0.2652  0.0483  0.5928
 5799SOL    HW129030   2.769   2.031   9.139  0.6560 -0.9197  1.2439
 5799SOL    HW229031   2.714   1.903   9.100  1.5348 -1.2582 -0.2790
 5800SOL     OW29032   0.101   0.473  16.496  0.6124  0.2937 -0.2465
 5800SOL    HW129033   0.141   0.423  16.425 -1.3180 -1.4274 -0.1029
 5800SOL    HW229034   0.104   0.563  16.464  1.9752 -0.4772 -2.2655
 5801SOL     OW29035   4.249   1.691   7.574 -0.6355  0.3085 -0.4507
 5801SOL    HW129036   4.292   1.750   7.636  0.1808  0.1781 -0.8897
 5801SOL    HW229037   4.164   1.735   7.566 -0.9770 -0.8967 -3.2443
 5802SOL     OW29038   3.269   0.183  10.247  0.2986 -0.3712  0.5595
 5802SOL    HW129039   3.360   0.162  10.227  0.8995  1.5729  1.2868
 5802SOL    HW229040   3.275   0.169  10.342 -0.9189 -1.7314  0.4352
 5803SOL     OW29041   2.286   4.656   5.996  0.5643 -0.2519  0.0566
 5803SOL    HW129042   2.344   4.591   5.957  1.5159  1.5040 -1.4701
 5803SOL    HW229043   2.272   4.642   6.089 -1.4261 -2.2329 -0.5255
 5804SOL     OW29044   3.749   4.021   2.592 -0.2782 -0.0577 -0.0401
 5804SOL    HW129045   3.814   4.063   2.649 -1.8458  0.0919  1.6367
 5804SOL    HW229046   3.705   4.099   2.558  2.4705  2.2228  1.6164
 5805SOL     OW29047   1.461   4.661   0.477 -0.1307 -0.1391 -0.1447
 5805SOL    HW129048   1.433   4.622   0.560 -0.0191  0.8979  0.3869
 5805SOL    HW229049   1.399   4.627   0.412  0.0545 -0.3850 -0.1915
 5806SOL     OW29050   2.902   0.627  10.340 -0.6228 -0.1832  0.0519
 5806SOL    HW129051   2.935   0.688  10.406 -1.4481  1.0205 -0.6624
 5806SOL    HW229052   2.981   0.615  10.287 -0.7528 -0.5488 -0.0600
 5807SOL     OW29053   2.447   2.545  15.864 -0.3197  0.3260  0.3406
 5807SOL    HW129054   2.402   2.621  15.828  0.9078  1.3317  0.9150
 5807SOL    HW229055   2.531   2.583  15.891  1.5801 -2.3384 -1.8400
 5808SOL     OW29056   3.852   3.257   2.829  0.1747 -0.1018 -0.4470
 5808SOL    HW129057   3.920   3.212   2.879  2.1775  0.8681 -2.2943
 5808SOL    HW229058   3.873   3.350   2.839 -0.1136 -0.2314  1.2576
 5809SOL     OW29059   1.057   3.259  15.654 -0.5130 -0.5875  0.8812
 5809SOL    HW129060   1.103   3.195  15.599  0.3450  0.6680  0.1381
 5809SOL    HW229061   1.003   3.211  15.717 -1.2087 -2.1942 -0.9207
 5810SOL     OW29062   3.479   0.373   7.968  0.3727 -0.1408  0.1864
 5810SOL    HW129063   3.404   0.429   7.948  0.0934 -0.3522  0.6299
 5810SOL    HW229064   3.455   0.290   7.928  1.6596  0.0479 -0.9774
 5811SOL     OW29065   0.648   2.298  12.713 -0.2244  0.3342 -0.4818
 5811SOL    HW129066   0.636   2.298  12.808 -1.1879  2.2773 -0.6045
 5811SOL    HW229067   0.591   2.227  12.684 -3.0348  3.4451 -2.5990
 5812SOL     OW29068   2.767   0.385  15.590  0.5787  0.0022  0.0528
 5812SOL    HW129069   2.723   0.470  15.585 -1.6610 -1.0896  1.0873
 5812SOL    HW229070   2.741   0.361  15.679 -0.8789 -0.1535 -0.4121
 5813SOL     OW29071   4.049   2.382   6.827  0.0044  0.3762 -0.1773
 5813SOL    HW129072   4.000   2.301   6.812  2.6980 -1.2301 -0.3001
 5813SOL    HW229073   4.135   2.353   6.797 -0.7742 -0.4744 -1.6537
 5814SOL     OW29074   2.942   0.855   2.011 -0.0043  0.1283  0.0789
 5814SOL    HW129075   2.932   0.814   2.097  0.2143 -0.8667 -0.3673
 5814SOL    HW229076   3.002   0.924   2.040 -1.0362 -0.4639  3.5536
 5815SOL     OW29077   3.705   3.796   8.541 -0.0085  0.4122 -0.1247
 5815SOL    HW129078   3.762   3.822   8.613  1.3453  1.1792 -1.4612
 5815SOL    HW229079   3.724   3.864   8.476  2.0992  1.7701  1.9411
 5816SOL     OW29080   0.224   0.278   6.514 -0.0663 -0.0695 -0.3191
 5816SOL    HW129081   0.228   0.373   6.509 -0.4627 -0.0684 -0.6180
 5816SOL    HW229082   0.255   0.259   6.426 -0.7153 -0.1500 -0.5337
 5817SOL     OW29083   1.423   2.071   7.370  0.1080  0.1309 -0.2632
 5817SOL    HW129084   1.512   2.042   7.392  0.1364  0.9960  0.7771
 5817SOL    HW229085   1.407   2.136   7.438 -0.5893  0.0784 -0.3729
 5818SOL     OW29086   4.225   4.589   7.270 -0.1205 -0.2593  0.5115
 5818SOL    HW129087   4.266   4.565   7.187  1.3099  0.0468  1.1318
 5818SOL    HW229088   4.203   4.682   7.264  0.6910 -0.1377 -0.5422
 5819SOL     OW29089   1.981   2.883   3.847 -0.1229  0.2274  0.3994
 5819SOL    HW129090   1.996   2.857   3.937 -1.2160 -0.4129  0.4021
 5819SOL    HW229091   1.885   2.884   3.853 -0.2662 -1.3924 -1.8034
 5820SOL     OW29092   3.903   2.203   7.839 -0.0860 -0.2749 -0.4400
 5820SOL    HW129093   3.860   2.183   7.922  0.4028 -0.4406 -0.2238
 5820SOL    HW229094   3.873   2.293   7.826  1.5676  0.3334 -0.0048
 5821SOL     OW29095   0.076   3.783   8.044  0.2026 -0.0312  0.3596
 5821SOL    HW129096   0.078   3.737   8.127  1.1896 -1.2103 -0.3229
 5821SOL    HW229097   0.166   3.814   8.031 -0.3499  0.4013 -2.4876
 5822SOL     OW29098   0.329   1.643  13.911 -0.0238  0.2891 -0.2704
 5822SOL    HW129099   0.356   1.706  13.978  0.5270 -0.8918  0.6103
 5822SOL    HW229100   0.249   1.687  13.882  0.5496 -0.3682 -2.8160
 5823SOL     OW29101   3.448   2.454   3.914  0.7187 -0.3660 -0.1695
 5823SOL    HW129102   3.402   2.440   3.831 -0.0200  1.1101 -0.0033
 5823SOL    HW229103   3.514   2.521   3.897  0.0589 -0.2121 -2.2111
 5824SOL     OW29104   1.420   0.833  12.416  0.0569 -0.6131  0.3881
 5824SOL    HW129105   1.475   0.886  12.474  0.1377 -2.6119  2.1674
 5824SOL    HW229106   1.482   0.775  12.371  0.8571  0.1489  0.5158
 5825SOL     OW29107   0.082   1.059   9.170 -0.6086 -0.1753 -0.1533
 5825SOL    HW129108   0.139   1.062   9.093  2.2747 -0.1569  1.9571
 5825SOL    HW229109   0.020   0.995   9.135 -0.4895 -1.2345  1.5373
 5826SOL     OW29110   0.889   4.725   2.917  0.2168  0.0650 -0.0987
 5826SOL    HW129111   0.844   0.071   2.892  1.2509  1.1719  1.5649
 5826SOL    HW229112   0.815   4.672   2.947 -2.1364  1.8166 -2.7871
 5827SOL     OW29113   4.104   3.534   5.789 -0.0284 -0.4555 -0.8831
 5827SOL    HW129114   4.090   3.442   5.770 -0.6492 -0.9992  2.2512
 5827SOL    HW229115   4.161   3.564   5.718  0.4384  1.7397  0.4087
 5828SOL     OW29116   3.426   1.934   1.164  0.5392 -0.1064 -0.0243
 5828SOL    HW129117   3.477   2.012   1.144 -0.7225  0.1190 -2.3759
 5828SOL    HW229118   3.394   1.961   1.250  0.3818 -2.0212  0.5323
 5829SOL     OW29119   3.844   1.589  17.316 -0.5195  0.2216 -0.1238
 5829SOL    HW129120   3.910   1.547  17.371  0.5486 -1.0903 -2.3944
 5829SOL    HW229121   3.770   1.587  17.377 -1.2757  1.6823 -0.9826
 5830SOL     OW29122   4.151   3.424   7.165 -0.7021 -0.4464 -0.2397
 5830SOL    HW129123   4.229   3.463   7.204 -1.0344 -0.4307  0.4057
 5830SOL    HW229124   4.179   3.333   7.177 -0.4955 -0.2572  0.7153
 5831SOL     OW29125   3.825   0.558   0.345  0.3298  0.0628 -0.2417
 5831SOL    HW129126   3.732   0.581   0.353 -0.0960 -1.1946 -1.5887
 5831SOL    HW229127   3.846   0.602   0.428  0.3380  2.0329 -1.2788
 5832SOL     OW29128   0.275   1.542  17.196 -0.5649  0.2871  0.1432
 5832SOL    HW129129   0.205   1.579  17.250  1.2275  0.5334  2.2583
 5832SOL    HW229130   0.328   1.622  17.192 -0.6259  0.3581  0.7280
 5833SOL     OW29131   3.639   1.727   8.763 -0.4988  0.2294 -0.5686
 5833SOL    HW129132   3.666   1.725   8.671 -1.4570 -0.1706 -0.8433
 5833SOL    HW229133   3.579   1.802   8.760 -0.2989  0.3786 -0.8491
 5834SOL     OW29134   2.978   1.988  12.181 -0.6200 -0.0323 -0.0179
 5834SOL    HW129135   3.034   1.939  12.120 -0.6887  0.7084 -0.6899
 5834SOL    HW229136   2.886   1.974  12.160  0.1174 -0.5046 -2.9766
 5835SOL     OW29137   3.302   4.321  10.275  0.0702  1.0847  0.0390
 5835SOL    HW129138   3.311   4.226  10.279 -0.2500  1.0330 -0.4572
 5835SOL    HW229139   3.348   4.341  10.356 -0.2145  1.4666  0.1038
 5836SOL     OW29140   0.734   1.850  12.399 -0.1789  0.7767 -0.2027
 5836SOL    HW129141   0.763   1.808  12.318 -1.1723  0.9225 -0.6251
 5836SOL    HW229142   0.743   1.944  12.382  3.0202  0.6253  0.6207
 5837SOL     OW29143   0.520   2.563   3.084  0.7242 -0.6812  0.0307
 5837SOL    HW129144   0.594   2.507   3.104  1.4049 -0.3264 -1.4647
 5837SOL    HW229145   0.458   2.494   3.060 -0.3258  1.0083 -2.1670
 5838SOL     OW29146   3.967   1.633  12.070 -0.5060 -0.8194  0.1472
 5838SOL    HW129147   3.944   1.568  12.136  2.0445 -1.2512  0.6007
 5838SOL    HW229148   3.985   1.575  11.996  0.5895  1.8757 -1.6945
 5839SOL     OW29149   1.381   0.547   2.823 -0.0590  0.3361 -0.2867
 5839SOL    HW129150   1.296   0.515   2.855 -0.4344  0.8762 -0.7190
 5839SOL    HW229151   1.404   0.464   2.783 -0.9686  0.6821 -1.5431
 5840SOL     OW29152   0.860   0.485  10.861 -0.0507 -0.0984 -0.4314
 5840SOL    HW129153   0.779   0.536  10.856  0.2158  0.0772 -3.2832
 5840SOL    HW229154   0.825   0.398  10.841 -3.0610  1.3012 -1.2978
 5841SOL     OW29155   4.618   3.732   1.989 -0.4070  0.1820  0.3685
 5841SOL    HW129156   4.539   3.780   1.966  0.1193  1.6751  1.6787
 5841SOL    HW229157   4.616   3.720   2.084  1.4681  0.1988  0.4217
 5842SOL     OW29158   4.120   0.830   7.998  0.0468 -0.2318  0.5730
 5842SOL    HW129159   4.114   0.877   8.081  1.4860 -2.0651  1.7253
 5842SOL    HW229160   4.193   0.871   7.952 -0.3664  0.8873  0.9310
 5843SOL     OW29161   1.035   3.277   6.316  0.2016 -0.3444  0.0815
 5843SOL    HW129162   1.052   3.203   6.258  2.1455  0.3266 -0.2151
 5843SOL    HW229163   1.075   3.253   6.400 -0.5158 -0.7445  0.3101
 5844SOL     OW29164   2.410   2.029  12.134  0.3805  0.5619  0.1600
 5844SOL    HW129165   2.339   2.064  12.188  0.6340  2.2502 -0.6069
 5844SOL    HW229166   2.357   1.991  12.063  1.0449 -0.9666  0.4836
 5845SOL     OW29167   0.965   4.267  15.964  0.0785  0.1331 -0.1045
 5845SOL    HW129168   0.919   4.237  16.042 -1.7390 -0.5178 -1.4377
 5845SOL    HW229169   1.051   4.229  15.980 -1.0803 -1.4353  2.2975
 5846SOL     OW29170   3.130   0.356   4.662  0.2097 -0.0930 -0.1404
 5846SOL    HW129171   3.158   0.448   4.659  1.7374 -0.5276  0.8317
 5846SOL    HW229172   3.206   0.313   4.621 -0.1171 -0.8601  0.0571
 5847SOL     OW29173   3.176   4.495   2.190  0.6264  0.2827 -0.0395
 5847SOL    HW129174   3.171   4.574   2.244  0.1029 -0.0955  0.4662
 5847SOL    HW229175   3.256   4.513   2.141  0.7133 -1.1348 -0.4251
 5848SOL     OW29176   0.934   4.227  13.037 -0.1480 -0.9658 -0.4796
 5848SOL    HW129177   1.028   4.246  13.040 -0.2963 -0.3618  0.1705
 5848SOL    HW229178   0.921   4.172  12.959  2.5151  0.0814 -1.6493
 5849SOL     OW29179   1.999   0.209   4.041 -0.1707  0.4586 -0.2471
 5849SOL    HW129180   2.072   0.158   4.007 -0.2224 -0.8517  1.5742
 5849SOL    HW229181   1.976   0.149   4.112 -1.3649 -0.1230 -1.1429
 5850SOL     OW29182   2.642   3.888   9.350 -0.3239 -0.0906 -0.3812
 5850SOL    HW129183   2.652   3.934   9.267  0.0984  1.3199  0.4626
 5850SOL    HW229184   2.654   3.797   9.323  2.2267 -0.1368  0.9199
 5851SOL     OW29185   1.954   2.775   2.648 -0.2991  0.3392  0.2379
 5851SOL    HW129186   1.892   2.828   2.698 -0.9636  0.0493 -0.2765
 5851SOL    HW229187   1.968   2.839   2.578  1.2419 -1.2640 -0.9175
 5852SOL     OW29188   4.313   0.904   7.606  0.1438  0.0656  0.3623
 5852SOL    HW129189   4.373   0.830   7.595  0.4997  0.2966  0.7562
 5852SOL    HW229190   4.374   0.978   7.601 -2.4101  2.0657 -1.3826
 5853SOL     OW29191   4.003   1.176   3.079 -0.5841  0.2515 -0.1184
 5853SOL    HW129192   4.082   1.176   3.025  0.6217  0.8344  1.6729
 5853SOL    HW229193   3.936   1.136   3.022  0.2046 -1.4924  0.2009
 5854SOL     OW29194   3.220   4.182   4.307 -0.4827  0.0032 -0.1188
 5854SOL    HW129195   3.146   4.229   4.346 -0.1970 -0.5670  1.1347
 5854SOL    HW229196   3.294   4.240   4.329  0.2716 -0.4504 -1.4830
 5855SOL     OW29197   2.176   1.899  11.929  0.1635  0.5109 -0.3679
 5855SOL    HW129198   2.123   1.888  11.851 -0.2961 -0.3203  0.0598
 5855SOL    HW229199   2.264   1.916  11.895  0.4753 -2.4874 -1.0195
 5856SOL     OW29200   1.881   2.999   6.840 -0.6168 -0.1593  0.0052
 5856SOL    HW129201   1.883   3.092   6.816  0.9451  0.3950  2.2796
 5856SOL    HW229202   1.941   2.992   6.915 -1.2391 -2.7281  0.2460
 5857SOL     OW29203   4.176   0.748  17.057  0.1317 -0.1162 -0.2299
 5857SOL    HW129204   4.172   0.819  17.121  1.2960  0.0515 -0.3459
 5857SOL    HW229205   4.224   0.791  16.987  0.8592  0.1357  0.4155
 5858SOL     OW29206   2.838   1.172   7.969 -0.5523 -0.1122 -0.1066
 5858SOL    HW129207   2.752   1.182   7.927 -0.8943  0.1163  0.6439
 5858SOL    HW229208   2.889   1.253   7.961 -1.0236  0.2215  0.2632
 5859SOL     OW29209   2.203   0.034   4.320 -0.1634  0.3656  0.1886
 5859SOL    HW129210   2.175   4.680   4.344 -0.5391  1.0897  2.4924
 5859SOL    HW229211   2.131   0.092   4.347 -0.8846 -0.1136 -0.7130
 5860SOL     OW29212   1.252   1.468   1.686  0.3191  0.3563 -0.0658
 5860SOL    HW129213   1.167   1.506   1.664 -0.0813 -0.4580  0.0425
 5860SOL    HW229214   1.231   1.416   1.763 -1.7047 -1.0442 -1.5427
 5861SOL     OW29215   0.237   2.876   1.921 -0.0586 -0.2507  0.3173
 5861SOL    HW129216   0.156   2.826   1.910  0.1913 -1.2009  2.8334
 5861SOL    HW229217   0.210   2.967   1.935  2.5533  0.3815  1.2536
 5862SOL     OW29218   2.359   2.887   2.967  0.2565 -0.0987 -0.2535
 5862SOL    HW129219   2.324   2.835   3.039  2.7593  0.0652  1.0417
 5862SOL    HW229220   2.294   2.865   2.900 -0.9139 -0.6759  1.0684
 5863SOL     OW29221   1.603   3.101   0.998  0.3325  0.1729 -0.3529
 5863SOL    HW129222   1.653   3.019   1.003  0.0596 -0.0453 -1.0603
 5863SOL    HW229223   1.660   3.166   0.958 -1.0070  0.0407 -2.4919
 5864SOL     OW29224   1.777   0.725   1.963  0.1692  0.1201 -0.0177
 5864SOL    HW129225   1.712   0.659   1.988  0.9261 -1.0513 -1.1334
 5864SOL    HW229226   1.855   0.680   1.997  1.6033  1.6120 -1.3619
 5865SOL     OW29227   1.506   0.290   7.960  0.2391 -0.0782 -0.2722
 5865SOL    HW129228   1.579   0.229   7.950  0.2562  0.0357 -0.8026
 5865SOL    HW229229   1.559   0.366   7.984 -0.8016  0.8483 -0.9417
 5866SOL     OW29230   0.952   0.132  17.004  0.2266  0.0815 -0.1945
 5866SOL    HW129231   0.937   0.225  17.016  0.5060  0.2043 -0.7679
 5866SOL    HW229232   0.889   0.110  16.936  2.0840 -0.5044 -1.7498
 5867SOL     OW29233   0.658   1.494   8.336  0.5082 -0.7073  0.2031
 5867SOL    HW129234   0.744   1.452   8.326 -0.4389 -2.9787  1.4862
 5867SOL    HW229235   0.622   1.454   8.415  1.1796  0.3989  1.0648
 5868SOL     OW29236   3.020   1.473  15.135 -0.4875  0.1406  0.3757
 5868SOL    HW129237   3.103   1.451  15.092  0.2756  3.4733  0.1287
 5868SOL    HW229238   3.056   1.513  15.214 -0.6689  2.7682 -0.8673
 5869SOL     OW29239   3.779   2.453   8.654 -0.4637 -0.2366 -0.4109
 5869SOL    HW129240   3.718   2.500   8.711 -0.7884 -1.4486  0.2612
 5869SOL    HW229241   3.749   2.363   8.671  0.7832 -1.0818 -2.6492
 5870SOL     OW29242   1.309   0.351  16.140  0.5259 -0.1124 -0.0494
 5870SOL    HW129243   1.335   0.296  16.215 -2.2915 -0.0384  0.9854
 5870SOL    HW229244   1.368   0.327  16.069  0.2437  1.1554 -0.6992
 5871SOL     OW29245   2.670   0.126   1.635  0.2573  0.2340  0.2442
 5871SOL    HW129246   2.617   0.079   1.570  0.9687 -2.4683  1.6383
 5871SOL    HW229247   2.746   0.144   1.580  1.0575 -2.1894  0.5836
 5872SOL     OW29248   2.006   0.656   3.900 -0.2286 -0.0159 -0.4140
 5872SOL    HW129249   2.016   0.640   3.806  1.7489 -0.8171 -0.0450
 5872SOL    HW229250   1.914   0.679   3.915 -0.2368 -0.1919 -0.1897
 5873SOL     OW29251   4.183   2.575   1.119  0.1108 -0.1754  0.0375
 5873SOL    HW129252   4.150   2.579   1.208  0.0772  2.1839 -0.0599
 5873SOL    HW229253   4.122   2.627   1.066  0.4266  2.4009  2.2171
 5874SOL     OW29254   2.326   0.040   5.580  0.2530 -0.5343 -0.2024
 5874SOL    HW129255   2.420   0.043   5.596  0.4006  1.1206 -1.3541
 5874SOL    HW229256   2.312   4.690   5.538  2.5281 -1.2384  0.4763
 5875SOL     OW29257   3.883   0.747   8.646 -0.4013 -0.2502  0.7695
 5875SOL    HW129258   3.820   0.799   8.697  0.5323  0.5242  1.1139
 5875SOL    HW229259   3.831   0.667   8.639  0.8117 -0.8952 -0.7253
 5876SOL     OW29260   4.692   3.162   4.417 -0.0567 -0.4258  0.4638
 5876SOL    HW129261   4.720   3.253   4.423  0.2119 -0.5308  0.8304
 5876SOL    HW229262   0.039   3.121   4.389  0.7035  1.0775  0.5005
 5877SOL     OW29263   4.728   1.803   2.011  0.2844 -0.3269 -0.1016
 5877SOL    HW129264   4.702   1.764   2.095 -0.4335  0.6698  0.1416
 5877SOL    HW229265   4.702   1.895   2.023 -4.0098 -1.1417 -3.5463
 5878SOL     OW29266   1.078   1.772   8.787 -0.1079 -0.2212 -0.1368
 5878SOL    HW129267   1.156   1.821   8.761  0.2045 -1.8960 -2.3293
 5878SOL    HW229268   1.057   1.721   8.708 -1.5912 -1.4449  1.0626
 5879SOL     OW29269   2.891   3.318  16.626  0.1980 -0.4736  0.0353
 5879SOL    HW129270   2.924   3.253  16.688  0.5464 -0.7308 -0.4198
 5879SOL    HW229271   2.797   3.302  16.626 -0.1245  1.4489  0.7973
 5880SOL     OW29272   3.095   1.781   7.948 -0.1841  0.5024 -0.4986
 5880SOL    HW129273   3.167   1.720   7.931  2.2882  3.1185  0.4882
 5880SOL    HW229274   3.061   1.807   7.862  1.4596  0.3981 -1.1829
 5881SOL     OW29275   4.615   1.614   6.611 -0.6300 -0.2159 -0.1492
 5881SOL    HW129276   4.593   1.579   6.697 -0.3517 -1.9127 -0.7692
 5881SOL    HW229277   4.695   1.660   6.636  0.2477 -0.7433 -1.9303
 5882SOL     OW29278   1.656   4.272  10.073 -0.5248  0.2563  0.1917
 5882SOL    HW129279   1.600   4.339  10.110  2.0384  1.6401  1.5481
 5882SOL    HW229280   1.666   4.211  10.146 -0.9486  0.4768  0.4269
 5883SOL     OW29281   3.850   2.744   4.614 -0.2924  0.0456 -0.6224
 5883SOL    HW129282   3.939   2.707   4.617  0.0173  0.9126  1.2243
 5883SOL    HW229283   3.813   2.704   4.693 -1.3907  1.0829 -0.6168
 5884SOL     OW29284   0.480   2.108   2.880 -0.0074  0.0282  0.0420
 5884SOL    HW129285   0.575   2.100   2.882  0.0737  0.5245 -2.2179
 5884SOL    HW229286   0.457   2.193   2.842  0.4805  0.5758  0.9717
 5885SOL     OW29287   2.954   2.538   6.023 -0.7902  0.0983 -0.1946
 5885SOL    HW129288   2.936   2.448   6.053 -0.8409  0.9642  2.3711
 5885SOL    HW229289   2.996   2.577   6.100 -0.3798 -1.2513  0.2744
 5886SOL     OW29290   3.232   2.210   7.259 -0.7776  0.0621  0.3187
 5886SOL    HW129291   3.275   2.211   7.345  0.3135 -1.4056 -0.2175
 5886SOL    HW229292   3.266   2.295   7.234 -0.8189 -0.0831 -0.2226
 5887SOL     OW29293   2.198   0.675  10.249  0.5430 -0.4720 -0.0058
 5887SOL    HW129294   2.167   0.670  10.340  2.2882 -1.7782  0.5292
 5887SOL    HW229295   2.115   0.680  10.202 -0.1571 -0.5145  1.2052
 5888SOL     OW29296   3.353   1.347   7.307  0.0225  0.1352  0.0058
 5888SOL    HW129297   3.360   1.297   7.388 -1.6821 -0.6344 -0.3370
 5888SOL    HW229298   3.439   1.328   7.267  0.1586  0.6239  0.0690
 5889SOL     OW29299   3.558   3.688   8.135  0.0163  0.1548  1.0359
 5889SOL    HW129300   3.503   3.765   8.149  0.9314  0.8893  0.5641
 5889SOL    HW229301   3.603   3.709   8.053 -0.1302 -1.8024  0.4528
 5890SOL     OW29302   3.489   2.320   2.452  0.2401  0.6577  0.2090
 5890SOL    HW129303   3.534   2.238   2.469 -0.7404 -0.1614 -1.1594
 5890SOL    HW229304   3.563   2.356   2.403  1.9302 -1.2044  1.4100
 5891SOL     OW29305   0.783   3.590  11.362 -0.0475  0.1533 -0.1430
 5891SOL    HW129306   0.699   3.589  11.318  0.5364 -1.3251 -1.2329
 5891SOL    HW229307   0.799   3.497  11.381  0.8606  0.5548  1.0888
 5892SOL     OW29308   1.812   3.866   7.465 -0.1627 -0.4992  0.1193
 5892SOL    HW129309   1.852   3.913   7.539  0.6406  0.5207 -0.9596
 5892SOL    HW229310   1.874   3.795   7.450 -0.6753 -1.0863  0.7701
 5893SOL     OW29311   1.236   3.657   0.390  0.4702  0.1753  0.9645
 5893SOL    HW129312   1.311   3.680   0.444  0.6101  1.0200  0.4152
 5893SOL    HW229313   1.271   3.572   0.364  0.3462 -0.1089  1.7149
 5894SOL     OW29314   3.249   2.936  12.300  0.4678 -0.0439 -0.2794
 5894SOL    HW129315   3.288   2.852  12.276  0.3429 -0.5117  1.0968
 5894SOL    HW229316   3.261   2.982  12.217  0.3028 -1.1828 -0.9288
 5895SOL     OW29317   0.936   3.795   3.898 -0.1213 -0.1835  0.1748
 5895SOL    HW129318   0.851   3.838   3.889 -0.4888 -0.7096  1.1022
 5895SOL    HW229319   0.918   3.724   3.960 -0.7862 -0.4692 -0.3427
 5896SOL     OW29320   2.350   1.098   4.790  0.6013 -0.1983 -0.1922
 5896SOL    HW129321   2.330   1.180   4.836  0.6131 -0.9605  1.1585
 5896SOL    HW229322   2.280   1.083   4.726  0.6095 -0.9715 -0.0060
 5897SOL     OW29323   1.538   1.046   8.040  0.0219  0.2456 -0.0650
 5897SOL    HW129324   1.617   1.075   8.087 -0.0792  1.9781 -0.9662
 5897SOL    HW229325   1.564   0.958   8.012  1.4624 -0.4266  3.3724
 5898SOL     OW29326   0.284   0.175   6.275 -0.2766 -0.4984  0.1740
 5898SOL    HW129327   0.271   0.084   6.251  2.3495 -0.5000 -1.1404
 5898SOL    HW229328   0.296   0.213   6.188  1.0258  0.1761  0.6521
 5899SOL     OW29329   0.565   3.606  10.212  0.0143 -0.2078 -0.2296
 5899SOL    HW129330   0.649   3.642  10.182 -1.0398  2.6873  0.2381
 5899SOL    HW229331   0.550   3.533  10.152 -0.6546 -0.8791  0.7604
 5900SOL     OW29332   3.893   3.385   8.346  0.2642 -0.0198  0.0723
 5900SOL    HW129333   3.829   3.452   8.370 -1.1639 -1.2342 -0.3355
 5900SOL    HW229334   3.973   3.437   8.339  0.1093  0.1703 -0.2834
 5901SOL     OW29335   1.634   0.041   6.351  0.6888  0.8666  0.3935
 5901SOL    HW129336   1.587   0.124   6.344 -1.1065 -0.1005  0.8539
 5901SOL    HW229337   1.561   4.721   6.320  0.7075  1.3925 -0.5408
 5902SOL     OW29338   4.111   4.208   7.760  0.8347  0.5068  0.0728
 5902SOL    HW129339   4.122   4.303   7.758 -0.1835  0.6706  1.5855
 5902SOL    HW229340   4.204   4.189   7.765  0.0726 -2.8948  0.9873
 5903SOL     OW29341   0.531   0.158   9.932  0.2057 -0.3043 -0.3305
 5903SOL    HW129342   0.505   0.104   9.858  0.2461 -0.8007  0.0182
 5903SOL    HW229343   0.614   0.117   9.957 -0.5233 -1.5859  0.0017
 5904SOL     OW29344   0.257   3.617   2.827  0.5043 -0.7287  0.2821
 5904SOL    HW129345   0.196   3.600   2.899  0.4726 -0.8756  0.2203
 5904SOL    HW229346   0.247   3.547   2.762 -2.0070 -0.3865  0.3213
 5905SOL     OW29347   4.309   3.618   2.569 -0.0688 -0.2713  0.1105
 5905SOL    HW129348   4.247   3.559   2.527 -1.2758  2.3352 -1.7640
 5905SOL    HW229349   4.266   3.651   2.648  0.7390 -0.5871  0.6759
 5906SOL     OW29350   1.100   1.741   3.481 -0.1599 -0.1756 -0.3055
 5906SOL    HW129351   1.115   1.665   3.425  1.3293  1.7332 -2.5184
 5906SOL    HW229352   1.078   1.704   3.566 -1.9944  1.0513 -0.2297
 5907SOL     OW29353   2.552   1.366   5.211 -0.1060 -0.2387  0.4275
 5907SOL    HW129354   2.597   1.303   5.155 -0.6046 -1.1846  1.0932
 5907SOL    HW229355   2.541   1.445   5.158  0.4237 -0.0170  0.6461
 5908SOL     OW29356   1.101   3.554   3.100 -0.6703  0.4016  0.0717
 5908SOL    HW129357   1.186   3.511   3.090 -0.6941  0.2490  0.5257
 5908SOL    HW229358   1.044   3.494   3.051 -1.2309  2.5534 -1.8906
 5909SOL     OW29359   1.560   2.187   3.663  0.5619  0.6091 -0.0568
 5909SOL    HW129360   1.537   2.270   3.705 -0.2134  2.0212 -3.2016
 5909SOL    HW229361   1.607   2.216   3.584 -1.1418 -0.0101 -1.2963
 5910SOL     OW29362   0.566   3.586  16.107 -0.1791 -0.3977 -0.1673
 5910SOL    HW129363   0.548   3.583  16.013 -0.2073  0.0956 -0.1788
 5910SOL    HW229364   0.639   3.647  16.099 -0.4996 -0.3310 -2.5846
 5911SOL     OW29365   4.408   3.033   8.780 -0.2917 -0.1653  0.1390
 5911SOL    HW129366   4.397   3.024   8.685 -1.7370  2.1460  0.0786
 5911SOL    HW229367   4.495   2.993   8.790  0.1717  1.1572  1.3331
 5912SOL     OW29368   0.634   1.072  13.529  0.3003  0.1435 -0.3782
 5912SOL    HW129369   0.673   1.102  13.611  0.3417  0.1360 -0.3947
 5912SOL    HW229370   0.651   1.152  13.479 -0.7668  2.3912  2.8769
 5913SOL     OW29371   1.548   3.783   1.602 -0.3183  0.0002  0.6623
 5913SOL    HW129372   1.568   3.695   1.571 -1.1429  0.9404 -2.5512
 5913SOL    HW229373   1.640   3.808   1.604 -0.0345 -1.0589  0.7963
 5914SOL     OW29374   4.100   1.204   8.889  0.4585 -0.4023 -0.3630
 5914SOL    HW129375   4.074   1.292   8.860 -0.3247  0.9540  4.4006
 5914SOL    HW229376   4.024   1.153   8.861  0.8320 -0.6650 -0.9025
 5915SOL     OW29377   3.313   1.148   2.709 -0.0034  0.6444  0.4767
 5915SOL    HW129378   3.365   1.069   2.695 -1.8405 -0.2613 -1.1952
 5915SOL    HW229379   3.375   1.215   2.681  0.0117  0.1161 -0.7713
 5916SOL     OW29380   2.795   3.059   6.234  0.0685 -0.0114  0.0671
 5916SOL    HW129381   2.728   3.110   6.280 -0.9828 -0.4319 -1.0061
 5916SOL    HW229382   2.871   3.098   6.278 -2.1476  2.0146  2.0967
 5917SOL     OW29383   3.551   4.152   5.753  0.6015  0.1468 -0.3090
 5917SOL    HW129384   3.646   4.152   5.741  0.4563 -0.7113 -1.4272
 5917SOL    HW229385   3.524   4.089   5.686  0.6397  0.7841 -0.9231
 5918SOL     OW29386   3.160   1.988  15.276  0.3461  0.0201  0.3760
 5918SOL    HW129387   3.072   2.006  15.311  0.5610  2.7233 -0.4633
 5918SOL    HW229388   3.152   2.012  15.183 -0.3829 -1.0583  0.1611
 5919SOL     OW29389   4.465   4.091   9.441  0.2407 -0.1534  0.0720
 5919SOL    HW129390   4.489   4.124   9.355 -0.4556 -1.4724 -0.6216
 5919SOL    HW229391   4.415   4.016   9.410 -1.0171 -0.6818  3.3554
 5920SOL     OW29392   4.564   1.659  13.820 -1.0291 -0.3358 -0.2276
 5920SOL    HW129393   4.527   1.598  13.757  0.3676  1.7399 -3.0151
 5920SOL    HW229394   4.498   1.654  13.889 -1.6659  0.2169 -0.8004
 5921SOL     OW29395   2.902   0.771  15.497 -0.0639 -0.0113 -0.6515
 5921SOL    HW129396   2.984   0.735  15.531  0.1007  1.7201  0.7616
 5921SOL    HW229397   2.903   0.860  15.532  1.1572 -0.4403  0.4127
 5922SOL     OW29398   0.048   4.271   2.617  0.3471 -0.0305  0.3508
 5922SOL    HW129399   0.064   4.272   2.712  0.2856  1.6641  0.3446
 5922SOL    HW229400   4.706   4.328   2.616  1.2831  1.1814 -1.6632
 5923SOL     OW29401   0.878   2.090   0.043 -0.2124  0.4005  0.1754
 5923SOL    HW129402   0.924   2.085   0.127 -0.4172 -0.2711  0.2420
 5923SOL    HW229403   0.889   2.002   0.009  0.7459 -0.5120  2.7882
 5924SOL     OW29404   3.516   4.174   4.184 -0.7715 -0.2096 -0.2297
 5924SOL    HW129405   3.551   4.230   4.115 -1.1603 -1.0571 -1.1070
 5924SOL    HW229406   3.480   4.239   4.245  1.6096  2.4458 -1.6287
 5925SOL     OW29407   4.568   1.928   0.648 -0.0536 -0.0235  0.4766
 5925SOL    HW129408   4.663   1.931   0.664 -0.2363  0.4244  1.4562
 5925SOL    HW229409   4.518   1.957   0.724  0.9139 -0.4786  1.2858
 5926SOL     OW29410   1.425   2.832  16.097  0.4657 -0.0534 -0.4352
 5926SOL    HW129411   1.494   2.833  16.163  0.8945  1.2699 -0.9023
 5926SOL    HW229412   1.469   2.840  16.012 -0.1028 -1.3004 -0.8402
 5927SOL     OW29413   0.563   4.338   5.638  0.8399  0.8600 -0.0483
 5927SOL    HW129414   0.577   4.402   5.708  1.3047 -0.5631  1.1710
 5927SOL    HW229415   0.624   4.270   5.664 -0.6329 -0.7471 -0.8033
 5928SOL     OW29416   3.124   0.148  12.707 -0.1286  0.2085  0.4049
 5928SOL    HW129417   3.143   0.215  12.772 -1.4277 -0.8950  1.9040
 5928SOL    HW229418   3.172   0.076  12.747 -2.4230 -1.5236  0.0057
 5929SOL     OW29419   1.773   1.209   2.488 -0.4179 -0.1298  0.5242
 5929SOL    HW129420   1.849   1.157   2.461 -0.1745 -0.0048  0.9689
 5929SOL    HW229421   1.770   1.281   2.425  0.8153 -0.1609  0.4243
 5930SOL     OW29422   0.112   0.740  15.868  0.2499 -0.1268 -0.7179
 5930SOL    HW129423   0.166   0.805  15.823  0.8259 -0.7606 -0.9576
 5930SOL    HW229424   0.168   0.710  15.940  0.7914  2.0947 -0.2137
 5931SOL     OW29425   2.379   4.480   4.608 -0.3319 -0.0127 -0.6716
 5931SOL    HW129426   2.413   4.399   4.648 -0.7493  0.5993  0.9418
 5931SOL    HW229427   2.425   4.489   4.525  3.2823  1.0604  1.4620
 5932SOL     OW29428   0.567   1.137   4.961 -0.1876 -0.0232 -0.7237
 5932SOL    HW129429   0.597   1.050   4.988  1.4053  0.5529 -0.6365
 5932SOL    HW229430   0.585   1.203   5.028  1.6970 -2.7979  1.4851
 5933SOL     OW29431   1.093   0.744   2.731  0.1479  0.3667  0.0722
 5933SOL    HW129432   1.105   0.776   2.821  1.9476  0.3102 -0.1548
 5933SOL    HW229433   1.119   0.821   2.680 -1.0445  0.5897 -0.2073
 5934SOL     OW29434   2.716   0.067   6.290  0.3033  0.4263 -0.3191
 5934SOL    HW129435   2.649   0.129   6.317 -2.4177 -2.4951 -0.3870
 5934SOL    HW229436   2.674   0.026   6.214  0.1977  1.3967 -0.7898
 5935SOL     OW29437   3.691   0.586  16.943  0.0184 -0.1560 -0.1057
 5935SOL    HW129438   3.723   0.507  16.900 -0.8293 -0.8421  0.5108
 5935SOL    HW229439   3.645   0.542  17.015  1.7827 -1.0028  0.5009
 5936SOL     OW29440   4.684   2.608   9.045  0.1827  0.0763  0.2554
 5936SOL    HW129441   0.034   2.568   9.069  1.2054  1.8892 -0.2483
 5936SOL    HW229442   4.618   2.539   9.049 -1.4882  1.6275 -0.5748
 5937SOL     OW29443   4.415   2.630   4.047 -0.1376 -0.5045 -0.6543
 5937SOL    HW129444   4.472   2.707   4.052 -0.0494 -0.7401  2.0881
 5937SOL    HW229445   4.359   2.654   3.974  0.9077 -0.3289 -1.3938
 5938SOL     OW29446   2.730   1.429  12.700 -0.1103  0.0341  0.1372
 5938SOL    HW129447   2.688   1.343  12.691  0.9468 -0.4837  0.1921
 5938SOL    HW229448   2.785   1.425  12.622  1.2299 -3.9895  1.3078
 5939SOL     OW29449   1.443   3.036   2.804  0.0780  0.2432  0.2267
 5939SOL    HW129450   1.359   3.080   2.819 -0.0354  0.1784 -0.2295
 5939SOL    HW229451   1.411   2.947   2.790 -0.2128  0.6006 -1.3718
 5940SOL     OW29452   2.183   4.559   5.261 -0.2157  0.0684  0.3273
 5940SOL    HW129453   2.094   4.561   5.295  0.7172 -1.5132  2.8607
 5940SOL    HW229454   2.170   4.484   5.204 -0.8767 -0.6008  1.3670
 5941SOL     OW29455   2.515   1.290   3.009 -0.2009 -0.4538 -0.1711
 5941SOL    HW129456   2.542   1.247   3.090  0.0800 -0.9454 -0.5267
 5941SOL    HW229457   2.483   1.374   3.043 -1.0437 -0.5201 -0.8005
 5942SOL     OW29458   4.714   1.948  17.424 -0.5003 -0.4542  0.2866
 5942SOL    HW129459   4.632   1.958  17.375 -0.6840 -3.8167 -0.0957
 5942SOL    HW229460   0.011   2.033  17.392 -1.6697 -0.2576 -0.3425
 5943SOL     OW29461   4.195   0.869  10.855  0.3988 -0.1981  0.7559
 5943SOL    HW129462   4.190   0.940  10.919  1.7336 -0.4407  1.1203
 5943SOL    HW229463   4.287   0.845  10.861 -0.2044 -2.7609 -0.1767
 5944SOL     OW29464   1.603   1.459   0.963  0.1821  1.0475  0.4615
 5944SOL    HW129465   1.649   1.513   0.899 -0.1588  0.8302  0.0366
 5944SOL    HW229466   1.577   1.387   0.906  0.2639  0.9804  0.5081
 5945SOL     OW29467   3.797   2.588   6.951  0.4504  0.0205  0.4577
 5945SOL    HW129468   3.760   2.627   7.029 -1.6862 -0.8692 -0.1094
 5945SOL    HW229469   3.819   2.500   6.981  1.8504  0.1687 -0.1069
 5946SOL     OW29470   2.236   3.615   4.083 -0.6035  0.3003  0.0946
 5946SOL    HW129471   2.328   3.620   4.056 -1.0082  1.2104 -1.0669
 5946SOL    HW229472   2.182   3.606   4.005  2.2652  2.6375 -2.1303
 5947SOL     OW29473   2.887   4.059   1.947 -0.1835  0.2198  0.0187
 5947SOL    HW129474   2.818   3.993   1.936  1.3105 -1.1470 -1.2132
 5947SOL    HW229475   2.903   4.098   1.861 -2.7625  2.3366  0.5029
 5948SOL     OW29476   2.598   3.805   3.222 -0.2478  0.0099 -0.3639
 5948SOL    HW129477   2.599   3.709   3.221 -0.4094  0.0156 -0.9340
 5948SOL    HW229478   2.665   3.813   3.154  0.5387 -2.4687  0.1344
 5949SOL     OW29479   3.328   4.587  10.190 -0.5700 -0.7890  0.4909
 5949SOL    HW129480   3.319   4.492  10.200  3.0779 -1.0990  0.9062
 5949SOL    HW229481   3.423   4.586  10.180 -0.5113  0.4344  0.9588
 5950SOL     OW29482   1.270   3.810  15.962 -0.0257 -0.1321 -0.1148
 5950SOL    HW129483   1.343   3.787  16.019 -0.9070 -2.0076  0.2635
 5950SOL    HW229484   1.316   3.801  15.878 -0.5162  0.4839 -0.4522
 5951SOL     OW29485   3.979   2.263   9.033  0.4137 -0.0231  0.1484
 5951SOL    HW129486   3.967   2.358   9.027  0.0908  0.0447  2.0351
 5951SOL    HW229487   3.981   2.251   9.128 -3.4017 -0.2241  0.2062
 5952SOL     OW29488   1.921   0.293   0.850 -0.4338 -0.0626 -0.1664
 5952SOL    HW129489   1.925   0.342   0.768 -0.8695 -0.8627 -0.6660
 5952SOL    HW229490   1.840   0.243   0.841  0.4461 -1.7496  1.2021
 5953SOL     OW29491   0.235   3.723   4.646 -0.0186 -0.3179 -0.1638
 5953SOL    HW129492   0.197   3.757   4.565 -0.6473  0.5556  0.4926
 5953SOL    HW229493   0.284   3.647   4.616 -0.6970  0.0076 -2.0732
 5954SOL     OW29494   1.714   2.749   5.233 -0.6844 -0.4024  0.1312
 5954SOL    HW129495   1.767   2.723   5.158 -1.5359 -0.5780 -0.4060
 5954SOL    HW229496   1.700   2.661   5.268 -0.7296 -1.3130 -2.1649
 5955SOL     OW29497   0.332   0.354  14.640 -0.0953 -0.2522 -0.2808
 5955SOL    HW129498   0.329   0.273  14.691 -1.0369  0.1094  0.2383
 5955SOL    HW229499   0.337   0.327  14.548  2.2081  1.0764 -0.5524
 5956SOL     OW29500   2.352   3.139   3.116  0.3638 -0.6846 -0.1381
 5956SOL    HW129501   2.344   3.081   3.192  0.6874  2.0366  1.9991
 5956SOL    HW229502   2.346   3.082   3.040 -0.0108 -1.0919  0.2007
 5957SOL     OW29503   2.696   0.450  17.561  0.7330 -0.3100  0.0204
 5957SOL    HW129504   2.643   0.518  17.519  0.0677  1.8555  4.4338
 5957SOL    HW229505   2.679   0.385  17.492 -1.6924  1.1624 -0.7827
 5958SOL     OW29506   2.675   3.086  14.538 -0.9221  0.0777 -0.1644
 5958SOL    HW129507   2.581   3.095  14.524 -0.8114  2.3316  0.4494
 5958SOL    HW229508   2.687   3.169  14.585  1.4808  0.0313 -0.6746
 5959SOL     OW29509   3.382   0.090   9.166 -0.0337 -0.0304  0.3267
 5959SOL    HW129510   3.313   0.080   9.232 -0.2904  3.5259  0.5988
 5959SOL    HW229511   3.405   0.182   9.175 -2.5316  0.5529  0.7394
 5960SOL     OW29512   1.819   2.236   7.543  0.8686 -0.2509 -0.4362
 5960SOL    HW129513   1.824   2.315   7.597 -0.8655 -1.6330  1.7435
 5960SOL    HW229514   1.769   2.181   7.604 -0.1950  1.0321 -0.1356
 5961SOL     OW29515   3.193   1.822  12.654 -0.4685  0.0514  0.6897
 5961SOL    HW129516   3.187   1.730  12.630  0.4651 -0.4863  2.5322
 5961SOL    HW229517   3.229   1.820  12.742 -0.4983  1.8770  0.7452
 5962SOL     OW29518   1.661   0.971   8.783  0.2263  0.8515  0.3527
 5962SOL    HW129519   1.608   0.983   8.705 -0.2805 -3.9955 -0.0410
 5962SOL    HW229520   1.683   0.878   8.786  1.6723  1.2214  1.7867
 5963SOL     OW29521   2.010   3.116   6.454  0.2027  0.2302  0.6158
 5963SOL    HW129522   2.016   3.197   6.505  5.6725 -1.0810  1.9961
 5963SOL    HW229523   2.094   3.077   6.475 -0.8387 -1.9383  0.6988
 5964SOL     OW29524   4.636   1.736   2.259 -0.0118  0.3200 -0.7531
 5964SOL    HW129525   4.723   1.722   2.296  0.2329  1.4941 -0.8940
 5964SOL    HW229526   4.617   1.810   2.317  0.6858  1.5223 -2.0547
 5965SOL     OW29527   0.218   0.602   7.720  0.7029 -0.2359 -0.7106
 5965SOL    HW129528   0.180   0.637   7.801 -0.3053 -1.3365 -0.7009
 5965SOL    HW229529   0.141   0.573   7.670 -0.8455  2.0178  0.3716
 5966SOL     OW29530   4.196   3.676   2.143  0.8250 -0.0368 -0.0123
 5966SOL    HW129531   4.110   3.638   2.133  0.1830  0.3752  4.1232
 5966SOL    HW229532   4.237   3.618   2.207  2.0107  2.1849  1.2837
 5967SOL     OW29533   4.567   3.548   2.469  0.0415  0.8047  0.2041
 5967SOL    HW129534   4.591   3.485   2.536  0.4081 -1.1438 -1.7338
 5967SOL    HW229535   4.476   3.569   2.488  0.5817  1.6560  1.8026
 5968SOL     OW29536   0.625   0.030  12.235  0.0265  0.0390 -0.4720
 5968SOL    HW129537   0.718   0.031  12.259 -0.2295  4.1565  0.2762
 5968SOL    HW229538   0.605   4.671  12.246 -1.6532  0.6427  1.5554
 5969SOL     OW29539   1.145   3.347   8.901 -0.1736  0.2131  0.0943
 5969SOL    HW129540   1.239   3.360   8.916 -0.3607 -0.1243  1.6028
 5969SOL    HW229541   1.113   3.433   8.929 -1.3597  0.5017 -2.1748
 5970SOL     OW29542   1.857   1.009   8.074  0.0540  0.1232 -0.1088
 5970SOL    HW129543   1.937   1.046   8.038  2.1378 -3.5115  0.8357
 5970SOL    HW229544   1.874   0.989   8.167 -0.9508 -0.1637  0.0134
 5971SOL     OW29545   3.279   1.613  15.187  0.7675 -0.7954  0.0141
 5971SOL    HW129546   3.214   1.667  15.143  0.0255 -1.5191  0.2110
 5971SOL    HW229547   3.305   1.551  15.119  2.4329 -0.6019  0.4706
 5972SOL     OW29548   1.818   0.373   1.831 -0.0411  0.2002  0.1097
 5972SOL    HW129549   1.849   0.301   1.885 -1.1484  0.5689  1.2649
 5972SOL    HW229550   1.894   0.430   1.825  0.2811 -0.0679  1.5256
 5973SOL     OW29551   0.071   0.887   9.657  0.2448  0.1416 -0.1474
 5973SOL    HW129552   0.122   0.957   9.697 -0.7822  1.1817 -0.6667
 5973SOL    HW229553   0.128   0.815   9.685 -2.8375 -1.6544  1.4741
 5974SOL     OW29554   2.244   4.505   8.095  0.2508 -0.2117  0.5342
 5974SOL    HW129555   2.235   4.589   8.141 -0.8076 -0.3188  0.5350
 5974SOL    HW229556   2.199   4.443   8.152  0.0471 -1.7917 -1.3360
 5975SOL     OW29557   0.152   2.141   2.647 -0.1520  0.3519  0.1602
 5975SOL    HW129558   0.146   2.045   2.646  1.4963  0.2408 -0.2032
 5975SOL    HW229559   0.201   2.165   2.726 -0.5611 -1.5666  0.9925
 5976SOL     OW29560   1.792   3.068  15.501 -0.4172 -0.4738  0.0127
 5976SOL    HW129561   1.861   3.130  15.521 -0.6984 -0.4039  0.7829
 5976SOL    HW229562   1.747   3.118  15.433  0.1419  0.4358  0.3151
 5977SOL     OW29563   2.015   3.626   9.917  0.3249  1.0415  0.3262
 5977SOL    HW129564   1.963   3.559   9.960  0.8288  0.8261  0.5877
 5977SOL    HW229565   1.949   3.673   9.865  0.7481  0.5551 -0.6598
 5978SOL     OW29566   4.225   3.197   7.424 -0.0228  0.3310  0.1066
 5978SOL    HW129567   4.183   3.131   7.369  0.9249 -0.5609  0.4557
 5978SOL    HW229568   4.157   3.218   7.488 -2.4547  0.3402 -2.4478
 5979SOL     OW29569   1.198   2.651   4.210  0.0535  0.7417  0.0381
 5979SOL    HW129570   1.246   2.572   4.235 -1.6796 -0.4639 -0.3728
 5979SOL    HW229571   1.267   2.704   4.172  0.1465 -0.5786 -1.6251
 5980SOL     OW29572   2.025   3.960   5.492  0.0434  0.0723 -0.6590
 5980SOL    HW129573   2.061   3.964   5.404 -0.5066  1.2897 -0.8355
 5980SOL    HW229574   1.998   3.868   5.492 -0.8667  0.3435 -1.4385
 5981SOL     OW29575   4.490   0.393   5.087  0.4551 -0.6933 -0.0755
 5981SOL    HW129576   4.511   0.486   5.093 -1.4988 -0.1161 -2.2559
 5981SOL    HW229577   4.410   0.382   5.138  0.5049 -1.4594 -0.1558
 5982SOL     OW29578   1.138   3.325  16.451 -0.5354 -0.4970  0.2968
 5982SOL    HW129579   1.102   3.387  16.387 -1.5204  0.6846  1.9925
 5982SOL    HW229580   1.108   3.239  16.421 -0.8688 -0.7541  1.3625
 5983SOL     OW29581   4.562   3.988   5.133  0.0870 -0.7804 -0.1498
 5983SOL    HW129582   4.536   4.074   5.099  0.2921 -0.8118 -0.3791
 5983SOL    HW229583   4.480   3.973   5.180  0.9454 -1.5590  1.1086
 5984SOL     OW29584   1.702   0.009   3.689  0.0208  0.0786  0.5448
 5984SOL    HW129585   1.768   0.063   3.647  1.4021 -0.3812  2.1294
 5984SOL    HW229586   1.685   4.663   3.640 -0.9247  0.6120 -0.0176
 5985SOL     OW29587   4.592   0.336   6.040  0.0233  0.0783 -0.6281
 5985SOL    HW129588   4.659   0.271   6.020  0.9997  1.5679 -2.2505
 5985SOL    HW229589   4.650   0.407   6.068  0.6998 -0.5856 -0.3454
 5986SOL     OW29590   2.196   4.179  15.328 -0.4654  0.0686  0.2962
 5986SOL    HW129591   2.173   4.249  15.390  0.4329  0.7239 -0.1079
 5986SOL    HW229592   2.115   4.147  15.290  0.1057 -1.1335  0.0866
 5987SOL     OW29593   1.294   0.368  10.138 -0.1539 -0.0892 -0.2768
 5987SOL    HW129594   1.346   0.397  10.063 -0.9738  2.0023 -0.0365
 5987SOL    HW229595   1.213   0.416  10.122  0.4020  0.8989 -0.1466
 5988SOL     OW29596   0.646   2.082   2.115 -0.4325  0.4708 -0.1492
 5988SOL    HW129597   0.702   2.113   2.044 -1.7752  0.4018 -1.2260
 5988SOL    HW229598   0.665   1.988   2.115  1.0817  0.7728 -0.6168
 5989SOL     OW29599   3.760   1.185   6.877 -0.0461 -0.2765  0.3249
 5989SOL    HW129600   3.816   1.112   6.900  0.9446 -0.1006 -1.5632
 5989SOL    HW229601   3.827   1.251   6.860 -0.8502  0.1958 -1.1058
 5990SOL     OW29602   3.758   4.325   4.035 -0.2418  0.2086 -0.2168
 5990SOL    HW129603   3.740   4.409   4.077 -3.2860  0.4167 -1.8932
 5990SOL    HW229604   3.683   4.324   3.975  0.5303  1.0155 -1.2032
 5991SOL     OW29605   3.015   0.235   3.827 -0.0925  0.1712  0.4376
 5991SOL    HW129606   2.966   0.153   3.836  0.6871 -0.3814 -0.3344
 5991SOL    HW229607   3.103   0.207   3.850 -0.6158 -0.1215  2.0626
 5992SOL     OW29608   3.538   0.653  10.458 -0.1253 -0.3538 -0.5708
 5992SOL    HW129609   3.607   0.621  10.516 -1.0832  1.5959  1.6399
 5992SOL    HW229610   3.570   0.642  10.368  0.3768  1.7832 -0.6521
 5993SOL     OW29611   4.264   4.421   2.321  0.1856 -0.3046  0.3390
 5993SOL    HW129612   4.263   4.476   2.243  0.5405  0.5890  0.9690
 5993SOL    HW229613   4.222   4.473   2.389  1.5811  0.0909  0.8957
 5994SOL     OW29614   0.284   2.738   7.852  0.1690  0.1138  0.1941
 5994SOL    HW129615   0.242   2.796   7.789  0.2930 -1.9233 -1.7313
 5994SOL    HW229616   0.345   2.680   7.806  1.7402  0.2108  2.1353
 5995SOL     OW29617   0.069   3.506   4.782 -0.4380 -0.3659 -0.2774
 5995SOL    HW129618   0.113   3.567   4.724 -2.4236  1.1903 -0.1440
 5995SOL    HW229619   0.124   3.428   4.790 -0.9442 -0.7127 -0.2142
 5996SOL     OW29620   2.807   0.511  10.812  0.2051  0.0259 -0.0298
 5996SOL    HW129621   2.875   0.464  10.765  1.3433  1.4446  0.1904
 5996SOL    HW229622   2.793   0.579  10.745  0.1298 -2.3282 -2.4018
 5997SOL     OW29623   4.272   0.245   9.435 -0.3326 -0.5343  0.2909
 5997SOL    HW129624   4.288   0.151   9.433  1.7058 -0.1747 -0.6920
 5997SOL    HW229625   4.177   0.243   9.436 -0.3246 -0.5053  0.9977
 5998SOL     OW29626   1.185   4.690   7.424 -0.5525 -0.6972  0.1465
 5998SOL    HW129627   1.115   4.711   7.362 -0.6610  1.3294  0.9587
 5998SOL    HW229628   1.250   4.664   7.358 -0.0355 -1.5273  0.9849
 5999SOL     OW29629   2.364   2.435   1.268  0.2189 -0.1537  0.1796
 5999SOL    HW129630   2.382   2.399   1.354  0.1367 -0.2469  0.1584
 5999SOL    HW229631   2.273   2.408   1.257 -0.0282 -0.0647  2.0909
 6000SOL     OW29632   3.603   1.566  15.082  0.2778 -0.2392  0.6535
 6000SOL    HW129633   3.547   1.568  15.004 -1.3618  3.5137  1.9327
 6000SOL    HW229634   3.563   1.490  15.123 -0.5157  0.5286  1.2967
 6001SOL     OW29635   3.430   2.395   1.407 -0.2355 -0.0959  0.3020
 6001SOL    HW129636   3.360   2.442   1.452 -2.3008 -0.6888 -2.3402
 6001SOL    HW229637   3.428   2.440   1.323  1.9487  0.2177  0.4086
 6002SOL     OW29638   0.901   2.023  14.586  0.2208  0.5420  0.4467
 6002SOL    HW129639   0.973   2.028  14.524 -1.7375 -1.0406 -1.9451
 6002SOL    HW229640   0.874   2.115  14.588 -2.2276 -0.1401 -0.1550
 6003SOL     OW29641   2.007   3.222  17.413 -0.0502 -0.0061  0.7086
 6003SOL    HW129642   2.004   3.310  17.451  1.9119  2.1634 -4.1277
 6003SOL    HW229643   1.999   3.242  17.320  0.8181  0.6152  0.7693
 6004SOL     OW29644   3.487   3.052  12.618 -0.0291 -0.1211 -0.4202
 6004SOL    HW129645   3.436   2.972  12.603 -0.9322  0.1506  1.1694
 6004SOL    HW229646   3.540   3.021  12.692 -0.4929 -1.9638 -0.8600
 6005SOL     OW29647   1.097   0.769   6.344 -0.6655 -0.1680  0.5344
 6005SOL    HW129648   1.037   0.833   6.383 -0.2432  1.4275 -1.4599
 6005SOL    HW229649   1.116   0.717   6.422  3.9793  1.5534  0.5586
 6006SOL     OW29650   3.933   4.076  12.324 -0.2841  0.7212  0.6405
 6006SOL    HW129651   3.895   4.066  12.237 -0.0511 -0.9088  0.7248
 6006SOL    HW229652   3.983   3.994  12.326  0.2912  1.0955  1.8409
 6007SOL     OW29653   0.457   0.667   4.475  0.2388  0.0556  0.0438
 6007SOL    HW129654   0.470   0.632   4.564  1.3830  1.1463  0.3140
 6007SOL    HW229655   0.542   0.645   4.437 -0.4898 -1.5505 -0.6402
 6008SOL     OW29656   2.116   1.231  15.750 -0.4924 -0.6722  0.3620
 6008SOL    HW129657   2.073   1.315  15.764 -1.1504 -0.7521 -1.1809
 6008SOL    HW229658   2.049   1.183  15.702  1.7298 -2.8792 -0.5472
 6009SOL     OW29659   1.977   3.120   3.197 -0.7357 -0.2536  0.1641
 6009SOL    HW129660   1.993   3.206   3.237  0.4164 -0.5031  0.2436
 6009SOL    HW229661   1.887   3.093   3.215 -1.2217  1.2872  0.0159
 6010SOL     OW29662   2.342   3.632  12.804 -0.6110  0.1282  0.7741
 6010SOL    HW129663   2.355   3.596  12.716 -2.1767  0.1760  0.5344
 6010SOL    HW229664   2.253   3.666  12.799 -0.2193  0.9339 -0.6504
 6011SOL     OW29665   1.425   2.036   9.187  0.4748 -0.1039 -0.2450
 6011SOL    HW129666   1.395   2.017   9.276  3.9823 -2.3176  0.4833
 6011SOL    HW229667   1.511   1.992   9.193  0.0560 -0.8683  0.1868
 6012SOL     OW29668   4.236   0.765  14.818 -0.2000 -0.2087 -0.0416
 6012SOL    HW129669   4.250   0.851  14.857 -0.6797 -1.1026  2.0709
 6012SOL    HW229670   4.155   0.738  14.859  0.1697 -0.7219  0.3353
 6013SOL     OW29671   0.885   1.077   0.842  0.3664 -0.2714  0.2883
 6013SOL    HW129672   0.812   1.130   0.876  0.6277  0.4353 -0.2492
 6013SOL    HW229673   0.848   1.060   0.755  1.2724 -0.3898 -0.0691
 6014SOL     OW29674   0.120   0.563  14.628  0.4309  0.1409  0.3453
 6014SOL    HW129675   0.113   0.594  14.718 -2.5082  1.0507 -0.2230
 6014SOL    HW229676   0.165   0.479  14.637 -2.3542 -1.2395  1.1239
 6015SOL     OW29677   4.450   3.907   4.483 -0.3064 -0.3961  0.3385
 6015SOL    HW129678   4.485   3.844   4.420 -2.1412 -1.4870  0.4318
 6015SOL    HW229679   4.529   3.945   4.523 -0.0059  1.0460 -1.6746
 6016SOL     OW29680   0.741   3.948   6.062  0.1755  0.5006  1.1504
 6016SOL    HW129681   0.671   3.987   6.009  2.2692  0.8148 -1.3634
 6016SOL    HW229682   0.771   4.026   6.110  1.6344  1.7808 -1.8038
 6017SOL     OW29683   3.852   3.165   8.528  0.0513 -0.4383  0.5106
 6017SOL    HW129684   3.925   3.110   8.498  1.6092  1.6039  0.5679
 6017SOL    HW229685   3.851   3.223   8.452  0.2265  0.5059  1.2321
 6018SOL     OW29686   0.797   2.218   4.061 -0.4787  0.5063  0.3889
 6018SOL    HW129687   0.819   2.282   4.129  0.8703  0.7893 -0.3241
 6018SOL    HW229688   0.805   2.137   4.111 -0.1535  0.1430 -0.2623
 6019SOL     OW29689   0.336   3.447   5.226  0.1104  0.1384  0.4749
 6019SOL    HW129690   0.349   3.366   5.177 -3.0297 -0.5986  0.8560
 6019SOL    HW229691   0.293   3.501   5.160  0.7179  0.7029  0.5415
 6020SOL     OW29692   1.864   4.469   4.965 -0.8100  0.1066  0.0711
 6020SOL    HW129693   1.834   4.559   4.950 -0.4848  0.0050 -1.1937
 6020SOL    HW229694   1.948   4.491   5.006 -0.4290  1.4916 -1.4543
 6021SOL     OW29695   2.293   2.888   5.527 -0.2495 -0.9211  0.2829
 6021SOL    HW129696   2.382   2.918   5.548 -0.3762  0.1446 -0.7239
 6021SOL    HW229697   2.282   2.919   5.437  1.9318 -1.5220 -0.1961
 6022SOL     OW29698   2.055   0.127  15.220 -0.9439  0.5950 -0.0157
 6022SOL    HW129699   2.046   0.114  15.126  0.4953  1.3495 -0.2535
 6022SOL    HW229700   2.083   0.218  15.234  0.0159  0.0905  1.2887
 6023SOL     OW29701   2.364   4.694   8.673 -0.2188  0.2488 -0.2234
 6023SOL    HW129702   2.404   4.611   8.647  0.6777  0.3496  0.8288
 6023SOL    HW229703   2.411   4.716   8.754  0.4368 -0.7769 -0.3300
 6024SOL     OW29704   4.590   4.464   2.720 -0.0521  0.2089 -0.5629
 6024SOL    HW129705   4.510   4.412   2.731 -1.5899  2.7425  0.1405
 6024SOL    HW229706   4.556   4.553   2.718 -1.2388 -0.2959 -2.9899
 6025SOL     OW29707   0.743   4.496   8.194  0.9394  0.3168 -0.0442
 6025SOL    HW129708   0.774   4.409   8.218  0.6398  0.3763  0.5809
 6025SOL    HW229709   0.808   4.556   8.231  0.5409  0.4336  0.4691
 6026SOL     OW29710   0.603   1.161  14.287 -0.0013  0.2953 -0.3687
 6026SOL    HW129711   0.695   1.135  14.285  0.4229  1.9264 -2.1392
 6026SOL    HW229712   0.553   1.081  14.302 -0.0870  0.2401 -0.9498
 6027SOL     OW29713   2.869   2.075  15.354 -0.1279 -0.0529 -0.3832
 6027SOL    HW129714   2.830   2.004  15.405  0.7689  1.1585  1.9440
 6027SOL    HW229715   2.815   2.048  15.279  1.4177  1.1357 -1.9352
 6028SOL     OW29716   1.645   2.488   7.214  0.1347  0.0878  0.1182
 6028SOL    HW129717   1.727   2.449   7.185  0.7811 -0.3896  2.5414
 6028SOL    HW229718   1.612   2.509   7.127  0.8233  2.5991  0.4673
 6029SOL     OW29719   4.032   2.978   6.511 -0.2379  0.1418 -0.3068
 6029SOL    HW129720   4.010   2.921   6.438 -0.7489 -0.2105  0.1277
 6029SOL    HW229721   4.125   2.955   6.520 -0.1424  0.1592 -1.2584
 6030SOL     OW29722   1.240   3.629   3.962 -0.1261  0.3175 -0.4220
 6030SOL    HW129723   1.227   3.667   3.875  0.6111  0.9997 -0.2296
 6030SOL    HW229724   1.247   3.534   3.947  2.2637  0.4814 -0.3266
 6031SOL     OW29725   4.425   2.499   3.516  0.1606  0.1914 -0.2197
 6031SOL    HW129726   4.343   2.517   3.562 -0.3882 -1.1114 -0.7049
 6031SOL    HW229727   4.399   2.499   3.424 -1.2191 -1.0033  0.1839
 6032SOL     OW29728   0.954   0.798   4.143 -0.7870 -0.3457 -0.6226
 6032SOL    HW129729   0.913   0.883   4.132  0.1208 -0.0548 -1.7238
 6032SOL    HW229730   0.977   0.795   4.236  3.0031 -1.0247 -1.5562
 6033SOL     OW29731   3.422   1.556   0.767  0.2503  0.0221 -0.1923
 6033SOL    HW129732   3.449   1.479   0.716  1.7579  0.6999 -0.4137
 6033SOL    HW229733   3.460   1.627   0.715  1.7259 -1.0315 -0.5739
 6034SOL     OW29734   4.729   4.491   6.063  0.5248  1.0045 -0.2462
 6034SOL    HW129735   0.002   4.575   6.017  1.4812  0.3013 -1.3650
 6034SOL    HW229736   4.682   4.448   5.991 -2.6584  1.2246  1.6990
 6035SOL     OW29737   2.320   0.333   8.392 -0.4335 -0.1532  0.1804
 6035SOL    HW129738   2.267   0.394   8.342 -1.9790 -2.0720 -0.5397
 6035SOL    HW229739   2.329   0.382   8.473 -1.4429  1.1437 -0.5124
 6036SOL     OW29740   2.680   0.405   3.519 -0.0350  0.7178  0.2755
 6036SOL    HW129741   2.659   0.486   3.473 -2.1908 -0.1024 -0.2066
 6036SOL    HW229742   2.656   0.432   3.608  1.6801 -2.7482  1.7967
 6037SOL     OW29743   1.912   4.618   8.826 -0.5828 -0.0391 -0.2134
 6037SOL    HW129744   2.005   4.594   8.825 -0.7002 -0.3940 -2.1217
 6037SOL    HW229745   1.906   4.673   8.748  2.4559 -0.4145 -0.7372
 6038SOL     OW29746   0.326   3.397   2.406 -0.1500  0.1873 -0.5985
 6038SOL    HW129747   0.254   3.456   2.386  0.9912  1.8342  0.1406
 6038SOL    HW229748   0.383   3.466   2.440  1.3680 -0.9861 -0.7758
 6039SOL     OW29749   4.072   2.483   7.126 -0.2490  0.0905 -0.1640
 6039SOL    HW129750   4.110   2.396   7.113 -0.6704  0.5099 -4.2853
 6039SOL    HW229751   4.083   2.507   7.034  0.7103 -2.5955 -0.7609
 6040SOL     OW29752   0.826   2.027   5.250  0.3060  0.3627  0.4422
 6040SOL    HW129753   0.773   2.099   5.215  1.3607  1.4131  0.9938
 6040SOL    HW229754   0.871   2.056   5.329  0.2972  1.0973  0.1857
 6041SOL     OW29755   1.857   1.765   2.380 -0.0151  0.2176  0.0379
 6041SOL    HW129756   1.832   1.857   2.390  1.6477  0.5395  1.1448
 6041SOL    HW229757   1.784   1.736   2.434  0.3497 -0.5258  0.1196
 6042SOL     OW29758   1.472   4.445   3.298 -0.2782 -0.0516 -0.1550
 6042SOL    HW129759   1.548   4.390   3.279  0.9890  2.1591 -1.5321
 6042SOL    HW229760   1.405   4.409   3.241 -1.8375  1.0691  0.9670
 6043SOL     OW29761   4.534   2.448   6.245  0.1794 -0.2206  0.5336
 6043SOL    HW129762   4.581   2.530   6.234  2.0038 -1.3916 -0.4234
 6043SOL    HW229763   4.551   2.425   6.336 -0.1020  1.2071  0.9432
 6044SOL     OW29764   3.020   0.986   7.890 -0.4129  0.2854  0.3175
 6044SOL    HW129765   3.042   1.018   7.802  1.1148  1.7482  1.2341
 6044SOL    HW229766   2.949   1.046   7.914 -0.4358  0.7023 -0.7790
 6045SOL     OW29767   0.119   0.973  13.073  0.4655 -0.2278  0.3924
 6045SOL    HW129768   0.158   0.934  13.151 -1.0991 -0.5197  1.0067
 6045SOL    HW229769   0.035   1.006  13.103 -0.0470 -1.6523  0.5147
 6046SOL     OW29770   2.882   4.724  10.015  0.4663 -0.7566  0.1681
 6046SOL    HW129771   2.977   4.724  10.001  0.1162  1.7468 -2.2600
 6046SOL    HW229772   2.882   4.707  10.109  1.8077 -1.8429 -0.0227
 6047SOL     OW29773   4.085   0.725   3.957 -0.6287  0.1190 -0.0272
 6047SOL    HW129774   4.058   0.794   4.018 -1.2115  0.5348 -0.7596
 6047SOL    HW229775   4.031   0.757   3.885 -1.0137  0.5897  0.4689
 6048SOL     OW29776   4.587   3.387   4.098  0.1651 -0.4803 -0.1572
 6048SOL    HW129777   4.668   3.434   4.079  1.5055 -2.1668  1.3069
 6048SOL    HW229778   4.589   3.310   4.040 -0.4206  0.3929 -1.3463
 6049SOL     OW29779   3.482   1.632   8.999 -0.0201 -0.0535  0.3218
 6049SOL    HW129780   3.462   1.538   9.002 -3.0968  0.6229  0.8165
 6049SOL    HW229781   3.529   1.637   8.915 -0.5650  0.7064  0.0633
 6050SOL     OW29782   1.299   2.159  17.451 -0.1781 -0.7236 -0.2939
 6050SOL    HW129783   1.300   2.205  17.368  1.1777 -0.8812 -0.3648
 6050SOL    HW229784   1.235   2.090  17.434 -1.0777  0.0785 -0.1470
 6051SOL     OW29785   1.650   3.433   9.969  0.2523 -0.5045  0.1313
 6051SOL    HW129786   1.743   3.452   9.977  0.7708 -2.6167 -0.8451
 6051SOL    HW229787   1.616   3.510  10.014  0.8673  0.9915 -1.9401
 6052SOL     OW29788   2.184   4.011   3.254 -0.4023  0.4694  0.1514
 6052SOL    HW129789   2.168   3.987   3.163  0.7865  0.6768 -0.1125
 6052SOL    HW229790   2.155   4.102   3.257  1.5024  1.0665  0.7201
 6053SOL     OW29791   3.382   2.231   3.384  0.0586  0.3542  0.0294
 6053SOL    HW129792   3.308   2.255   3.440  0.3422 -0.0749  0.5884
 6053SOL    HW229793   3.429   2.164   3.434 -0.1355  0.4920  0.3958
 6054SOL     OW29794   2.139   1.121   5.731  0.5079 -0.0545  0.2144
 6054SOL    HW129795   2.147   1.078   5.816 -0.3230  0.4940  0.5672
 6054SOL    HW229796   2.211   1.184   5.741  0.1278  1.1622 -4.5148
 6055SOL     OW29797   3.114   2.176   5.613 -0.0352  0.2305 -0.9099
 6055SOL    HW129798   3.111   2.234   5.689 -1.2515  1.8684 -2.2087
 6055SOL    HW229799   3.090   2.092   5.651 -1.0583 -0.1755 -2.4735
 6056SOL     OW29800   3.647   2.258   6.740  0.0564 -0.5358 -0.7470
 6056SOL    HW129801   3.609   2.225   6.822  0.4604 -1.8898 -1.1117
 6056SOL    HW229802   3.564   2.285   6.701 -0.2435  2.0429  1.6166
 6057SOL     OW29803   2.321   3.711   9.234  0.1928 -0.1359  0.0117
 6057SOL    HW129804   2.277   3.789   9.268  0.5257  0.8685 -1.8361
 6057SOL    HW229805   2.251   3.646   9.228  0.6818 -0.6256 -0.4271
 6058SOL     OW29806   2.543   3.574  15.224 -0.4589 -0.6281  0.1510
 6058SOL    HW129807   2.457   3.539  15.202 -0.5513  0.8883 -1.9016
 6058SOL    HW229808   2.524   3.665  15.245 -0.9854 -0.6215 -0.3502
 6059SOL     OW29809   3.369   1.090   5.537 -0.3357 -0.0745 -0.4294
 6059SOL    HW129810   3.305   1.025   5.569  0.3029 -0.2667  0.4652
 6059SOL    HW229811   3.358   1.077   5.443  0.7541 -0.7029 -0.4689
 6060SOL     OW29812   0.999   3.194  15.922  0.2736  0.1782 -0.0034
 6060SOL    HW129813   0.993   3.278  15.968  1.1702  0.0489  0.3601
 6060SOL    HW229814   1.067   3.154  15.976 -0.9424  1.0718  2.1935
 6061SOL     OW29815   1.789   0.905   7.080  0.0294 -0.0965 -0.5056
 6061SOL    HW129816   1.771   0.871   6.993  0.7336  0.8263 -1.0146
 6061SOL    HW229817   1.838   0.831   7.115 -0.9826 -0.5020  0.0619
 6062SOL     OW29818   3.863   1.703   6.224 -0.0561  0.2050 -0.2940
 6062SOL    HW129819   3.780   1.712   6.178 -0.6393  0.5851  0.8295
 6062SOL    HW229820   3.921   1.730   6.153  2.9318 -0.9319  1.6885
 6063SOL     OW29821   1.248   4.218  11.977 -0.2433 -0.1392 -0.0056
 6063SOL    HW129822   1.217   4.135  11.940  0.6003  0.1240 -1.2775
 6063SOL    HW229823   1.341   4.198  11.990 -0.2526  0.7507  1.4127
 6064SOL     OW29824   0.942   2.103  10.909 -0.4740  0.6472 -0.0648
 6064SOL    HW129825   1.011   2.085  10.973 -1.1184  2.7880  1.2620
 6064SOL    HW229826   0.920   2.194  10.932  0.1435  0.6201  0.6406
 6065SOL     OW29827   3.412   0.064   4.994 -0.1474  0.7816 -0.2969
 6065SOL    HW129828   3.454   0.131   5.049  1.6735  0.1063 -0.8487
 6065SOL    HW229829   3.486   0.052   4.933  0.4498 -1.1716  0.7965
 6066SOL     OW29830   1.024   1.247   8.757 -0.1034  0.0143  0.2303
 6066SOL    HW129831   1.064   1.269   8.841  2.9734 -0.1467 -1.2076
 6066SOL    HW229832   0.969   1.321   8.734  1.5570  1.4266  0.7917
 6067SOL     OW29833   3.861   1.731   8.923  0.2853  0.3213 -0.0505
 6067SOL    HW129834   3.816   1.774   8.996 -0.3684  0.4319 -0.5241
 6067SOL    HW229835   3.793   1.722   8.856  0.5863  1.5828 -0.5323
 6068SOL     OW29836   1.499   4.719  17.287  0.0135 -0.4513  0.1320
 6068SOL    HW129837   1.423   0.042  17.296  0.5289  0.1006  0.9242
 6068SOL    HW229838   1.572   0.041  17.311 -0.7954 -0.5285  2.7934
 6069SOL     OW29839   1.891   4.473   3.690 -0.0897  0.2583  0.5738
 6069SOL    HW129840   1.954   4.513   3.630 -3.7529 -0.6310 -3.8280
 6069SOL    HW229841   1.813   4.497   3.640 -0.9866  0.6979  2.1902
 6070SOL     OW29842   2.642   3.109  12.531 -0.3176 -0.1147  0.6009
 6070SOL    HW129843   2.577   3.104  12.461 -0.7356 -0.3199  1.0003
 6070SOL    HW229844   2.674   3.020  12.518  1.1611  0.1888  2.1316
 6071SOL     OW29845   2.917   2.722   4.613  0.2223  0.2619 -0.3882
 6071SOL    HW129846   3.006   2.690   4.598 -0.2054 -0.5357 -1.2105
 6071SOL    HW229847   2.866   2.653   4.571  1.8657 -2.8711  2.7485
 6072SOL     OW29848   2.190   0.895   3.888 -0.2617 -0.0579 -0.3463
 6072SOL    HW129849   2.141   0.815   3.872  1.0871 -0.9228 -0.1298
 6072SOL    HW229850   2.134   0.959   3.844 -2.0809 -0.0339  2.0651
 6073SOL     OW29851   4.715   2.652  10.189  0.1135 -0.3405 -0.3278
 6073SOL    HW129852   0.064   2.605  10.197 -0.5978 -1.4234  0.6044
 6073SOL    HW229853   4.706   2.636  10.095 -0.0454 -0.5961 -0.2688
 6074SOL     OW29854   3.956   2.243  13.531  0.4124  0.0870  0.6889
 6074SOL    HW129855   3.915   2.296  13.463  0.9900 -1.2843 -0.7431
 6074SOL    HW229856   3.875   2.193  13.549 -0.0556  0.2936 -0.9018
 6075SOL     OW29857   3.748   2.211   2.387 -0.2308 -0.2282  0.2660
 6075SOL    HW129858   3.762   2.144   2.455 -0.4373 -0.0500  0.4819
 6075SOL    HW229859   3.721   2.153   2.315  2.9961 -0.4209 -0.7867
 6076SOL     OW29860   2.167   0.194  17.017 -0.7744  0.0655 -0.2241
 6076SOL    HW129861   2.245   0.242  17.045 -0.7173 -1.4064  2.0933
 6076SOL    HW229862   2.097   0.254  17.045  2.2926  2.9795  1.1829
 6077SOL     OW29863   2.374   0.170   3.136 -0.0479 -0.1620 -0.0519
 6077SOL    HW129864   2.391   0.263   3.154 -0.8718  0.0245 -0.2489
 6077SOL    HW229865   2.346   0.169   3.045 -2.3583 -2.2988  0.6882
 6078SOL     OW29866   0.394   2.100   5.734  0.0114  0.3540  0.1383
 6078SOL    HW129867   0.421   2.100   5.642 -1.8820  0.4476 -0.4241
 6078SOL    HW229868   0.332   2.172   5.725 -0.4388 -0.0588 -0.0866
 6079SOL     OW29869   0.992   0.622   3.016 -0.0859  0.4335  0.6498
 6079SOL    HW129870   1.048   0.550   2.985  0.8301  0.8395  1.3537
 6079SOL    HW229871   1.057   0.666   3.071 -1.0627  2.5199  0.1380
 6080SOL     OW29872   3.344   0.637   2.903  0.2900 -0.1106 -0.1919
 6080SOL    HW129873   3.384   0.595   2.979 -0.2018  1.8816  1.1773
 6080SOL    HW229874   3.398   0.608   2.830 -0.7825 -1.5041 -0.4120
 6081SOL     OW29875   1.420   3.787   6.890 -0.5939  0.4165  0.0026
 6081SOL    HW129876   1.494   3.848   6.891 -0.8673  0.7473 -0.0003
 6081SOL    HW229877   1.453   3.717   6.834 -2.5793  0.0948 -0.7608
 6082SOL     OW29878   2.726   4.228   0.460 -0.4564 -0.0798  0.1352
 6082SOL    HW129879   2.660   4.165   0.489 -1.9082  0.6583 -1.5300
 6082SOL    HW229880   2.760   4.185   0.382  2.3316  1.0196  0.7395
 6083SOL     OW29881   0.501   0.383   5.312  0.1780  0.3280 -0.1528
 6083SOL    HW129882   0.595   0.371   5.322  0.2662  0.3166 -0.9948
 6083SOL    HW229883   0.474   0.304   5.359 -0.0638  0.0753 -0.7172
 6084SOL     OW29884   4.677   3.120   6.549  0.6165 -0.4581 -0.2625
 6084SOL    HW129885   0.036   3.112   6.570  1.2088  1.2733 -2.1687
 6084SOL    HW229886   4.680   3.084   6.461 -0.8328 -2.0995  0.3663
 6085SOL     OW29887   1.963   0.091   9.991  0.0302  0.0207 -0.5655
 6085SOL    HW129888   1.869   0.099  10.012  0.9369  1.6854  3.0070
 6085SOL    HW229889   2.010   0.157  10.042 -1.2038  1.7839 -1.6917
 6086SOL     OW29890   2.181   2.130   9.195 -0.4408  0.0441  0.0901
 6086SOL    HW129891   2.179   2.068   9.268  0.3605 -0.4247 -0.2840
 6086SOL    HW229892   2.213   2.078   9.121  1.9630 -1.0007  1.8518
 6087SOL     OW29893   0.624   3.524   6.124  0.1724  0.8359  0.5850
 6087SOL    HW129894   0.570   3.535   6.045  1.2361 -0.1782 -0.2778
 6087SOL    HW229895   0.713   3.505   6.094 -0.1663 -0.9194  0.6777
 6088SOL     OW29896   4.617   0.918   0.448 -0.4608 -0.0874  0.7010
 6088SOL    HW129897   4.546   0.962   0.401 -1.9757 -0.6184  2.5291
 6088SOL    HW229898   4.649   0.989   0.503  2.5684 -3.2064  2.9344
 6089SOL     OW29899   1.382   0.388   3.795  0.0095  0.7876 -0.2155
 6089SOL    HW129900   1.414   0.302   3.767 -1.7914  0.5339 -1.5275
 6089SOL    HW229901   1.444   0.407   3.865 -0.8316  1.9323  0.2052
 6090SOL     OW29902   1.359   3.651  14.653  0.3512 -0.2074 -0.6189
 6090SOL    HW129903   1.284   3.613  14.699 -0.6668  0.5336 -1.6612
 6090SOL    HW229904   1.317   3.728  14.615 -0.6866 -1.5385 -2.1846
 6091SOL     OW29905   2.938   1.636  13.164  0.5683 -0.0546  0.0201
 6091SOL    HW129906   2.946   1.562  13.224 -1.8385 -0.1152  0.2325
 6091SOL    HW229907   2.862   1.617  13.109 -1.2403 -1.4213  2.9599
 6092SOL     OW29908   2.359   2.811  12.032  0.2196 -0.4180  0.0778
 6092SOL    HW129909   2.421   2.834  11.962 -1.6157 -0.6501 -1.6135
 6092SOL    HW229910   2.406   2.843  12.109  1.2260 -0.9777 -0.3026
 6093SOL     OW29911   3.747   2.012  11.698  0.4211  0.3223 -0.5294
 6093SOL    HW129912   3.812   2.076  11.728 -0.7804  1.9849 -1.4360
 6093SOL    HW229913   3.662   2.056  11.699  1.7927  2.9598 -0.6539
 6094SOL     OW29914   4.370   3.070  16.193 -0.2103 -0.0560  0.4726
 6094SOL    HW129915   4.335   3.153  16.224  0.5682  1.3050 -2.2870
 6094SOL    HW229916   4.410   3.094  16.109 -0.3775  2.2110  1.0385
 6095SOL     OW29917   0.919   0.240   3.422 -0.1611 -0.5076  0.0531
 6095SOL    HW129918   1.001   0.199   3.450  0.9133 -0.3355 -2.7491
 6095SOL    HW229919   0.857   0.170   3.442 -1.0036  0.1913 -0.1000
 6096SOL     OW29920   2.803   3.694   1.674 -0.2669 -0.2253  0.2183
 6096SOL    HW129921   2.898   3.697   1.681 -0.2293 -1.4304  0.2106
 6096SOL    HW229922   2.786   3.614   1.723  0.0816 -0.5285 -0.1611
 6097SOL     OW29923   4.543   4.180   7.229 -0.0347 -0.4581 -0.2116
 6097SOL    HW129924   4.481   4.225   7.286 -1.4069 -3.0045  0.2618
 6097SOL    HW229925   4.620   4.191   7.285 -1.3292 -2.2158  1.8779
 6098SOL     OW29926   1.057   3.079   7.637  0.1781 -0.5894 -0.4983
 6098SOL    HW129927   1.146   3.058   7.608  0.1047  0.3697 -1.4061
 6098SOL    HW229928   1.008   3.066   7.555  2.0849 -0.7085 -1.6256
 6099SOL     OW29929   1.036   2.170   6.007  0.3131 -0.8896 -0.5485
 6099SOL    HW129930   1.075   2.221   6.078  0.4992 -0.7030 -0.7857
 6099SOL    HW229931   1.062   2.079   6.022  1.3423 -0.3086  1.2483
 6100SOL     OW29932   4.271   2.872   1.171 -0.4298 -0.0765 -0.6478
 6100SOL    HW129933   4.361   2.877   1.139 -0.2671 -0.4778 -0.2556
 6100SOL    HW229934   4.285   2.804   1.238 -2.7108 -2.4347 -2.5570
 6101SOL     OW29935   1.145   1.164   3.104  0.4994 -0.2983 -0.0159
 6101SOL    HW129936   1.082   1.236   3.108  1.3340  0.4063  0.3598
 6101SOL    HW229937   1.214   1.199   3.160  1.4854 -4.4374  1.3624
 6102SOL     OW29938   2.380   3.994   2.098  0.3488  0.5030 -0.4202
 6102SOL    HW129939   2.342   4.028   2.017  1.9944 -0.3914 -1.5834
 6102SOL    HW229940   2.339   4.053   2.160 -0.6352  2.4459 -2.9353
 6103SOL     OW29941   2.477   2.546  17.346  0.0308  0.4422 -0.6198
 6103SOL    HW129942   2.471   2.496  17.427  3.1229 -2.1828 -1.9877
 6103SOL    HW229943   2.470   2.469  17.290  0.7708 -1.9040  2.5230
 6104SOL     OW29944   2.564   0.083   6.533 -0.3299 -0.3188  0.6114
 6104SOL    HW129945   2.555   0.178   6.540  0.9057 -0.2324  0.9639
 6104SOL    HW229946   2.620   0.061   6.608  1.2431  1.2036 -0.1416
 6105SOL     OW29947   1.782   3.076  12.854 -0.9073  0.0943 -0.4997
 6105SOL    HW129948   1.809   3.050  12.942  0.1872  0.2978 -0.7758
 6105SOL    HW229949   1.712   3.014  12.836 -0.2081 -0.7816 -0.2433
 6106SOL     OW29950   3.452   1.931  11.644 -0.4314 -0.3455  0.2908
 6106SOL    HW129951   3.376   1.901  11.694 -1.4488 -1.3389 -1.8670
 6106SOL    HW229952   3.471   2.017  11.681 -2.1344  0.3674 -0.5051
 6107SOL     OW29953   0.803   0.407   4.288 -0.4424  0.2501 -0.1581
 6107SOL    HW129954   0.799   0.502   4.299  2.7405  0.5168 -1.2012
 6107SOL    HW229955   0.764   0.381   4.372  2.5742  0.9096  1.4556
 6108SOL     OW29956   4.647   2.417   7.904 -0.2135  0.1371 -0.0414
 6108SOL    HW129957   4.730   2.379   7.875  0.6605  0.0997  2.4885
 6108SOL    HW229958   4.615   2.352   7.967 -1.4154 -0.4328 -1.2388
 6109SOL     OW29959   1.467   2.839   4.789 -0.5176  0.3068  0.5768
 6109SOL    HW129960   1.506   2.768   4.840 -0.1552  0.9338  1.1815
 6109SOL    HW229961   1.507   2.913   4.835  0.1782 -0.1933  0.7733
 6110SOL     OW29962   2.191   1.647   8.523  0.6540 -0.8280 -0.3786
 6110SOL    HW129963   2.197   1.730   8.571  0.6364 -1.2246  0.3099
 6110SOL    HW229964   2.254   1.667   8.454 -0.2458 -1.6208 -1.4262
 6111SOL     OW29965   4.376   1.948   6.474  0.6137  0.4795 -0.5247
 6111SOL    HW129966   4.314   1.984   6.411 -0.0839 -0.0042 -0.1094
 6111SOL    HW229967   4.316   1.947   6.549 -1.5289 -2.2139 -2.2854
 6112SOL     OW29968   4.137   0.032  17.043  0.4110  0.4949  0.4921
 6112SOL    HW129969   4.154   0.000  17.131 -0.3327 -2.9370 -0.6080
 6112SOL    HW229970   4.229   0.047  17.021  1.0435 -2.3258  1.2796
 6113SOL     OW29971   2.091   3.619   6.596  0.6062 -0.1403 -0.1735
 6113SOL    HW129972   2.004   3.655   6.614  0.6606 -0.2609  0.3258
 6113SOL    HW229973   2.119   3.670   6.520 -0.3251 -0.3012 -0.6255
 6114SOL     OW29974   1.777   0.556   6.184  0.3676  0.3664  0.2007
 6114SOL    HW129975   1.780   0.460   6.183  0.8073  0.3758  0.6453
 6114SOL    HW229976   1.813   0.578   6.270  1.3717 -1.3985  0.2218
 6115SOL     OW29977   2.747   2.808   6.070 -0.4944  0.4102 -0.1147
 6115SOL    HW129978   2.756   2.877   6.135  3.1022 -0.4305  0.3321
 6115SOL    HW229979   2.653   2.810   6.055 -0.6386  0.4792  0.8301
 6116SOL     OW29980   0.067   1.924  16.134  0.0446 -0.0515  0.4150
 6116SOL    HW129981   4.713   1.910  16.168 -0.5160 -1.2945 -1.5110
 6116SOL    HW229982   0.049   1.894  16.044  0.3785  0.1137  0.2936
 6117SOL     OW29983   3.651   2.757   2.093  0.1281 -0.1960  0.1163
 6117SOL    HW129984   3.639   2.830   2.033  0.9298  1.0980  1.5295
 6117SOL    HW229985   3.594   2.776   2.167  0.3203 -0.3754  0.3124
 6118SOL     OW29986   0.261   2.443   2.404 -0.1461 -0.5299  0.0072
 6118SOL    HW129987   0.332   2.507   2.411  0.5555 -1.1094 -1.7127
 6118SOL    HW229988   0.283   2.397   2.323 -3.4193 -0.8817 -0.6955
 6119SOL     OW29989   0.036   3.882  13.896 -0.0945  0.2822  0.7662
 6119SOL    HW129990   0.083   3.829  13.960 -0.3578 -0.2612  0.5113
 6119SOL    HW229991   0.107   3.912  13.840 -0.8787  1.4291  0.3668
 6120SOL     OW29992   0.858   0.933   9.962  0.1186  0.2593  1.0366
 6120SOL    HW129993   0.834   0.995  10.031  0.0401  1.8061 -0.4090
 6120SOL    HW229994   0.878   0.981   9.882  2.5552 -0.7196  1.0599
 6121SOL     OW29995   1.692   3.855   1.332 -0.0204 -0.2595  0.4515
 6121SOL    HW129996   1.625   3.923   1.336  1.9558  1.6100  1.7976
 6121SOL    HW229997   1.718   3.855   1.424  1.1074  1.0151  0.1346
 6122SOL     OW29998   2.324   2.806   0.092 -0.1156 -0.1539  0.9830
 6122SOL    HW129999   2.340   2.729   0.038  1.8411  1.0816 -0.2265
 6122SOL    HW230000   2.407   2.818   0.138  0.7749 -0.6546 -0.5071
 6123SOL     OW30001   3.774   0.425  11.010  0.7145  0.1781  0.5961
 6123SOL    HW130002   3.732   0.509  10.995  0.1853 -0.5065 -1.7706
 6123SOL    HW230003   3.852   0.461  11.052  0.9579 -1.1011  1.2455
 6124SOL     OW30004   0.065   1.151   6.971 -0.3054 -0.0238  0.8175
 6124SOL    HW130005   0.142   1.134   6.917 -0.2288  0.6313  0.7248
 6124SOL    HW230006   0.079   1.101   7.051 -0.7959 -0.4464  0.6443
 6125SOL     OW30007   0.383   2.434   2.146 -0.1035  0.0035 -0.1690
 6125SOL    HW130008   0.393   2.523   2.114  1.3526  0.0147  0.3207
 6125SOL    HW230009   0.469   2.414   2.183 -1.2316 -0.4035  2.2410
 6126SOL     OW30010   0.896   3.710   7.789 -0.5907  0.4865 -0.4238
 6126SOL    HW130011   0.952   3.786   7.776 -3.4273  2.6763 -0.0521
 6126SOL    HW230012   0.862   3.686   7.703  0.5307  1.0832 -1.0360
 6127SOL     OW30013   3.875   4.276   8.047 -0.5243  0.1561 -0.6289
 6127SOL    HW130014   3.785   4.242   8.051 -0.5872  0.2598 -1.0833
 6127SOL    HW230015   3.856   4.360   8.005  0.4017 -0.5436 -2.4482
 6128SOL     OW30016   1.715   1.190   4.602  0.2130  0.0793 -0.1796
 6128SOL    HW130017   1.780   1.124   4.578 -1.5905 -1.3089 -1.2477
 6128SOL    HW230018   1.742   1.263   4.547  0.3189  0.0774 -0.1306
 6129SOL     OW30019   2.824   1.954  14.903 -0.1145 -0.4657  0.3374
 6129SOL    HW130020   2.817   1.866  14.868 -2.0335 -0.3569  0.4661
 6129SOL    HW230021   2.773   1.948  14.984  1.1627 -2.3784  1.0089
 6130SOL     OW30022   2.194   4.126   7.731 -0.6234 -0.8525  0.4232
 6130SOL    HW130023   2.178   4.034   7.752 -2.7160 -0.9981 -1.8265
 6130SOL    HW230024   2.197   4.175   7.813  2.4471  1.1890 -0.9081
 6131SOL     OW30025   2.373   3.107  11.437 -0.3071 -0.0798  0.3527
 6131SOL    HW130026   2.437   3.139  11.373 -2.5055  1.8829 -0.8592
 6131SOL    HW230027   2.435   3.058  11.492  1.8628  0.1039 -1.9273
 6132SOL     OW30028   0.601   0.540  12.057  0.2459 -0.4119  0.0159
 6132SOL    HW130029   0.576   0.552  11.965  1.5092  2.3945  0.0271
 6132SOL    HW230030   0.565   0.452  12.065  1.0286 -0.7325  0.0428
 6133SOL     OW30031   0.907   2.699   8.744 -0.1834  0.0811  0.2683
 6133SOL    HW130032   0.952   2.662   8.668 -1.1849 -0.2293 -0.1751
 6133SOL    HW230033   0.916   2.789   8.714  2.0725  0.1779  1.2131
 6134SOL     OW30034   3.216   2.199   2.433 -0.2421 -0.5135  0.2348
 6134SOL    HW130035   3.151   2.173   2.499 -1.1832 -0.3084 -0.6234
 6134SOL    HW230036   3.283   2.249   2.480  0.2850  1.0846 -2.2565
 6135SOL     OW30037   3.712   3.615   4.449 -0.7281 -0.1407 -0.3764
 6135SOL    HW130038   3.675   3.689   4.498 -0.2199  0.3456 -0.7303
 6135SOL    HW230039   3.690   3.545   4.510 -2.9968  1.3248  0.4793
 6136SOL     OW30040   4.132   1.466  12.258  0.4526 -0.0552  0.1404
 6136SOL    HW130041   4.145   1.529  12.188 -0.3828  2.1742  1.9627
 6136SOL    HW230042   4.206   1.411  12.235 -0.1346 -0.5386 -0.6021
 6137SOL     OW30043   0.405   2.249   9.122  0.1091  0.3472  0.2372
 6137SOL    HW130044   0.463   2.321   9.097  0.6626 -0.1315  0.1619
 6137SOL    HW230045   0.417   2.171   9.068  2.1715  1.3720 -0.8081
 6138SOL     OW30046   4.435   0.665   1.896  0.3619  0.2198 -0.0517
 6138SOL    HW130047   4.344   0.671   1.866  0.4627 -1.6655 -0.7669
 6138SOL    HW230048   4.441   0.670   1.992 -0.8088 -0.6462  0.0645
 6139SOL     OW30049   3.106   3.745  12.349  0.4628 -0.2946 -0.1401
 6139SOL    HW130050   3.158   3.770  12.425 -0.4516 -0.3891  0.5059
 6139SOL    HW230051   3.019   3.775  12.373  0.3796 -1.2060  0.7049
 6140SOL     OW30052   2.520   2.802   2.429  0.7296  0.0680 -0.3693
 6140SOL    HW130053   2.437   2.804   2.476  2.4877 -2.2923  2.8735
 6140SOL    HW230054   2.516   2.716   2.387  1.0387 -0.0937 -0.0653
 6141SOL     OW30055   1.793   4.354   4.465  0.4987  0.4536 -0.0548
 6141SOL    HW130056   1.860   4.378   4.529 -1.6499  1.0989  1.9440
 6141SOL    HW230057   1.833   4.283   4.415 -1.0244 -1.4001  1.3533
 6142SOL     OW30058   2.614   3.392  15.845 -0.0164  0.2548  0.0916
 6142SOL    HW130059   2.649   3.441  15.771 -1.6911  1.1917 -0.0795
 6142SOL    HW230060   2.557   3.460  15.881 -0.3959 -0.9139  1.7269
 6143SOL     OW30061   1.415   0.498   6.721  0.2529  0.0464  0.0938
 6143SOL    HW130062   1.354   0.464   6.786 -0.9877  1.3432 -0.3978
 6143SOL    HW230063   1.403   0.593   6.727 -4.3073 -0.5436 -0.3462
 6144SOL     OW30064   0.640   0.123   3.927 -0.2562  0.2088  0.2244
 6144SOL    HW130065   0.718   0.160   3.887  0.6474 -0.9519  0.9306
 6144SOL    HW230066   0.647   0.170   4.010 -0.0947  3.9102 -1.8811
 6145SOL     OW30067   1.434   4.565   8.142  0.1910  0.1941  0.3045
 6145SOL    HW130068   1.526   4.544   8.127 -0.5597 -0.6491 -3.0201
 6145SOL    HW230069   1.454   4.635   8.205 -0.6643 -0.2756  1.0914
 6146SOL     OW30070   4.483   4.297   4.040 -0.0216  0.2760  0.7945
 6146SOL    HW130071   4.570   4.336   4.055  0.3364 -0.2282 -0.0268
 6146SOL    HW230072   4.473   4.261   4.128  1.0594 -2.5280 -0.2378
 6147SOL     OW30073   2.801   1.273  17.601 -0.0344  0.1919 -0.0336
 6147SOL    HW130074   2.707   1.266  17.581  0.4734 -0.9906 -1.9532
 6147SOL    HW230075   2.805   1.190  17.648  1.4218  0.5091  0.3956
 6148SOL     OW30076   2.395   4.404   9.258  0.4529  0.0273  0.6483
 6148SOL    HW130077   2.376   4.367   9.345 -1.0255 -1.4294 -0.3068
 6148SOL    HW230078   2.473   4.354   9.235  1.8949  2.9291 -0.8034
 6149SOL     OW30079   0.138   0.022   9.847 -0.4681  0.3046  0.4367
 6149SOL    HW130080   0.100   4.669   9.838 -0.5608  0.5511 -1.4333
 6149SOL    HW230081   0.053   0.064   9.863 -1.0763 -0.2133 -1.5043
 6150SOL     OW30082   0.300   4.541   8.138 -0.5059 -0.3167 -0.1100
 6150SOL    HW130083   0.249   4.539   8.057 -2.5360 -1.0475  1.1797
 6150SOL    HW230084   0.253   4.618   8.170 -1.5137 -0.2060 -1.8690
 6151SOL     OW30085   2.507   3.579   6.735 -0.0673  0.4620 -0.2298
 6151SOL    HW130086   2.591   3.563   6.692  1.1326  0.6944  2.0342
 6151SOL    HW230087   2.462   3.635   6.672  0.1848 -0.2658 -1.0406
 6152SOL     OW30088   0.276   0.837   4.357 -0.0642 -0.0143 -0.0145
 6152SOL    HW130089   0.347   0.798   4.408 -1.0080 -0.4146  1.0078
 6152SOL    HW230090   0.323   0.911   4.318 -0.0864 -0.8378 -1.6047
 6153SOL     OW30091   3.733   2.985   3.898 -0.1141  0.4200  0.5613
 6153SOL    HW130092   3.771   2.938   3.823  2.2481  1.3898  1.1671
 6153SOL    HW230093   3.780   2.944   3.970  0.1890 -2.1953 -1.1005
 6154SOL     OW30094   2.458   3.332   4.636 -0.5439 -0.6027 -0.6863
 6154SOL    HW130095   2.535   3.352   4.583 -1.9004  0.4029 -2.2580
 6154SOL    HW230096   2.404   3.290   4.568  0.0359 -0.3932 -1.2708
 6155SOL     OW30097   1.112   1.909   6.977 -0.6212 -0.4432  0.1815
 6155SOL    HW130098   1.128   1.961   6.899 -0.5106 -0.5028  0.1641
 6155SOL    HW230099   1.175   1.957   7.031 -0.5809 -1.1825  0.8001
 6156SOL     OW30100   0.976   3.171   3.286 -0.1441 -0.0377  0.3982
 6156SOL    HW130101   0.913   3.240   3.266  0.8253  0.3831 -1.2049
 6156SOL    HW230102   0.934   3.103   3.233  1.1478 -0.7781  0.3205
 6157SOL     OW30103   0.782   2.150   6.922 -0.4269  0.3207  0.1838
 6157SOL    HW130104   0.863   2.159   6.972  1.5118 -0.9410 -2.7076
 6157SOL    HW230105   0.726   2.213   6.966  0.8731  1.9919 -0.5509
 6158SOL     OW30106   4.683   3.861   9.093  0.2649 -0.3019  0.0164
 6158SOL    HW130107   4.703   3.943   9.048  1.1891 -1.9507 -2.5741
 6158SOL    HW230108   0.033   3.841   9.133 -0.7612  0.2286  2.4369
 6159SOL     OW30109   4.571   3.609   4.460 -0.4793  0.2216  0.1277
 6159SOL    HW130110   4.497   3.569   4.414 -1.1610  1.6822 -0.0231
 6159SOL    HW230111   4.645   3.555   4.433 -0.5921 -1.2622  2.7850
 6160SOL     OW30112   2.044   2.442   6.143  0.0538 -0.9977 -0.5464
 6160SOL    HW130113   2.100   2.478   6.073  3.1437 -2.1212  1.3455
 6160SOL    HW230114   2.103   2.439   6.218  0.6871  2.6097 -0.8933
 6161SOL     OW30115   2.493   4.574   6.386  0.1822 -0.3777 -0.5243
 6161SOL    HW130116   2.415   4.554   6.438  0.0286  0.5908 -0.3854
 6161SOL    HW230117   2.517   4.653   6.434 -3.6627  2.1234 -2.7714
 6162SOL     OW30118   3.010   4.339   4.757 -0.6123 -0.6955 -0.6938
 6162SOL    HW130119   3.094   4.294   4.750  0.2296  0.4213  2.3939
 6162SOL    HW230120   2.978   4.325   4.846 -0.1998 -1.1360 -0.6148
 6163SOL     OW30121   3.008   3.679   7.661 -0.1524  0.2411  0.2661
 6163SOL    HW130122   2.925   3.660   7.705 -1.2538  1.5189 -1.2392
 6163SOL    HW230123   2.975   3.745   7.600  2.5321  1.9999  0.7368
 6164SOL     OW30124   1.804   1.143   9.284 -0.4698 -0.4533  0.2543
 6164SOL    HW130125   1.807   1.238   9.300  0.7060 -0.1172 -1.8895
 6164SOL    HW230126   1.830   1.141   9.192 -0.4524  0.1590  0.2424
 6165SOL     OW30127   1.834   1.393   3.770  0.6958  0.2152 -0.7337
 6165SOL    HW130128   1.801   1.348   3.692  0.0731  0.7278 -0.7730
 6165SOL    HW230129   1.850   1.317   3.826  1.1730  1.0285  0.2403
 6166SOL     OW30130   3.881   2.292   5.012  0.5954 -0.5893  0.4516
 6166SOL    HW130131   3.901   2.349   4.937  1.5236 -1.0851  0.3145
 6166SOL    HW230132   3.954   2.230   5.017  2.6106  1.8023  0.7017
 6167SOL     OW30133   4.192   1.402   3.705  0.0117 -0.1655  0.3468
 6167SOL    HW130134   4.178   1.315   3.668  2.2060  0.2506 -1.4970
 6167SOL    HW230135   4.242   1.382   3.784  0.3960 -0.1232  0.1175
 6168SOL     OW30136   1.819   0.644   2.895 -0.0813  0.3188 -0.6808
 6168SOL    HW130137   1.774   0.561   2.879 -1.9172  1.1068  0.4118
 6168SOL    HW230138   1.769   0.712   2.851 -0.3420  0.7400  0.2797
 6169SOL     OW30139   1.176   3.426   2.101 -0.5887 -0.1725  0.1284
 6169SOL    HW130140   1.222   3.347   2.128 -0.4817 -0.6262 -1.3417
 6169SOL    HW230141   1.242   3.470   2.047  1.1571 -2.3493  0.4919
 6170SOL     OW30142   1.463   4.666   9.686  0.2547  0.2967  0.2536
 6170SOL    HW130143   1.458   0.025   9.667  0.6809 -0.1312 -1.9162
 6170SOL    HW230144   1.372   4.644   9.707  0.3811 -1.6656 -1.2499
 6171SOL     OW30145   4.609   1.638   4.146 -0.0153 -0.2247  0.1671
 6171SOL    HW130146   4.629   1.722   4.188 -0.3783 -0.2899  0.4708
 6171SOL    HW230147   4.517   1.642   4.121  0.4739  1.5127 -1.3326
 6172SOL     OW30148   2.520   4.013   8.643  0.2126 -0.2204 -0.0193
 6172SOL    HW130149   2.546   3.961   8.566  0.7421  0.0595 -0.0299
 6172SOL    HW230150   2.455   4.070   8.602 -0.3974 -0.0841  1.1631
 6173SOL     OW30151   1.524   4.435   3.964  0.2343  0.2477 -0.8274
 6173SOL    HW130152   1.553   4.452   4.054 -0.5172  1.8112 -0.8823
 6173SOL    HW230153   1.589   4.371   3.935 -1.9179 -1.8383 -0.9774
 6174SOL     OW30154   0.758   1.181   2.977  0.1098  0.7417 -0.0078
 6174SOL    HW130155   0.671   1.158   3.009  0.3473 -0.1462 -0.0085
 6174SOL    HW230156   0.737   1.248   2.911 -1.5845  0.2475  0.0245
 6175SOL     OW30157   1.450   0.517   3.103  0.3158  0.4327 -0.0786
 6175SOL    HW130158   1.493   0.573   3.038 -0.0122  1.8643  0.9418
 6175SOL    HW230159   1.447   0.579   3.176  1.4459 -0.2143  0.5155
 6176SOL     OW30160   3.987   1.594   3.730 -0.5604  0.0728 -0.3696
 6176SOL    HW130161   3.963   1.589   3.823  1.0186  0.4668  0.0636
 6176SOL    HW230162   4.045   1.518   3.727  1.0586  1.3456 -0.8282
 6177SOL     OW30163   2.145   0.348   6.202  0.4388  0.4481  0.6056
 6177SOL    HW130164   2.102   0.292   6.137  0.7794  1.1891 -0.2513
 6177SOL    HW230165   2.193   0.417   6.156 -2.3453  0.0221 -2.9286
 6178SOL     OW30166   0.615   2.029   6.403 -0.0466 -0.7539  0.4071
 6178SOL    HW130167   0.578   1.976   6.332  1.3693 -2.3311  0.8383
 6178SOL    HW230168   0.542   2.091   6.404  1.2712  0.8111  0.8054
 6179SOL     OW30169   0.324   4.320   1.683 -0.4929 -0.0765  0.1743
 6179SOL    HW130170   0.363   4.233   1.687 -2.6034 -0.9941  0.6028
 6179SOL    HW230171   0.234   4.288   1.677 -1.6030  2.8826  0.9271
 6180SOL     OW30172   2.800   0.366   8.189  0.1034 -0.0574 -0.3554
 6180SOL    HW130173   2.821   0.277   8.219 -0.9056  0.0429  0.6738
 6180SOL    HW230174   2.736   0.341   8.121 -1.0610  0.7350  0.4641
 6181SOL     OW30175   2.294   0.260   0.453 -0.4871  0.0604  0.5435
 6181SOL    HW130176   2.318   0.181   0.405  1.8216  0.7749  0.5057
 6181SOL    HW230177   2.200   0.256   0.433 -0.3638  0.7285 -0.1814
 6182SOL     OW30178   4.034   4.649  15.470  0.7649  0.0966  0.0088
 6182SOL    HW130179   4.109   4.623  15.524  1.8466  0.1772 -1.4580
 6182SOL    HW230180   4.061   4.725  15.419 -1.4459  1.0075  0.2433
 6183SOL     OW30181   3.504   3.380  10.351  0.7151 -0.2461 -0.1250
 6183SOL    HW130182   3.456   3.458  10.377  2.9202  1.0052  0.2390
 6183SOL    HW230183   3.447   3.309  10.379 -0.5436  0.9582  0.3493
 6184SOL     OW30184   4.089   0.139  17.412 -0.2909  0.7459  0.0446
 6184SOL    HW130185   4.095   0.102  17.500  2.0417  2.5768  0.6435
 6184SOL    HW230186   4.125   0.070  17.356 -2.7270 -0.2077 -0.3399
 6185SOL     OW30187   2.662   2.461   9.209  0.5124 -0.2802 -0.0991
 6185SOL    HW130188   2.712   2.538   9.183  0.1958  0.2918  0.9914
 6185SOL    HW230189   2.626   2.483   9.295 -0.0926  0.4756 -0.5407
 6186SOL     OW30190   0.551   0.013   5.716 -0.7141 -0.3051 -0.0950
 6186SOL    HW130191   0.620   0.002   5.651 -1.7579 -1.9152 -0.9315
 6186SOL    HW230192   0.482   0.039   5.655 -1.4373 -1.3743  0.2668
 6187SOL     OW30193   0.133   2.435   6.616  0.5823 -0.7193 -0.5138
 6187SOL    HW130194   0.038   2.422   6.612  0.2626  1.2967  0.1652
 6187SOL    HW230195   0.142   2.527   6.592 -0.8109  0.0476  1.9139
 6188SOL     OW30196   2.086   1.216  11.883 -0.4336 -0.2493 -0.2501
 6188SOL    HW130197   2.154   1.220  11.816  1.5136  1.9124  1.9026
 6188SOL    HW230198   2.000   1.207  11.841 -0.7065  1.8375 -0.1569
 6189SOL     OW30199   1.127   4.122   4.158 -0.0978  0.5318 -0.5210
 6189SOL    HW130200   1.195   4.077   4.108 -0.6121 -1.2486  0.3895
 6189SOL    HW230201   1.092   4.046   4.205  2.0805 -0.4488 -0.4897
 6190SOL     OW30202   2.722   3.114   5.975  0.1525  0.0051  0.5162
 6190SOL    HW130203   2.747   3.084   6.062 -0.0885 -0.3320  0.4665
 6190SOL    HW230204   2.627   3.107   5.973  0.1443  0.4864 -1.2092
 6191SOL     OW30205   0.623   0.282   8.099  0.2245 -0.3830 -0.4362
 6191SOL    HW130206   0.582   0.268   8.013 -1.2324  2.4677 -0.2246
 6191SOL    HW230207   0.715   0.271   8.075 -0.0718 -1.6407 -1.0033
 6192SOL     OW30208   4.387   2.200   7.960 -0.5933  0.2918 -0.5358
 6192SOL    HW130209   4.390   2.183   7.865 -1.0182  0.7324 -0.6269
 6192SOL    HW230210   4.304   2.159   7.985 -0.6524  0.5505 -0.3109
 6193SOL     OW30211   4.473   3.348   6.475  0.4237 -0.6145  0.4932
 6193SOL    HW130212   4.554   3.296   6.476  0.6940 -0.1795  0.7559
 6193SOL    HW230213   4.409   3.301   6.421 -0.6309 -2.6112  3.5156
 6194SOL     OW30214   2.737   0.154   3.738  0.5389  0.1173  0.0728
 6194SOL    HW130215   2.646   0.138   3.712  0.3039  0.0588  0.9315
 6194SOL    HW230216   2.737   0.243   3.772  0.2661 -0.7496  2.3494
 6195SOL     OW30217   3.981   3.185   7.829 -0.5873  0.5846 -0.2203
 6195SOL    HW130218   4.030   3.223   7.903  0.4485 -0.5306 -0.3446
 6195SOL    HW230219   4.011   3.239   7.756 -1.5554 -0.2726 -1.2508
 6196SOL     OW30220   1.141   0.877   5.291  0.0442  0.4670 -0.0117
 6196SOL    HW130221   1.133   0.800   5.235 -1.8178  0.8948 -0.3339
 6196SOL    HW230222   1.121   0.837   5.376  3.2826  0.5870  0.8117
 6197SOL     OW30223   3.542   1.947  15.863  0.1871 -0.5540  0.1640
 6197SOL    HW130224   3.539   1.923  15.956 -1.0876 -0.8442  0.0474
 6197SOL    HW230225   3.631   1.918  15.843  0.9219  0.0033  2.5703
 6198SOL     OW30226   3.622   1.316   2.273 -0.4692  0.2896 -0.1833
 6198SOL    HW130227   3.606   1.406   2.245 -0.6483  0.4642  0.4742
 6198SOL    HW230228   3.717   1.319   2.282 -0.3291 -2.5268 -0.9050
 6199SOL     OW30229   2.928   3.928   7.875 -0.0435  0.4025  0.3117
 6199SOL    HW130230   3.017   3.897   7.890 -0.0088 -0.4112 -1.5741
 6199SOL    HW230231   2.882   3.911   7.957 -1.3162  0.8712 -0.2875
 6200SOL     OW30232   2.823   1.740   8.019  0.0312 -0.3249  0.0652
 6200SOL    HW130233   2.809   1.827   8.057  1.5040  0.0096 -0.1694
 6200SOL    HW230234   2.915   1.744   7.993 -0.1535  2.2856 -0.2023
 6201SOL     OW30235   4.055   0.913   9.576  0.3228  0.3004  0.0679
 6201SOL    HW130236   3.961   0.902   9.592  0.3338 -1.8117 -1.2500
 6201SOL    HW230237   4.088   0.956   9.655 -3.8272  0.1305  1.8748
 6202SOL     OW30238   3.706   0.467   8.793  0.2959  0.1590  0.1142
 6202SOL    HW130239   3.655   0.508   8.863 -0.7956  1.3873 -1.3982
 6202SOL    HW230240   3.666   0.501   8.713  0.9650 -0.7383 -0.5975
 6203SOL     OW30241   1.080   4.447   7.535  0.9733 -0.2933 -0.0330
 6203SOL    HW130242   1.102   4.539   7.520 -0.2257 -0.2086 -1.2793
 6203SOL    HW230243   1.169   4.415   7.549  0.2518 -1.9295  0.8576
 6204SOL     OW30244   3.757   2.232  12.417 -0.1881 -0.5176 -0.3306
 6204SOL    HW130245   3.762   2.248  12.512  0.4893 -0.0449 -0.4502
 6204SOL    HW230246   3.802   2.148  12.411 -1.3416 -1.2149  0.5496
 6205SOL     OW30247   1.101   1.480   6.811 -0.1110 -0.6270 -0.4044
 6205SOL    HW130248   1.091   1.563   6.764 -1.1086 -1.8414 -2.3536
 6205SOL    HW230249   1.017   1.471   6.857 -1.0076  0.8293 -1.7599
 6206SOL     OW30250   1.841   3.359   8.131 -0.2369 -0.1276 -0.2542
 6206SOL    HW130251   1.906   3.363   8.061 -0.5280 -0.3580 -0.5430
 6206SOL    HW230252   1.762   3.373   8.078  0.2350 -0.8489 -1.1470
 6207SOL     OW30253   0.651   1.349   2.775 -0.5034 -0.6463 -0.2481
 6207SOL    HW130254   0.665   1.337   2.681  0.7626 -0.5388 -0.0683
 6207SOL    HW230255   0.628   1.441   2.779  0.2536 -0.5732  2.5188
 6208SOL     OW30256   3.347   0.369   5.932  0.0415 -0.3641  0.3770
 6208SOL    HW130257   3.295   0.401   5.858  0.4008 -3.0714 -1.0512
 6208SOL    HW230258   3.396   0.302   5.884  2.2540  2.0060 -0.6587
 6209SOL     OW30259   2.647   0.550   9.099 -0.1942 -0.0923  0.4722
 6209SOL    HW130260   2.705   0.544   9.023  0.2107  1.0553  0.6926
 6209SOL    HW230261   2.717   0.543   9.163 -0.8467  0.8067  1.2727
 6210SOL     OW30262   1.360   1.684   8.295  0.4092 -0.2933 -0.1771
 6210SOL    HW130263   1.388   1.675   8.386  1.9313  2.3137 -0.3823
 6210SOL    HW230264   1.360   1.592   8.267 -0.4424 -0.2087 -0.4547
 6211SOL     OW30265   1.546   2.268   6.956 -0.0681  0.0041 -0.3156
 6211SOL    HW130266   1.547   2.363   6.968  1.2377  0.0757 -1.0026
 6211SOL    HW230267   1.613   2.239   7.017 -1.2960 -0.8694  0.6037
 6212SOL     OW30268   4.247   0.356  11.023  0.1665 -0.4574  0.2541
 6212SOL    HW130269   4.327   0.303  11.025  1.5414  1.5556 -1.3691
 6212SOL    HW230270   4.280   0.431  10.974  1.6541 -0.2541  1.5668
 6213SOL     OW30271   1.378   3.982   5.804 -0.0542 -0.2398 -0.5688
 6213SOL    HW130272   1.336   4.037   5.738 -2.9735  0.6503  2.0167
 6213SOL    HW230273   1.471   4.002   5.788  0.0435 -0.7174 -0.5895
 6214SOL     OW30274   3.860   2.630  12.917 -0.0639 -0.9979 -0.0085
 6214SOL    HW130275   3.840   2.568  12.846 -2.9523 -1.0243  0.8261
 6214SOL    HW230276   3.773   2.637  12.956 -0.8985  1.5228 -2.3858
 6215SOL     OW30277   4.539   2.242   5.742  0.6609  0.5152  0.0288
 6215SOL    HW130278   4.488   2.163   5.723  2.8712 -1.4743  2.2514
 6215SOL    HW230279   4.588   2.268   5.664 -0.9780 -1.2716 -1.5848
 6216SOL     OW30280   4.134   3.074  11.078 -0.2680  0.1316  0.0872
 6216SOL    HW130281   4.146   3.068  11.172  1.1361 -0.7360 -0.1401
 6216SOL    HW230282   4.099   2.990  11.049 -0.5629  0.2600  0.0747
 6217SOL     OW30283   4.527   4.505   5.676 -0.0366 -0.5320 -0.2495
 6217SOL    HW130284   4.570   4.543   5.599  2.2772 -0.8982  0.8736
 6217SOL    HW230285   4.449   4.472   5.632 -1.6152  0.1401  2.0497
 6218SOL     OW30286   3.482   3.326  11.963 -0.4167  0.3144  0.4532
 6218SOL    HW130287   3.400   3.281  11.942 -0.3710 -0.0993  1.1711
 6218SOL    HW230288   3.528   3.258  12.012 -0.3027 -0.6401 -0.9697
 6219SOL     OW30289   2.812   3.158  15.177 -0.2430 -0.0022 -0.1145
 6219SOL    HW130290   2.829   3.137  15.085 -1.1168 -1.7941  0.1408
 6219SOL    HW230291   2.750   3.231  15.175  0.3346  0.4684 -0.7808
 6220SOL     OW30292   0.298   2.010  13.783 -0.1885  0.3086 -0.1647
 6220SOL    HW130293   0.271   1.937  13.838  0.5543 -1.2059 -1.8260
 6220SOL    HW230294   0.381   1.971  13.757  0.2759  1.7983 -0.9501
 6221SOL     OW30295   0.146   3.287   8.577  0.1103 -0.2565  0.2900
 6221SOL    HW130296   0.191   3.293   8.661  2.1318  0.8482 -0.8611
 6221SOL    HW230297   0.064   3.241   8.598  0.6826 -1.0925  0.6757
 6222SOL     OW30298   3.542   2.310   4.258  0.5117  0.7965  0.3346
 6222SOL    HW130299   3.623   2.361   4.254  1.9146 -1.5168 -0.8290
 6222SOL    HW230300   3.550   2.280   4.167 -2.0365 -1.0245  0.7321
 6223SOL     OW30301   3.425   4.188   3.170  0.1905 -0.0866  0.4435
 6223SOL    HW130302   3.396   4.218   3.085  0.0039 -0.3861  0.4016
 6223SOL    HW230303   3.519   4.179   3.158 -0.2880 -2.9336 -1.0522
 6224SOL     OW30304   1.472   3.278   5.913 -0.2486 -0.4339  0.5618
 6224SOL    HW130305   1.451   3.315   5.827 -0.5461 -1.3523  0.2370
 6224SOL    HW230306   1.551   3.228   5.895  0.6285  0.9064  0.7019
 6225SOL     OW30307   2.100   0.734   5.772  0.4426  0.4177  0.3222
 6225SOL    HW130308   2.150   0.751   5.851 -0.8040  0.4893  1.0934
 6225SOL    HW230309   2.024   0.685   5.802  1.0837 -0.1554  0.9772
 6226SOL     OW30310   0.068   4.431   1.323  0.5395 -0.0724 -0.4063
 6226SOL    HW130311   4.712   4.431   1.290  0.7909  0.4329 -1.0900
 6226SOL    HW230312   0.096   4.339   1.322  0.1794 -0.1705 -1.6467
 6227SOL     OW30313   4.157   2.569   3.068  0.2338 -0.2540 -0.1175
 6227SOL    HW130314   4.185   2.638   3.009  1.1663 -0.0860  0.5308
 6227SOL    HW230315   4.144   2.500   3.003  0.8308  0.4875 -1.0143
 6228SOL     OW30316   3.203   4.548   0.286 -0.4970  0.2643 -0.1925
 6228SOL    HW130317   3.266   4.620   0.278 -0.2409  0.0866  0.2187
 6228SOL    HW230318   3.235   4.489   0.355 -2.4333  1.1694  1.4870
 6229SOL     OW30319   2.877   3.573   4.546  0.0465 -0.4313  0.6174
 6229SOL    HW130320   2.912   3.486   4.530  1.4932 -0.0532  1.7624
 6229SOL    HW230321   2.943   3.626   4.500 -2.1169  1.4571 -0.3679
 6230SOL     OW30322   1.851   3.481   9.273  0.2663  0.3768  0.4216
 6230SOL    HW130323   1.867   3.561   9.323  1.3677  0.7876 -0.6017
 6230SOL    HW230324   1.926   3.476   9.214 -0.0085  0.4899  0.0624
 6231SOL     OW30325   2.487   1.791   8.259 -0.0317  0.1110 -0.3437
 6231SOL    HW130326   2.522   1.745   8.335  1.3182  0.8440 -0.5200
 6231SOL    HW230327   2.440   1.720   8.216  0.5081  0.1143 -0.9381
 6232SOL     OW30328   1.963   1.376   7.072  0.8525 -0.6998  0.0006
 6232SOL    HW130329   1.976   1.425   6.991 -2.0950  0.3864  0.1918
 6232SOL    HW230330   2.055   1.351   7.084  1.2927  0.5805 -0.7094
 6233SOL     OW30331   4.679   4.132   4.852  0.4399 -1.0869 -0.2110
 6233SOL    HW130332   4.720   4.051   4.823  2.0762 -0.4684  0.3840
 6233SOL    HW230333   4.637   4.167   4.773  0.9828 -0.0621 -0.0445
 6234SOL     OW30334   4.675   3.131   6.092 -0.2283 -0.2710 -0.3236
 6234SOL    HW130335   4.668   3.225   6.073 -0.2672 -0.1022  0.5289
 6234SOL    HW230336   4.717   3.146   6.176 -0.9953  0.1468 -0.0095
 6235SOL     OW30337   3.365   1.633   6.755 -0.4393 -0.5929 -0.7981
 6235SOL    HW130338   3.365   1.728   6.744  2.0262 -0.5405 -0.2125
 6235SOL    HW230339   3.273   1.620   6.731 -0.5362  1.4292 -1.5026
 6236SOL     OW30340   4.406   4.676  16.406 -0.0088  0.6239 -0.4622
 6236SOL    HW130341   4.410   4.688  16.311 -2.0087  1.0554 -0.4893
 6236SOL    HW230342   4.438   0.029  16.426  1.5241  0.2377 -1.2058
 6237SOL     OW30343   3.077   4.413   1.932  0.1326 -0.3487  0.0048
 6237SOL    HW130344   3.120   4.413   2.018  0.2205  0.0169 -0.0416
 6237SOL    HW230345   3.135   4.474   1.888  1.2749 -1.4910 -0.0800
 6238SOL     OW30346   4.342   0.427   3.490 -0.4067 -0.0181 -0.4529
 6238SOL    HW130347   4.428   0.444   3.452  0.0514 -3.6825 -1.1205
 6238SOL    HW230348   4.345   0.331   3.482  0.4583  0.0834 -1.3431
 6239SOL     OW30349   0.913   1.796   2.630 -0.2468 -0.9011 -0.3674
 6239SOL    HW130350   0.935   1.791   2.537  0.2083  2.5392 -0.4318
 6239SOL    HW230351   0.826   1.756   2.629 -1.8584  2.6257 -1.8276
 6240SOL     OW30352   2.271   3.114  11.866  0.4367 -0.1020 -0.5477
 6240SOL    HW130353   2.270   3.049  11.796 -2.6364  2.4937 -2.9680
 6240SOL    HW230354   2.181   3.145  11.856  0.6057  0.3778 -0.5835
 6241SOL     OW30355   0.128   2.299   9.120  0.1741  0.0352  0.0759
 6241SOL    HW130356   0.121   2.316   9.026 -0.1509  0.5929  0.1967
 6241SOL    HW230357   0.219   2.308   9.148  0.3075 -0.4966 -0.2080
 6242SOL     OW30358   0.929   1.737   7.417  0.0692 -0.5672  0.3456
 6242SOL    HW130359   0.915   1.811   7.477  1.3666  1.4565 -1.8459
 6242SOL    HW230360   0.958   1.788   7.341 -1.8044  0.1883  0.1288
 6243SOL     OW30361   1.460   4.018   1.774  0.3345 -0.4267  0.4215
 6243SOL    HW130362   1.545   4.022   1.817  0.0167  2.5318  0.8290
 6243SOL    HW230363   1.464   3.939   1.721 -0.3906  0.3967 -0.8646
 6244SOL     OW30364   3.508   3.587   7.509  0.6238  0.6004  0.2670
 6244SOL    HW130365   3.548   3.670   7.536  3.2201 -1.1013  1.5861
 6244SOL    HW230366   3.509   3.598   7.413 -3.3013  0.7548  0.2230
 6245SOL     OW30367   3.720   4.088  17.255  0.5857  0.0683  0.0551
 6245SOL    HW130368   3.711   3.993  17.243 -1.1934 -0.0490  2.3958
 6245SOL    HW230369   3.688   4.102  17.344 -1.0787  0.0757 -0.5280
 6246SOL     OW30370   2.862   4.152   5.305  0.5320 -0.2732  0.4722
 6246SOL    HW130371   2.874   4.247   5.315 -1.1935 -0.0748  0.5636
 6246SOL    HW230372   2.775   4.143   5.266 -0.7705  4.0554  2.3348
 6247SOL     OW30373   2.379   0.587   9.812  0.2662 -0.0771 -0.1195
 6247SOL    HW130374   2.354   0.534   9.887 -0.8128 -1.4197 -1.4157
 6247SOL    HW230375   2.322   0.664   9.805  2.2065  1.4641  1.0869
 6248SOL     OW30376   1.304   2.975   7.529 -0.4370 -0.3620 -0.3062
 6248SOL    HW130377   1.270   3.019   7.452 -1.2701  0.1496  0.3618
 6248SOL    HW230378   1.351   2.905   7.485 -0.9619 -0.4739 -0.6824
 6249SOL     OW30379   4.479   4.196  15.736 -0.5177  0.4107 -0.2164
 6249SOL    HW130380   4.427   4.135  15.789  0.5881  1.3423  1.9315
 6249SOL    HW230381   4.560   4.147  15.720 -0.2183  0.8790 -0.1287
 6250SOL     OW30382   3.671   4.380  12.129 -0.6657 -0.0688 -0.7570
 6250SOL    HW130383   3.654   4.379  12.035  0.3231  2.4186 -0.9529
 6250SOL    HW230384   3.604   4.317  12.157 -1.0413  0.9107  0.5220
 6251SOL     OW30385   1.131   3.710   2.144  0.2625  0.0687 -0.0658
 6251SOL    HW130386   1.106   3.631   2.096  1.1935 -1.6255  2.1894
 6251SOL    HW230387   1.108   3.676   2.231 -1.8343  3.6877  0.7783
 6252SOL     OW30388   3.020   1.117   2.365  0.2474  0.1154 -0.5938
 6252SOL    HW130389   3.005   1.169   2.444 -0.3107  0.4480 -0.9216
 6252SOL    HW230390   2.934   1.124   2.323  0.7266  1.7225 -1.3141
 6253SOL     OW30391   2.203   1.973   9.636 -0.1279 -0.3594  0.1880
 6253SOL    HW130392   2.242   1.928   9.711  2.5497  1.3719 -0.1372
 6253SOL    HW230393   2.234   2.062   9.657 -2.1313  0.3905 -0.0820
 6254SOL     OW30394   3.300   3.368   5.721  0.4364 -0.1184  0.3095
 6254SOL    HW130395   3.293   3.459   5.693  2.3685 -0.1173 -0.1697
 6254SOL    HW230396   3.253   3.370   5.804  0.8066 -0.0339  0.5165
 6255SOL     OW30397   2.872   1.921  17.107 -0.0209  0.0650 -0.0949
 6255SOL    HW130398   2.818   1.843  17.118  1.7122 -1.0705  0.3365
 6255SOL    HW230399   2.960   1.883  17.117  0.7615  1.6790 -0.7796
 6256SOL     OW30400   1.070   4.342   5.159  0.8361 -0.3358 -0.0003
 6256SOL    HW130401   1.129   4.339   5.084  0.6663 -1.6899 -0.0888
 6256SOL    HW230402   1.016   4.263   5.153 -3.0245  2.5685 -3.9720
 6257SOL     OW30403   2.838   4.646  10.722  0.1470 -1.0983  0.1031
 6257SOL    HW130404   2.924   4.646  10.680 -0.1503  0.7558 -0.4835
 6257SOL    HW230405   2.792   4.693  10.653 -2.5819 -2.0568  1.2614
 6258SOL     OW30406   2.749   1.988   0.161 -0.4015  0.4859 -0.1908
 6258SOL    HW130407   2.787   2.059   0.214 -0.1908 -0.6189  1.1345
 6258SOL    HW230408   2.683   1.956   0.222  0.6958 -0.4017  0.5390
 6259SOL     OW30409   3.646   3.161   7.217 -0.7253  0.6941 -0.1812
 6259SOL    HW130410   3.634   3.250   7.182  1.6808  0.9716 -0.2624
 6259SOL    HW230411   3.630   3.112   7.137 -4.2350 -0.0393  0.9754
 6260SOL     OW30412   4.567   1.488   6.844  0.2406 -0.2707 -0.0825
 6260SOL    HW130413   4.615   1.486   6.927 -0.0728 -1.1276  0.0725
 6260SOL    HW230414   4.482   1.525   6.867 -0.2028 -1.2227 -0.1759
 6261SOL     OW30415   0.322   2.676   8.982 -0.1193 -0.1086  0.1644
 6261SOL    HW130416   0.299   2.735   9.053  0.2527 -0.1663  0.3342
 6261SOL    HW230417   0.413   2.701   8.966 -0.3961  0.1575 -0.9931
 6262SOL     OW30418   2.233   3.109   9.681 -0.0586 -0.6464 -0.0752
 6262SOL    HW130419   2.265   3.173   9.744  2.5654 -1.0775 -0.9525
 6262SOL    HW230420   2.189   3.177   9.629  1.0165 -0.7934 -1.1572
 6263SOL     OW30421   2.177   2.106   6.836  0.0933 -0.3105  0.0283
 6263SOL    HW130422   2.241   2.080   6.770 -1.3886 -2.2453 -0.6355
 6263SOL    HW230423   2.111   2.039   6.819 -1.3510  1.2053 -0.3603
 6264SOL     OW30424   2.105   0.743   2.863 -0.1408  0.5506 -0.2946
 6264SOL    HW130425   2.067   0.782   2.784 -2.4856  0.9773  1.0569
 6264SOL    HW230426   2.029   0.692   2.890  0.4942  0.0167  0.5046
 6265SOL     OW30427   0.689   4.444   7.151  0.0088  0.6448 -0.4997
 6265SOL    HW130428   0.678   4.388   7.074 -1.8887 -1.9026  1.6410
 6265SOL    HW230429   0.682   4.531   7.113 -2.3339  0.1331 -1.2163
 6266SOL     OW30430   0.702   0.196   6.211 -0.3211 -0.3992 -0.0790
 6266SOL    HW130431   0.701   0.283   6.171 -0.3566  0.6111  2.1196
 6266SOL    HW230432   0.650   0.152   6.144 -0.8074  1.1178 -0.6942
 6267SOL     OW30433   3.589   1.603  14.657  0.2352  0.2119  0.0415
 6267SOL    HW130434   3.681   1.611  14.683 -0.4616  0.5295  2.4940
 6267SOL    HW230435   3.557   1.569  14.741  2.9688  1.8610  1.7258
 6268SOL     OW30436   0.337   4.531  14.964  0.3520  0.1881 -0.0905
 6268SOL    HW130437   0.250   4.540  14.926  0.3245 -1.6930 -0.4906
 6268SOL    HW230438   0.384   4.597  14.913  1.7073 -1.7629 -1.3920
 6269SOL     OW30439   2.586   3.675   4.164 -0.4637 -0.1009  0.3707
 6269SOL    HW130440   2.681   3.666   4.168 -0.6541 -2.6106 -0.3751
 6269SOL    HW230441   2.564   3.666   4.071  0.2383  0.2683  0.1704
 6270SOL     OW30442   0.340   2.415   8.160  0.6399 -0.5457  0.3537
 6270SOL    HW130443   0.284   2.420   8.238  1.6463 -2.0772  1.1838
 6270SOL    HW230444   0.415   2.469   8.187  0.9418 -0.6400 -0.3091
 6271SOL     OW30445   1.390   2.843   7.896  0.1344 -0.1815 -0.0452
 6271SOL    HW130446   1.409   2.934   7.874 -0.7108  0.6367  2.6928
 6271SOL    HW230447   1.297   2.847   7.917  0.5378 -0.0272  1.6965
 6272SOL     OW30448   0.136   2.734   4.668  0.5333  0.5892  0.3292
 6272SOL    HW130449   0.150   2.803   4.733  1.2819  0.2259  0.5608
 6272SOL    HW230450   0.185   2.774   4.597  1.7240 -3.0380 -0.9159
 6273SOL     OW30451   2.271   0.150  10.108  0.3596 -0.0245  0.6261
 6273SOL    HW130452   2.190   0.202  10.103 -0.5306 -1.6107 -1.3156
 6273SOL    HW230453   2.234   0.065  10.086  1.1791  0.0937 -1.1321
 6274SOL     OW30454   0.187   1.077   2.962  0.3219  0.1651 -0.3222
 6274SOL    HW130455   0.255   1.037   3.018  0.8522  2.1473  0.4829
 6274SOL    HW230456   0.245   1.084   2.887  0.3614 -0.3005 -0.3324
 6275SOL     OW30457   2.709   3.382   8.640  0.8379 -0.1160 -0.1598
 6275SOL    HW130458   2.787   3.396   8.586  1.5088  2.1531  1.3903
 6275SOL    HW230459   2.644   3.361   8.573  1.8238 -0.2021 -1.0978
 6276SOL     OW30460   2.637   3.072   2.352  0.5583  0.0423 -0.0640
 6276SOL    HW130461   2.545   3.084   2.330 -0.1967 -1.8781  2.0792
 6276SOL    HW230462   2.664   3.022   2.275 -1.1551  1.0512 -1.3207
 6277SOL     OW30463   2.271   1.846  12.582 -0.0388 -0.0091 -0.2307
 6277SOL    HW130464   2.339   1.883  12.639  2.3268 -2.7885 -1.2183
 6277SOL    HW230465   2.232   1.790  12.649 -0.0108  1.9691  1.4443
 6278SOL     OW30466   2.992   2.805   4.874 -0.1917 -0.0704  0.0315
 6278SOL    HW130467   2.979   2.791   4.780 -1.3498  1.9910 -0.1070
 6278SOL    HW230468   2.911   2.851   4.895 -0.1136 -0.4064  1.0431
 6279SOL     OW30469   1.432   4.491   9.435  0.2344  0.9234  0.3929
 6279SOL    HW130470   1.347   4.511   9.474  0.2072 -2.6054  2.1433
 6279SOL    HW230471   1.447   4.562   9.372  0.0437 -0.6646 -1.4145
 6280SOL     OW30472   4.567   2.970  12.267  0.3086  0.1770 -0.3454
 6280SOL    HW130473   4.476   2.949  12.290  0.9017  0.6027  2.4015
 6280SOL    HW230474   4.572   3.064  12.283 -0.6329 -0.7005  5.2910
 6281SOL     OW30475   3.987   1.672  17.105 -0.3961 -0.7948 -0.0858
 6281SOL    HW130476   3.933   1.616  17.160  1.0217  0.0525  2.1582
 6281SOL    HW230477   4.047   1.604  17.074 -0.6460  0.6431 -3.8470
 6282SOL     OW30478   3.483   3.575   4.931  0.1571  0.2954  0.2307
 6282SOL    HW130479   3.556   3.542   4.983  0.0033 -0.4456 -0.0185
 6282SOL    HW230480   3.448   3.649   4.981 -0.2738 -0.1095  0.5237
 6283SOL     OW30481   2.680   1.815   0.431 -0.3670 -0.1007 -0.9411
 6283SOL    HW130482   2.638   1.767   0.359 -0.7414 -1.9455  0.5275
 6283SOL    HW230483   2.687   1.743   0.493  0.0134  0.9897  0.2817
 6284SOL     OW30484   3.978   2.857  12.642  0.2632  0.4459  0.0405
 6284SOL    HW130485   4.000   2.835  12.732 -0.5922 -1.3977 -0.2068
 6284SOL    HW230486   4.068   2.885  12.621  0.1513  0.8172  0.0533
 6285SOL     OW30487   1.759   1.444   5.500  0.2149 -0.6126 -0.2389
 6285SOL    HW130488   1.809   1.370   5.534 -0.9783 -0.7825  1.1311
 6285SOL    HW230489   1.719   1.399   5.426  0.7819 -2.0139  0.3071
 6286SOL     OW30490   1.235   2.963  17.576  0.1503  0.2264 -0.6048
 6286SOL    HW130491   1.288   2.946  17.498  1.9800 -0.2657  0.7429
 6286SOL    HW230492   1.293   3.029  17.614 -1.3070  0.9149  0.4198
 6287SOL     OW30493   0.431   3.153   4.251 -0.3804 -0.1884  0.1077
 6287SOL    HW130494   0.515   3.184   4.287 -0.1105 -1.2746  0.4110
 6287SOL    HW230495   0.460   3.085   4.190 -2.2360 -0.6049 -0.2853
 6288SOL     OW30496   4.279   2.302   4.173 -0.4149 -0.3275 -0.1176
 6288SOL    HW130497   4.329   2.367   4.222 -2.4674 -0.2163  1.8340
 6288SOL    HW230498   4.233   2.256   4.243 -1.2075 -0.3751 -0.6671
 6289SOL     OW30499   1.118   4.116   3.366  0.1227  0.4405  0.1936
 6289SOL    HW130500   1.117   4.143   3.274  0.3389  1.9053  0.6333
 6289SOL    HW230501   1.039   4.062   3.355  1.0022 -0.5607 -1.3524
 6290SOL     OW30502   2.908   4.099   3.790  0.3171 -0.4041 -0.1348
 6290SOL    HW130503   2.982   4.144   3.830  0.0581 -1.4328  1.4739
 6290SOL    HW230504   2.895   4.138   3.703 -1.7115  0.2610  0.4566
 6291SOL     OW30505   4.530   2.423   4.550  0.3224 -0.4166  0.1942
 6291SOL    HW130506   4.448   2.472   4.539  0.3148 -0.2374  1.0055
 6291SOL    HW230507   4.562   2.422   4.460 -1.7679 -1.5959 -0.5338
 6292SOL     OW30508   1.361   4.325  11.629 -0.0584  0.0713  0.3129
 6292SOL    HW130509   1.373   4.398  11.568  2.0890  1.4528  2.3809
 6292SOL    HW230510   1.448   4.327  11.670  0.1321  0.2116 -0.0963
 6293SOL     OW30511   1.120   3.001   7.090 -0.5428 -0.0569 -0.7425
 6293SOL    HW130512   1.025   3.014   7.092 -0.4805  0.1817  0.2880
 6293SOL    HW230513   1.137   3.034   7.001 -0.6028  0.0287 -0.7224
 6294SOL     OW30514   0.234   1.281   4.688  0.0088 -0.2850  0.3065
 6294SOL    HW130515   0.227   1.286   4.593  0.7580  0.0716  0.2686
 6294SOL    HW230516   0.188   1.198   4.701  2.2596 -1.4466  0.9921
 6295SOL     OW30517   2.096   2.970   8.302 -0.0847 -0.0664 -0.3393
 6295SOL    HW130518   2.147   2.889   8.301  0.7858  0.4821 -0.1945
 6295SOL    HW230519   2.124   3.017   8.380 -0.2930 -1.8523  0.8272
 6296SOL     OW30520   1.381   3.459   8.936 -0.0362  0.7261  0.0907
 6296SOL    HW130521   1.421   3.414   9.011  0.6640 -0.7887 -1.1946
 6296SOL    HW230522   1.404   3.551   8.944  0.4791  0.4483  1.8694
 6297SOL     OW30523   4.664   4.556   2.123  0.1600 -0.3643  0.1379
 6297SOL    HW130524   4.659   4.643   2.163 -3.0384 -1.1862  1.4976
 6297SOL    HW230525   0.006   4.530   2.176 -0.3934  0.4153  1.3327
 6298SOL     OW30526   3.650   3.011   9.578  0.1916 -0.4106 -0.1986
 6298SOL    HW130527   3.734   2.972   9.555  1.0804  1.0936  0.4861
 6298SOL    HW230528   3.595   2.934   9.562  1.1443 -1.7717  3.0716
 6299SOL     OW30529   2.812   2.173   0.349  0.5750 -0.4079  0.0698
 6299SOL    HW130530   2.862   2.246   0.384 -1.8250  0.0426  2.5916
 6299SOL    HW230531   2.723   2.209   0.353  1.2163  0.9679  2.0151
 6300SOL     OW30532   3.452   0.904   2.699  0.0493 -0.2645  0.7930
 6300SOL    HW130533   3.480   0.880   2.611 -0.4027  2.9495 -0.2349
 6300SOL    HW230534   3.536   0.887   2.743 -0.7578 -3.0467  1.2001
 6301SOL     OW30535   2.648   2.366  13.046 -0.1459  0.0332  0.4901
 6301SOL    HW130536   2.575   2.382  13.105 -1.0767 -1.2388 -0.3168
 6301SOL    HW230537   2.703   2.444  13.054  0.5727 -0.4701  0.4850
 6302SOL     OW30538   2.028   2.094   2.117  0.1325 -0.4800  0.4755
 6302SOL    HW130539   2.080   2.016   2.097 -2.1918 -2.2187  1.2477
 6302SOL    HW230540   2.087   2.160   2.080  0.6195 -0.3779  1.4312
 6303SOL     OW30541   3.212   0.635   5.396  0.1084 -0.0041 -0.4312
 6303SOL    HW130542   3.204   0.541   5.383 -0.5048 -0.0680  0.4216
 6303SOL    HW230543   3.302   0.657   5.372  1.0618 -4.1811 -0.5837
 6304SOL     OW30544   2.566   4.082   1.791  0.1186 -0.1314  0.6439
 6304SOL    HW130545   2.475   4.083   1.819 -0.9374  0.9009 -2.8730
 6304SOL    HW230546   2.597   4.163   1.831 -2.3971  0.0701  2.1989
 6305SOL     OW30547   0.979   2.139   7.121 -0.1577 -0.5443  1.3272
 6305SOL    HW130548   1.004   2.177   7.205  4.0832 -0.3436 -0.0329
 6305SOL    HW230549   1.025   2.056   7.115 -1.3127 -1.2062  1.4868
 6306SOL     OW30550   2.478   3.890   4.824 -0.5259 -0.3010  0.1452
 6306SOL    HW130551   2.572   3.896   4.806 -0.8565 -0.2775 -1.5680
 6306SOL    HW230552   2.452   3.977   4.851  1.4454  0.3691 -0.0867
 6307SOL     OW30553   4.689   3.386  12.273  0.0329  0.1305 -0.6662
 6307SOL    HW130554   4.714   3.447  12.342  1.8161  0.3837 -1.5392
 6307SOL    HW230555   4.620   3.334  12.314  0.4344 -0.5547 -0.8723
 6308SOL     OW30556   4.570   3.474  10.607 -0.0569 -0.2049 -0.1491
 6308SOL    HW130557   4.548   3.421  10.684  0.2635 -0.2538 -0.0913
 6308SOL    HW230558   4.581   3.557  10.653  0.9175 -0.2641 -0.2700
 6309SOL     OW30559   2.238   2.720   9.944  0.0650  0.2561 -0.0383
 6309SOL    HW130560   2.174   2.692  10.010 -1.8546  0.2220 -1.9050
 6309SOL    HW230561   2.277   2.789   9.998 -1.0959 -0.4763  1.7329
 6310SOL     OW30562   2.702   1.882   2.251 -0.1125  0.0752  0.0352
 6310SOL    HW130563   2.647   1.922   2.319 -1.9726 -0.5150 -1.1194
 6310SOL    HW230564   2.757   1.952   2.216  1.9508 -0.4042  2.3096
 6311SOL     OW30565   4.055   3.752   5.969  0.1363  0.3676  0.5339
 6311SOL    HW130566   4.001   3.826   5.939 -0.0429 -0.3659 -0.9519
 6311SOL    HW230567   4.023   3.687   5.906  2.5702  1.7360 -2.0775
 6312SOL     OW30568   3.636   0.185   2.828 -0.2218 -0.5058  0.4530
 6312SOL    HW130569   3.689   0.238   2.769  1.3668 -2.2211  0.3398
 6312SOL    HW230570   3.649   0.225   2.914  0.5791  0.9321 -0.3546
 6313SOL     OW30571   1.804   0.677   3.531  0.2819  0.2280  0.1927
 6313SOL    HW130572   1.883   0.653   3.578  0.6626 -0.0528 -0.5858
 6313SOL    HW230573   1.750   0.607   3.568 -0.4244  0.7228  0.0958
 6314SOL     OW30574   0.330   3.374  16.745 -0.4429 -0.0431  0.3252
 6314SOL    HW130575   0.331   3.341  16.834  0.6397  0.3364  0.4521
 6314SOL    HW230576   0.356   3.306  16.683  0.1405 -0.3866  0.9443
 6315SOL     OW30577   2.868   3.686  12.673 -0.2981  0.6488  0.3564
 6315SOL    HW130578   2.808   3.692  12.598 -0.8896 -1.3024  0.6867
 6315SOL    HW230579   2.927   3.615  12.649 -1.6676 -0.6661  0.9177
 6316SOL     OW30580   1.488   3.670   2.292 -0.2679 -0.1005 -0.1013
 6316SOL    HW130581   1.402   3.644   2.327  0.1441 -2.8583 -1.1175
 6316SOL    HW230582   1.467   3.670   2.199  0.4598 -0.1307 -0.2639
 6317SOL     OW30583   0.637   4.126  13.404 -0.1333  0.2889  0.4408
 6317SOL    HW130584   0.628   4.186  13.478  0.6828  1.9646 -0.8105
 6317SOL    HW230585   0.721   4.083  13.416 -0.2366  0.6603  2.3861
 6318SOL     OW30586   2.716   3.865   6.652  0.5054  0.2398 -0.0012
 6318SOL    HW130587   2.786   3.913   6.697  0.8361 -0.5490  0.3189
 6318SOL    HW230588   2.659   3.850   6.727  0.0044 -1.4596 -0.7169
 6319SOL     OW30589   4.487   2.808   3.433 -0.3223 -0.3948 -0.4235
 6319SOL    HW130590   4.414   2.781   3.378 -1.0865  1.5059 -0.3464
 6319SOL    HW230591   4.526   2.723   3.453  0.3363 -0.1902 -0.8133
 6320SOL     OW30592   1.742   0.050   6.688 -0.4708 -0.2781  0.4885
 6320SOL    HW130593   1.652   0.019   6.700 -0.9134  0.2738 -1.4220
 6320SOL    HW230594   1.777   0.017   6.771  0.5262  1.4605  0.7759
 6321SOL     OW30595   1.997   3.410   4.287 -0.0555 -0.4002  0.7528
 6321SOL    HW130596   1.963   3.498   4.306  0.2851 -0.4727  1.6825
 6321SOL    HW230597   1.945   3.358   4.347 -1.7209  1.1579  0.6613
 6322SOL     OW30598   2.593   0.322   9.900 -0.1676 -0.5987  0.3151
 6322SOL    HW130599   2.530   0.362   9.959  0.1317 -1.1053  0.9825
 6322SOL    HW230600   2.680   0.334   9.939 -0.5707  1.6636  0.5131
 6323SOL     OW30601   0.702   4.098   4.915  0.1065  0.0901 -0.0264
 6323SOL    HW130602   0.628   4.082   4.857 -0.1036  0.1742  0.2130
 6323SOL    HW230603   0.669   4.051   4.992  3.8571  1.3722  2.3681
 6324SOL     OW30604   4.313   0.532   6.867  0.2411 -0.2184 -0.1438
 6324SOL    HW130605   4.288   0.620   6.839 -0.7032 -0.8238 -1.2297
 6324SOL    HW230606   4.279   0.484   6.791 -1.7203 -0.8285  1.1092
 6325SOL     OW30607   4.509   2.687  15.361  0.3507  0.0326 -0.6791
 6325SOL    HW130608   4.508   2.777  15.328 -0.6576  0.0639 -0.5753
 6325SOL    HW230609   4.538   2.703  15.450 -1.8357 -0.1231  0.0664
 6326SOL     OW30610   3.506   0.725  15.447  0.6099  0.4023  0.3662
 6326SOL    HW130611   3.469   0.790  15.507 -0.6981  1.5845 -1.7477
 6326SOL    HW230612   3.491   0.640  15.489  0.6915  0.2683  0.1267
 6327SOL     OW30613   1.203   3.150   2.821  0.2692 -0.3746  0.0354
 6327SOL    HW130614   1.127   3.104   2.785  0.8186 -1.8292  0.7452
 6327SOL    HW230615   1.157   3.180   2.899  1.2325  0.3694  0.3180
 6328SOL     OW30616   4.512   4.335  13.203  0.1302 -0.8299  0.1126
 6328SOL    HW130617   4.585   4.291  13.160  0.1730  0.7831 -1.4776
 6328SOL    HW230618   4.533   4.323  13.296  1.9193 -0.6836 -0.2801
 6329SOL     OW30619   2.524   2.799  17.352 -0.4247  0.2872 -0.1921
 6329SOL    HW130620   2.615   2.785  17.380 -0.9988 -2.4287  0.3335
 6329SOL    HW230621   2.491   2.713  17.379 -0.4760  0.6507  0.9084
 6330SOL     OW30622   1.700   2.118   1.569 -0.3757  0.3648  0.2643
 6330SOL    HW130623   1.638   2.164   1.511 -0.3431 -1.1679 -0.9651
 6330SOL    HW230624   1.724   2.045   1.512 -2.0402  0.1278 -0.1286
 6331SOL     OW30625   3.624   0.303   8.398 -0.4701  0.0805  0.0429
 6331SOL    HW130626   3.667   0.230   8.354  1.2565  0.4079  1.1944
 6331SOL    HW230627   3.574   0.349   8.330  0.8751 -0.4602 -1.3006
 6332SOL     OW30628   2.855   0.325   6.474 -0.4977  0.4470 -0.1963
 6332SOL    HW130629   2.858   0.234   6.502  1.4534  0.2569 -1.0285
 6332SOL    HW230630   2.944   0.332   6.438  1.1394  1.3655  3.9838
 6333SOL     OW30631   2.346   2.123   7.552  0.1571 -0.3090  0.3416
 6333SOL    HW130632   2.280   2.054   7.552 -0.2066  0.0283 -0.4232
 6333SOL    HW230633   2.302   2.189   7.498  1.3432 -0.4822 -0.8255
 6334SOL     OW30634   0.641   1.034   9.016  0.3694  0.6503 -0.0786
 6334SOL    HW130635   0.666   1.111   8.964  1.0607  0.7141  0.3502
 6334SOL    HW230636   0.638   0.969   8.946  1.2871  0.4997  0.0227
 6335SOL     OW30637   1.747   0.758   7.816  0.2195 -0.6155  0.0090
 6335SOL    HW130638   1.689   0.785   7.887 -0.9266 -2.1628 -0.3281
 6335SOL    HW230639   1.749   0.664   7.835  0.2186 -0.4402  0.8569
 6336SOL     OW30640   2.702   4.463   7.410  0.0996  0.1434  0.5229
 6336SOL    HW130641   2.621   4.502   7.377  0.0100  0.4120  1.0614
 6336SOL    HW230642   2.764   4.536   7.418  0.7647 -0.4060  0.3826
 6337SOL     OW30643   3.456   2.597   8.592 -0.2707  0.1199  0.7527
 6337SOL    HW130644   3.417   2.677   8.558 -1.8700  0.1914  2.7898
 6337SOL    HW230645   3.382   2.538   8.579 -1.9650  1.9901  1.9978
 6338SOL     OW30646   2.543   2.969  10.459  0.1502  0.3447  0.2410
 6338SOL    HW130647   2.610   2.907  10.489 -0.8944 -1.2996 -0.8079
 6338SOL    HW230648   2.534   3.013  10.544  2.4423 -2.2337  1.8149
 6339SOL     OW30649   4.105   1.582  17.722  1.1487  0.3459  0.6571
 6339SOL    HW130650   4.051   1.544  17.652 -0.5620 -0.1631  2.2592
 6339SOL    HW230651   4.049   1.649   0.025 -0.9178  0.5023 -2.5845
 6340SOL     OW30652   2.956   4.656   9.019  0.9506 -0.3140  0.0764
 6340SOL    HW130653   2.976   4.718   9.089 -1.1411  0.8786 -0.3803
 6340SOL    HW230654   2.909   4.590   9.070 -0.1946 -0.8524 -1.6787
 6341SOL     OW30655   3.102   2.282   6.159 -0.3582  0.0259 -0.6494
 6341SOL    HW130656   3.120   2.205   6.105 -1.1851  0.2285 -1.2175
 6341SOL    HW230657   3.188   2.323   6.151 -0.7858  0.8373 -1.2317
 6342SOL     OW30658   3.896   0.092   6.422 -0.3668  0.3418 -0.3794
 6342SOL    HW130659   3.941   0.167   6.460 -0.3149  0.7813 -1.3353
 6342SOL    HW230660   3.918   0.029   6.491  1.6506 -0.1412 -1.4690
 6343SOL     OW30661   2.996   3.342   4.524  1.0043  0.0508 -0.4012
 6343SOL    HW130662   3.081   3.385   4.535  0.0172  1.5045  1.5901
 6343SOL    HW230663   3.010   3.263   4.575 -0.9244  0.8498  1.3677
 6344SOL     OW30664   1.891   4.319   7.030 -0.2800 -0.2316  0.3751
 6344SOL    HW130665   1.851   4.256   7.090 -1.6370 -1.6761 -2.0103
 6344SOL    HW230666   1.835   4.396   7.038  0.1321  0.1554 -0.5048
 6345SOL     OW30667   0.229   0.052   8.246 -0.0221  0.5985  0.0331
 6345SOL    HW130668   0.174   0.103   8.186 -0.5083  1.4646  1.2385
 6345SOL    HW230669   0.184   0.041   8.329  1.0441 -2.4692  0.2248
 6346SOL     OW30670   3.363   3.724   6.642 -0.0322  0.3394 -0.0220
 6346SOL    HW130671   3.323   3.704   6.727  3.3020 -0.1358  1.4249
 6346SOL    HW230672   3.451   3.695   6.666 -1.3860 -3.2787  0.5865
 6347SOL     OW30673   0.283   4.704   4.139  0.2697  0.0114  0.1856
 6347SOL    HW130674   0.354   0.032   4.122  0.3750 -0.6530 -1.8439
 6347SOL    HW230675   0.325   4.637   4.193 -1.0339 -0.5862  0.4436
 6348SOL     OW30676   1.233   3.937   2.348  0.0241 -0.4764  0.1835
 6348SOL    HW130677   1.183   4.019   2.348  1.4431  0.3961  1.3912
 6348SOL    HW230678   1.172   3.871   2.316 -0.4014 -0.5460  1.1422
 6349SOL     OW30679   4.628   0.838   0.018  0.0660  0.0461 -0.1702
 6349SOL    HW130680   4.541   0.832  17.714  0.8092  0.6238 -1.9162
 6349SOL    HW230681   4.604   0.871   0.104 -3.2523 -0.9807 -0.7164
 6350SOL     OW30682   1.655   4.626  12.972  0.0213 -0.5318  0.3384
 6350SOL    HW130683   1.733   4.573  12.953  0.6979  1.0005 -1.2369
 6350SOL    HW230684   1.601   4.612  12.894  2.1000  1.7566 -1.5331
 6351SOL     OW30685   1.727   0.484   5.644  0.4771  0.2969 -0.3337
 6351SOL    HW130686   1.780   0.412   5.608  0.6921 -0.0250  0.6130
 6351SOL    HW230687   1.691   0.523   5.565  1.1586  0.6837 -0.4574
 6352SOL     OW30688   0.325   3.786  10.003 -0.3403 -0.1092  0.4761
 6352SOL    HW130689   0.335   3.849  10.074  0.7560 -1.0811  1.1888
 6352SOL    HW230690   0.408   3.737   9.998  0.5103  1.3070  0.6726
 6353SOL     OW30691   3.438   1.057   4.934  0.4031  0.2843  1.0049
 6353SOL    HW130692   3.437   1.151   4.950 -1.6322  0.3720  0.3158
 6353SOL    HW230693   3.351   1.026   4.958  0.4243 -0.1085  0.5800
 6354SOL     OW30694   2.176   1.303   4.892  0.0611 -0.1562  0.2077
 6354SOL    HW130695   2.173   1.254   4.974 -1.1148  0.6547  0.6375
 6354SOL    HW230696   2.162   1.392   4.924  0.6767  0.0812 -0.1641
 6355SOL     OW30697   1.101   4.298  13.974 -0.5030  0.4134 -0.4046
 6355SOL    HW130698   1.029   4.291  13.912 -0.6581  0.3758 -0.2201
 6355SOL    HW230699   1.059   4.302  14.061 -2.4395 -1.1588 -1.2671
 6356SOL     OW30700   4.329   1.157   4.188 -0.2158  0.1391  0.6174
 6356SOL    HW130701   4.250   1.138   4.238 -0.2005 -0.2238  0.5044
 6356SOL    HW230702   4.356   1.068   4.163  0.4076 -0.0788  2.0483
 6357SOL     OW30703   2.308   0.910   2.845  0.1139  1.1010 -0.7143
 6357SOL    HW130704   2.232   0.853   2.857  1.1529  0.0914  1.0706
 6357SOL    HW230705   2.360   0.911   2.925 -0.3025 -0.1054 -0.4295
 6358SOL     OW30706   1.336   3.296   8.695 -0.4593 -0.2034  0.5089
 6358SOL    HW130707   1.242   3.292   8.713 -1.4228  0.6326 -4.3818
 6358SOL    HW230708   1.358   3.379   8.739 -0.1252 -1.2122  2.2382
 6359SOL     OW30709   1.201   3.630   7.504 -0.5627 -0.1330  0.1185
 6359SOL    HW130710   1.144   3.678   7.444 -0.5112  1.5376  1.4312
 6359SOL    HW230711   1.277   3.688   7.505 -1.2923  0.8041  0.6725
 6360SOL     OW30712   0.112   2.643   8.061 -0.1040 -0.6039 -0.2909
 6360SOL    HW130713   0.025   2.652   8.023 -0.3532  0.3490  0.4850
 6360SOL    HW230714   0.174   2.674   7.995  0.6361  0.4274  0.8871
 6361SOL     OW30715   3.660   2.388  11.780 -0.5033  0.3465 -0.3286
 6361SOL    HW130716   3.723   2.317  11.770 -0.5619  0.0968  1.1489
 6361SOL    HW230717   3.607   2.372  11.702  2.8091 -0.1669 -2.4743
 6362SOL     OW30718   2.019   1.210   8.831 -0.3605  0.7403 -0.2821
 6362SOL    HW130719   2.054   1.265   8.761 -0.2379 -1.4349 -1.9189
 6362SOL    HW230720   2.099   1.173   8.867 -1.3508 -1.4065 -0.2260
 6363SOL     OW30721   3.205   3.978   1.530 -0.2951 -0.2195 -0.0519
 6363SOL    HW130722   3.228   3.907   1.590 -0.3853 -0.1345  0.0835
 6363SOL    HW230723   3.117   3.989   1.566  0.8752  1.5004  2.2595
 6364SOL     OW30724   2.323   1.146   7.991  0.2007 -0.3041 -0.2503
 6364SOL    HW130725   2.318   1.153   8.087  1.3431  1.3531 -0.3275
 6364SOL    HW230726   2.240   1.107   7.963 -1.2758  2.3259  0.4612
 6365SOL     OW30727   0.532   0.324   7.580  0.1624 -0.4091 -0.0815
 6365SOL    HW130728   0.553   0.347   7.489  0.3979  1.9126  0.5707
 6365SOL    HW230729   0.441   0.295   7.569  0.7376 -2.1409 -0.2892
 6366SOL     OW30730   1.974   1.307  16.063  0.9446  0.4343 -0.1220
 6366SOL    HW130731   1.952   1.265  15.981  0.6447 -0.4338  0.4076
 6366SOL    HW230732   1.886   1.307  16.099  0.6032 -0.0188 -0.9651
 6367SOL     OW30733   1.188   3.034   6.270 -0.2623  0.0190 -0.2519
 6367SOL    HW130734   1.255   3.039   6.202  2.3094  0.0209  2.3157
 6367SOL    HW230735   1.182   2.938   6.274  1.2873 -0.0384  0.6737
 6368SOL     OW30736   1.840   2.134   5.437  0.1579 -0.7472 -0.6053
 6368SOL    HW130737   1.795   2.169   5.514  1.4351 -0.7754  0.1539
 6368SOL    HW230738   1.920   2.099   5.476 -0.0407 -1.7703 -1.1175
 6369SOL     OW30739   1.499   0.766   2.288 -0.4936 -0.2578  0.0058
 6369SOL    HW130740   1.508   0.861   2.283 -1.5833 -0.1510 -0.0456
 6369SOL    HW230741   1.421   0.768   2.344 -0.5466  2.9953 -0.1728
 6370SOL     OW30742   4.487   2.884  16.392  0.1833 -0.3103  0.2311
 6370SOL    HW130743   4.575   2.918  16.407  0.8410 -1.7398 -0.3443
 6370SOL    HW230744   4.465   2.944  16.321 -0.6026  0.4781  1.1517
 6371SOL     OW30745   3.818   1.399   7.795  0.1779 -0.0876 -0.1981
 6371SOL    HW130746   3.782   1.311   7.787 -0.4900  0.2787 -1.1830
 6371SOL    HW230747   3.876   1.391   7.871  0.3754 -0.3843 -0.3801
 6372SOL     OW30748   3.219   1.708   0.639 -0.6444  0.3338  0.1799
 6372SOL    HW130749   3.174   1.676   0.562 -0.7741  1.3143 -0.1594
 6372SOL    HW230750   3.260   1.625   0.662 -0.4487  0.0211 -1.3191
 6373SOL     OW30751   1.065   1.457   2.076  0.4469  0.0703  0.1024
 6373SOL    HW130752   1.147   1.432   2.034 -0.0922 -0.3533 -0.7102
 6373SOL    HW230753   1.110   1.478   2.157  1.8790 -1.6857 -0.2485
 6374SOL     OW30754   2.539   2.841  13.826  0.0211  0.0515 -0.0221
 6374SOL    HW130755   2.535   2.817  13.919  0.0709  0.8127  0.1775
 6374SOL    HW230756   2.446   2.835  13.802 -0.3674  0.5365  1.3387
 6375SOL     OW30757   0.131   1.063  14.997  0.0319 -0.0360  0.1669
 6375SOL    HW130758   0.041   1.050  14.968  1.1863 -1.2270 -2.9093
 6375SOL    HW230759   0.163   0.972  15.005 -2.4922 -1.1072 -2.2767
 6376SOL     OW30760   3.480   2.976   4.462  0.2863  0.0779 -0.1976
 6376SOL    HW130761   3.474   3.043   4.393 -0.2395  0.8803  0.6265
 6376SOL    HW230762   3.399   2.927   4.447  1.1329 -1.4755  0.4181
 6377SOL     OW30763   4.643   0.882   5.570 -0.4541  0.6291 -0.1779
 6377SOL    HW130764   4.734   0.912   5.573  0.6715 -2.6260 -1.3064
 6377SOL    HW230765   4.603   0.900   5.655 -0.1791 -2.7844  0.7042
 6378SOL     OW30766   0.423   1.673   2.411  0.0374 -0.4972  0.0771
 6378SOL    HW130767   0.480   1.730   2.361 -0.3885  1.2233  1.5213
 6378SOL    HW230768   0.459   1.588   2.388  0.7583 -0.0220 -0.5340
 6379SOL     OW30769   0.800   0.579   8.919  1.0048  0.2397  0.4060
 6379SOL    HW130770   0.847   0.525   8.855  0.0002 -0.0493 -0.0943
 6379SOL    HW230771   0.732   0.519   8.952  1.5164  0.7649  2.4252
 6380SOL     OW30772   0.602   2.343   3.848  0.9642 -0.1081  0.0602
 6380SOL    HW130773   0.669   2.402   3.882  0.7335 -0.1692  0.6182
 6380SOL    HW230774   0.657   2.270   3.820  0.4221 -0.8581  0.9298
 6381SOL     OW30775   3.103   0.835   8.526 -0.7744  0.3865  0.2619
 6381SOL    HW130776   3.038   0.865   8.462 -0.5316 -0.5783 -0.4457
 6381SOL    HW230777   3.099   0.739   8.524 -2.4111  0.4912 -1.8628
 6382SOL     OW30778   0.512   4.417   5.275 -0.3142  0.0878 -0.1307
 6382SOL    HW130779   0.445   4.394   5.339  0.2423  1.9043  1.1103
 6382SOL    HW230780   0.584   4.439   5.334  1.2524 -0.9621 -1.6550
 6383SOL     OW30781   3.667   2.869   7.595  0.2643  0.1729  0.1284
 6383SOL    HW130782   3.693   2.883   7.686 -1.6841 -0.2532  0.7395
 6383SOL    HW230783   3.696   2.779   7.581 -0.2333 -0.1167  0.9696
 6384SOL     OW30784   1.526   3.573   6.771  0.3408 -0.2022  0.8418
 6384SOL    HW130785   1.466   3.502   6.790 -0.9430  0.6438 -0.0802
 6384SOL    HW230786   1.600   3.565   6.832  0.1230 -1.1634  0.9724
 6385SOL     OW30787   4.729   3.013  16.391  0.2128 -0.2417 -0.4503
 6385SOL    HW130788   0.061   2.994  16.325 -0.0126  0.1145 -0.7786
 6385SOL    HW230789   4.680   3.082  16.347  0.3450  0.2076  0.1112
 6386SOL     OW30790   2.633   1.186  16.004 -0.1182 -0.4019 -0.1807
 6386SOL    HW130791   2.636   1.245  16.079 -0.2405 -2.5958  1.5349
 6386SOL    HW230792   2.557   1.208  15.950  0.2908  0.7281 -0.2850
 6387SOL     OW30793   0.831   3.138   9.295 -0.0169  0.5276 -1.1621
 6387SOL    HW130794   0.852   3.056   9.249 -1.4033 -1.3964  1.5972
 6387SOL    HW230795   0.797   3.197   9.228 -2.3500  0.3263 -0.1546
 6388SOL     OW30796   3.538   4.403   5.145 -0.1913 -0.2374  0.4375
 6388SOL    HW130797   3.501   4.315   5.148 -0.3959 -0.1375  0.7724
 6388SOL    HW230798   3.457   4.452   5.130 -1.0396 -1.5495  0.7511
 6389SOL     OW30799   0.396   1.894  14.045 -0.3779 -0.0637  0.4808
 6389SOL    HW130800   0.482   1.890  14.003  0.9305  0.8547  3.0440
 6389SOL    HW230801   0.425   1.890  14.137  1.1328  0.7364  0.0397
 6390SOL     OW30802   0.438   1.555   1.154 -0.1793 -0.0038  0.5200
 6390SOL    HW130803   0.477   1.635   1.189  2.4589 -1.0855  0.0710
 6390SOL    HW230804   0.487   1.487   1.200  1.2184  0.2335 -0.6389
 6391SOL     OW30805   2.606   3.253   6.321  0.5848  0.0404 -0.0741
 6391SOL    HW130806   2.591   3.346   6.335  1.2099 -0.2081  2.1241
 6391SOL    HW230807   2.554   3.221   6.394  2.0731  0.5042  1.1811
 6392SOL     OW30808   2.764   2.838  17.679  0.4309  0.0531 -0.2718
 6392SOL    HW130809   2.792   2.879  17.597  0.4844  1.2158  0.3179
 6392SOL    HW230810   2.738   2.751  17.651 -1.9324  0.1588  1.6574
 6393SOL     OW30811   2.739   4.452   9.567  0.4781 -0.2194  0.4735
 6393SOL    HW130812   2.686   4.493   9.499 -0.8665  0.6065  2.0169
 6393SOL    HW230813   2.697   4.481   9.648  0.1615  2.0238 -0.4911
 6394SOL     OW30814   3.682   0.586  13.835 -0.1816  0.1934  0.1367
 6394SOL    HW130815   3.685   0.537  13.753  1.0155  0.7849 -0.1794
 6394SOL    HW230816   3.720   0.673  13.824  0.8774  0.0574  2.5948
 6395SOL     OW30817   4.190   0.506   6.372 -0.2676  0.4693 -0.3922
 6395SOL    HW130818   4.230   0.570   6.313  1.3962  1.7245  2.0945
 6395SOL    HW230819   4.102   0.544   6.380 -0.8080 -0.6855 -0.9433
 6396SOL     OW30820   1.260   4.607   2.236 -0.4053  0.2061 -0.5179
 6396SOL    HW130821   1.325   4.677   2.229  1.5905 -1.6712 -1.0651
 6396SOL    HW230822   1.225   4.604   2.147 -1.0133  0.0983 -0.2759
 6397SOL     OW30823   0.492   3.039   5.539 -0.7593  0.2172 -0.4256
 6397SOL    HW130824   0.494   3.118   5.591  0.3547 -0.3119  0.3281
 6397SOL    HW230825   0.404   3.040   5.502 -1.2180  0.9845  0.7073
 6398SOL     OW30826   0.075   3.717  11.441  0.2487 -0.2935 -0.0155
 6398SOL    HW130827   0.106   3.735  11.530 -2.0484  0.3648  0.6451
 6398SOL    HW230828   0.093   3.623  11.435  2.1595  0.2851 -3.5025
 6399SOL     OW30829   4.655   0.118   9.592 -0.0652  0.2183 -0.4941
 6399SOL    HW130830   4.619   0.030   9.594  0.3915  0.0454  0.2397
 6399SOL    HW230831   4.590   0.175   9.633  1.8797  1.4729  0.8528
 6400SOL     OW30832   1.824   3.755   3.150 -0.0798  0.1175  0.6180
 6400SOL    HW130833   1.732   3.779   3.141 -0.6346 -1.6305  1.6804
 6400SOL    HW230834   1.854   3.790   3.066 -0.0349 -1.1299  0.1176
 6401SOL     OW30835   1.717   0.481   7.897 -0.3152  0.6349  0.2858
 6401SOL    HW130836   1.751   0.406   7.848  0.5726  0.0869  1.7399
 6401SOL    HW230837   1.771   0.472   7.975 -0.4534  0.5573  0.3729
 6402SOL     OW30838   3.586   1.139   4.485  0.4392  0.0821 -0.1119
 6402SOL    HW130839   3.542   1.073   4.538  0.8520 -0.0181  0.1070
 6402SOL    HW230840   3.515   1.174   4.431  0.5323 -0.3538 -0.5163
 6403SOL     OW30841   0.179   2.048   7.831 -0.2855 -1.1427 -0.0328
 6403SOL    HW130842   0.189   1.969   7.779 -1.6182 -1.5086  0.2679
 6403SOL    HW230843   0.179   2.010   7.919 -0.8674  1.6346  1.1845
 6404SOL     OW30844   4.308   0.264   8.741  0.3364  0.1060 -0.0806
 6404SOL    HW130845   4.328   0.230   8.828 -1.1922 -0.1721  0.1682
 6404SOL    HW230846   4.212   0.273   8.741  0.2403 -0.9104  3.0065
 6405SOL     OW30847   4.160   2.444  11.532  0.5957  0.3945 -0.4065
 6405SOL    HW130848   4.164   2.349  11.546 -1.0596  0.0642 -2.2233
 6405SOL    HW230849   4.134   2.480  11.617 -0.7119 -0.6583 -0.3443
 6406SOL     OW30850   1.964   1.427   7.967 -0.5648 -0.0688  0.4577
 6406SOL    HW130851   1.967   1.470   7.881 -0.9147 -1.0952 -0.0587
 6406SOL    HW230852   1.937   1.342   7.933  1.4266 -0.9291  1.0425
 6407SOL     OW30853   0.354   3.828   5.191 -0.7440 -0.4224  1.0602
 6407SOL    HW130854   0.334   3.841   5.098 -0.3257  2.2214  1.3609
 6407SOL    HW230855   0.266   3.832   5.227 -0.2375 -0.0339  2.2395
 6408SOL     OW30856   0.746   0.647  11.676 -0.0376 -0.3438  0.4831
 6408SOL    HW130857   0.718   0.675  11.589  1.9044  0.4093  0.0993
 6408SOL    HW230858   0.676   0.595  11.717 -0.9408 -0.3332 -1.0560
 6409SOL     OW30859   1.077   3.227   6.588  0.2767 -0.0788 -0.1753
 6409SOL    HW130860   1.095   3.142   6.629 -2.7408 -0.4288  0.4006
 6409SOL    HW230861   1.084   3.282   6.665 -1.1863  0.6392 -0.5491
 6410SOL     OW30862   1.216   4.217   2.886 -0.3079  0.0141 -0.3176
 6410SOL    HW130863   1.130   4.210   2.928 -0.3044 -2.0447 -0.6562
 6410SOL    HW230864   1.196   4.174   2.803  1.9662  0.3179 -1.0002
 6411SOL     OW30865   4.212   4.083   0.334 -0.5492  0.3579  0.1053
 6411SOL    HW130866   4.307   4.100   0.332 -0.0604 -2.4243 -0.6991
 6411SOL    HW230867   4.200   4.073   0.240 -1.0707  1.0830  0.1030
 6412SOL     OW30868   1.938   3.030   2.944  0.3498  0.4681  0.0120
 6412SOL    HW130869   2.024   3.008   2.908 -0.1258  3.4885 -2.9493
 6412SOL    HW230870   1.969   3.059   3.029  0.2547  2.0562 -0.5077
 6413SOL     OW30871   3.463   3.843   8.897  0.8730  0.1994 -0.7554
 6413SOL    HW130872   3.442   3.798   8.814 -2.8504  1.2658 -0.4165
 6413SOL    HW230873   3.556   3.823   8.897  0.7710 -0.1298  3.1097
 6414SOL     OW30874   1.729   3.056   8.675 -0.3900  0.1015  0.2362
 6414SOL    HW130875   1.744   2.964   8.655  5.3307  1.0368 -0.0367
 6414SOL    HW230876   1.728   3.091   8.586 -1.8426 -0.4978  0.0229
 6415SOL     OW30877   0.228   3.323   6.979 -0.3048 -0.1808 -0.8502
 6415SOL    HW130878   0.171   3.388   6.938 -2.1923  0.8730  3.4050
 6415SOL    HW230879   0.183   3.246   6.945  0.6808 -1.0018 -0.3034
 6416SOL     OW30880   1.707   0.459   3.666 -0.2092 -0.4349  0.4681
 6416SOL    HW130881   1.689   0.386   3.606  1.3335  0.7523 -1.4257
 6416SOL    HW230882   1.727   0.417   3.749 -0.3097  0.4206  0.9256
 6417SOL     OW30883   0.985   1.577   3.191  0.1352  0.3721  0.0118
 6417SOL    HW130884   0.974   1.484   3.211 -0.5111  0.8982  2.0671
 6417SOL    HW230885   1.077   1.576   3.219  0.1854 -1.0381 -0.1899
 6418SOL     OW30886   3.220   1.075  14.516 -0.5180  0.0601 -0.1243
 6418SOL    HW130887   3.139   1.065  14.466 -0.2725  3.0710 -1.1378
 6418SOL    HW230888   3.262   1.153  14.479 -0.3805  0.9131  1.8757
 6419SOL     OW30889   3.268   3.610  13.043  0.0157  0.1249  0.3762
 6419SOL    HW130890   3.241   3.700  13.027  0.5096  0.1420 -0.3554
 6419SOL    HW230891   3.316   3.592  12.962  2.4750  2.8555  1.2349
 6420SOL     OW30892   3.595   3.231   7.905 -0.3615  0.7339  0.1879
 6420SOL    HW130893   3.593   3.258   7.997 -2.4775 -0.8686  0.6169
 6420SOL    HW230894   3.567   3.311   7.860  1.9779  1.9441  0.9145
 6421SOL     OW30895   0.040   1.874   2.680 -0.3501 -0.5516  0.0961
 6421SOL    HW130896   4.710   1.881   2.609 -1.1398 -0.8384  0.7842
 6421SOL    HW230897   4.716   1.827   2.740 -0.9743 -0.7805 -0.6838
 6422SOL     OW30898   0.228   4.455   3.112  0.0282  0.7569  0.5892
 6422SOL    HW130899   0.154   4.430   3.057  1.3849 -0.6860 -0.5821
 6422SOL    HW230900   0.276   4.505   3.046  1.2346 -0.8447  0.2499
 6423SOL     OW30901   2.221   3.407  11.607  0.0626 -0.1078 -0.3903
 6423SOL    HW130902   2.206   3.314  11.590  1.9158 -0.4410 -0.1404
 6423SOL    HW230903   2.311   3.399  11.637 -0.8642 -2.3925  1.7019
 6424SOL     OW30904   4.626   0.189   0.121 -0.5389  0.3641  0.2654
 6424SOL    HW130905   4.664   0.163   0.204  1.4003  1.2131 -0.3505
 6424SOL    HW230906   4.580   0.267   0.151  0.4704  1.3097 -0.6445
 6425SOL     OW30907   2.100   2.508   9.352 -0.2768 -0.4847 -0.2663
 6425SOL    HW130908   2.022   2.533   9.302 -0.8344 -1.6483  0.0245
 6425SOL    HW230909   2.168   2.497   9.284 -0.8751 -1.0891 -0.7630
 6426SOL     OW30910   1.484   0.440  12.557  0.4568  0.2683  0.1894
 6426SOL    HW130911   1.451   0.356  12.589  2.3481 -2.0937 -4.1775
 6426SOL    HW230912   1.402   0.484  12.581  0.0083 -0.3797 -0.1767
 6427SOL     OW30913   1.789   4.707   4.099 -0.8721  0.8659 -0.5057
 6427SOL    HW130914   1.823   4.715   4.010  1.1503 -1.4088  0.0675
 6427SOL    HW230915   1.839   4.628   4.117 -0.2383  1.0333 -1.5349
 6428SOL     OW30916   2.518   2.099   8.031 -0.1918  0.0952 -0.4156
 6428SOL    HW130917   2.595   2.044   8.044 -1.6358 -2.1418 -1.1070
 6428SOL    HW230918   2.461   2.050   7.972 -1.0362 -0.9195  1.2422
 6429SOL     OW30919   2.314   3.263   7.437  0.1348  0.8561  0.6406
 6429SOL    HW130920   2.358   3.192   7.484 -0.3979 -0.8655 -1.4507
 6429SOL    HW230921   2.377   3.301   7.375 -1.4314  0.7899 -1.0088
 6430SOL     OW30922   4.513   1.482  10.823 -0.0434 -0.4421  0.1099
 6430SOL    HW130923   4.546   1.526  10.902  0.8601  1.2623 -1.2196
 6430SOL    HW230924   4.551   1.397  10.843 -0.7365 -1.0101 -1.0045
 6431SOL     OW30925   4.197   0.189  14.444 -0.2504  0.2684  0.8318
 6431SOL    HW130926   4.250   0.132  14.388 -1.2996  0.1176  0.0008
 6431SOL    HW230927   4.250   0.269  14.443  2.6216 -1.6701 -0.6303
 6432SOL     OW30928   3.701   3.600  17.343  0.6761 -0.5520  0.0636
 6432SOL    HW130929   3.743   3.657  17.407  0.0225 -0.6935  0.6215
 6432SOL    HW230930   3.699   3.657  17.266  0.5285  1.3238  1.4770
 6433SOL     OW30931   2.828   3.614  16.579  0.1667  0.0508 -0.4607
 6433SOL    HW130932   2.846   3.671  16.654 -1.5181 -1.9126  1.4268
 6433SOL    HW230933   2.838   3.529  16.621  0.5100  0.3252  0.0294
 6434SOL     OW30934   3.381   0.007  13.756  0.4769  0.1403 -0.3740
 6434SOL    HW130935   3.474   0.024  13.740  1.0094 -1.7443  0.6840
 6434SOL    HW230936   3.381   0.019  13.851 -2.2807  3.6293 -0.8228
 6435SOL     OW30937   0.871   0.721   9.382 -0.3078 -0.0286  0.1855
 6435SOL    HW130938   0.817   0.777   9.328 -1.1347 -0.3236  0.7107
 6435SOL    HW230939   0.855   0.636   9.340 -0.4351 -0.0067  0.1896
 6436SOL     OW30940   3.739   3.317   4.429 -0.7163 -0.0687 -0.5329
 6436SOL    HW130941   3.769   3.278   4.347 -1.1283 -1.7884  0.1448
 6436SOL    HW230942   3.818   3.309   4.482 -1.2966  0.1742  0.3677
 6437SOL     OW30943   1.643   4.017   2.333 -0.3442  0.2119  0.4279
 6437SOL    HW130944   1.679   4.056   2.413  0.2918 -0.3252  0.4026
 6437SOL    HW230945   1.582   4.081   2.296  1.5573  0.4429 -2.3125
 6438SOL     OW30946   1.850   4.535   9.408  0.5460 -0.4166 -0.2410
 6438SOL    HW130947   1.851   4.587   9.489  1.6835  2.9221 -2.3789
 6438SOL    HW230948   1.806   4.455   9.435 -0.0262  0.6348  2.0470
 6439SOL     OW30949   1.974   0.014   7.771 -0.6079  0.8838 -0.0948
 6439SOL    HW130950   2.064   4.731   7.801 -1.4084 -0.7736  1.3820
 6439SOL    HW230951   1.963   0.102   7.806  1.0338  1.5641 -1.2994
 6440SOL     OW30952   3.891   3.043   3.416 -0.0191  0.1131 -1.0493
 6440SOL    HW130953   3.961   3.088   3.369 -0.9022  0.1090 -2.3816
 6440SOL    HW230954   3.882   2.965   3.361  0.3570 -0.1635 -0.7158
 6441SOL     OW30955   2.012   4.592   3.429 -0.2334 -0.8118  0.3137
 6441SOL    HW130956   1.951   4.659   3.460  0.8477 -0.8988  2.6860
 6441SOL    HW230957   2.094   4.643   3.426  1.4150 -3.5160 -0.5425
 6442SOL     OW30958   0.016   1.349  12.069 -0.4076  0.4799 -0.5231
 6442SOL    HW130959   0.043   1.359  12.160  0.6372  0.9707 -0.8915
 6442SOL    HW230960   0.006   1.254  12.063 -0.5351  0.5304 -1.1423
 6443SOL     OW30961   1.378   2.618   8.950  0.1445 -0.5473  0.0272
 6443SOL    HW130962   1.407   2.637   8.861 -0.7635  0.0147 -0.1520
 6443SOL    HW230963   1.284   2.604   8.939  0.1790 -1.1258  0.4607
 6444SOL     OW30964   4.344   3.845   7.310 -0.2505 -0.6597  0.1406
 6444SOL    HW130965   4.311   3.778   7.250 -1.8438  1.0349 -0.8841
 6444SOL    HW230966   4.429   3.808   7.333  0.4463  1.3204  0.7375
 6445SOL     OW30967   1.797   1.248  14.313 -0.1777  0.5208 -0.0711
 6445SOL    HW130968   1.711   1.207  14.321 -0.2467  0.5712 -0.5396
 6445SOL    HW230969   1.785   1.322  14.254  1.6570  1.0783  0.2626
 6446SOL     OW30970   2.831   1.943   3.405  0.1471 -0.1588  0.3687
 6446SOL    HW130971   2.808   2.036   3.400 -2.2991 -0.8495 -1.4278
 6446SOL    HW230972   2.926   1.949   3.408  0.1681 -0.3442  0.1188
 6447SOL     OW30973   3.864   4.680  16.976 -0.5872 -0.3580 -0.2158
 6447SOL    HW130974   3.941   4.731  17.000 -0.7973  1.7476 -4.0515
 6447SOL    HW230975   3.908   4.595  16.984 -1.1186 -0.6728 -0.6321
 6448SOL     OW30976   1.527   4.678   8.873  0.6719  0.3609  0.0737
 6448SOL    HW130977   1.442   4.722   8.867  0.5390 -0.0532 -1.2208
 6448SOL    HW230978   1.588   0.018   8.867  1.7961 -0.7488 -2.3598
 6449SOL     OW30979   1.709   2.138   5.695 -0.4099 -0.0008  0.6813
 6449SOL    HW130980   1.692   2.230   5.715 -0.2823 -0.2463  1.9203
 6449SOL    HW230981   1.621   2.100   5.690 -0.7494  0.6742  1.4757
 6450SOL     OW30982   4.254   3.956  15.222  0.6272 -0.4471 -0.2781
 6450SOL    HW130983   4.247   3.967  15.316  0.5852  2.3366 -0.6121
 6450SOL    HW230984   4.169   3.917  15.200  0.3078  0.8125 -1.2929
 6451SOL     OW30985   0.751   3.492   2.515 -0.2613 -0.1159 -1.1653
 6451SOL    HW130986   0.736   3.504   2.609  1.7321 -1.0329 -0.7268
 6451SOL    HW230987   0.669   3.536   2.493 -0.6395  0.1408  0.6866
 6452SOL     OW30988   1.920   4.205   2.378  0.6415 -0.2705  0.8806
 6452SOL    HW130989   1.874   4.168   2.453 -0.0240 -0.5576  0.3311
 6452SOL    HW230990   1.901   4.152   2.300 -2.0723  0.5562  0.9876
 6453SOL     OW30991   0.401   4.080   9.377  0.2151 -0.1529  0.5621
 6453SOL    HW130992   0.411   4.122   9.462 -4.3406 -1.0120  1.5108
 6453SOL    HW230993   0.421   3.989   9.400 -1.2677 -0.6432 -0.0949
 6454SOL     OW30994   3.011   2.179   7.637  0.5197  0.4104  0.1975
 6454SOL    HW130995   2.974   2.265   7.658 -0.6231  0.4279 -1.8586
 6454SOL    HW230996   3.088   2.175   7.694  1.2929 -0.8469 -0.9521
 6455SOL     OW30997   3.185   2.780   9.494  0.6441 -0.3561  0.7091
 6455SOL    HW130998   3.233   2.698   9.480  2.4290  0.5933  1.2778
 6455SOL    HW230999   3.151   2.776   9.583  0.0020 -1.6634  0.3979
 6456SOL     OW31000   1.103   1.189   7.731  0.4252 -0.7183 -0.3516
 6456SOL    HW131001   1.052   1.149   7.661  2.4203 -0.0217 -2.1939
 6456SOL    HW231002   1.088   1.283   7.722  3.1861 -0.3755 -1.1551
 6457SOL     OW31003   3.781   4.334   2.324 -0.2963  0.1489  0.4357
 6457SOL    HW131004   3.722   4.409   2.321  1.1986  1.3503  1.4038
 6457SOL    HW231005   3.709   4.273   2.339 -1.8824  1.7956 -0.4869
 6458SOL     OW31006   0.260   4.604  12.260 -0.3432  0.5862 -0.1933
 6458SOL    HW131007   0.287   4.633  12.347 -0.1005 -1.5231  0.4410
 6458SOL    HW231008   0.168   4.630  12.261 -1.1306 -2.0676 -1.5038
 6459SOL     OW31009   0.776   1.885  14.801  0.1392  0.0914  0.5751
 6459SOL    HW131010   0.810   1.929  14.723 -0.0817  0.0553  0.4581
 6459SOL    HW231011   0.681   1.887  14.788 -0.1053 -1.1308  2.2112
 6460SOL     OW31012   2.840   1.227   5.560 -0.1943  0.3433 -0.2421
 6460SOL    HW131013   2.750   1.257   5.574  0.4101  2.0706  0.0393
 6460SOL    HW231014   2.889   1.243   5.640 -2.1095  1.5178  0.7060
 6461SOL     OW31015   2.210   0.138   2.448  0.2989 -0.0843  0.0683
 6461SOL    HW131016   2.295   0.132   2.404  0.8788 -1.2642  1.3740
 6461SOL    HW231017   2.167   0.210   2.400  0.5495 -0.3421 -0.5413
 6462SOL     OW31018   3.052   0.273   8.803  0.2919 -0.2756 -0.0278
 6462SOL    HW131019   2.994   0.261   8.878  0.3585 -1.6273 -0.1912
 6462SOL    HW231020   3.124   0.326   8.837  2.3830 -1.6465 -2.2746
 6463SOL     OW31021   3.490   3.416   2.616  0.0308  0.0860 -0.6528
 6463SOL    HW131022   3.561   3.434   2.554 -0.1162  0.8071 -0.6174
 6463SOL    HW231023   3.513   3.326   2.637  1.0889  0.8662  1.5484
 6464SOL     OW31024   0.647   2.823   9.469 -0.2685  0.3846  0.5095
 6464SOL    HW131025   0.599   2.741   9.478  1.9188 -0.9661 -0.2542
 6464SOL    HW231026   0.632   2.844   9.377 -0.5189 -2.1858 -0.0367
 6465SOL     OW31027   0.375   1.401   5.794  0.3390  0.9194 -0.2123
 6465SOL    HW131028   0.380   1.425   5.886  1.5970 -3.4304  0.8456
 6465SOL    HW231029   0.289   1.425   5.759 -0.0160  0.3635  0.2836
 6466SOL     OW31030   2.599   2.847   9.073 -0.2975  0.2830  0.1101
 6466SOL    HW131031   2.681   2.800   9.061 -1.1872 -0.7146 -2.1330
 6466SOL    HW231032   2.621   2.873   9.162  0.4847  0.2857 -0.0836
 6467SOL     OW31033   4.284   3.867  13.020  0.1281  0.7551 -0.2963
 6467SOL    HW131034   4.368   3.823  13.030  0.1339  0.3083 -2.3481
 6467SOL    HW231035   4.286   3.892  13.113 -1.0993 -0.0974 -0.0407
 6468SOL     OW31036   3.318   1.173   4.034 -0.1477 -0.0080 -0.5082
 6468SOL    HW131037   3.410   1.149   4.027  0.0341  0.2169  1.1842
 6468SOL    HW231038   3.313   1.243   3.968 -1.0936  1.0172  0.6471
 6469SOL     OW31039   3.398   1.981   8.385 -0.2579  0.4939 -0.2818
 6469SOL    HW131040   3.308   1.950   8.382 -0.1207 -0.2685  4.5964
 6469SOL    HW231041   3.377   2.060   8.434  0.1879 -0.5890  1.6424
 6470SOL     OW31042   3.214   2.398   5.788 -0.2718  0.4454  0.0692
 6470SOL    HW131043   3.296   2.348   5.778  0.1218  0.9791  0.6233
 6470SOL    HW231044   3.233   2.491   5.776 -0.0197  0.2097 -1.2762
 6471SOL     OW31045   1.801   2.529  17.627  0.2831 -0.1220  0.0078
 6471SOL    HW131046   1.880   2.583  17.622  0.9516 -1.3269 -2.7386
 6471SOL    HW231047   1.844   2.454  17.669 -2.5819 -0.6926  1.8892
 6472SOL     OW31048   3.836   3.374   8.069 -0.0113  0.1705  0.5855
 6472SOL    HW131049   3.859   3.374   8.162 -0.9160  1.4944  0.7989
 6472SOL    HW231050   3.754   3.325   8.069  0.6503 -0.9526  0.6676
 6473SOL     OW31051   3.454   0.961   8.244 -0.2692  0.3822 -0.0480
 6473SOL    HW131052   3.475   1.054   8.238 -1.0709  0.5638  0.0036
 6473SOL    HW231053   3.366   0.953   8.207 -0.6258  1.1730  0.6299
 6474SOL     OW31054   1.280   1.590  16.507  0.0820  0.4305 -0.8907
 6474SOL    HW131055   1.211   1.622  16.450 -0.8820 -2.8153 -1.5493
 6474SOL    HW231056   1.313   1.673  16.542  1.6265 -0.2391 -0.7590
 6475SOL     OW31057   2.753   0.987  12.960  0.1598 -0.1370 -0.5932
 6475SOL    HW131058   2.809   0.911  12.943  2.3928  1.4023 -0.0954
 6475SOL    HW231059   2.818   1.049  12.992  0.4453 -0.5077 -0.4538
 6476SOL     OW31060   2.515   3.594  10.621  0.0786 -0.2110 -0.1410
 6476SOL    HW131061   2.547   3.669  10.570  1.6192 -0.2720  0.7262
 6476SOL    HW231062   2.518   3.638  10.706 -1.8387 -0.0538 -0.1569
 6477SOL     OW31063   3.937   0.775  13.555  0.1377  0.0958 -0.3599
 6477SOL    HW131064   3.876   0.702  13.569 -2.3091  2.5831  2.0031
 6477SOL    HW231065   3.914   0.840  13.622  0.2416  0.4988 -0.7136
 6478SOL     OW31066   0.232   1.929   0.374  0.1198 -0.2583  0.2020
 6478SOL    HW131067   0.181   1.998   0.331  1.8221  1.7911  1.4998
 6478SOL    HW231068   0.319   1.956   0.345 -0.2955 -0.1051 -0.9255
 6479SOL     OW31069   1.071   0.571   3.499  0.7391 -0.0762 -0.0327
 6479SOL    HW131070   0.988   0.529   3.479 -0.8494  2.7265  0.6584
 6479SOL    HW231071   1.135   0.500   3.498 -1.4850 -2.0763  2.2063
 6480SOL     OW31072   4.558   1.157  16.054  0.3136 -0.5290  0.1996
 6480SOL    HW131073   4.518   1.191  15.974  0.1151 -0.7791  0.1940
 6480SOL    HW231074   4.583   1.073  16.015  1.2009  0.6901 -1.8856
 6481SOL     OW31075   0.676   1.884   8.879 -0.0211  0.4265  0.4851
 6481SOL    HW131076   0.724   1.950   8.829 -1.0144  0.9432  0.2101
 6481SOL    HW231077   0.748   1.834   8.916  1.2551  1.0621 -1.1405
 6482SOL     OW31078   2.133   3.511   3.849 -0.2352  0.3582 -0.3687
 6482SOL    HW131079   2.080   3.449   3.799  0.8714 -1.3217  0.5558
 6482SOL    HW231080   2.151   3.577   3.781 -1.2446  3.8771  2.7917
 6483SOL     OW31081   2.208   3.574   2.211 -0.4219 -0.2329 -0.1269
 6483SOL    HW131082   2.195   3.653   2.158  1.6659 -0.1361 -0.4855
 6483SOL    HW231083   2.124   3.558   2.254  0.2848 -1.9200  0.6116
 6484SOL     OW31084   0.242   0.563   6.460  0.2464 -0.0250  0.0985
 6484SOL    HW131085   0.317   0.568   6.402 -0.2280 -0.9634 -0.5856
 6484SOL    HW231086   0.172   0.602   6.407  1.4429  2.0033  0.0149
 6485SOL     OW31087   0.958   2.674   7.300  0.1227  0.3521  0.1236
 6485SOL    HW131088   0.921   2.586   7.291 -0.1020  0.5696 -1.0642
 6485SOL    HW231089   0.886   2.725   7.263 -0.2421 -1.5678 -1.8004
 6486SOL     OW31090   2.740   2.746   7.672  0.5015  0.5095 -0.0606
 6486SOL    HW131091   2.748   2.715   7.581 -1.4611 -2.1102  0.6639
 6486SOL    HW231092   2.645   2.760   7.674  0.6026  1.1152  0.2021
 6487SOL     OW31093   0.387   0.020  14.830 -0.0076  0.0440 -0.4222
 6487SOL    HW131094   0.374   0.026  14.735 -0.2287 -0.3093 -0.4124
 6487SOL    HW231095   0.475   0.057  14.834  0.6855 -1.5623 -0.7270
 6488SOL     OW31096   2.581   1.934  11.342  0.0969  0.3024 -0.5890
 6488SOL    HW131097   2.676   1.944  11.342 -0.0418  1.6801  1.0482
 6488SOL    HW231098   2.555   1.997  11.409  0.9520 -0.9759  0.9239
 6489SOL     OW31099   4.606   0.205   1.514  0.1718  0.5013 -0.0738
 6489SOL    HW131100   4.620   0.288   1.560 -0.4740  0.0392  0.9501
 6489SOL    HW231101   4.668   0.204   1.441 -0.6838  0.6487 -0.8139
 6490SOL     OW31102   0.904   4.055   6.817 -0.0556 -0.4443  0.1592
 6490SOL    HW131103   0.974   4.115   6.842 -0.3300  0.3782 -1.0619
 6490SOL    HW231104   0.950   3.973   6.796  1.3569  0.5466 -0.5854
 6491SOL     OW31105   1.225   1.639   1.250  0.8765 -0.0741 -0.3454
 6491SOL    HW131106   1.252   1.610   1.163 -1.3737  0.0654 -1.0872
 6491SOL    HW231107   1.254   1.729   1.264  0.4503  0.0378 -0.1852
 6492SOL     OW31108   3.687   0.110  11.090 -0.4086 -0.1997 -1.0680
 6492SOL    HW131109   3.592   0.094  11.093 -0.1695 -1.3444  0.5112
 6492SOL    HW231110   3.707   0.107  11.183  0.2422  0.2740 -1.1936
 6493SOL     OW31111   0.241   2.003  10.153 -0.0597  0.2195  0.2605
 6493SOL    HW131112   0.167   2.062  10.166  1.5044  1.7854  2.0173
 6493SOL    HW231113   0.291   2.036  10.228  1.3779  0.8458 -0.9573
 6494SOL     OW31114   3.027   1.264   5.396  0.4327 -0.5015 -0.1283
 6494SOL    HW131115   2.990   1.307   5.320 -1.4758 -2.7722 -0.4896
 6494SOL    HW231116   2.955   1.260   5.458  0.8467  1.0453  0.4506
 6495SOL     OW31117   4.711   4.681  15.790 -0.1060 -0.5160  0.9699
 6495SOL    HW131118   4.734   0.033  15.755 -2.3066 -0.5989 -0.6526
 6495SOL    HW231119   4.627   4.664  15.747 -0.3404  0.0371  1.2129
 6496SOL     OW31120   2.068   3.913   4.519  0.3261  0.0858 -0.2060
 6496SOL    HW131121   1.998   3.870   4.470  0.2271 -1.1280  0.9806
 6496SOL    HW231122   2.143   3.858   4.494 -0.2381 -0.6389 -0.2937
 6497SOL     OW31123   2.969   3.688   1.984 -0.6044 -0.3300  0.4090
 6497SOL    HW131124   2.900   3.751   1.967  0.3973 -0.1797 -2.9907
 6497SOL    HW231125   2.936   3.599   1.969  1.0603 -0.8811 -0.1166
 6498SOL     OW31126   0.775   0.074   5.545  0.0273  0.0099  0.2694
 6498SOL    HW131127   0.775   0.150   5.488  0.6554 -1.2156 -1.3767
 6498SOL    HW231128   0.858   0.090   5.590  1.7425 -1.7885 -2.2229
 6499SOL     OW31129   4.321   0.435   6.608 -0.0025 -0.6635 -0.6788
 6499SOL    HW131130   4.398   0.421   6.552  0.0526  0.3295 -0.8434
 6499SOL    HW231131   4.255   0.481   6.556  0.6348  0.0846 -0.8322
 6500SOL     OW31132   2.342   4.416   8.446 -0.5010 -0.0118 -0.6649
 6500SOL    HW131133   2.391   4.443   8.368 -1.5400  0.0891 -1.2816
 6500SOL    HW231134   2.403   4.446   8.513 -0.7847  1.2847 -0.9873
 6501SOL     OW31135   2.403   4.102   3.896 -0.3986 -0.0028 -0.4025
 6501SOL    HW131136   2.495   4.096   3.920 -0.4743  1.6338  0.2781
 6501SOL    HW231137   2.399   4.178   3.837  0.8591  0.2369 -0.1614
 6502SOL     OW31138   1.733   3.006   6.502  0.2367 -0.1638  0.4647
 6502SOL    HW131139   1.824   3.034   6.514 -0.4330  1.8559  0.9478
 6502SOL    HW231140   1.751   2.955   6.423 -1.5570  0.1186 -0.1206
 6503SOL     OW31141   0.256   2.496   3.657 -0.4610  0.3891 -0.0681
 6503SOL    HW131142   0.291   2.585   3.661 -0.1257  0.3387 -2.1353
 6503SOL    HW231143   0.225   2.486   3.567 -3.2020 -0.4217  0.9878
 6504SOL     OW31144   0.521   0.132   0.084 -0.4030  0.9159 -0.5002
 6504SOL    HW131145   0.492   0.223   0.084  0.8755  1.3252 -0.1859
 6504SOL    HW231146   0.440   0.090   0.111 -0.8804  1.9601 -0.3112
 6505SOL     OW31147   0.434   2.286   3.480  0.0137  0.3525  0.3003
 6505SOL    HW131148   0.379   2.305   3.556 -0.1213 -2.4995  0.9402
 6505SOL    HW231149   0.474   2.372   3.467  0.9808 -0.4422 -1.9460
 6506SOL     OW31150   3.226   3.530   7.077  0.1227  0.1319  0.3166
 6506SOL    HW131151   3.252   3.452   7.125 -0.0147 -0.1607 -0.0782
 6506SOL    HW231152   3.132   3.516   7.066  0.4752 -0.1703 -2.3577
 6507SOL     OW31153   4.093   3.329   7.603 -0.5710 -1.0426  0.0576
 6507SOL    HW131154   4.140   3.411   7.619 -0.7974 -0.2615 -3.1109
 6507SOL    HW231155   4.010   3.351   7.561  1.4069  1.0257 -2.8446
 6508SOL     OW31156   1.026   0.172   5.826 -0.0343 -0.2621  0.0604
 6508SOL    HW131157   1.037   0.089   5.780  3.9367 -0.8613  2.0730
 6508SOL    HW231158   0.938   0.155   5.859 -0.4535  0.3358 -0.7446
 6509SOL     OW31159   1.148   1.765   7.729  0.3547 -0.0649 -0.2362
 6509SOL    HW131160   1.060   1.752   7.764 -0.1400 -0.5917 -1.6683
 6509SOL    HW231161   1.206   1.779   7.804 -1.4523  0.2706  1.1156
 6510SOL     OW31162   1.981   2.113  11.303 -0.4600  0.0068  0.4771
 6510SOL    HW131163   2.047   2.046  11.323 -1.4645 -1.7330 -2.1657
 6510SOL    HW231164   2.034   2.182  11.262 -0.4516  0.0677  0.5895
 6511SOL     OW31165   1.678   0.410   2.843  0.7835 -0.0147  0.3411
 6511SOL    HW131166   1.700   0.375   2.757  0.0443 -0.2367  0.2475
 6511SOL    HW231167   1.583   0.407   2.831  0.6986 -0.1500  1.0226
 6512SOL     OW31168   2.072   0.140   6.027  0.4641  0.9802 -0.5512
 6512SOL    HW131169   2.117   0.144   5.942  0.9041 -0.5719 -0.3845
 6512SOL    HW231170   2.050   0.047   6.026  0.3753  0.9947  0.1952
 6513SOL     OW31171   2.015   4.329   0.176  0.8310  0.1670  0.3493
 6513SOL    HW131172   1.932   4.377   0.167  0.6079 -0.5450 -1.3694
 6513SOL    HW231173   1.980   4.240   0.176  0.0219  0.4947 -2.6985
 6514SOL     OW31174   0.121   0.458   3.268  0.3342  0.0485  0.0874
 6514SOL    HW131175   0.122   0.417   3.354  1.8064  0.4648  0.2773
 6514SOL    HW231176   0.200   0.510   3.285  0.5902 -0.3717  0.1732
 6515SOL     OW31177   2.600   0.608  13.326 -0.5607  0.1790  0.3830
 6515SOL    HW131178   2.561   0.523  13.348  1.1012 -0.8682 -0.7308
 6515SOL    HW231179   2.580   0.612  13.233 -2.4720  3.5791  0.9735
 6516SOL     OW31180   2.295   1.129   6.245 -0.4443  0.6090  0.4406
 6516SOL    HW131181   2.323   1.115   6.335 -2.6150  2.6872  1.4524
 6516SOL    HW231182   2.311   1.046   6.200 -0.9173  0.5371  0.4048
 6517SOL     OW31183   4.168   0.919  17.288  0.0994  0.5457  0.3671
 6517SOL    HW131184   4.113   0.873  17.352 -0.5439 -1.0987 -1.3768
 6517SOL    HW231185   4.256   0.910  17.324 -0.7212 -1.2256  1.9058
 6518SOL     OW31186   1.212   2.500  13.524 -0.3843  0.3484 -0.4798
 6518SOL    HW131187   1.124   2.470  13.545 -0.3136  0.1424 -0.4760
 6518SOL    HW231188   1.241   2.454  13.445 -1.0671 -0.0470 -0.4959
 6519SOL     OW31189   2.761   1.731   3.843  0.3796 -0.1407  0.0878
 6519SOL    HW131190   2.825   1.725   3.772  2.2642  1.5168  1.6310
 6519SOL    HW231191   2.683   1.714   3.790  0.4961  0.8544 -0.4002
 6520SOL     OW31192   1.787   2.451   5.336 -0.2931  0.1213  0.6883
 6520SOL    HW131193   1.867   2.472   5.385  0.9793 -1.4192 -0.7191
 6520SOL    HW231194   1.828   2.401   5.266 -1.5986 -1.1227  0.8260
 6521SOL     OW31195   2.245   3.267   4.868  0.2040  0.1494  0.1291
 6521SOL    HW131196   2.300   3.189   4.857 -3.4119 -2.3306 -0.2166
 6521SOL    HW231197   2.300   3.337   4.831 -0.0995  1.1732  1.5978
 6522SOL     OW31198   1.101   0.349   7.895  0.1575  0.2227 -0.4456
 6522SOL    HW131199   1.025   0.397   7.864  2.8556  2.8480 -2.9133
 6522SOL    HW231200   1.109   0.277   7.833  0.1421 -0.0530 -0.1306
 6523SOL     OW31201   0.532   3.966  11.383  0.3308  0.3642  0.0603
 6523SOL    HW131202   0.625   3.969  11.360  0.6362  2.7129  1.5028
 6523SOL    HW231203   0.547   3.981  11.477 -0.6850 -2.7824  0.7101
 6524SOL     OW31204   1.143   0.227   7.537  0.1590 -0.0459 -0.2272
 6524SOL    HW131205   1.226   0.261   7.571 -1.1451  1.5709  1.3416
 6524SOL    HW231206   1.174   0.146   7.498 -0.3318 -0.4656  0.2476
 6525SOL     OW31207   0.890   1.841   6.279  0.1711 -0.3313 -0.4545
 6525SOL    HW131208   0.891   1.793   6.362 -0.0215 -1.3902 -1.0620
 6525SOL    HW231209   0.797   1.861   6.279  0.4780  1.1972  1.3293
 6526SOL     OW31210   4.012   3.768   9.268  0.5776 -0.6489 -0.3126
 6526SOL    HW131211   3.993   3.796   9.178  0.3444  0.0659 -0.0343
 6526SOL    HW231212   3.980   3.833   9.330 -0.0822 -0.7738 -0.5259
 6527SOL     OW31213   3.129   0.580   3.126  0.4436  0.0984  0.2388
 6527SOL    HW131214   3.172   0.648   3.177 -0.2533  0.7088  0.0081
 6527SOL    HW231215   3.075   0.537   3.192  0.7957 -0.4015  0.1972
 6528SOL     OW31216   2.045   0.577   9.287  0.2031 -0.1643  0.3893
 6528SOL    HW131217   1.962   0.557   9.332 -1.7105  4.4164 -1.1181
 6528SOL    HW231218   2.117   0.556   9.346 -0.6779  0.7060  1.7759
 6529SOL     OW31219   3.585   2.165  12.781 -0.2876 -0.1934 -0.5402
 6529SOL    HW131220   3.527   2.105  12.734  1.1565 -1.3320 -0.8642
 6529SOL    HW231221   3.526   2.230  12.819  1.2545  0.8060  0.1047
 6530SOL     OW31222   1.593   3.081   3.683 -0.2521 -0.6045  0.0890
 6530SOL    HW131223   1.507   3.101   3.648  0.2175 -0.2259 -0.8584
 6530SOL    HW231224   1.629   3.168   3.700  2.8847 -2.4324  2.7653
 6531SOL     OW31225   1.499   2.689   8.669 -0.1618 -0.5222  0.3175
 6531SOL    HW131226   1.509   2.672   8.575  1.4910 -1.1776  0.6111
 6531SOL    HW231227   1.585   2.714   8.703 -1.3668  3.1151  0.6503
 6532SOL     OW31228   0.951   4.363   8.625 -0.0156 -0.0432  0.7591
 6532SOL    HW131229   1.017   4.299   8.648  0.3389 -0.2275 -0.7416
 6532SOL    HW231230   0.993   4.439   8.666  0.8083 -1.1992  2.0417
 6533SOL     OW31231   4.470   2.966   3.103 -0.2843  0.2815  0.2384
 6533SOL    HW131232   4.467   2.870   3.104 -0.8054  0.3000  0.4688
 6533SOL    HW231233   4.553   2.983   3.058 -0.1524  1.0986  0.8036
 6534SOL     OW31234   4.567   0.280   3.379 -1.0213  0.1916  0.4886
 6534SOL    HW131235   4.609   0.287   3.464 -1.0330 -2.3895  0.7288
 6534SOL    HW231236   4.506   0.207   3.391  1.4433 -1.5029  2.5618
 6535SOL     OW31237   3.962   2.523   6.345 -1.0608  0.2511 -0.6150
 6535SOL    HW131238   3.898   2.453   6.356 -0.3776 -0.2676  0.0513
 6535SOL    HW231239   3.976   2.556   6.434  0.7724 -0.4410 -0.6443
 6536SOL     OW31240   3.318   2.194   4.376 -0.3823 -0.4129 -0.0827
 6536SOL    HW131241   3.400   2.161   4.413 -0.8870 -2.6337 -0.9278
 6536SOL    HW231242   3.366   2.252   4.317  0.6375 -0.3049  0.8549
 6537SOL     OW31243   2.214   1.576   6.379  0.5082  0.6527  0.6355
 6537SOL    HW131244   2.145   1.547   6.320  0.9094 -0.4089  0.6912
 6537SOL    HW231245   2.194   1.665   6.349 -0.3572 -0.1759 -1.2473
 6538SOL     OW31246   3.858   2.046   2.655 -0.2795  0.1549 -0.3771
 6538SOL    HW131247   3.919   2.119   2.652  0.2095 -0.2590 -0.5416
 6538SOL    HW231248   3.900   1.983   2.596 -0.6331  0.7245 -1.2441
 6539SOL     OW31249   2.079   3.564   9.098  0.2678 -0.3194  0.2759
 6539SOL    HW131250   2.085   3.625   9.025  1.7730  0.9059  1.4426
 6539SOL    HW231251   2.085   3.475   9.063 -1.5147 -1.2590  2.3191
 6540SOL     OW31252   0.766   0.208   1.796  0.3602 -0.7943  0.2558
 6540SOL    HW131253   0.768   0.303   1.808 -1.1339 -1.1381  3.1502
 6540SOL    HW231254   0.858   0.183   1.787  0.7150  0.4412  0.4898
 6541SOL     OW31255   4.151   2.205   7.096 -0.1260  0.0144 -0.5838
 6541SOL    HW131256   4.111   2.120   7.076  1.7774 -1.3469  1.3007
 6541SOL    HW231257   4.231   2.175   7.140  0.1503  2.4119  0.5515
 6542SOL     OW31258   2.244   2.953   7.801  0.5524 -0.1531  0.0660
 6542SOL    HW131259   2.198   2.870   7.811  1.4372 -0.6365  0.1309
 6542SOL    HW231260   2.196   3.002   7.869  0.1518 -0.7669  0.2214
 6543SOL     OW31261   2.286   2.256   9.959  0.2779 -0.7109  0.0606
 6543SOL    HW131262   2.270   2.286   9.870  0.1654  0.4956  0.4834
 6543SOL    HW231263   2.285   2.161   9.948 -0.6682 -0.3549 -2.8571
 6544SOL     OW31264   1.116   0.341   3.746  0.0904 -0.1960  0.4306
 6544SOL    HW131265   1.206   0.343   3.779  0.7464 -3.0544 -1.1030
 6544SOL    HW231266   1.143   0.332   3.654  1.6024 -1.9574  1.0454
 6545SOL     OW31267   1.129   0.008  12.913  0.1334  0.1096  0.5199
 6545SOL    HW131268   1.038   0.007  12.886  1.0581 -4.2151 -2.3421
 6545SOL    HW231269   1.118   0.009  13.009  1.6466 -2.4423  0.7289
 6546SOL     OW31270   1.768   0.506   4.997  0.6938 -0.1151 -0.3278
 6546SOL    HW131271   1.757   0.558   5.076 -0.3674 -0.9977  0.0959
 6546SOL    HW231272   1.861   0.491   5.016  0.3165 -0.6678  1.0204
 6547SOL     OW31273   0.512   1.730  17.254  0.3269 -0.7399  0.0515
 6547SOL    HW131274   0.578   1.760  17.316  0.7721 -1.7818  0.0718
 6547SOL    HW231275   0.532   1.788  17.180  0.6121 -0.5412  0.2813
 6548SOL     OW31276   0.214   0.836   3.577 -0.0751 -0.2811  0.1397
 6548SOL    HW131277   0.171   0.900   3.520 -2.9905 -2.1507  0.1965
 6548SOL    HW231278   0.148   0.766   3.580 -0.4848  0.0806 -0.4444
 6549SOL     OW31279   3.572   0.062  11.538  0.3195 -0.2180  0.3173
 6549SOL    HW131280   3.657   0.033  11.571  1.1916  2.5364  0.4604
 6549SOL    HW231281   3.519   0.055  11.618 -2.1077  0.0903 -1.2520
 6550SOL     OW31282   0.855   3.650   7.514 -0.2005  0.1774  0.2446
 6550SOL    HW131283   0.890   3.561   7.521 -0.4010  0.1272  0.5865
 6550SOL    HW231284   0.925   3.687   7.460  0.6425  1.1618  2.0053
 6551SOL     OW31285   2.114   2.658   1.561 -0.3544 -0.5453 -0.2763
 6551SOL    HW131286   2.048   2.595   1.531  0.4743 -1.1985 -0.7643
 6551SOL    HW231287   2.064   2.739   1.566  0.3289 -0.2861  2.1998
 6552SOL     OW31288   0.091   1.367   6.278  0.1065  0.1488  0.2274
 6552SOL    HW131289   0.162   1.395   6.335  1.6765 -2.9766 -0.1412
 6552SOL    HW231290   0.054   1.455   6.271 -3.0601 -1.1042  1.3905
 6553SOL     OW31291   1.901   3.800   3.864  0.4457  0.3831  0.2631
 6553SOL    HW131292   1.996   3.815   3.867  0.2034  1.5609  1.5358
 6553SOL    HW231293   1.892   3.731   3.798  1.7567  0.9224 -0.4746
 6554SOL     OW31294   0.559   4.558   7.374  0.1801 -0.1012 -0.6415
 6554SOL    HW131295   0.611   4.513   7.308 -2.0973  0.8372 -3.0658
 6554SOL    HW231296   0.570   4.652   7.360  0.9470 -0.4793 -2.5678
 6555SOL     OW31297   1.383   4.317  10.444  0.0852 -0.5891 -0.3667
 6555SOL    HW131298   1.316   4.346  10.507  0.7136 -2.6078  1.2219
 6555SOL    HW231299   1.378   4.225  10.470  3.5192 -0.5019  0.5938
 6556SOL     OW31300   2.226   1.922   9.369  0.3746 -0.7882  0.1248
 6556SOL    HW131301   2.206   1.912   9.462  1.3893  0.7194  0.5059
 6556SOL    HW231302   2.313   1.962   9.376  0.3584 -0.5748 -0.9141
 6557SOL     OW31303   1.044   4.424   7.048 -0.0725  0.4907  0.1546
 6557SOL    HW131304   1.099   4.346   7.039  0.0534  0.9280 -2.5927
 6557SOL    HW231305   0.984   4.418   6.973 -0.2169  3.7125  0.0034
 6558SOL     OW31306   0.996   3.583   2.385  0.6150 -0.5471  0.0376
 6558SOL    HW131307   0.914   3.538   2.402  1.2694 -2.0448 -0.8158
 6558SOL    HW231308   0.990   3.623   2.471 -0.7262  0.0133 -0.3176
 6559SOL     OW31309   0.109   0.978   0.628 -0.1241 -0.1380 -0.1332
 6559SOL    HW131310   0.129   0.884   0.632 -1.2851 -0.3789 -0.2043
 6559SOL    HW231311   0.072   0.993   0.715 -2.1214 -2.1914 -0.6485
 6560SOL     OW31312   0.800   2.859   8.285  0.3108  0.5387 -0.1638
 6560SOL    HW131313   0.823   2.894   8.371 -2.5582 -0.2472  0.9586
 6560SOL    HW231314   0.885   2.832   8.252  0.2980  2.0610 -1.3822
 6561SOL     OW31315   0.827   0.152   7.476  0.5101  0.4400  0.7211
 6561SOL    HW131316   0.909   0.103   7.484 -0.7516 -1.5685  1.2527
 6561SOL    HW231317   0.839   0.232   7.527 -0.2698 -0.4263  2.2564
 6562SOL     OW31318   4.636   2.830   8.277  0.0449  0.3422  0.0954
 6562SOL    HW131319   4.623   2.802   8.368 -2.0696 -2.2586 -0.9940
 6562SOL    HW231320   4.663   2.744   8.243 -0.6139 -0.3655  1.3501
 6563SOL     OW31321   3.650   1.897   4.492 -0.5391 -0.2712  0.3820
 6563SOL    HW131322   3.728   1.846   4.514 -0.0464  0.6162  0.6967
 6563SOL    HW231323   3.617   1.890   4.582 -0.7482 -0.1840  0.3117
 6564SOL     OW31324   2.441   0.333   7.416 -0.7326  0.6421 -0.1544
 6564SOL    HW131325   2.469   0.424   7.431 -2.1244  0.5488  3.0137
 6564SOL    HW231326   2.510   0.301   7.358 -0.0593 -0.4294  1.2148
 6565SOL     OW31327   3.510   0.639  10.175 -0.3197  0.0628  0.5865
 6565SOL    HW131328   3.521   0.730  10.145  2.1209 -0.3054  0.3509
 6565SOL    HW231329   3.604   0.622  10.162 -0.2018  0.3597  1.0351
 6566SOL     OW31330   2.366   2.981   0.842  0.2007 -0.5845  0.1416
 6566SOL    HW131331   2.401   2.924   0.910  0.0270  2.7298  3.0153
 6566SOL    HW231332   2.336   2.926   0.770 -1.5047  0.9802 -0.3639
 6567SOL     OW31333   0.213   4.433  11.228  0.3157  0.3829 -0.0818
 6567SOL    HW131334   0.176   4.456  11.314  0.9009 -0.5757  0.4232
 6567SOL    HW231335   0.233   4.524  11.205 -1.8502 -0.0323 -3.5696
 6568SOL     OW31336   1.450   3.083   7.763  0.5385 -0.0561 -0.0160
 6568SOL    HW131337   1.425   3.174   7.779  0.5158 -0.2883  1.2363
 6568SOL    HW231338   1.405   3.061   7.681  1.3023 -1.0349 -0.1667
 6569SOL     OW31339   2.507   3.015  11.146 -0.0292  0.2678  0.2033
 6569SOL    HW131340   2.591   2.974  11.123  0.3960  0.7381  0.9290
 6569SOL    HW231341   2.542   3.098  11.178 -0.2058  1.0000 -1.4704
 6570SOL     OW31342   4.504   2.511   4.273  0.2357 -0.6874  0.8272
 6570SOL    HW131343   4.572   2.576   4.290 -1.0978  0.8665  0.1777
 6570SOL    HW231344   4.462   2.542   4.193  1.7753  1.4052  0.8458
 6571SOL     OW31345   1.693   2.290   3.447  0.1982  0.1264  0.4293
 6571SOL    HW131346   1.692   2.381   3.416  1.8551 -0.0967 -0.2440
 6571SOL    HW231347   1.684   2.248   3.361 -2.0491 -0.8731  1.1444
 6572SOL     OW31348   3.241   3.069   4.993  0.2368 -0.1570 -0.5514
 6572SOL    HW131349   3.328   3.033   4.973 -0.1488 -2.8548  2.5373
 6572SOL    HW231350   3.234   3.045   5.085  0.3611 -0.2502 -0.5655
 6573SOL     OW31351   3.901   4.200  16.572 -0.0110 -0.2263  0.1475
 6573SOL    HW131352   3.994   4.196  16.592 -0.5703  2.9732  3.3393
 6573SOL    HW231353   3.876   4.281  16.617  0.5297  0.7680 -1.3264
 6574SOL     OW31354   1.909   2.659  15.738  0.5722  0.3798  0.4543
 6574SOL    HW131355   1.922   2.738  15.791 -0.6544  0.9495 -0.0971
 6574SOL    HW231356   1.821   2.635  15.764  1.0364 -1.4258  0.3582
 6575SOL     OW31357   3.134   3.974   6.221 -0.5887 -0.1729  0.1285
 6575SOL    HW131358   3.228   3.955   6.219 -0.4838  0.3727 -0.3802
 6575SOL    HW231359   3.128   3.971   6.316  0.5162  1.1480  0.2557
 6576SOL     OW31360   2.119   1.097   6.518  1.1287  0.1437 -0.3453
 6576SOL    HW131361   2.213   1.084   6.528  1.2263 -0.0426 -1.4364
 6576SOL    HW231362   2.092   1.039   6.589 -0.7789  0.8341 -0.5020
 6577SOL     OW31363   3.350   0.963   6.297 -0.3609  0.2907  0.0007
 6577SOL    HW131364   3.364   0.982   6.204 -2.3717  0.9195 -0.1780
 6577SOL    HW231365   3.442   0.965   6.323 -0.7719  0.0830  1.4413
 6578SOL     OW31366   0.194   1.702  10.099  0.3935 -0.3154 -0.5330
 6578SOL    HW131367   0.219   1.772  10.158 -1.7492 -0.0257  0.0149
 6578SOL    HW231368   0.197   1.751  10.017 -0.0041  1.1288  0.3272
 6579SOL     OW31369   4.138   1.113  11.333  0.5655 -0.4207 -0.0978
 6579SOL    HW131370   4.132   1.206  11.355  0.2383 -0.3748 -0.3695
 6579SOL    HW231371   4.061   1.073  11.373 -0.2253 -1.9120 -3.1162
 6580SOL     OW31372   3.948   3.133  15.130 -0.3779 -0.1470  0.0294
 6580SOL    HW131373   3.995   3.064  15.082  1.0301  1.0657 -0.3676
 6580SOL    HW231374   3.857   3.113  15.110  0.3215 -1.7851 -1.5757
 6581SOL     OW31375   1.273   0.084   4.060  0.0362 -0.1241  0.8640
 6581SOL    HW131376   1.290   0.162   4.113 -1.2226 -0.2253  1.4063
 6581SOL    HW231377   1.270   0.023   4.134 -2.7238  0.2085  1.0270
 6582SOL     OW31378   2.474   1.682   5.471  0.3398  0.1217  0.6292
 6582SOL    HW131379   2.459   1.727   5.388 -1.7083 -0.8479  0.4727
 6582SOL    HW231380   2.562   1.649   5.454 -0.3737 -1.6715  0.3791
 6583SOL     OW31381   4.540   3.839   7.012  0.0659 -0.3989 -0.3019
 6583SOL    HW131382   4.476   3.909   6.997  0.1238 -0.0145  1.3167
 6583SOL    HW231383   4.572   3.838   6.921 -1.3138 -0.1309 -0.7884
 6584SOL     OW31384   3.270   4.626  13.260 -0.3832 -0.2822 -0.3853
 6584SOL    HW131385   3.347   4.589  13.304 -0.1661 -1.3512 -1.6709
 6584SOL    HW231386   3.309   4.680  13.191 -2.2563 -2.3278 -3.0541
 6585SOL     OW31387   1.980   2.019   7.768  0.4489  0.2475  0.2190
 6585SOL    HW131388   1.986   1.949   7.832  3.4168 -0.1736 -0.5048
 6585SOL    HW231389   1.888   2.041   7.781  0.3143 -0.4718  0.4806
 6586SOL     OW31390   4.463   3.599   7.849  0.3948  0.1117  0.2012
 6586SOL    HW131391   4.531   3.564   7.906  1.9530  0.3412 -1.5063
 6586SOL    HW231392   4.486   3.554   7.768 -0.8697  0.0041 -0.0937
 6587SOL     OW31393   3.529   1.332   0.654  0.1080 -0.3726 -0.0332
 6587SOL    HW131394   3.583   1.332   0.576 -1.5834  1.0896 -1.2239
 6587SOL    HW231395   3.571   1.259   0.700  0.8184  0.3813  0.5208
 6588SOL     OW31396   4.536   1.849   3.569 -0.7392  0.0643 -0.0846
 6588SOL    HW131397   4.628   1.872   3.557 -1.0577  1.7132  0.6389
 6588SOL    HW231398   4.545   1.764   3.611  0.0070  1.1516  1.9314
 6589SOL     OW31399   2.288   2.006   8.960 -0.1875  0.1133  0.0719
 6589SOL    HW131400   2.345   1.935   8.990 -0.5081  0.0125  0.4419
 6589SOL    HW231401   2.347   2.037   8.892 -0.2711  0.1744  0.0280
 6590SOL     OW31402   0.597   1.074   6.459  0.7469 -0.2448 -0.4965
 6590SOL    HW131403   0.624   1.032   6.377  3.3466  0.3690  0.0477
 6590SOL    HW231404   0.674   1.126   6.479  0.7476 -0.5630  0.3466
 6591SOL     OW31405   4.494   0.906  11.889 -0.2797  0.3683 -0.1463
 6591SOL    HW131406   4.569   0.849  11.904  0.0937  1.5616  2.5451
 6591SOL    HW231407   4.420   0.848  11.907 -0.7665  0.8261 -0.6671
 6592SOL     OW31408   1.861   2.544   3.591  0.0916 -0.3618 -0.1124
 6592SOL    HW131409   1.815   2.522   3.672 -0.5218  0.6844 -0.1799
 6592SOL    HW231410   1.841   2.636   3.575 -2.5689 -0.6843  1.1961
 6593SOL     OW31411   1.512   2.468   2.048 -0.1794 -0.1864  0.3856
 6593SOL    HW131412   1.563   2.549   2.050  1.4905 -1.1227 -3.0932
 6593SOL    HW231413   1.546   2.431   2.129  0.1761 -1.3805 -0.3149
 6594SOL     OW31414   0.448   2.075   8.571  0.1801  0.1936 -0.2378
 6594SOL    HW131415   0.504   2.064   8.648  1.1264  1.7963 -0.7055
 6594SOL    HW231416   0.421   2.166   8.575  0.6153  0.3189 -0.0896
 6595SOL     OW31417   0.380   0.097   8.987 -0.1395 -0.2822 -0.4772
 6595SOL    HW131418   0.450   0.066   9.044 -0.7277 -3.8252 -1.7280
 6595SOL    HW231419   0.409   0.059   8.904  2.0136 -0.2663  0.2623
 6596SOL     OW31420   1.045   0.161   1.717 -0.2978 -0.5669 -0.3916
 6596SOL    HW131421   1.009   0.152   1.629 -0.7655  0.3685 -0.2972
 6596SOL    HW231422   1.063   0.069   1.733  0.6301 -0.1758  0.8466
 6597SOL     OW31423   1.057   2.190   8.361 -0.4498  0.1264 -0.1784
 6597SOL    HW131424   1.051   2.249   8.436  1.1011 -0.2330  0.2265
 6597SOL    HW231425   1.066   2.099   8.389  0.8361  0.3522  0.1326
 6598SOL     OW31426   2.028   0.691  14.431 -0.0661 -0.2387  0.0584
 6598SOL    HW131427   2.026   0.757  14.362  0.7262  0.9734  1.1693
 6598SOL    HW231428   2.110   0.724  14.467  0.1121  1.1605 -1.6618
 6599SOL     OW31429   2.831   3.541   9.810  0.0740 -0.6270 -0.7588
 6599SOL    HW131430   2.815   3.600   9.737 -1.8385 -0.0485  0.1315
 6599SOL    HW231431   2.900   3.493   9.763  1.8165  0.3774  0.7849
 6600SOL     OW31432   0.466   0.204  12.326  0.5619 -0.0165 -0.2380
 6600SOL    HW131433   0.413   0.214  12.246 -3.7680  1.9721  2.8842
 6600SOL    HW231434   0.535   0.144  12.299  0.7151  1.3954 -2.9918
 6601SOL     OW31435   2.232   1.411  13.839  0.3377 -0.4103 -0.2057
 6601SOL    HW131436   2.226   1.506  13.830 -0.0109 -0.2501  1.6778
 6601SOL    HW231437   2.214   1.411  13.933  0.7059 -0.9377 -0.1410
 6602SOL     OW31438   2.538   3.873   6.846  0.0341  0.0076  0.7666
 6602SOL    HW131439   2.453   3.860   6.802 -0.3766  2.5896  0.8232
 6602SOL    HW231440   2.496   3.891   6.931  0.5895  2.2964  0.5557
 6603SOL     OW31441   3.902   4.015   5.009 -0.1902 -0.0229  0.0974
 6603SOL    HW131442   3.923   3.956   4.937  1.2670 -0.6873  1.0603
 6603SOL    HW231443   3.924   3.958   5.083 -0.7807 -1.8673 -1.1569
 6604SOL     OW31444   2.280   4.041   4.660 -0.2977 -0.2718  0.2912
 6604SOL    HW131445   2.332   3.965   4.685  1.1184 -0.0437 -1.8948
 6604SOL    HW231446   2.208   3.992   4.621 -0.9041  1.1942 -0.4303
 6605SOL     OW31447   3.358   2.109   3.085 -0.2171 -0.4370  0.1801
 6605SOL    HW131448   3.289   2.175   3.086  0.5638  0.3508  1.6511
 6605SOL    HW231449   3.433   2.161   3.112 -1.4001  1.0331  0.6154
 6606SOL     OW31450   0.536   3.612   2.180  0.4117 -0.1799  0.2338
 6606SOL    HW131451   0.550   3.521   2.153  4.4189  0.1833  1.0526
 6606SOL    HW231452   0.533   3.593   2.274  0.8947 -0.3812  0.2107
 6607SOL     OW31453   0.559   3.683   7.465 -0.0005  0.0492  0.2651
 6607SOL    HW131454   0.593   3.746   7.401  0.6853 -0.5657  0.0214
 6607SOL    HW231455   0.642   3.641   7.490  0.2899  1.0456  0.9743
 6608SOL     OW31456   1.540   2.215  16.777  0.0174 -0.0674 -0.6817
 6608SOL    HW131457   1.534   2.261  16.694 -1.2273 -0.5915 -0.8781
 6608SOL    HW231458   1.595   2.139  16.759  2.6388  1.4898  0.7372
 6609SOL     OW31459   0.008   1.668   7.532  0.0795 -0.3028 -0.0311
 6609SOL    HW131460   4.702   1.614   7.464 -0.9883  0.2493  0.1676
 6609SOL    HW231461   0.097   1.679   7.499 -0.2691  1.6895 -0.3358
 6610SOL     OW31462   3.482   0.386   4.556 -0.4378  0.5362 -0.3486
 6610SOL    HW131463   3.493   0.450   4.626  0.2987 -2.7438  2.5582
 6610SOL    HW231464   3.557   0.411   4.502  0.6993 -1.8432  0.1093
 6611SOL     OW31465   3.776   4.530   4.893 -0.2103 -0.2648  0.2995
 6611SOL    HW131466   3.847   4.554   4.834 -1.2701  2.1461  0.0165
 6611SOL    HW231467   3.782   4.435   4.882  0.4367 -0.0731 -1.0567
 6612SOL     OW31468   3.363   3.902   8.523 -0.5981  0.3778 -0.0813
 6612SOL    HW131469   3.362   3.815   8.563 -1.0624  1.1068  1.5041
 6612SOL    HW231470   3.298   3.954   8.571  0.3063 -0.3303  1.9350
 6613SOL     OW31471   0.685   3.325   6.661  0.2509 -0.0368 -0.5211
 6613SOL    HW131472   0.643   3.241   6.675 -0.5494  0.1253 -1.9507
 6613SOL    HW231473   0.732   3.340   6.742 -0.3079  0.7105 -0.3312
 6614SOL     OW31474   4.433   4.573   5.098 -0.8320  0.0755 -0.0364
 6614SOL    HW131475   4.446   4.478   5.103 -0.0934  0.2843  2.4456
 6614SOL    HW231476   4.524   4.603   5.110 -1.2937  1.4855 -0.0842
 6615SOL     OW31477   0.173   2.832   5.557 -0.0233 -0.1963 -0.7008
 6615SOL    HW131478   0.154   2.898   5.623  1.6257 -0.5723  0.1462
 6615SOL    HW231479   0.162   2.755   5.613 -2.4911  1.3789  0.9951
 6616SOL     OW31480   0.261   0.269   7.609 -0.0177 -0.0691 -0.0287
 6616SOL    HW131481   0.304   0.259   7.694 -0.1918  0.2644  0.0976
 6616SOL    HW231482   0.200   0.342   7.620 -0.2405 -0.3897  0.8637
 6617SOL     OW31483   4.201   3.557   5.486 -0.4714  0.4515  0.5711
 6617SOL    HW131484   4.205   3.465   5.460  0.2082  0.6576 -0.0626
 6617SOL    HW231485   4.124   3.587   5.438  0.0956  0.9524 -0.0355
 6618SOL     OW31486   4.478   2.961   3.687  0.4925 -0.2801  0.2269
 6618SOL    HW131487   4.502   2.905   3.613  1.4417 -1.3442  1.3331
 6618SOL    HW231488   4.506   3.049   3.661  0.2343 -0.0338  0.7926
 6619SOL     OW31489   4.491   1.273  11.220  0.0713  0.0320  0.0306
 6619SOL    HW131490   4.415   1.330  11.205 -0.0526 -0.0178  0.4528
 6619SOL    HW231491   4.520   1.258  11.130 -2.0529 -0.3447 -0.5811
 6620SOL     OW31492   0.233   3.947   6.022  0.1165  0.4783 -0.4304
 6620SOL    HW131493   0.245   4.040   6.001 -2.6181  0.5772 -1.5726
 6620SOL    HW231494   0.238   3.907   5.935 -0.5906  0.8547 -0.6462
 6621SOL     OW31495   1.878   4.542   3.133 -0.1361  0.5006 -0.1102
 6621SOL    HW131496   1.938   4.508   3.066 -0.7770  2.0826 -1.4954
 6621SOL    HW231497   1.889   4.476   3.202 -0.6502  0.3599 -0.1586
 6622SOL     OW31498   2.927   2.250  15.925 -0.0624 -0.5198 -0.2687
 6622SOL    HW131499   2.866   2.313  15.885 -0.9817 -1.2179  0.0307
 6622SOL    HW231500   2.888   2.251  16.012  1.4196  1.9345  0.3669
 6623SOL     OW31501   3.695   0.528   7.169  0.6432  0.5491  0.6354
 6623SOL    HW131502   3.664   0.443   7.197 -2.1915  1.2327 -0.4281
 6623SOL    HW231503   3.726   0.512   7.080 -1.2710  1.1914 -0.1454
 6624SOL     OW31504   2.329   2.828   4.030  0.0392  0.5749 -0.3102
 6624SOL    HW131505   2.320   2.923   4.039  0.2098  0.3696  1.9150
 6624SOL    HW231506   2.418   2.804   4.055  1.1108  1.6450 -3.0324
 6625SOL     OW31507   4.163   3.134   3.347  0.2696 -0.6285 -0.3947
 6625SOL    HW131508   4.252   3.166   3.339  0.2144  0.1271  2.0335
 6625SOL    HW231509   4.184   3.067   3.411 -0.5479 -1.6297 -1.1637
 6626SOL     OW31510   3.366   0.839   3.919  0.1312  0.0114  0.1299
 6626SOL    HW131511   3.296   0.891   3.959  1.1383 -0.0495  1.9797
 6626SOL    HW231512   3.441   0.867   3.971 -1.6408  0.1924  2.5846
 6627SOL     OW31513   4.361   3.725   6.659  0.1461 -0.1942 -0.0172
 6627SOL    HW131514   4.302   3.706   6.731 -1.7085  1.3811 -1.1289
 6627SOL    HW231515   4.306   3.737   6.582 -0.9211 -1.0014  0.6323
 6628SOL     OW31516   4.064   1.979   1.578  0.2951  0.2310  0.4435
 6628SOL    HW131517   3.985   2.033   1.583 -0.9204 -1.3964 -1.3809
 6628SOL    HW231518   4.112   2.014   1.503 -0.1568  1.5325  0.7482
 6629SOL     OW31519   1.686   3.020   1.824 -0.4577  0.1521 -0.2773
 6629SOL    HW131520   1.643   3.022   1.910 -0.2406 -1.0094 -0.1525
 6629SOL    HW231521   1.779   3.024   1.845 -0.9281  0.7343  1.7452
 6630SOL     OW31522   4.555   4.251  13.460  0.1075  0.7596 -0.8679
 6630SOL    HW131523   4.471   4.236  13.504  1.5243 -0.1067  1.5629
 6630SOL    HW231524   4.579   4.322  13.521  0.8266 -0.3447  0.1451
 6631SOL     OW31525   2.146   2.682   7.772  0.4332  0.2914  0.0607
 6631SOL    HW131526   2.099   2.628   7.836 -0.6591  1.8716  0.6034
 6631SOL    HW231527   2.195   2.614   7.725  0.0694  0.1879 -0.1744
 6632SOL     OW31528   1.958   3.634   2.345  0.5220  0.2917 -0.0237
 6632SOL    HW131529   1.985   3.694   2.415  1.8800  0.9341 -1.0949
 6632SOL    HW231530   1.881   3.679   2.309  0.0054  0.4549  1.2737
 6633SOL     OW31531   2.756   2.621  16.128 -0.8593 -0.0938  0.6150
 6633SOL    HW131532   2.843   2.661  16.130 -2.0079  2.3758  0.9503
 6633SOL    HW231533   2.719   2.625  16.039 -2.0337 -0.1942  1.0933
 6634SOL     OW31534   0.125   2.531   8.302 -0.3281 -0.0473  0.5643
 6634SOL    HW131535   0.061   2.466   8.273 -0.8908  1.3788 -1.4569
 6634SOL    HW231536   0.127   2.579   8.219  2.2330  0.3182  0.8283
 6635SOL     OW31537   0.535   1.904   6.192 -0.3849 -0.6004  0.1946
 6635SOL    HW131538   0.597   1.953   6.139 -0.2354 -0.1224  0.8131
 6635SOL    HW231539   0.534   1.817   6.151  0.0784 -0.0409 -0.9920
 6636SOL     OW31540   1.274   1.338   5.357  0.4856  0.7855 -0.1689
 6636SOL    HW131541   1.243   1.281   5.428  2.5593 -0.3416 -0.1614
 6636SOL    HW231542   1.346   1.390   5.393 -0.4976  2.2237 -0.2787
 6637SOL     OW31543   0.496   1.996  10.817  0.1871 -0.0082 -0.1335
 6637SOL    HW131544   0.517   2.052  10.742 -2.7080 -0.0148 -0.9371
 6637SOL    HW231545   0.467   1.914  10.777 -0.5542  0.6521 -0.9418
 6638SOL     OW31546   0.099   3.830   2.615  0.2401 -0.1619 -0.2230
 6638SOL    HW131547   0.138   3.860   2.696  2.1573  0.6817 -1.4576
 6638SOL    HW231548   0.005   3.826   2.631  0.0448  0.7888 -1.1182
 6639SOL     OW31549   1.583   2.233  14.408 -0.1659 -0.3867  0.1330
 6639SOL    HW131550   1.555   2.310  14.358  1.5728 -0.2196 -0.5877
 6639SOL    HW231551   1.501   2.184  14.421 -0.2173 -0.0005  1.2455
 6640SOL     OW31552   3.282   1.520   3.542 -0.2069 -0.1075  0.4174
 6640SOL    HW131553   3.279   1.472   3.459 -1.5973 -0.2412  0.5361
 6640SOL    HW231554   3.371   1.554   3.545 -0.5194  0.8090 -0.8209
 6641SOL     OW31555   4.233   2.773   5.984  0.3600  0.1737 -0.1208
 6641SOL    HW131556   4.186   2.690   5.994 -1.2524  0.9267 -1.4689
 6641SOL    HW231557   4.312   2.768   6.038  1.4681  0.5544 -1.7181
 6642SOL     OW31558   1.304   4.315   1.698 -0.0975 -0.4024 -0.3446
 6642SOL    HW131559   1.256   4.345   1.775 -0.9630 -1.7754 -0.3477
 6642SOL    HW231560   1.373   4.380   1.702  0.1627 -0.5453 -2.4692
 6643SOL     OW31561   3.496   4.420  11.599 -0.1361 -0.1675  0.0023
 6643SOL    HW131562   3.442   4.493  11.571 -0.3314 -0.8822 -1.4695
 6643SOL    HW231563   3.574   4.446  11.551  0.7969 -2.9750  0.0142
 6644SOL     OW31564   3.381   0.910   2.992 -0.3084  0.2666 -0.1052
 6644SOL    HW131565   3.418   0.922   2.905 -0.4536  0.1036 -0.1881
 6644SOL    HW231566   3.359   0.817   2.982 -1.9710  0.7226 -0.6309
 6645SOL     OW31567   2.532   0.608   9.401 -0.4114 -0.1693 -0.0202
 6645SOL    HW131568   2.540   0.663   9.479 -0.7860 -2.0303  1.3196
 6645SOL    HW231569   2.441   0.579   9.411 -1.6330  3.3974 -0.9622
 6646SOL     OW31570   3.085   4.726   4.023  0.3119  0.2326 -0.2401
 6646SOL    HW131571   3.084   0.046   4.102 -1.0961 -0.2830  0.0954
 6646SOL    HW231572   3.013   4.665   4.037 -0.1802  0.6042 -1.1107
 6647SOL     OW31573   2.646   4.442   0.292  0.1498  0.4848 -0.1455
 6647SOL    HW131574   2.732   4.474   0.265 -1.1762  3.7039 -0.4613
 6647SOL    HW231575   2.674   4.367   0.345 -1.9761  0.9449  1.5678
 6648SOL     OW31576   2.567   1.473  14.904 -0.4327  0.7381  0.0013
 6648SOL    HW131577   2.566   1.526  14.825  1.8575 -0.0428 -0.5552
 6648SOL    HW231578   2.659   1.450  14.897 -1.0672 -1.4634 -1.1148
 6649SOL     OW31579   0.241   0.465   1.584  0.5496  0.0875  0.3003
 6649SOL    HW131580   0.267   0.489   1.495  2.9135  0.8584  1.2048
 6649SOL    HW231581   0.301   0.393   1.600  0.1049 -0.7674 -1.7613
 6650SOL     OW31582   0.985   3.404  12.875 -0.6092 -0.4223  0.0623
 6650SOL    HW131583   1.044   3.448  12.814  0.0522  1.3244  1.9605
 6650SOL    HW231584   0.989   3.457  12.955 -0.0711  1.5794 -1.3082
 6651SOL     OW31585   0.876   4.003   8.962  0.2007 -0.1574 -0.6771
 6651SOL    HW131586   0.855   3.916   8.997 -1.2096  0.9614  1.2374
 6651SOL    HW231587   0.956   3.980   8.915  0.9817  1.5787 -0.1925
 6652SOL     OW31588   0.150   0.192   2.380 -0.0917 -0.3344 -0.4796
 6652SOL    HW131589   0.210   0.155   2.445  0.0707 -2.2762 -1.7090
 6652SOL    HW231590   0.211   0.243   2.327  1.2113  0.0443  1.3960
 6653SOL     OW31591   4.622   2.063  15.406  0.3920 -0.2991  0.7774
 6653SOL    HW131592   4.688   1.995  15.391 -0.7075 -1.0143 -0.8597
 6653SOL    HW231593   4.642   2.129  15.340 -0.5569  0.0846  0.8810
 6654SOL     OW31594   2.259   2.483  17.715 -0.5776 -0.1811  0.2026
 6654SOL    HW131595   2.227   2.569   0.005 -0.2148  0.2234 -0.6942
 6654SOL    HW231596   2.175   2.442  17.695 -0.6721  0.3872 -0.5578
 6655SOL     OW31597   1.714   2.922   2.792 -0.1802 -0.0868  0.4825
 6655SOL    HW131598   1.767   2.995   2.823  1.3373 -0.8628 -0.2546
 6655SOL    HW231599   1.634   2.974   2.793 -1.0220 -1.4175  2.1185
 6656SOL     OW31600   1.002   3.397  13.897  0.2815 -0.4899  0.0431
 6656SOL    HW131601   0.999   3.349  13.814 -2.7639 -0.8140  0.3493
 6656SOL    HW231602   0.910   3.421  13.904  0.0084 -1.6762  0.5266
 6657SOL     OW31603   1.402   3.251   9.791 -0.3441 -0.2497 -0.1544
 6657SOL    HW131604   1.326   3.201   9.759 -1.4934 -0.0482  2.2620
 6657SOL    HW231605   1.482   3.212   9.756  0.0822 -0.1471  0.7177
 6658SOL     OW31606   1.429   2.222  17.034  0.2959  0.3799  0.2785
 6658SOL    HW131607   1.496   2.161  17.066 -0.5083 -0.0440  1.1437
 6658SOL    HW231608   1.442   2.225  16.940 -1.1033  1.4664  0.1286
 6659SOL     OW31609   3.424   3.668   3.520 -0.2873  0.7502  0.3036
 6659SOL    HW131610   3.350   3.650   3.461  1.1799  0.4292 -1.4139
 6659SOL    HW231611   3.465   3.582   3.522 -1.1224  0.3925  2.3320
 6660SOL     OW31612   0.166   2.774   8.744  0.3864 -0.8230 -0.0243
 6660SOL    HW131613   0.246   2.751   8.791 -0.4158 -0.2117  1.6393
 6660SOL    HW231614   0.100   2.734   8.801  1.4039  0.0576  1.7854
 6661SOL     OW31615   0.576   3.965   4.226 -0.5191  0.3610 -0.0023
 6661SOL    HW131616   0.508   4.026   4.197  0.2998  0.6452 -1.3436
 6661SOL    HW231617   0.650   4.023   4.242 -0.7094  0.1332  1.7088
 6662SOL     OW31618   0.973   3.163   9.550 -0.4478  0.4465 -0.3724
 6662SOL    HW131619   0.924   3.117   9.482 -1.1635  2.0148 -0.9066
 6662SOL    HW231620   1.020   3.099   9.604  1.0513  0.6807 -1.3858
 6663SOL     OW31621   3.315   1.357   9.395  0.5040  0.0709 -0.0380
 6663SOL    HW131622   3.281   1.398   9.474 -2.8962 -1.2591 -0.8080
 6663SOL    HW231623   3.365   1.433   9.364  0.0898  1.3522  2.4380
 6664SOL     OW31624   1.151   2.453   4.523  0.1056 -0.1443  0.3454
 6664SOL    HW131625   1.216   2.447   4.453 -0.7199 -1.6679 -0.2951
 6664SOL    HW231626   1.209   2.472   4.596 -0.5006  1.3155  0.4532
 6665SOL     OW31627   4.622   0.565   4.225 -0.2393 -0.1735 -0.1832
 6665SOL    HW131628   4.709   0.601   4.208 -0.3030  1.0449  2.0585
 6665SOL    HW231629   4.575   0.639   4.262 -0.5201  0.4365 -1.7718
 6666SOL     OW31630   3.675   2.383  10.236  0.2846 -0.3388  0.2007
 6666SOL    HW131631   3.583   2.390  10.211  0.6792  0.5108 -1.0214
 6666SOL    HW231632   3.703   2.473  10.217  0.2767 -0.0975  1.3506
 6667SOL     OW31633   4.631   1.748  12.033 -0.2015 -0.5501  0.1392
 6667SOL    HW131634   4.687   1.778  12.105 -0.1238 -0.1864 -0.0741
 6667SOL    HW231635   4.685   1.694  11.975 -0.8169  0.4868 -1.3810
 6668SOL     OW31636   1.818   3.308   2.790  0.2619 -0.2070 -0.5847
 6668SOL    HW131637   1.832   3.397   2.823 -3.5979  1.0550 -2.4240
 6668SOL    HW231638   1.749   3.284   2.851 -0.3748  2.9131 -0.0947
 6669SOL     OW31639   3.272   3.071   7.263 -0.0193 -0.4786  0.8772
 6669SOL    HW131640   3.356   3.040   7.298 -0.7902 -0.9378  2.3104
 6669SOL    HW231641   3.222   2.991   7.275 -0.1246 -0.5122  0.2105
 6670SOL     OW31642   2.839   2.652   9.486 -0.0727  0.0249 -0.0824
 6670SOL    HW131643   2.834   2.560   9.512 -3.3045 -0.0760 -1.0599
 6670SOL    HW231644   2.787   2.698   9.552 -1.3012 -3.3883  1.2973
 6671SOL     OW31645   1.744   2.183   7.164  0.0182  0.3734 -0.4437
 6671SOL    HW131646   1.708   2.126   7.232  0.5519  1.6762  0.9436
 6671SOL    HW231647   1.815   2.127   7.135 -0.4968  0.4266 -1.7782
 6672SOL     OW31648   4.282   0.894  13.238 -0.2215 -0.0407  0.2590
 6672SOL    HW131649   4.307   0.818  13.290 -0.4376  1.3520  2.4274
 6672SOL    HW231650   4.187   0.899  13.246 -0.2659 -0.5749 -0.0033
 6673SOL     OW31651   1.698   2.050   7.403 -0.0660  0.0904  0.5572
 6673SOL    HW131652   1.736   2.125   7.448  0.5368  0.0728  0.0818
 6673SOL    HW231653   1.779   1.999   7.404 -0.9720 -1.3648 -0.1774
 6674SOL     OW31654   4.299   4.042   7.479  0.3091  0.3022 -0.1967
 6674SOL    HW131655   4.293   3.976   7.409 -2.0902 -0.9603  1.1999
 6674SOL    HW231656   4.360   3.996   7.538  1.3869 -1.0898 -2.3936
 6675SOL     OW31657   2.440   0.381   8.980 -0.3378  0.3166  0.3005
 6675SOL    HW131658   2.516   0.438   8.988 -0.1953  0.2241 -0.4582
 6675SOL    HW231659   2.428   0.377   9.075  0.3342  2.4155  0.4697
 6676SOL     OW31660   2.932   1.265   5.814  0.1330 -0.7092  0.2333
 6676SOL    HW131661   2.877   1.188   5.830  1.0847 -1.0291  1.8899
 6676SOL    HW231662   3.021   1.231   5.814  0.1504 -0.6667 -0.3953
 6677SOL     OW31663   4.381   3.806   8.564  0.0822  0.5553  0.3683
 6677SOL    HW131664   4.307   3.773   8.615 -0.3748 -1.1855 -1.4601
 6677SOL    HW231665   4.391   3.887   8.614  0.1577 -0.6738  2.3394
 6678SOL     OW31666   1.736   0.798  17.191 -0.3993  0.0190  0.2758
 6678SOL    HW131667   1.701   0.796  17.102 -1.0629  0.5883  0.5249
 6678SOL    HW231668   1.760   0.890  17.186 -1.1383  0.3264  2.4381
 6679SOL     OW31669   1.610   1.919  11.676 -0.5825  0.0792 -0.2703
 6679SOL    HW131670   1.689   1.919  11.729 -1.1124 -0.0532  0.5111
 6679SOL    HW231671   1.652   1.948  11.595  0.8789 -0.0814  0.4344
 6680SOL     OW31672   1.850   4.654  15.979  0.2121 -0.3229 -0.0167
 6680SOL    HW131673   1.885   4.636  15.892  0.0683 -0.1213 -0.1168
 6680SOL    HW231674   1.937   4.654  16.020  0.7659 -1.3136 -1.1858
 6681SOL     OW31675   2.425   3.944   3.041  0.1419  0.2678 -0.0565
 6681SOL    HW131676   2.447   3.885   3.114 -0.7723 -2.3355 -1.8752
 6681SOL    HW231677   2.486   4.018   3.047  0.3971  0.0554 -0.0358
 6682SOL     OW31678   1.103   1.482   5.175 -0.4646 -0.2278  0.1945
 6682SOL    HW131679   1.154   1.436   5.241 -0.6132  0.1205  0.5496
 6682SOL    HW231680   1.056   1.416   5.123 -1.6901 -0.0801  1.1168
 6683SOL     OW31681   4.033   0.435   9.224  0.3105  0.3764  0.7531
 6683SOL    HW131682   4.090   0.358   9.213 -0.1598  0.4362 -1.9749
 6683SOL    HW231683   4.018   0.439   9.130 -2.4740 -0.9802  1.1347
 6684SOL     OW31684   1.855   1.312   1.771 -0.2774  0.0972  0.4251
 6684SOL    HW131685   1.767   1.333   1.803 -1.3488 -2.7919 -0.6014
 6684SOL    HW231686   1.876   1.394   1.727 -0.2523 -0.3903 -0.4649
 6685SOL     OW31687   2.037   1.022   4.327 -0.0190 -0.8394  0.2423
 6685SOL    HW131688   1.994   0.951   4.278 -2.2382  0.6010  0.0905
 6685SOL    HW231689   2.083   1.055   4.251  0.4058 -1.6108  0.1622
 6686SOL     OW31690   1.608   1.324   7.770 -0.2696  0.0077 -1.0748
 6686SOL    HW131691   1.520   1.285   7.767  1.0545 -2.8487 -2.5005
 6686SOL    HW231692   1.587   1.407   7.727 -0.8909  0.5604  0.2985
 6687SOL     OW31693   1.592   4.667   5.212 -0.0245  0.0349 -0.3950
 6687SOL    HW131694   1.596   0.006   5.274  0.5082 -0.0445 -0.3351
 6687SOL    HW231695   1.535   4.692   5.138  0.1795 -1.0892 -0.9281
 6688SOL     OW31696   4.360   3.798  17.278  0.9575 -0.2059 -0.5922
 6688SOL    HW131697   4.343   3.890  17.258 -0.8402 -0.6644 -1.1213
 6688SOL    HW231698   4.308   3.754  17.211  0.0674 -1.0417  0.6528
 6689SOL     OW31699   1.996   2.174   6.100  0.0117  0.5707 -0.1146
 6689SOL    HW131700   2.077   2.220   6.078 -0.3123  1.7512  1.1497
 6689SOL    HW231701   1.937   2.249   6.106 -0.7903  0.2013 -3.3097
 6690SOL     OW31702   2.502   4.150   4.921  0.2363 -0.2223 -0.2735
 6690SOL    HW131703   2.434   4.215   4.935  1.1964  0.5003  1.0602
 6690SOL    HW231704   2.566   4.158   4.992 -0.6319 -1.0695  0.6067
 6691SOL     OW31705   0.414   0.275  14.104  0.5178  0.1314  0.2820
 6691SOL    HW131706   0.356   0.212  14.061 -1.4634  2.5693 -0.6902
 6691SOL    HW231707   0.396   0.354  14.051  0.3170  0.7143  1.2183
 6692SOL     OW31708   2.486   1.088   3.590 -0.3347  0.4373 -0.1349
 6692SOL    HW131709   2.481   1.039   3.672 -0.3885  1.4084  0.4392
 6692SOL    HW231710   2.427   1.044   3.528 -1.0466 -0.8111  1.4165
 6693SOL     OW31711   0.891   4.272   0.665  0.2301  0.2413 -0.2525
 6693SOL    HW131712   0.879   4.186   0.623 -4.1927  1.7524 -2.0749
 6693SOL    HW231713   0.862   4.332   0.596 -1.4539  0.9067  1.0443
 6694SOL     OW31714   0.567   0.874   2.992  0.3572  0.4326 -0.2636
 6694SOL    HW131715   0.626   0.932   3.041  2.5976 -3.4932  1.7396
 6694SOL    HW231716   0.486   0.880   3.043  0.3730 -0.7802 -0.1016
 6695SOL     OW31717   4.229   2.895   3.650 -0.0281  0.6692 -0.4822
 6695SOL    HW131718   4.209   2.873   3.559 -0.6334  1.3381 -0.5116
 6695SOL    HW231719   4.321   2.920   3.662 -0.4977  1.5494  1.1830
 6696SOL     OW31720   2.311   1.071   7.485 -0.1697 -0.0236 -0.5232
 6696SOL    HW131721   2.295   1.117   7.403  0.6165  1.4730  0.1649
 6696SOL    HW231722   2.313   1.144   7.547  0.3968 -1.1693  0.8023
 6697SOL     OW31723   1.135   3.967   9.812  0.2175 -0.1710 -0.5622
 6697SOL    HW131724   1.204   3.902   9.820 -0.0509 -0.3995 -0.1210
 6697SOL    HW231725   1.187   4.048   9.808 -1.6671  1.0019 -1.0293
 6698SOL     OW31726   3.132   3.549  16.756 -0.2124 -0.3176 -0.2064
 6698SOL    HW131727   3.109   3.640  16.738 -0.5778 -0.2284  0.7058
 6698SOL    HW231728   3.101   3.541  16.846 -0.1072  0.6834 -0.0878
 6699SOL     OW31729   3.596   3.528   1.001  0.3209  0.0766  0.4209
 6699SOL    HW131730   3.668   3.472   0.970 -1.3875 -2.4570  1.0112
 6699SOL    HW231731   3.625   3.615   0.974 -1.8781  0.3065 -1.2613
 6700SOL     OW31732   4.395   3.371   5.857  0.0393 -0.3158 -0.4237
 6700SOL    HW131733   4.316   3.340   5.813 -0.0495 -1.8471  0.7968
 6700SOL    HW231734   4.400   3.464   5.836 -0.3886  0.2610  1.9517
 6701SOL     OW31735   4.100   1.355   1.644  0.7582  0.3257  0.5727
 6701SOL    HW131736   4.109   1.424   1.709 -1.1978 -0.2430  1.4316
 6701SOL    HW231737   4.190   1.353   1.611  0.3686  1.1383 -0.5393
 6702SOL     OW31738   1.111   2.157   9.021  0.2649 -0.4826 -0.0514
 6702SOL    HW131739   1.070   2.073   9.043 -0.8602  0.3414  0.9950
 6702SOL    HW231740   1.150   2.130   8.938  0.0168 -2.1403  0.3649
 6703SOL     OW31741   0.557   0.037   4.588  0.2839 -0.0896  0.3480
 6703SOL    HW131742   0.649   0.049   4.612 -0.8272  1.5618  3.6961
 6703SOL    HW231743   0.523   4.698   4.640 -0.3667 -0.8143 -1.0870
 6704SOL     OW31744   2.862   0.316   4.635  0.1267 -0.3717  0.0513
 6704SOL    HW131745   2.957   0.329   4.643  0.4111 -2.2158 -0.3954
 6704SOL    HW231746   2.854   0.299   4.542 -2.2549  2.4943 -0.2678
 6705SOL     OW31747   2.516   4.177  15.332 -0.2114 -0.6237  0.1559
 6705SOL    HW131748   2.581   4.247  15.341  0.1870 -1.4280  3.4859
 6705SOL    HW231749   2.439   4.225  15.361 -1.1079 -1.6691 -0.4902
 6706SOL     OW31750   3.858   0.815   5.573 -0.1929 -0.6696 -0.2001
 6706SOL    HW131751   3.810   0.735   5.593  1.3239 -1.6347 -0.4150
 6706SOL    HW231752   3.930   0.815   5.635  0.1673  1.3572 -0.6096
 6707SOL     OW31753   4.002   2.928   3.763 -0.1038 -0.3722  0.4844
 6707SOL    HW131754   4.084   2.909   3.716  0.7151 -0.1672  1.8258
 6707SOL    HW231755   3.947   2.856   3.732  0.6810 -1.4409  1.5693
 6708SOL     OW31756   1.463   0.807  12.796 -0.3080  0.7073 -0.0558
 6708SOL    HW131757   1.495   0.726  12.755 -3.1670 -0.6786  0.4739
 6708SOL    HW231758   1.367   0.800  12.789 -0.3150  0.4341  0.3567
 6709SOL     OW31759   4.579   1.614   3.697 -0.1270 -0.1443 -0.1466
 6709SOL    HW131760   4.623   1.630   3.780 -0.0523  1.0948 -0.4297
 6709SOL    HW231761   4.654   1.598   3.640 -1.9214 -1.1183 -2.2556
 6710SOL     OW31762   1.422   1.377   4.502 -0.0516 -0.5075 -0.0726
 6710SOL    HW131763   1.385   1.419   4.424 -1.8276  1.0420  1.6117
 6710SOL    HW231764   1.509   1.417   4.504  0.0249 -0.6686 -0.1671
 6711SOL     OW31765   0.953   1.426   6.397  0.0100 -0.4252  0.1767
 6711SOL    HW131766   1.047   1.431   6.382  0.3386 -0.7649  2.0823
 6711SOL    HW231767   0.922   1.428   6.307 -0.8475 -1.0035  0.4552
 6712SOL     OW31768   1.174   1.566   7.151  0.0968 -0.1971  0.2235
 6712SOL    HW131769   1.229   1.641   7.128 -1.4642  0.7555 -0.3829
 6712SOL    HW231770   1.224   1.491   7.118 -0.6963 -0.1633 -1.0800
 6713SOL     OW31771   4.690   0.571   4.600 -0.6771 -0.3482  0.0479
 6713SOL    HW131772   0.032   0.517   4.582  0.7813  0.8451  2.6080
 6713SOL    HW231773   4.640   0.517   4.662  0.5801 -1.3642  0.1852
 6714SOL     OW31774   1.638   2.593  13.633  0.2300 -1.1118 -0.0229
 6714SOL    HW131775   1.558   2.635  13.602  1.0670  0.1934 -0.4139
 6714SOL    HW231776   1.690   2.673  13.643  1.7101 -2.5198  3.5889
 6715SOL     OW31777   3.305   3.478   1.259  0.4697  0.3531  0.0335
 6715SOL    HW131778   3.233   3.484   1.196 -0.9395 -2.9137  1.3530
 6715SOL    HW231779   3.304   3.564   1.302  2.8790  1.9549 -3.1207
 6716SOL     OW31780   2.055   4.049  16.840  0.7300  0.2116  0.4119
 6716SOL    HW131781   2.030   4.094  16.759  0.3348 -2.1410 -0.7667
 6716SOL    HW231782   2.076   3.961  16.808 -0.0884  0.3596 -0.5336
 6717SOL     OW31783   1.592   3.992   7.690 -0.2201  0.0897  0.3977
 6717SOL    HW131784   1.684   3.972   7.709  0.0488  0.5342 -0.4150
 6717SOL    HW231785   1.579   4.082   7.721 -1.4579 -0.3346  1.0850
 6718SOL     OW31786   2.364   0.559   5.812  0.3269 -0.1053  0.2211
 6718SOL    HW131787   2.395   0.475   5.779  0.1398 -0.2342  0.3763
 6718SOL    HW231788   2.274   0.530   5.830  0.9030 -1.8885  0.2375
 6719SOL     OW31789   2.073   3.580   5.766  0.6503  0.2908 -0.1667
 6719SOL    HW131790   2.040   3.605   5.852  1.2994  0.2322  0.1056
 6719SOL    HW231791   1.996   3.570   5.710 -0.1536  0.0543  0.9926
 6720SOL     OW31792   1.737   1.865   3.473  0.7028 -0.1174  0.0322
 6720SOL    HW131793   1.797   1.939   3.484  1.6904 -0.7446 -1.1692
 6720SOL    HW231794   1.718   1.837   3.562 -0.6700  0.8035  0.0249
 6721SOL     OW31795   1.958   2.728   6.131 -0.0375  0.4127 -0.1672
 6721SOL    HW131796   1.871   2.720   6.093 -0.2454 -1.2923  0.6830
 6721SOL    HW231797   1.981   2.638   6.153 -0.6504 -0.1733 -1.9463
 6722SOL     OW31798   0.827   3.540   2.015 -0.7975  0.3709  0.1468
 6722SOL    HW131799   0.790   3.466   2.064 -0.3473  0.6443  0.8962
 6722SOL    HW231800   0.747   3.591   2.003  0.1320  2.1761  1.7702
 6723SOL     OW31801   2.062   1.055   2.842 -0.3707  0.1113  0.2082
 6723SOL    HW131802   2.025   1.050   2.930  1.3481 -1.6461  0.8214
 6723SOL    HW231803   2.141   1.001   2.837 -0.4432 -0.1819  2.3198
 6724SOL     OW31804   0.390   3.343   9.316  0.2235  0.3899  0.5344
 6724SOL    HW131805   0.458   3.389   9.267 -1.4851  0.9107 -1.3332
 6724SOL    HW231806   0.425   3.348   9.405 -0.3555  0.3728  0.7592
 6725SOL     OW31807   4.069   2.226   0.759  0.0950  0.8910  0.7091
 6725SOL    HW131808   4.130   2.298   0.771  0.9797  0.5812 -2.0919
 6725SOL    HW231809   4.086   2.172   0.837  2.7607  0.9634  0.1713
 6726SOL     OW31810   2.558   2.495   4.606  0.4128 -0.0372 -0.4915
 6726SOL    HW131811   2.634   2.474   4.552  0.3370  0.8244 -0.9209
 6726SOL    HW231812   2.602   2.528   4.685  0.8990  0.1591 -0.8472
 6727SOL     OW31813   1.596   1.156  17.706 -0.0097 -0.0572  0.3774
 6727SOL    HW131814   1.509   1.131  17.676 -1.0032  1.3153  2.1510
 6727SOL    HW231815   1.565   1.210   0.043  1.7285  0.3176  0.8381
 6728SOL     OW31816   3.333   4.651   5.975  0.5131 -0.5118 -0.7198
 6728SOL    HW131817   3.380   0.000   5.976  3.2041 -2.0297  1.2646
 6728SOL    HW231818   3.332   4.619   6.065  0.9053  0.2278 -0.4559
 6729SOL     OW31819   2.208   2.653   6.748 -0.2997 -0.3288 -0.1812
 6729SOL    HW131820   2.293   2.677   6.783 -0.2610 -2.3419  1.0813
 6729SOL    HW231821   2.193   2.559   6.749  1.9438 -0.7420 -3.5769
 6730SOL     OW31822   2.902   3.829   3.912 -0.1459 -0.5617  0.4978
 6730SOL    HW131823   2.929   3.738   3.901 -1.1707 -0.7708 -0.3436
 6730SOL    HW231824   2.973   3.873   3.866 -1.5070  0.2117 -0.8440
 6731SOL     OW31825   3.917   0.526   1.258 -0.3739  0.2307 -0.2336
 6731SOL    HW131826   3.860   0.452   1.237 -0.6996  0.2687  0.5059
 6731SOL    HW231827   3.905   0.573   1.176 -0.0233  0.8464  0.0702
 6732SOL     OW31828   3.203   2.899   5.609  0.8334  0.0257  0.1690
 6732SOL    HW131829   3.269   2.866   5.548  0.7929 -1.6841  1.0422
 6732SOL    HW231830   3.261   2.968   5.642 -0.5429  0.3538  1.9002
 6733SOL     OW31831   1.810   4.086   4.337 -0.1312  0.5604 -0.5973
 6733SOL    HW131832   1.877   4.061   4.274 -0.3614 -1.1019 -0.1907
 6733SOL    HW231833   1.731   4.086   4.282 -0.8658  0.5491  0.4580
 6734SOL     OW31834   3.867   3.350   6.488 -0.2121 -0.7175  0.3775
 6734SOL    HW131835   3.787   3.340   6.540 -1.7055  1.0691 -1.5760
 6734SOL    HW231836   3.932   3.348   6.558  0.9691  0.7374 -0.6825
 6735SOL     OW31837   3.230   3.913  12.580 -0.0475  0.1160  0.3878
 6735SOL    HW131838   3.227   3.999  12.538  1.9564  0.7861  1.6276
 6735SOL    HW231839   3.259   3.932  12.669  1.0434  1.4689 -0.2528
 6736SOL     OW31840   3.541   3.138   2.575  0.8397  0.1624  0.0513
 6736SOL    HW131841   3.509   3.048   2.572 -0.9352  0.8373 -1.2011
 6736SOL    HW231842   3.523   3.163   2.484 -1.6733  0.2852  0.5765
 6737SOL     OW31843   0.433   1.310  17.363  0.1703 -0.6645 -0.1099
 6737SOL    HW131844   0.405   1.385  17.311  2.8223  0.1026 -0.4092
 6737SOL    HW231845   0.461   1.352  17.445 -0.3738 -0.8407  0.1704
 6738SOL     OW31846   0.115   2.698   6.566 -0.2122  0.1080 -0.0947
 6738SOL    HW131847   0.042   2.728   6.512 -0.7493  0.4530  0.8391
 6738SOL    HW231848   0.084   2.721   6.653  1.3166 -1.3690  0.8491
 6739SOL     OW31849   4.357   2.122   3.698 -0.0230  0.8450 -0.5047
 6739SOL    HW131850   4.448   2.093   3.696 -0.3194 -0.1419  0.2021
 6739SOL    HW231851   4.324   2.126   3.788 -0.6463  0.4067 -0.7131
 6740SOL     OW31852   3.445   1.933   4.344 -0.0043 -0.0473  0.0874
 6740SOL    HW131853   3.406   1.987   4.413 -2.0184  1.4183 -2.1862
 6740SOL    HW231854   3.530   1.921   4.386  0.4568  0.3649 -0.7378
 6741SOL     OW31855   2.207   2.178   2.784 -0.1163  0.2082  0.1690
 6741SOL    HW131856   2.273   2.202   2.849  1.4967 -2.0726 -0.6449
 6741SOL    HW231857   2.126   2.198   2.831 -0.5452 -0.0197 -0.4701
 6742SOL     OW31858   4.607   1.034  14.913 -0.1512 -0.5682  0.2208
 6742SOL    HW131859   4.519   1.069  14.926  0.8892  2.0480  0.1402
 6742SOL    HW231860   4.607   0.991  14.827  2.3495  0.9808 -0.5667
 6743SOL     OW31861   4.057   1.954   7.058 -0.7438  0.2318 -0.2441
 6743SOL    HW131862   4.062   1.870   7.104  0.2495  0.4211  0.0015
 6743SOL    HW231863   3.973   1.935   7.017 -0.7458  0.6779 -0.4519
 6744SOL     OW31864   3.967   1.186  11.019  0.2521  0.8280  0.7142
 6744SOL    HW131865   3.995   1.239  10.945  1.0382  0.5061  0.7705
 6744SOL    HW231866   4.045   1.137  11.048  1.1021  0.4244 -2.2873
 6745SOL     OW31867   3.972   3.814   4.261 -0.4941 -0.2351 -0.0908
 6745SOL    HW131868   3.966   3.719   4.249  1.0365 -0.3214 -0.1557
 6745SOL    HW231869   4.030   3.823   4.336 -3.2351 -1.2993  2.1527
 6746SOL     OW31870   3.319   2.095   1.362  0.5589  0.2135  0.0781
 6746SOL    HW131871   3.257   2.166   1.373  1.6078  1.0425  0.6072
 6746SOL    HW231872   3.368   2.094   1.444 -0.6150 -1.2253  0.7725
 6747SOL     OW31873   3.000   3.874   8.494  0.4655  0.2099 -0.8280
 6747SOL    HW131874   3.009   3.924   8.413  0.3402  1.0462 -0.3278
 6747SOL    HW231875   3.072   3.913   8.543 -3.2494  3.6659  1.8938
 6748SOL     OW31876   2.703   1.728  17.104  0.0113  0.2030 -0.4922
 6748SOL    HW131877   2.639   1.726  17.175  1.0755  3.0140  0.5641
 6748SOL    HW231878   2.715   1.634  17.090  0.8510  0.2639 -0.1901
 6749SOL     OW31879   2.559   2.193  11.135  0.4900  0.4176 -0.0457
 6749SOL    HW131880   2.651   2.171  11.128 -0.3685 -3.4077  0.5747
 6749SOL    HW231881   2.514   2.109  11.129 -2.3297  1.8073  1.1594
 6750SOL     OW31882   0.900   3.715  13.772 -0.6282  0.0099 -0.1062
 6750SOL    HW131883   0.869   3.638  13.821  0.9631  0.6273  1.8613
 6750SOL    HW231884   0.944   3.753  13.848 -0.5784  0.0775 -0.1703
 6751SOL     OW31885   4.013   4.120   8.754 -0.0596 -0.1249  0.4736
 6751SOL    HW131886   4.094   4.142   8.708  0.3630 -0.5775  1.0037
 6751SOL    HW231887   3.949   4.123   8.683  0.0025  0.3017  0.4343
 6752SOL     OW31888   0.239   0.834   3.141 -0.3343 -0.3499 -0.6911
 6752SOL    HW131889   0.153   0.850   3.181  0.4324 -0.4362  0.9819
 6752SOL    HW231890   0.282   0.769   3.195  0.7963  1.9195  1.1264
 6753SOL     OW31891   4.071   0.746   5.763  0.0558 -0.0478 -0.2070
 6753SOL    HW131892   4.137   0.709   5.822  1.0080 -0.3739 -1.4779
 6753SOL    HW231893   4.045   0.823   5.813 -1.8727 -0.2689 -0.8822
 6754SOL     OW31894   1.660   0.771  12.993 -0.3775  0.4224 -0.1585
 6754SOL    HW131895   1.657   0.694  12.936  0.9616  0.1525  0.1206
 6754SOL    HW231896   1.568   0.791  12.979 -1.5556 -2.5579  3.5012
 6755SOL     OW31897   3.894   4.635   6.652 -0.2401 -0.2620 -0.6098
 6755SOL    HW131898   3.835   4.634   6.727 -0.8440  2.6385 -1.0424
 6755SOL    HW231899   3.957   4.567   6.673 -0.3095 -1.2580 -3.5860
 6756SOL     OW31900   3.978   3.713  12.716 -0.0375 -0.1611 -0.1552
 6756SOL    HW131901   4.050   3.765  12.751  0.1097 -1.1236  0.9866
 6756SOL    HW231902   3.902   3.771  12.717 -0.2745 -0.4576 -0.8427
 6757SOL     OW31903   2.342   2.184  13.146  0.3952 -0.0198 -0.1374
 6757SOL    HW131904   2.296   2.157  13.225  0.0372 -2.0854 -1.0492
 6757SOL    HW231905   2.404   2.112  13.138  1.5289  0.7853  1.4621
 6758SOL     OW31906   3.109   3.550   1.058 -0.2854  0.4108 -1.4516
 6758SOL    HW131907   3.187   3.592   1.022  1.8525 -2.0070  0.3738
 6758SOL    HW231908   3.049   3.624   1.060 -0.7784  0.0082 -1.3581
 6759SOL     OW31909   2.555   2.752   0.213  0.0264  0.4209  0.4810
 6759SOL    HW131910   2.575   2.688   0.281 -1.5541 -0.3298  0.2244
 6759SOL    HW231911   2.639   2.794   0.193 -0.9998  1.7686 -1.0151
 6760SOL     OW31912   3.928   1.473   2.542 -0.5649  0.3617  0.1416
 6760SOL    HW131913   3.863   1.437   2.603  2.0211 -0.0521  2.6408
 6760SOL    HW231914   4.007   1.424   2.565 -0.4378  0.4135 -0.1932
 6761SOL     OW31915   1.927   3.114   9.190  0.1162  0.0199 -0.0592
 6761SOL    HW131916   1.864   3.182   9.167  0.4607 -0.0798 -1.3028
 6761SOL    HW231917   2.001   3.128   9.130  0.8877  2.0504  1.3609
 6762SOL     OW31918   3.757   2.594  16.357 -0.8753 -0.0155  0.4119
 6762SOL    HW131919   3.737   2.523  16.418  2.1450 -1.3845 -0.1998
 6762SOL    HW231920   3.711   2.571  16.277 -2.0317  0.0983  1.0500
 6763SOL     OW31921   2.152   1.820   4.799  0.6697 -0.4388  0.5087
 6763SOL    HW131922   2.085   1.883   4.827  0.5577  0.2544 -1.3137
 6763SOL    HW231923   2.220   1.887   4.791 -0.4458  0.5371 -0.8127
 6764SOL     OW31924   0.982   3.010  16.971  0.2759  0.1528  0.4266
 6764SOL    HW131925   1.007   3.102  16.984  0.1075  0.1823  0.5369
 6764SOL    HW231926   0.923   2.982  17.041  1.8863 -1.6664  1.0592
 6765SOL     OW31927   2.661   0.729   2.924  0.0231  0.0688  0.9667
 6765SOL    HW131928   2.744   0.727   2.973  0.1602  0.7101  0.7659
 6765SOL    HW231929   2.672   0.637   2.899  1.7957  0.0113  1.9006
 6766SOL     OW31930   0.014   4.181   7.019  0.0878 -0.3019 -0.0259
 6766SOL    HW131931   4.681   4.243   6.991 -0.1335 -0.9059 -0.8084
 6766SOL    HW231932   4.699   4.124   7.078  1.1656 -0.5922  0.6093
 6767SOL     OW31933   3.487   0.402  10.829 -0.4082 -0.0446 -0.1913
 6767SOL    HW131934   3.494   0.307  10.817  0.9432  0.4124 -3.0105
 6767SOL    HW231935   3.581   0.421  10.820 -0.7950  1.6677 -0.5319
 6768SOL     OW31936   3.749   3.495  10.223  0.6918 -0.0008 -0.2629
 6768SOL    HW131937   3.685   3.445  10.275  0.0101  1.2752  0.1344
 6768SOL    HW231938   3.709   3.498  10.137 -2.4978  1.1362  1.2611
 6769SOL     OW31939   1.465   0.263   6.277  0.0296  0.1119  0.1000
 6769SOL    HW131940   1.441   0.226   6.192  2.4438  1.2158 -1.0714
 6769SOL    HW231941   1.474   0.354   6.249 -1.9918 -0.2145 -1.5829
 6770SOL     OW31942   3.640   0.211   5.101  0.1560  0.3704  0.3931
 6770SOL    HW131943   3.729   0.209   5.067 -1.0376  1.8073 -2.8675
 6770SOL    HW231944   3.602   0.280   5.047  0.8076  1.3689  1.2115
 6771SOL     OW31945   4.260   2.004  16.688 -0.1166  0.0230  0.0864
 6771SOL    HW131946   4.310   1.933  16.728  3.0239  0.7214 -2.5721
 6771SOL    HW231947   4.336   2.041  16.644 -1.3660  1.7292 -0.6281
 6772SOL     OW31948   0.732   4.722   0.016  0.4424 -0.4195  0.1159
 6772SOL    HW131949   0.730   4.687   0.106 -0.5735 -0.0482  0.2350
 6772SOL    HW231950   0.659   0.049   0.021  0.6462  0.0277 -2.7544
 6773SOL     OW31951   0.635   3.728   6.341  0.1035  0.2493  0.2450
 6773SOL    HW131952   0.653   3.685   6.257 -1.3810 -0.9571  0.5390
 6773SOL    HW231953   0.587   3.662   6.391  0.0826  0.6147  0.6983
 6774SOL     OW31954   0.838   1.963   7.554  0.0231  0.2332 -0.1208
 6774SOL    HW131955   0.871   1.979   7.643 -0.7365 -0.3948  0.2775
 6774SOL    HW231956   0.823   2.052   7.522  1.8368  0.0383 -1.4487
 6775SOL     OW31957   0.239   3.628   5.967  0.0195 -0.2213  0.5051
 6775SOL    HW131958   0.159   3.663   6.008  0.0004 -0.1827  0.4346
 6775SOL    HW231959   0.243   3.697   5.901 -0.9958  0.3505  1.0324
 6776SOL     OW31960   4.146   3.464   8.289  0.6563 -0.2395  0.1366
 6776SOL    HW131961   4.211   3.476   8.359 -0.9110 -0.8334  1.6841
 6776SOL    HW231962   4.182   3.511   8.214 -0.6585 -0.2065 -0.4651
 6777SOL     OW31963   3.941   1.365   6.811 -0.0777  0.9310 -0.5574
 6777SOL    HW131964   3.929   1.436   6.748  2.3491 -0.2681 -2.3719
 6777SOL    HW231965   4.031   1.336   6.795  0.5160  2.0972  0.6251
 6778SOL     OW31966   1.629   1.408   1.878  0.0175  0.4549 -0.0232
 6778SOL    HW131967   1.605   1.325   1.917  0.0683  0.1726 -0.5920
 6778SOL    HW231968   1.545   1.453   1.885  0.3697  1.1864 -0.4207
 6779SOL     OW31969   0.083   0.104   6.793 -0.4418  0.3855 -0.0978
 6779SOL    HW131970   0.158   0.065   6.748 -0.3049 -0.3661  0.7793
 6779SOL    HW231971   0.129   0.168   6.847 -0.1897  0.5828 -0.5477
 6780SOL     OW31972   0.504   4.584   3.396 -0.1461 -0.2581 -0.3017
 6780SOL    HW131973   0.426   4.577   3.452 -0.7046  0.1906 -1.0242
 6780SOL    HW231974   0.541   4.669   3.417 -0.3190 -0.1531 -0.4190
 6781SOL     OW31975   2.171   1.307  11.460 -0.2535  0.3968  0.2808
 6781SOL    HW131976   2.163   1.385  11.515  0.5595 -0.0310  0.9933
 6781SOL    HW231977   2.090   1.303  11.408 -0.2311  0.3592  0.2489
 6782SOL     OW31978   3.176   3.232   6.142  0.3581  0.1196 -0.2624
 6782SOL    HW131979   3.267   3.261   6.148  0.3774  0.6091 -3.3216
 6782SOL    HW231980   3.152   3.252   6.052 -0.2917  1.1119  0.1396
 6783SOL     OW31981   2.150   3.802   6.417 -0.2905 -0.0270  0.0347
 6783SOL    HW131982   2.119   3.843   6.336 -1.4350 -1.7231 -0.3887
 6783SOL    HW231983   2.156   3.879   6.474 -1.0428  0.3022 -0.3309
 6784SOL     OW31984   4.498   0.990   4.399 -0.5698  0.4142  0.0343
 6784SOL    HW131985   4.579   0.950   4.431  0.2673  0.7516 -1.6795
 6784SOL    HW231986   4.525   1.082   4.391 -1.1574  0.4017 -2.0349
 6785SOL     OW31987   3.648   0.675  16.446 -0.1200 -0.2765  0.1997
 6785SOL    HW131988   3.586   0.611  16.411  0.5732 -0.1297 -1.3176
 6785SOL    HW231989   3.634   0.751  16.390  1.9866 -0.9099 -1.1784
 6786SOL     OW31990   4.308   4.422   7.749 -0.1818  0.4226 -0.3869
 6786SOL    HW131991   4.282   4.453   7.663  2.0509  1.2994 -0.7401
 6786SOL    HW231992   4.396   4.458   7.761 -0.1038  1.0585 -2.8637
 6787SOL     OW31993   0.678   3.218   9.638 -0.7545 -0.0661 -0.3141
 6787SOL    HW131994   0.674   3.122   9.644  0.3103 -0.0107  1.6084
 6787SOL    HW231995   0.773   3.228   9.626 -0.7611  0.3135 -0.0603
 6788SOL     OW31996   2.216   1.363   6.738 -0.2960  0.0136  0.1067
 6788SOL    HW131997   2.196   1.412   6.818  1.1450  1.1007 -0.2044
 6788SOL    HW231998   2.126   1.354   6.707 -0.4536  1.3470  0.1618
 6789SOL     OW31999   4.025   3.522   4.694  0.3304  0.6685 -0.2348
 6789SOL    HW132000   4.040   3.577   4.617  3.8775  1.0057  0.7028
 6789SOL    HW232001   4.106   3.521   4.745 -0.6492  2.4451  1.3805
 6790SOL     OW32002   4.152   4.004   1.888 -0.2376 -0.1922  0.1225
 6790SOL    HW132003   4.077   4.023   1.945  0.4430  4.3033 -0.4998
 6790SOL    HW232004   4.122   4.032   1.801  0.2446 -0.2477 -0.0612
 6791SOL     OW32005   1.269   4.153   6.044 -0.4892 -1.0327  0.0948
 6791SOL    HW132006   1.260   4.099   5.965 -0.0624 -1.0811  0.0796
 6791SOL    HW232007   1.357   4.129   6.073 -1.2607 -2.0163  1.6470
 6792SOL     OW32008   0.515   3.281   8.862 -0.2553 -0.6655  0.2369
 6792SOL    HW132009   0.486   3.319   8.779 -1.0846 -0.0122  0.8261
 6792SOL    HW232010   0.470   3.197   8.863 -2.0326  0.3137  1.7546
 6793SOL     OW32011   0.360   1.737  10.777 -0.1422 -0.0680 -0.4460
 6793SOL    HW132012   0.342   1.655  10.822  0.4035 -0.4168 -0.8693
 6793SOL    HW232013   0.328   1.729  10.687  0.1739  2.5664 -0.8065
 6794SOL     OW32014   4.224   1.199   2.946 -0.3923  0.8899 -0.4025
 6794SOL    HW132015   4.235   1.185   2.852  0.9883 -0.9510  0.0182
 6794SOL    HW232016   4.261   1.286   2.958  0.7812  0.1525  1.4574
 6795SOL     OW32017   3.679   0.525  14.092  0.1621 -0.2058 -0.0047
 6795SOL    HW132018   3.610   0.460  14.093  0.4672 -0.5185  1.4838
 6795SOL    HW232019   3.711   0.542  14.003 -3.7859  1.3422 -1.1211
 6796SOL     OW32020   2.158   2.974   2.804 -0.1975  0.2007 -0.1009
 6796SOL    HW132021   2.242   3.008   2.772 -0.4102 -0.7673 -1.6484
 6796SOL    HW232022   2.137   2.907   2.739 -0.5051 -0.2278  0.4370
 6797SOL     OW32023   3.071   0.225  13.572  0.0048  0.0579  0.2032
 6797SOL    HW132024   3.073   0.148  13.516  0.1857 -0.2403  0.6189
 6797SOL    HW232025   2.992   0.270  13.541  1.1659  0.8731 -1.5175
 6798SOL     OW32026   0.785   2.272  17.158 -0.1063 -0.2207 -0.1459
 6798SOL    HW132027   0.728   2.250  17.084 -0.7381 -0.9279  0.5546
 6798SOL    HW232028   0.815   2.362  17.143 -1.4036  0.1290 -0.6409
 6799SOL     OW32029   4.347   0.443   8.534  0.0837  0.6165 -0.0381
 6799SOL    HW132030   4.375   0.380   8.600 -1.5823  0.4212  0.4760
 6799SOL    HW232031   4.420   0.505   8.538  0.6395  0.0514 -1.4726
 6800SOL     OW32032   3.903   1.757   0.043 -0.0993 -0.3037  0.3955
 6800SOL    HW132033   3.824   1.800   0.076 -1.3112 -2.0777 -0.1961
 6800SOL    HW232034   3.937   1.819  17.714 -1.4459  0.8715  0.8036
 6801SOL     OW32035   4.575   0.514   5.412 -0.1375 -0.3520 -1.1721
 6801SOL    HW132036   4.596   0.422   5.425  0.1788 -0.2874 -1.2295
 6801SOL    HW232037   4.550   0.549   5.498  1.7982  0.4326 -0.9407
 6802SOL     OW32038   3.181   3.881   9.679  0.2628 -0.0642  0.2237
 6802SOL    HW132039   3.256   3.849   9.728  0.3305  0.8367  0.7188
 6802SOL    HW232040   3.109   3.838   9.725  1.7528 -0.8492  1.7875
 6803SOL     OW32041   1.252   4.219   5.696 -0.1539  0.1942 -0.1179
 6803SOL    HW132042   1.275   4.273   5.772  1.9924  0.7702 -1.1748
 6803SOL    HW232043   1.272   4.281   5.626 -0.0837  0.3959  0.0824
 6804SOL     OW32044   3.007   2.393   9.908 -0.1582 -0.1972  0.4666
 6804SOL    HW132045   3.027   2.461   9.972  1.3137 -0.9165  0.7476
 6804SOL    HW232046   3.001   2.312   9.959  3.7871 -0.0087  1.2192
 6805SOL     OW32047   4.718   1.245   0.209 -0.5169 -0.1714  0.4875
 6805SOL    HW132048   0.053   1.309   0.196 -1.0716 -0.0963 -2.0164
 6805SOL    HW232049   0.006   1.177   0.145  2.7713  1.0671  0.3077
 6806SOL     OW32050   3.646   3.767   5.875  0.2144 -0.1784 -0.0412
 6806SOL    HW132051   3.728   3.806   5.907 -0.1820 -0.3876  1.2381
 6806SOL    HW232052   3.589   3.798   5.946  1.2132  0.9252  0.2664
 6807SOL     OW32053   2.636   0.561  11.014  0.9855 -0.3195 -0.8439
 6807SOL    HW132054   2.706   0.563  10.949  0.5476 -0.1392 -1.3067
 6807SOL    HW232055   2.582   0.630  10.974 -3.1467 -1.0109  3.4713
 6808SOL     OW32056   0.821   0.055   4.688 -0.7687  0.0380 -1.0212
 6808SOL    HW132057   0.853   0.068   4.777  1.4074 -0.1172 -1.7666
 6808SOL    HW232058   0.866   4.706   4.670  1.5242  0.8995  0.8873
 6809SOL     OW32059   0.191   4.384   6.552  0.2584 -0.0060  0.6390
 6809SOL    HW132060   0.137   4.407   6.628 -0.4135 -0.1404  0.2101
 6809SOL    HW232061   0.252   4.326   6.597  0.9808  1.9366  2.1519
 6810SOL     OW32062   3.225   4.374   0.517 -0.3053 -0.0882 -0.0111
 6810SOL    HW132063   3.290   4.309   0.544 -0.0338  0.0468 -0.3429
 6810SOL    HW232064   3.144   4.325   0.533 -0.4614  0.1278 -0.1501
 6811SOL     OW32065   1.108   2.840  13.512 -0.3421  0.3145  0.0079
 6811SOL    HW132066   1.043   2.909  13.501 -1.3560 -0.2902  2.1905
 6811SOL    HW232067   1.106   2.802  13.424 -0.6724 -0.5773  0.3929
 6812SOL     OW32068   2.116   2.923   6.993 -0.0575  0.2379 -0.0993
 6812SOL    HW132069   2.127   2.837   7.033  2.7579  0.2243 -0.8612
 6812SOL    HW232070   2.200   2.936   6.948 -0.1076 -1.9188 -0.7731
 6813SOL     OW32071   2.638   0.566   4.307 -0.1489  0.1347 -0.9761
 6813SOL    HW132072   2.669   0.611   4.385  1.1805  0.7343 -1.8559
 6813SOL    HW232073   2.715   0.569   4.250  0.5180  2.1300  0.0626
 6814SOL     OW32074   3.894   1.420   1.910 -0.0506 -0.3673  0.4736
 6814SOL    HW132075   3.853   1.499   1.945  0.1866 -0.5764  1.2158
 6814SOL    HW232076   3.950   1.461   1.844  0.8323 -0.5458  1.1056
 6815SOL     OW32077   2.086   0.115   0.958 -0.3314  0.3599 -0.6103
 6815SOL    HW132078   2.158   0.175   0.939 -0.5585  1.1572  1.0075
 6815SOL    HW232079   2.006   0.150   0.919  0.3877  1.6524 -0.9144
 6816SOL     OW32080   2.333   4.717   6.725  0.0377  0.0415 -0.7794
 6816SOL    HW132081   2.362   0.047   6.661  0.1416  3.9680  3.2197
 6816SOL    HW232082   2.314   4.639   6.674  0.0772 -0.0281 -0.6890
 6817SOL     OW32083   2.178   4.052   2.979  0.0842  0.1564  0.3607
 6817SOL    HW132084   2.248   3.989   2.963 -1.2742 -0.8601 -1.5234
 6817SOL    HW232085   2.127   4.032   2.901 -0.7203 -1.8565  1.3983
 6818SOL     OW32086   3.012   2.500   4.878  0.6093 -0.3528  0.3036
 6818SOL    HW132087   3.097   2.470   4.845 -0.4062 -2.0550 -0.7882
 6818SOL    HW232088   3.026   2.594   4.884 -1.4162 -0.0078 -0.4056
 6819SOL     OW32089   1.370   0.902   6.322 -0.0921  0.1781 -0.0446
 6819SOL    HW132090   1.426   0.868   6.252  1.4147  0.2741  1.0889
 6819SOL    HW232091   1.281   0.872   6.304 -0.1466 -1.3688  2.7664
 6820SOL     OW32092   0.127   2.474   3.411  0.5823 -0.0316  0.4764
 6820SOL    HW132093   0.047   2.422   3.419 -0.1110  1.2535  1.7727
 6820SOL    HW232094   0.117   2.491   3.317  2.1325 -0.3709  0.2485
 6821SOL     OW32095   3.644   1.606  17.540 -0.1147 -0.2433  0.4576
 6821SOL    HW132096   3.609   1.518  17.557  1.3119 -0.7230  0.9801
 6821SOL    HW232097   3.601   1.657  17.609  1.3747 -1.9306  2.6447
 6822SOL     OW32098   2.138   1.926   7.551  0.7147  0.4134  0.2423
 6822SOL    HW132099   2.073   1.906   7.484  2.6104  0.1521 -1.5516
 6822SOL    HW232100   2.085   1.949   7.627  1.5130 -1.9492  1.5306
 6823SOL     OW32101   4.607   0.907   8.984  0.9084  0.1251  0.0718
 6823SOL    HW132102   4.530   0.859   9.016  0.5618  3.0179  3.5935
 6823SOL    HW232103   4.599   0.874   8.895 -0.9033 -0.8304  0.5808
 6824SOL     OW32104   2.336   4.209   6.590  0.5368  0.3801 -0.0189
 6824SOL    HW132105   2.405   4.142   6.588  0.8677  0.7201 -0.0221
 6824SOL    HW232106   2.369   4.261   6.664 -1.0584  0.1219  0.8753
 6825SOL     OW32107   4.086   2.162   1.844 -0.7162  0.3496 -0.2240
 6825SOL    HW132108   4.109   2.121   1.761  0.3540 -0.8460  0.6665
 6825SOL    HW232109   4.115   2.251   1.820 -0.8626 -0.1572 -2.2557
 6826SOL     OW32110   0.669   0.080   7.281 -0.0018 -0.4140 -0.4100
 6826SOL    HW132111   0.652   0.172   7.263 -2.6329 -1.2134 -1.9774
 6826SOL    HW232112   0.737   0.082   7.348  1.6063  2.3533 -2.1579
 6827SOL     OW32113   2.098   1.435   7.479  0.1688  0.1680  0.9053
 6827SOL    HW132114   2.019   1.425   7.426  1.3369 -1.1963 -0.5738
 6827SOL    HW232115   2.135   1.518   7.449 -0.3225  0.4704  1.1311
 6828SOL     OW32116   4.343   3.946   3.245  0.0475  0.3034 -0.2372
 6828SOL    HW132117   4.436   3.930   3.261  0.5522  2.2593 -1.2368
 6828SOL    HW232118   4.306   3.939   3.332 -1.7321 -0.6631 -1.0763
 6829SOL     OW32119   0.380   4.587   1.666 -0.2350  0.0511 -0.1315
 6829SOL    HW132120   0.297   4.608   1.624 -0.0085 -1.0775 -1.1533
 6829SOL    HW232121   0.371   4.492   1.660 -0.2673  0.0611 -0.2341
 6830SOL     OW32122   2.855   2.861   6.487 -0.0922 -0.3549  0.3676
 6830SOL    HW132123   2.873   2.839   6.396 -0.6537 -2.0767  0.6842
 6830SOL    HW232124   2.855   2.779   6.536 -1.3478 -0.2849  0.4792
 6831SOL     OW32125   3.333   0.619  14.234  0.7214  0.0851  0.1916
 6831SOL    HW132126   3.340   0.599  14.327 -0.7916  0.5328  0.4039
 6831SOL    HW232127   3.356   0.711  14.227  0.4429  0.2020  0.8294
 6832SOL     OW32128   3.337   3.981   7.025 -0.4898 -0.4297 -0.6079
 6832SOL    HW132129   3.430   3.963   7.036 -0.8404 -1.5651  0.5910
 6832SOL    HW232130   3.319   4.021   7.110 -0.1788 -1.0214 -0.2645
 6833SOL     OW32131   1.238   3.849   9.506  0.0750  0.1432  0.2350
 6833SOL    HW132132   1.323   3.882   9.536 -0.5317  1.3966  0.5705
 6833SOL    HW232133   1.246   3.757   9.534 -0.2155 -0.7957 -2.8230
 6834SOL     OW32134   3.883   2.183  16.586  0.2230  0.5466 -0.6463
 6834SOL    HW132135   3.915   2.113  16.643 -1.7452 -1.3772 -1.9032
 6834SOL    HW232136   3.954   2.209  16.527 -1.2727  1.0851 -2.1968
 6835SOL     OW32137   0.517   3.679   5.342 -0.2377 -0.1040  0.2959
 6835SOL    HW132138   0.446   3.707   5.285  0.6596  1.0068 -0.2831
 6835SOL    HW232139   0.485   3.595   5.373 -2.3621  0.2807 -0.8978
 6836SOL     OW32140   1.484   1.302   6.464 -0.4566 -1.0285  0.5592
 6836SOL    HW132141   1.484   1.340   6.552  0.1338  1.1438 -0.3653
 6836SOL    HW232142   1.526   1.217   6.480  0.7207 -0.8633 -1.6364
 6837SOL     OW32143   2.615   4.111   7.156 -0.0252  0.1710 -0.3331
 6837SOL    HW132144   2.586   4.111   7.247 -2.0230 -2.0466 -0.9768
 6837SOL    HW232145   2.643   4.020   7.169 -2.1303 -0.2245  1.4464
 6838SOL     OW32146   4.612   2.501  14.730  0.7994  0.2610 -0.0505
 6838SOL    HW132147   4.632   2.519  14.821  0.7559 -0.1502  0.0381
 6838SOL    HW232148   4.605   2.406  14.731  2.9555  0.1087 -0.8043
 6839SOL     OW32149   0.562   1.776  15.231  0.1440 -0.1040  0.2236
 6839SOL    HW132150   0.570   1.681  15.223  0.9676  0.1323 -1.7643
 6839SOL    HW232151   0.473   1.805  15.252  0.4435 -0.2773  1.7307
 6840SOL     OW32152   1.019   1.058  11.100  0.3451  0.1689 -0.1777
 6840SOL    HW132153   1.088   0.994  11.117  1.0325  0.4549 -1.9431
 6840SOL    HW232154   0.964   1.010  11.039 -0.0384  0.2060  0.1410
 6841SOL     OW32155   4.038   0.917   4.170  0.6417 -0.0580 -0.1233
 6841SOL    HW132156   4.000   0.985   4.113  1.4727  0.7856  0.3210
 6841SOL    HW232157   4.074   0.971   4.241  1.0066  1.5691 -1.5476
 6842SOL     OW32158   1.056   2.246   3.404  0.1676  0.7505  0.1001
 6842SOL    HW132159   1.064   2.150   3.399  2.2500  0.8904  0.3860
 6842SOL    HW232160   0.963   2.258   3.418  0.0170 -0.6955  0.3857
 6843SOL     OW32161   2.388   0.733   4.186 -0.4421 -0.5108  0.6961
 6843SOL    HW132162   2.475   0.697   4.165 -0.4518 -0.1068 -0.0529
 6843SOL    HW232163   2.376   0.789   4.109  0.1401  1.0856  1.7672
 6844SOL     OW32164   0.144   4.221   5.676  0.0902 -0.8839  0.2940
 6844SOL    HW132165   0.052   4.199   5.660 -0.3849  0.2645  1.4998
 6844SOL    HW232166   0.171   4.270   5.598  0.6545 -1.3585  0.1868
 6845SOL     OW32167   1.727   2.663  10.723  0.0202  0.0846 -0.4533
 6845SOL    HW132168   1.779   2.588  10.750  1.3434  0.7202 -1.2723
 6845SOL    HW232169   1.742   2.659  10.629 -1.3508 -1.0347 -0.6378
 6846SOL     OW32170   0.059   0.960   3.360 -0.9008  0.2075  0.5495
 6846SOL    HW132171   4.724   0.896   3.379 -0.5052 -0.2279  0.4990
 6846SOL    HW232172   0.003   1.033   3.331 -0.2996  0.1207 -0.8284
 6847SOL     OW32173   1.884   3.074   4.142  0.3576 -0.0457 -0.3274
 6847SOL    HW132174   1.937   3.146   4.106  0.1112  1.2239  1.8444
 6847SOL    HW232175   1.790   3.089   4.134  0.2870  0.2357  1.0116
 6848SOL     OW32176   3.278   0.030   2.313  0.2398  0.3221 -0.0667
 6848SOL    HW132177   3.346   4.727   2.369  0.2606  0.3447 -0.0766
 6848SOL    HW232178   3.317   0.099   2.258  1.7822 -0.5022 -0.0092
 6849SOL     OW32179   3.804   2.397   5.303 -0.2136  0.2145 -0.4763
 6849SOL    HW132180   3.729   2.343   5.280 -0.0478  0.6041 -1.9095
 6849SOL    HW232181   3.838   2.403   5.214 -0.6401 -3.5977 -0.9059
 6850SOL     OW32182   3.014   2.048   4.884 -0.1446 -0.5692  0.0872
 6850SOL    HW132183   2.928   2.032   4.924  0.1975 -4.0091 -0.4980
 6850SOL    HW232184   3.032   1.966   4.837  0.9985  1.4505 -2.9836
 6851SOL     OW32185   1.684   2.847  13.240  0.3417  0.3091  0.2409
 6851SOL    HW132186   1.728   2.882  13.163 -0.1850  1.8743  0.6496
 6851SOL    HW232187   1.729   2.763  13.248 -0.5380  0.1183  3.2414
 6852SOL     OW32188   1.083   2.530   9.334 -0.9151 -0.0656  0.1727
 6852SOL    HW132189   1.012   2.503   9.392  0.1421  1.7637  2.3068
 6852SOL    HW232190   1.086   2.618   9.372 -0.7381  0.3765 -0.8737
 6853SOL     OW32191   3.981   0.594   8.015 -0.0215 -0.1614 -0.3353
 6853SOL    HW132192   4.026   0.674   7.988 -3.3503  1.4125 -1.1810
 6853SOL    HW232193   3.904   0.592   7.959  0.5224  0.1758 -1.1004
 6854SOL     OW32194   2.271   0.713   7.174  0.3303  0.1390 -0.1020
 6854SOL    HW132195   2.293   0.621   7.161 -2.2642 -0.7307  1.9439
 6854SOL    HW232196   2.287   0.749   7.086 -0.7110 -0.6006 -0.5849
 6855SOL     OW32197   1.961   2.085   7.018 -0.6102 -0.7637 -0.5643
 6855SOL    HW132198   1.997   2.035   7.091  0.8079  2.4362  0.8998
 6855SOL    HW232199   2.036   2.107   6.963 -0.5576 -2.2773 -1.1189
 6856SOL     OW32200   1.030   0.838   3.450 -0.5873  0.1290 -0.6024
 6856SOL    HW132201   1.111   0.870   3.411 -0.0199  0.1914  0.6420
 6856SOL    HW232202   1.038   0.745   3.471 -0.4173  0.6787  1.6900
 6857SOL     OW32203   1.055   1.765   2.355 -0.1908 -0.1055 -0.6428
 6857SOL    HW132204   1.147   1.772   2.380 -0.7562 -2.3000  2.0402
 6857SOL    HW232205   1.051   1.821   2.278  1.4731  2.5011  1.1962
 6858SOL     OW32206   4.707   3.225   0.483  0.4465 -0.2860 -0.3375
 6858SOL    HW132207   4.648   3.176   0.541  1.6136 -0.4182  0.7341
 6858SOL    HW232208   0.001   3.152   0.427  2.1900 -0.0507  0.2368
 6859SOL     OW32209   0.306   4.139   3.049 -0.5186 -0.3221  0.2488
 6859SOL    HW132210   0.384   4.086   3.034 -1.4683 -2.0890  1.4570
 6859SOL    HW232211   0.298   4.186   2.966 -0.0539 -1.2106 -0.2940
 6860SOL     OW32212   2.620   2.732   3.251  0.8522 -0.2223  0.1493
 6860SOL    HW132213   2.687   2.732   3.183  0.0387 -2.6853 -0.6318
 6860SOL    HW232214   2.598   2.825   3.249 -1.1108 -0.6741  1.4273
 6861SOL     OW32215   2.577   3.498   6.381 -0.3549  0.1631  0.0322
 6861SOL    HW132216   2.623   3.502   6.465  0.6350  1.6938 -0.6069
 6861SOL    HW232217   2.525   3.579   6.385  0.0776  0.3228  2.6356
 6862SOL     OW32218   3.300   0.182  10.514 -0.2448  0.2468 -0.1983
 6862SOL    HW132219   3.303   0.095  10.553 -0.8831  1.4030  2.3936
 6862SOL    HW232220   3.392   0.204  10.508 -0.2886  0.1832 -1.2280
 6863SOL     OW32221   4.594   1.945   7.796 -0.3048 -0.5719  0.0273
 6863SOL    HW132222   4.528   2.009   7.769 -0.2169  0.0352  1.3060
 6863SOL    HW232223   4.669   1.992   7.761 -0.9718  2.2760  2.4446
 6864SOL     OW32224   0.782   0.000   3.476  0.5916 -0.6687 -0.1286
 6864SOL    HW132225   0.804   4.642   3.487  1.3577 -0.3592  0.9960
 6864SOL    HW232226   0.697   0.012   3.519 -0.4882 -0.6770 -2.2820
 6865SOL     OW32227   1.251   0.297   5.776 -0.0895  0.4028 -0.1830
 6865SOL    HW132228   1.223   0.352   5.702 -1.4684  0.8755  0.6847
 6865SOL    HW232229   1.166   0.258   5.798 -0.1970  0.4414 -0.5290
 6866SOL     OW32230   1.866   0.227   2.911  0.4174  0.5734  0.4452
 6866SOL    HW132231   1.850   0.187   2.826  1.2937 -1.9031  1.4386
 6866SOL    HW232232   1.788   0.279   2.933  2.3680  3.7196 -0.0488
 6867SOL     OW32233   2.873   0.339   4.359  0.7241  0.0998 -0.6783
 6867SOL    HW132234   2.935   0.303   4.295  1.5005 -0.4971  0.4100
 6867SOL    HW232235   2.872   0.426   4.319  0.9893  0.3752 -0.0964
 6868SOL     OW32236   3.285   1.327   5.680  0.2757  0.3968  0.3293
 6868SOL    HW132237   3.231   1.273   5.737  1.2082  0.4862  1.2941
 6868SOL    HW232238   3.315   1.258   5.620  0.4529  0.5050  0.2940
 6869SOL     OW32239   3.716   1.042  13.439 -0.1043 -0.1712 -0.7268
 6869SOL    HW132240   3.639   1.088  13.472 -0.5346 -0.0957 -1.8402
 6869SOL    HW232241   3.762   1.116  13.399 -0.0184  1.7529  2.9276
 6870SOL     OW32242   1.571   2.948  17.663 -0.2544 -0.0212  0.1247
 6870SOL    HW132243   1.643   3.001  17.629  1.1874 -1.8752  0.3132
 6870SOL    HW232244   1.509   3.021  17.674  1.6597  1.8424 -1.3948
 6871SOL     OW32245   0.119   1.491   0.168  0.2005 -0.0778 -0.4793
 6871SOL    HW132246   0.215   1.485   0.166  0.2095 -0.0040 -0.1912
 6871SOL    HW232247   0.114   1.581   0.201 -1.4526  0.0481 -1.0716
 6872SOL     OW32248   1.677   0.639   6.930  0.5376 -0.1473 -0.2671
 6872SOL    HW132249   1.734   0.619   6.856 -0.1950  1.4425 -1.2608
 6872SOL    HW232250   1.621   0.561   6.927 -1.3039  1.0865  3.0895
 6873SOL     OW32251   1.419   1.520   7.682  0.5282  0.1853  0.1302
 6873SOL    HW132252   1.327   1.540   7.697  1.1485  1.4993  2.1715
 6873SOL    HW232253   1.452   1.600   7.640 -1.7346  1.4714  0.8032
 6874SOL     OW32254   1.836   3.239   5.344  0.2002  0.3469 -0.0058
 6874SOL    HW132255   1.796   3.180   5.408  0.0281 -0.3019 -0.7120
 6874SOL    HW232256   1.826   3.185   5.266 -3.1977 -0.2365  0.8340
 6875SOL     OW32257   2.865   2.888  14.778  0.5251 -0.1214  0.5201
 6875SOL    HW132258   2.881   2.866  14.687 -2.4061  1.5019 -0.3628
 6875SOL    HW232259   2.935   2.846  14.829 -0.7827 -2.2066  0.6050
 6876SOL     OW32260   2.692   4.006   5.828 -0.1698 -0.1377  0.7495
 6876SOL    HW132261   2.751   4.082   5.824 -2.2860  1.4988  0.7008
 6876SOL    HW232262   2.714   3.951   5.903 -1.2646 -0.2116  1.0056
 6877SOL     OW32263   0.419   3.724  11.266  0.8244  0.4147  0.4162
 6877SOL    HW132264   0.331   3.738  11.232  1.6278 -2.8721 -3.0171
 6877SOL    HW232265   0.447   3.813  11.289 -2.6100  2.0180 -1.6965
 6878SOL     OW32266   3.037   2.965  13.157 -0.3465 -0.2869  0.0757
 6878SOL    HW132267   2.944   2.944  13.173 -0.4248 -0.2836 -0.3890
 6878SOL    HW232268   3.029   3.060  13.158 -1.0811 -0.3336 -2.7632
 6879SOL     OW32269   4.434   1.842   3.060 -0.0480  0.1535  1.0746
 6879SOL    HW132270   4.414   1.821   3.151  1.0125 -0.0369  1.2615
 6879SOL    HW232271   4.420   1.937   3.058 -0.1661  0.1245  0.1465
 6880SOL     OW32272   0.226   1.056   3.846  0.3324 -0.8696 -0.5221
 6880SOL    HW132273   0.317   1.072   3.820  0.5480 -2.7854 -0.9731
 6880SOL    HW232274   0.184   1.098   3.771 -0.3346 -0.6035  0.0019
 6881SOL     OW32275   1.413   3.119   1.537  0.2746 -0.7044 -0.6772
 6881SOL    HW132276   1.385   3.151   1.451  1.5879 -0.0274 -0.8492
 6881SOL    HW232277   1.502   3.150   1.552 -0.1709  1.6034 -2.8195
 6882SOL     OW32278   2.934   1.336   7.646 -0.1959 -0.0202 -0.2672
 6882SOL    HW132279   2.922   1.405   7.711 -0.2939 -0.8457  0.5915
 6882SOL    HW232280   3.014   1.362   7.602 -0.6005 -1.5120 -1.9008
 6883SOL     OW32281   1.909   2.251   4.298 -0.1183  0.0367  0.4518
 6883SOL    HW132282   1.935   2.343   4.288 -0.1045 -0.2577 -2.2468
 6883SOL    HW232283   1.827   2.259   4.347 -0.9350  0.2888 -0.9573
 6884SOL     OW32284   4.622   0.124   4.534  0.8262 -0.0745  0.3380
 6884SOL    HW132285   4.625   0.034   4.502 -0.9472 -0.0514  0.0710
 6884SOL    HW232286   4.661   0.179   4.466  0.1521 -0.8420 -0.6892
 6885SOL     OW32287   3.018   3.985   2.843 -0.2759 -0.1385  0.7704
 6885SOL    HW132288   3.062   3.975   2.759 -2.4571  1.8634 -0.6152
 6885SOL    HW232289   2.994   4.077   2.842  0.2773  0.0130  1.2562
 6886SOL     OW32290   2.357   1.200   7.254 -0.3164 -0.7312 -0.3640
 6886SOL    HW132291   2.443   1.219   7.290 -0.3436 -0.1317 -0.6246
 6886SOL    HW232292   2.372   1.150   7.173 -0.6815 -1.7675  0.2060
 6887SOL     OW32293   4.538   1.726   9.184  0.8890 -0.3477 -0.9601
 6887SOL    HW132294   4.620   1.705   9.228 -0.2268  0.7028  1.6055
 6887SOL    HW232295   4.480   1.651   9.199  1.4144 -0.8792 -1.5610
 6888SOL     OW32296   0.357   4.396  12.067  0.1683 -0.3949 -0.0258
 6888SOL    HW132297   0.342   4.484  12.101 -1.0784  0.2244 -2.1705
 6888SOL    HW232298   0.375   4.341  12.143 -0.1156  0.3283  0.5706
 6889SOL     OW32299   3.734   1.467  11.551 -0.3831  0.3511  0.0340
 6889SOL    HW132300   3.676   1.400  11.586  2.9851 -2.9579 -0.7224
 6889SOL    HW232301   3.688   1.503  11.475  0.5278  1.9782  0.2489
 6890SOL     OW32302   2.673   2.363  12.191  0.3320 -0.5742  0.5511
 6890SOL    HW132303   2.720   2.313  12.123  0.1994  0.7359 -0.4952
 6890SOL    HW232304   2.687   2.309  12.269 -0.9127  0.5409  1.5417
 6891SOL     OW32305   3.058   0.905  13.411  0.4770 -0.5492  0.2668
 6891SOL    HW132306   2.980   0.875  13.364  0.3004  1.4620 -0.7023
 6891SOL    HW232307   3.080   0.821  13.453 -0.0951 -0.5310  0.6013
 6892SOL     OW32308   3.949   0.068   9.263 -0.0257  0.5657  0.1942
 6892SOL    HW132309   3.966   4.721   9.216 -3.0984  0.3185 -0.5059
 6892SOL    HW232310   3.856   0.079   9.243 -0.1200  0.8394  0.8123
 6893SOL     OW32311   0.863   2.986   2.251  0.5777 -0.3448  0.5544
 6893SOL    HW132312   0.855   3.069   2.299  1.0339  0.7837 -1.3191
 6893SOL    HW232313   0.824   3.000   2.165 -0.7251  1.5642  1.4428
 6894SOL     OW32314   2.247   4.474   0.164 -0.1555  0.2117  0.3652
 6894SOL    HW132315   2.157   4.447   0.185 -0.1913 -0.9898 -1.3393
 6894SOL    HW232316   2.217   4.564   0.167 -1.7243 -0.3905  3.2951
 6895SOL     OW32317   2.288   4.519   6.539 -0.9054 -0.6689  0.0005
 6895SOL    HW132318   2.225   4.483   6.476 -0.4486  1.2381 -1.5364
 6895SOL    HW232319   2.289   4.443   6.597  1.0810  0.2965  1.1970
 6896SOL     OW32320   4.541   0.654   6.521  0.0217  0.3754 -0.2586
 6896SOL    HW132321   4.519   0.561   6.524  0.8936  0.1094 -2.3616
 6896SOL    HW232322   4.513   0.684   6.608 -0.1901 -0.3555 -0.0766
 6897SOL     OW32323   3.358   3.720  13.746 -0.5566 -0.1341 -0.0559
 6897SOL    HW132324   3.295   3.691  13.812  0.4082  1.6585  1.6594
 6897SOL    HW232325   3.355   3.815  13.756  0.2532 -0.2028  0.8783
 6898SOL     OW32326   1.708   0.075   5.678  0.7112  0.3702 -0.5786
 6898SOL    HW132327   1.782   0.018   5.656  0.1773 -0.8525  0.7607
 6898SOL    HW232328   1.646   0.005   5.698 -1.5374  3.0125  1.6573
 6899SOL     OW32329   2.763   3.242   5.496  0.4606 -0.8006  0.0355
 6899SOL    HW132330   2.731   3.272   5.411  1.0753  0.3553  0.2081
 6899SOL    HW232331   2.818   3.172   5.463  2.1587  0.5117  0.0997
 6900SOL     OW32332   1.659   4.718   3.178  0.3271  0.0090  0.6660
 6900SOL    HW132333   1.730   0.048   3.183  1.8956 -1.9476  3.6574
 6900SOL    HW232334   1.713   4.638   3.182 -1.5355 -1.4240 -2.5338
 6901SOL     OW32335   0.610   1.836   2.292 -0.3874 -0.5960 -0.2082
 6901SOL    HW132336   0.643   1.920   2.325 -1.4156  0.9444 -3.1154
 6901SOL    HW232337   0.631   1.833   2.199  0.3687  1.9829 -0.1271
 6902SOL     OW32338   2.555   1.163  11.549 -0.6810 -0.1224 -0.3276
 6902SOL    HW132339   2.518   1.089  11.502  0.9916 -2.7266  2.4416
 6902SOL    HW232340   2.560   1.235  11.486  1.7710  0.1316  0.1575
 6903SOL     OW32341   2.549   1.140   8.960  0.7390 -0.3300 -0.1960
 6903SOL    HW132342   2.586   1.099   9.038 -1.2707  0.4098  1.1575
 6903SOL    HW232343   2.517   1.225   8.989 -0.2333 -1.2462  1.4053
 6904SOL     OW32344   1.177   3.655  16.217 -0.0749  0.0394 -1.0359
 6904SOL    HW132345   1.253   3.637  16.272 -1.1945  0.9803  0.8354
 6904SOL    HW232346   1.119   3.579  16.218  0.9985 -0.7554  0.0262
 6905SOL     OW32347   3.389   0.999   3.342 -0.0507 -0.1102  0.0522
 6905SOL    HW132348   3.461   1.028   3.287  0.4302 -0.9079  0.2576
 6905SOL    HW232349   3.367   0.913   3.307 -0.1832  0.0379 -0.2277
 6906SOL     OW32350   4.330   2.726   7.871  0.5372  0.6216  0.0472
 6906SOL    HW132351   4.236   2.704   7.870  0.5237  0.6380  1.2430
 6906SOL    HW232352   4.352   2.676   7.949  1.5428 -0.3104 -0.8303
 6907SOL     OW32353   2.282   3.602   2.684  0.0422  0.3932 -0.3932
 6907SOL    HW132354   2.263   3.673   2.623 -1.1539  1.3156  1.0407
 6907SOL    HW232355   2.361   3.643   2.720  0.9556 -0.6841 -1.1514
 6908SOL     OW32356   1.999   3.746   8.277  0.3974 -0.5018 -0.2189
 6908SOL    HW132357   2.086   3.710   8.297  1.1993  1.6101  0.1705
 6908SOL    HW232358   1.949   3.688   8.335  0.8738  0.2669  0.9866
 6909SOL     OW32359   2.492   0.361   5.648 -0.6476  0.3491  0.1964
 6909SOL    HW132360   2.458   0.315   5.724  1.4508  2.7557  2.5552
 6909SOL    HW232361   2.583   0.333   5.657  0.0983  1.9765 -2.3492
 6910SOL     OW32362   2.808   0.771  13.357  0.6257 -0.2073  0.0845
 6910SOL    HW132363   2.749   0.834  13.398 -0.6274 -1.6169  0.4326
 6910SOL    HW232364   2.747   0.704  13.328  0.3209  1.1359 -2.3865
 6911SOL     OW32365   1.454   2.477   9.681  0.4399 -0.8143 -0.4741
 6911SOL    HW132366   1.359   2.478   9.669  0.0324 -1.6074  2.6936
 6911SOL    HW232367   1.472   2.569   9.699 -1.3641 -1.0001  2.2766
 6912SOL     OW32368   0.427   3.294   1.209  0.0574  0.0298  0.2174
 6912SOL    HW132369   0.386   3.326   1.289 -2.1367  0.4768 -1.0684
 6912SOL    HW232370   0.402   3.361   1.145  2.2333  1.5167  0.9139
 6913SOL     OW32371   1.719   4.078   3.455 -0.2908  0.4386  0.2232
 6913SOL    HW132372   1.661   4.101   3.528 -2.5426 -0.7143 -1.1723
 6913SOL    HW232373   1.796   4.073   3.512 -1.0641  1.2323  1.3424
 6914SOL     OW32374   4.450   3.486  14.919  0.5229 -0.6592  1.3698
 6914SOL    HW132375   4.405   3.567  14.897  0.6455 -0.9963 -0.1079
 6914SOL    HW232376   4.540   3.488  14.887 -0.5759  2.3889 -1.5064
 6915SOL     OW32377   3.998   0.424   7.748  0.1806  0.1246 -0.7424
 6915SOL    HW132378   3.938   0.440   7.820  1.2685 -0.7637  0.3551
 6915SOL    HW232379   4.042   0.343   7.773 -0.6692  0.4570  1.7752
 6916SOL     OW32380   1.536   3.735   9.262 -0.0757  0.5442 -0.1340
 6916SOL    HW132381   1.536   3.801   9.331 -0.3677  0.9987 -0.5679
 6916SOL    HW232382   1.626   3.709   9.280 -0.4593 -0.2616  0.5836
 6917SOL     OW32383   1.059   2.840   4.400  0.7137  0.4164  0.5558
 6917SOL    HW132384   1.090   2.774   4.339  0.9176 -0.2527  1.3841
 6917SOL    HW232385   1.141   2.856   4.447  0.3982  2.2256  0.5118
 6918SOL     OW32386   2.769   2.207   6.484 -0.8850 -0.2270  0.0426
 6918SOL    HW132387   2.773   2.300   6.463 -0.3147 -0.2766 -0.0726
 6918SOL    HW232388   2.675   2.190   6.478 -0.8750 -0.2332 -0.0924
 6919SOL     OW32389   0.557   3.478   9.546  0.0075 -0.4087 -0.7480
 6919SOL    HW132390   0.586   3.396   9.587 -0.8441  0.3627  1.3820
 6919SOL    HW232391   0.524   3.544   9.606 -0.9690 -1.2529 -0.3616
 6920SOL     OW32392   0.832   1.862   1.778  0.0297  0.4440  0.0053
 6920SOL    HW132393   0.863   1.918   1.850  0.9128  0.4927 -0.4103
 6920SOL    HW232394   0.740   1.886   1.768 -0.1072 -0.2260 -0.3407
 6921SOL     OW32395   2.113   3.943   6.889  0.5301  0.6364 -0.7545
 6921SOL    HW132396   2.077   4.023   6.851 -0.0251  0.5725 -0.3588
 6921SOL    HW232397   2.039   3.886   6.911 -0.5204  1.8183 -1.2291
 6922SOL     OW32398   2.487   1.578   7.120  0.4616  0.0404  0.1950
 6922SOL    HW132399   2.519   1.495   7.085 -0.6241 -0.0363 -0.6278
 6922SOL    HW232400   2.456   1.621   7.041  0.2831 -0.9589 -0.2860
 6923SOL     OW32401   4.105   2.544  12.755 -0.0551 -0.5686  0.4666
 6923SOL    HW132402   4.129   2.624  12.708 -0.1167 -0.1495  1.1383
 6923SOL    HW232403   4.054   2.585  12.826 -0.7879 -2.6585  1.1397
 6924SOL     OW32404   2.214   2.392   3.732  0.1438  0.1410 -0.2289
 6924SOL    HW132405   2.196   2.470   3.785  1.6137  0.0041  0.4809
 6924SOL    HW232406   2.283   2.362   3.791 -3.1201 -1.8453  2.5682
 6925SOL     OW32407   0.456   0.053   0.509 -0.1564 -0.6078 -0.1603
 6925SOL    HW132408   0.448   4.715   0.447  0.1710  1.8813 -3.1539
 6925SOL    HW232409   0.506   0.017   0.582  0.6989  0.1307 -0.3833
 6926SOL     OW32410   2.859   3.333   3.847 -0.5471  0.2265  0.8562
 6926SOL    HW132411   2.851   3.289   3.762  2.3146  1.9946 -0.2988
 6926SOL    HW232412   2.902   3.263   3.897 -0.0781 -1.6286 -2.1299
 6927SOL     OW32413   0.565   2.540   9.500  0.5664  0.2605  0.4331
 6927SOL    HW132414   0.577   2.449   9.474  0.1606  0.4351 -0.3665
 6927SOL    HW232415   0.494   2.572   9.443 -0.4403 -1.8493  0.5186
 6928SOL     OW32416   2.123   1.484   4.449  0.1142  0.3964 -0.6844
 6928SOL    HW132417   2.135   1.521   4.537 -2.3408 -0.1228 -0.1359
 6928SOL    HW232418   2.155   1.394   4.459  1.1249  0.8357  0.0704
 6929SOL     OW32419   2.812   0.757   3.794 -0.0747 -0.4035  0.3244
 6929SOL    HW132420   2.747   0.764   3.724 -0.2934  2.9952  0.8961
 6929SOL    HW232421   2.881   0.712   3.746  1.3150 -0.4278  2.3728
 6930SOL     OW32422   4.492   1.533   6.149 -0.3436  0.1487 -0.3516
 6930SOL    HW132423   4.461   1.587   6.077 -0.9357  0.0035 -0.2073
 6930SOL    HW232424   4.510   1.600   6.216 -0.8345 -0.3954  0.3288
 6931SOL     OW32425   3.348   2.608  16.597  0.0210  0.2683  0.1320
 6931SOL    HW132426   3.398   2.688  16.583  1.8508 -0.8320  0.4666
 6931SOL    HW232427   3.414   2.545  16.625  1.4523  1.4606 -0.5833
 6932SOL     OW32428   1.355   2.571   1.383  0.4484  0.1010 -0.2520
 6932SOL    HW132429   1.428   2.599   1.327 -0.3302 -0.5066 -1.5931
 6932SOL    HW232430   1.295   2.527   1.322  0.8636  0.2010 -0.7317
 6933SOL     OW32431   2.677   2.948   8.039  0.2635 -0.3621 -0.2778
 6933SOL    HW132432   2.730   2.934   7.960 -0.2696 -1.6020 -0.4075
 6933SOL    HW232433   2.614   3.014   8.009 -0.4330 -1.3615 -1.0281
 6934SOL     OW32434   2.670   0.407   7.927 -0.2172  0.5324 -0.4615
 6934SOL    HW132435   2.740   0.453   7.880  1.4119 -0.6996  0.7454
 6934SOL    HW232436   2.588   0.452   7.907  0.2385  0.8177 -1.7061
 6935SOL     OW32437   3.049   1.944  10.216 -0.2605 -0.5035  0.3223
 6935SOL    HW132438   3.131   1.925  10.261 -0.4608  0.8626  1.2772
 6935SOL    HW232439   3.030   1.855  10.185 -0.3413  0.6268 -2.7815
 6936SOL     OW32440   0.652   0.808   8.864 -0.2150  0.4555 -0.5755
 6936SOL    HW132441   0.699   0.726   8.877 -0.5402  0.1602 -1.2511
 6936SOL    HW232442   0.622   0.795   8.774  0.5218  0.1746 -0.7827
 6937SOL     OW32443   0.688   0.858  16.075  0.2120 -0.7690  0.3446
 6937SOL    HW132444   0.746   0.782  16.083  0.3460 -0.8397 -1.2286
 6937SOL    HW232445   0.616   0.824  16.129  1.0986 -1.7007  0.9339
 6938SOL     OW32446   2.244   2.863   1.801 -0.2153  0.2292 -0.4449
 6938SOL    HW132447   2.287   2.898   1.723 -0.3292 -0.8172 -0.9810
 6938SOL    HW232448   2.298   2.911   1.864  0.7190  0.2923 -1.2911
 6939SOL     OW32449   1.381   2.760  11.411  0.2362  0.3451  0.2124
 6939SOL    HW132450   1.346   2.842  11.378  0.9149  0.9020  0.8854
 6939SOL    HW232451   1.421   2.792  11.491 -1.0466  2.0424  0.1699
 6940SOL     OW32452   3.288   1.986  13.815  0.3903 -0.6191 -0.4358
 6940SOL    HW132453   3.240   1.971  13.897 -3.6643  2.7490 -2.1917
 6940SOL    HW232454   3.224   1.948  13.754 -2.1984  1.7315  0.7937
 6941SOL     OW32455   3.238   0.704  14.475 -0.0047 -0.5396 -0.1879
 6941SOL    HW132456   3.282   0.742  14.551 -0.2329  0.4079 -0.5310
 6941SOL    HW232457   3.146   0.732  14.478  1.0238  2.8404  0.1876
 6942SOL     OW32458   2.095   4.693   0.213  0.3603  0.2450  0.0846
 6942SOL    HW132459   2.060   0.046   0.193 -0.3426  0.7686  3.7251
 6942SOL    HW232460   2.165   4.723   0.270  1.4612 -1.0456 -0.5673
 6943SOL     OW32461   3.180   0.547  11.401 -0.2224  0.1123 -0.4941
 6943SOL    HW132462   3.169   0.641  11.391  1.6367  0.3605 -0.1822
 6943SOL    HW232463   3.275   0.541  11.386 -0.0507  1.6816  0.0277
 6944SOL     OW32464   2.716   0.261  10.204  0.0054  0.3379 -0.1034
 6944SOL    HW132465   2.799   0.294  10.170 -0.3290  1.0315 -0.2372
 6944SOL    HW232466   2.704   0.329  10.270  0.8376 -1.1496  1.6014
 6945SOL     OW32467   3.396   2.968   7.986  0.3048  0.0549 -0.1546
 6945SOL    HW132468   3.473   3.023   7.970  0.8682 -0.2464  1.5078
 6945SOL    HW232469   3.437   2.902   8.041  1.9559 -1.4393 -3.2176
 6946SOL     OW32470   3.893   3.858   3.638  0.0626  0.4568  0.2887
 6946SOL    HW132471   3.801   3.886   3.638  1.2769  4.4400 -1.3403
 6946SOL    HW232472   3.918   3.922   3.705 -0.5332 -1.0965  1.9866
 6947SOL     OW32473   3.072   2.853   2.770 -0.4425  0.3635  0.0808
 6947SOL    HW132474   3.007   2.804   2.821 -0.9902  0.5356 -0.4544
 6947SOL    HW232475   3.091   2.914   2.841 -2.9129  2.0433 -0.7209
 6948SOL     OW32476   2.046   0.725   8.188 -0.2577  0.4304 -0.0346
 6948SOL    HW132477   2.028   0.759   8.101  0.6764  2.4525  0.5637
 6948SOL    HW232478   1.977   0.770   8.236 -1.4768 -0.7505 -0.6781
 6949SOL     OW32479   0.532   0.111   8.318  0.3556  0.3858 -0.3212
 6949SOL    HW132480   0.439   0.089   8.328  0.7008 -1.7570 -1.8743
 6949SOL    HW232481   0.531   0.139   8.227 -1.1672 -0.6684 -0.6339
 6950SOL     OW32482   0.484   1.962   6.917 -0.2176 -0.1247 -0.3744
 6950SOL    HW132483   0.579   1.975   6.920 -0.3442  1.0004 -1.3607
 6950SOL    HW232484   0.465   1.954   6.824 -1.5564  1.9673 -0.2799
 6951SOL     OW32485   4.525   1.161   5.498  0.1400 -0.0597 -0.0680
 6951SOL    HW132486   4.607   1.199   5.467  1.1355  0.3518  3.0344
 6951SOL    HW232487   4.549   1.070   5.517  1.4631  0.4936  0.9424
 6952SOL     OW32488   3.748   3.727   5.288 -0.2782  0.5885 -0.5172
 6952SOL    HW132489   3.752   3.647   5.235  2.2612  0.5244 -0.2040
 6952SOL    HW232490   3.698   3.780   5.226 -1.1326  0.7275  0.2948
 6953SOL     OW32491   3.572   1.979   8.591 -0.0250 -0.9265  0.2837
 6953SOL    HW132492   3.534   1.939   8.513 -1.8576  0.4196  0.5073
 6953SOL    HW232493   3.502   2.036   8.622  1.9880  0.5609  2.1580
 6954SOL     OW32494   3.888   1.659   3.091  0.1058  0.1016 -0.2766
 6954SOL    HW132495   3.867   1.630   3.003  0.1977 -1.7765  0.3261
 6954SOL    HW232496   3.914   1.575   3.128  1.8273  0.5348 -0.5361
 6955SOL     OW32497   0.834   2.142  12.224 -0.3130  0.5676 -0.2938
 6955SOL    HW132498   0.897   2.210  12.202  1.6076 -1.0877  0.1108
 6955SOL    HW232499   0.877   2.057  12.213  0.1703  0.9365 -1.2582
 6956SOL     OW32500   1.894   3.997   9.318 -0.7979 -0.0290 -0.3889
 6956SOL    HW132501   1.859   4.070   9.268  0.2254  1.1451  0.6393
 6956SOL    HW232502   1.901   4.038   9.404  0.5556  1.6647 -1.3256
 6957SOL     OW32503   0.321   4.224  12.569 -0.5716 -0.2448  0.6687
 6957SOL    HW132504   0.243   4.169  12.578  0.0626 -0.8206  2.7942
 6957SOL    HW232505   0.352   4.240  12.659 -0.1166 -1.3897  0.7191
 6958SOL     OW32506   1.325   1.997   6.152 -0.0721  0.5649  0.5377
 6958SOL    HW132507   1.241   1.956   6.130 -0.2822 -0.1008  2.5341
 6958SOL    HW232508   1.316   2.003   6.247  0.7917  0.7064  0.6126
 6959SOL     OW32509   1.438   1.995   1.773  0.4071  0.1779  0.3026
 6959SOL    HW132510   1.480   2.080   1.786 -0.6788  0.5676  1.2264
 6959SOL    HW232511   1.440   1.949   1.857  0.5608  0.4005  0.4219
 6960SOL     OW32512   2.767   0.176   3.435 -0.1034  0.1842 -0.5209
 6960SOL    HW132513   2.724   0.260   3.447  3.7076  2.1885 -0.8826
 6960SOL    HW232514   2.748   0.134   3.519  2.0290  2.5726  1.1212
 6961SOL     OW32515   2.316   2.256   0.550  0.2635 -0.3406  0.0787
 6961SOL    HW132516   2.398   2.256   0.600 -1.1519 -0.8571  2.4237
 6961SOL    HW232517   2.324   2.167   0.515  2.3232  0.7524 -2.1973
 6962SOL     OW32518   4.315   1.584  13.259 -0.1041 -0.2960 -0.0054
 6962SOL    HW132519   4.233   1.633  13.250  0.0989 -0.6101 -3.5932
 6962SOL    HW232520   4.362   1.652  13.307  0.6346  0.9031 -2.4029
 6963SOL     OW32521   2.363   2.147   3.227 -0.0726 -0.1124  0.4467
 6963SOL    HW132522   2.328   2.063   3.257 -0.4447 -0.6876 -1.6186
 6963SOL    HW232523   2.283   2.199   3.237 -0.1663  0.1849 -1.7778
 6964SOL     OW32524   1.967   3.080   7.441 -0.4841  0.4721 -0.4332
 6964SOL    HW132525   2.006   3.002   7.480 -0.1436  1.4989  1.3307
 6964SOL    HW232526   1.993   3.068   7.350  1.6257 -3.2775  0.6621
 6965SOL     OW32527   4.285   1.189   4.629  0.2589  0.2495 -0.0741
 6965SOL    HW132528   4.352   1.226   4.572  1.6265 -0.7447  0.8900
 6965SOL    HW232529   4.342   1.122   4.668  0.6005 -1.4822 -3.5798
 6966SOL     OW32530   0.275   4.098   6.806 -0.5609 -0.0687  0.0486
 6966SOL    HW132531   0.212   4.092   6.877 -0.5203  0.0667  0.0960
 6966SOL    HW232532   0.306   4.187   6.826  3.3338 -0.2248 -5.2444
 6967SOL     OW32533   3.387   1.436   3.909 -0.4816  0.3302  0.3431
 6967SOL    HW132534   3.350   1.395   3.832 -0.6001  1.6243 -0.2925
 6967SOL    HW232535   3.398   1.524   3.873  0.1982  0.1642  0.1450
 6968SOL     OW32536   0.592   0.699   3.952 -0.0902 -0.0023  0.6086
 6968SOL    HW132537   0.625   0.788   3.947  1.1451 -0.4940  0.0001
 6968SOL    HW232538   0.512   0.700   4.004 -1.5161  0.7198 -1.6071
 6969SOL     OW32539   1.916   4.456   4.176  0.1552 -0.1851  0.3426
 6969SOL    HW132540   2.001   4.460   4.219  0.1316 -0.3491  0.4067
 6969SOL    HW232541   1.927   4.387   4.110  2.2104  0.5858 -0.1166
 6970SOL     OW32542   0.916   4.659  10.184  0.7700 -0.1544 -0.7557
 6970SOL    HW132543   0.845   4.640  10.246 -0.3688  1.5803 -1.5212
 6970SOL    HW232544   0.984   4.595  10.206  0.0463 -1.3112 -1.8910
 6971SOL     OW32545   3.072   3.375   5.390 -0.2805  0.4207 -0.4794
 6971SOL    HW132546   3.134   3.416   5.329  0.2858  1.0095  0.4956
 6971SOL    HW232547   3.002   3.338   5.335 -0.8818  2.0392 -0.7967
 6972SOL     OW32548   3.486   3.318  14.397  0.0053  0.2235 -0.2498
 6972SOL    HW132549   3.458   3.393  14.448 -0.9096 -0.6571  0.5376
 6972SOL    HW232550   3.419   3.254  14.421 -0.9181  0.8170 -1.2910
 6973SOL     OW32551   1.050   1.396   5.635 -0.3690  0.1151  0.0030
 6973SOL    HW132552   1.122   1.387   5.698 -0.5527 -0.5391  0.1133
 6973SOL    HW232553   1.008   1.311   5.650 -1.3179  0.3774 -1.2329
 6974SOL     OW32554   3.603   3.909   7.032  0.3885  0.0206 -0.8526
 6974SOL    HW132555   3.634   3.993   7.067 -0.7445 -0.1284  0.5126
 6974SOL    HW232556   3.628   3.848   7.102 -0.2343  1.9464  1.0396
 6975SOL     OW32557   0.899   0.826   6.940 -0.3059 -0.5742  0.4940
 6975SOL    HW132558   0.860   0.744   6.970  1.0273 -0.7250  1.8183
 6975SOL    HW232559   0.967   0.853   7.001  0.6293  0.2949 -0.9429
 6976SOL     OW32560   2.964   3.141   3.650  0.2520 -0.4794 -0.9110
 6976SOL    HW132561   3.024   3.209   3.619  0.1299 -0.2614 -0.6694
 6976SOL    HW232562   2.885   3.167   3.603  0.4992 -1.3716 -1.8160
 6977SOL     OW32563   3.458   2.402  12.884 -0.3607 -0.0217  0.3587
 6977SOL    HW132564   3.515   2.453  12.826 -2.8957 -0.1169 -2.2105
 6977SOL    HW232565   3.391   2.377  12.821 -0.1724  1.4227 -0.4229
 6978SOL     OW32566   0.685   3.033   8.851  0.6206  0.0008 -0.2616
 6978SOL    HW132567   0.718   3.028   8.940  0.8576  2.4856 -0.1979
 6978SOL    HW232568   0.733   3.106   8.813 -2.0171  0.7245 -2.2699
 6979SOL     OW32569   2.022   3.956   8.876  0.0684 -0.4944 -0.6145
 6979SOL    HW132570   2.102   3.999   8.843  1.0763 -1.6646  0.3017
 6979SOL    HW232571   2.066   3.873   8.897 -1.0951 -1.2519 -1.2448
 6980SOL     OW32572   4.713   0.958   7.776 -0.1919 -0.3543  0.0687
 6980SOL    HW132573   0.032   0.947   7.855 -2.4578  0.2091  1.6612
 6980SOL    HW232574   0.033   0.902   7.721 -1.6370  1.3284 -3.0599
 6981SOL     OW32575   0.135   0.331   2.829  0.8411  0.4698 -0.4510
 6981SOL    HW132576   0.066   0.380   2.874  1.4260 -0.6044  1.5936
 6981SOL    HW232577   0.101   0.327   2.739 -1.8705 -2.2120  0.6827
 6982SOL     OW32578   1.180   2.308  14.394 -0.3944  0.2507 -1.4083
 6982SOL    HW132579   1.132   2.387  14.421  4.0614  3.3591 -2.5743
 6982SOL    HW232580   1.251   2.355  14.350 -0.4048  3.7347  2.2548
 6983SOL     OW32581   2.058   2.483   5.428 -0.1308  0.1378  0.1389
 6983SOL    HW132582   2.112   2.416   5.385  0.1254 -0.1340  0.8853
 6983SOL    HW232583   2.120   2.546   5.466  0.4889 -0.3925  0.0176
 6984SOL     OW32584   1.517   2.580   1.173  0.4266 -0.0808  0.3409
 6984SOL    HW132585   1.482   2.556   1.087 -0.3097  1.4594  0.2146
 6984SOL    HW232586   1.606   2.607   1.151  0.3176  0.2188  0.2664
 6985SOL     OW32587   1.998   1.022   2.168 -0.6585 -0.3095 -0.0551
 6985SOL    HW132588   1.936   1.085   2.133  0.7222  1.4796  0.7224
 6985SOL    HW232589   1.982   1.023   2.262 -1.0457 -0.7633 -0.1175
 6986SOL     OW32590   0.587   3.617   9.909 -0.7499  0.2747  0.4896
 6986SOL    HW132591   0.681   3.632   9.917 -0.2057 -2.8762 -0.0515
 6986SOL    HW232592   0.570   3.551   9.976  0.0257 -0.3060  0.1123
 6987SOL     OW32593   0.501   1.407  17.578 -0.2780  0.0600 -0.1299
 6987SOL    HW132594   0.555   1.407  17.657  0.2128 -1.2934 -0.4646
 6987SOL    HW232595   0.445   1.483  17.593 -2.5318 -1.1633 -2.2164
 6988SOL     OW32596   2.936   1.475  17.278  0.1974 -0.0171  0.5151
 6988SOL    HW132597   2.869   1.485  17.211  0.5309 -0.5707  0.0993
 6988SOL    HW232598   3.010   1.528  17.247 -0.5304  1.0972  0.6850
 6989SOL     OW32599   1.151   1.112   2.177  0.5348  0.0930  0.6065
 6989SOL    HW132600   1.107   1.190   2.211  0.2256  1.0235 -1.9145
 6989SOL    HW232601   1.239   1.113   2.213  0.2772 -1.0641  1.2599
 6990SOL     OW32602   0.626   1.910   9.424  0.4023 -0.1172 -0.0151
 6990SOL    HW132603   0.611   1.923   9.331  0.2814  1.9266  0.2949
 6990SOL    HW232604   0.689   1.839   9.415  0.6900 -0.0659  1.4941
 6991SOL     OW32605   2.520   1.791   9.273  0.6768  0.0511  0.0909
 6991SOL    HW132606   2.610   1.803   9.303  0.6860 -2.2237  0.9749
 6991SOL    HW232607   2.487   1.880   9.286 -0.0698 -0.3682  1.1092
 6992SOL     OW32608   3.622   4.199   5.445  0.5276 -1.3602 -0.1673
 6992SOL    HW132609   3.557   4.135   5.474  2.1927 -2.3033  1.5387
 6992SOL    HW232610   3.696   4.155   5.404  2.4481  0.4703  1.3055
 6993SOL     OW32611   0.167   2.969   8.564  0.5698  0.0520  0.8197
 6993SOL    HW132612   0.163   2.893   8.623 -0.1456 -0.7534 -0.2698
 6993SOL    HW232613   0.074   2.988   8.554  0.2890 -1.0839  1.2265
 6994SOL     OW32614   1.290   3.388   0.334 -0.4535  0.1478 -0.0529
 6994SOL    HW132615   1.218   3.376   0.272  1.8031  1.2376 -2.8854
 6994SOL    HW232616   1.356   3.394   0.264  0.3376 -1.8912  0.5115
 6995SOL     OW32617   1.647   3.188   6.827 -0.7807  0.6230  0.7163
 6995SOL    HW132618   1.561   3.192   6.786  0.0268  0.4784 -0.9972
 6995SOL    HW232619   1.635   3.125   6.898 -0.8661 -0.9631 -0.7262
 6996SOL     OW32620   0.899   3.335   4.863 -0.2255 -0.4057  0.2063
 6996SOL    HW132621   0.910   3.284   4.943  1.3109 -0.7608 -0.2257
 6996SOL    HW232622   0.952   3.413   4.879  0.2350 -0.4114 -1.2407
 6997SOL     OW32623   1.271   1.814  11.190  0.3563 -0.4079  0.0314
 6997SOL    HW132624   1.289   1.789  11.280  0.0501  0.9718  0.4683
 6997SOL    HW232625   1.347   1.863  11.158  0.0668  0.8054  1.2279
 6998SOL     OW32626   4.224   4.701  12.107  0.3955 -0.5174 -0.2772
 6998SOL    HW132627   4.189   4.616  12.129  1.0601 -1.2713 -2.0944
 6998SOL    HW232628   4.281   4.691  12.030  1.5534  0.1064  0.4872
 6999SOL     OW32629   1.961   4.306  12.676 -0.6144  0.0018  0.0101
 6999SOL    HW132630   1.944   4.262  12.593 -0.0844  1.0567 -0.6459
 6999SOL    HW232631   2.001   4.389  12.650  1.5285 -0.3723  2.1473
 7000SOL     OW32632   3.380   0.436   3.700  0.2506  0.8264 -0.1503
 7000SOL    HW132633   3.312   0.479   3.751  0.8009 -0.2771  1.4957
 7000SOL    HW232634   3.456   0.487   3.728 -0.0661  0.5083  1.3099
 7001SOL     OW32635   0.236   1.254  15.176  0.1255 -0.1797 -0.5540
 7001SOL    HW132636   0.258   1.302  15.097  0.1808 -0.6557 -0.8297
 7001SOL    HW232637   0.187   1.189  15.125  0.9359 -1.1310 -0.1264
 7002SOL     OW32638   0.954   0.960   5.913  0.2775 -0.6065 -0.3293
 7002SOL    HW132639   0.871   0.914   5.918  1.4196 -2.5625  0.7840
 7002SOL    HW232640   1.013   0.889   5.938 -0.7197 -1.5587 -0.7232
 7003SOL     OW32641   3.795   0.772   0.801 -0.0874 -0.0659 -0.5410
 7003SOL    HW132642   3.710   0.815   0.796 -1.3470 -2.2966  1.7717
 7003SOL    HW232643   3.810   0.732   0.715  1.1513  1.2706 -0.9567
 7004SOL     OW32644   3.409   3.489  12.429  0.2526 -1.0501 -0.1680
 7004SOL    HW132645   3.489   3.440  12.447  0.0851 -0.9261  0.8922
 7004SOL    HW232646   3.338   3.447  12.478  0.2680  0.2695  0.9820
 7005SOL     OW32647   0.800   0.372   2.332 -0.4072  0.4237  0.0400
 7005SOL    HW132648   0.725   0.406   2.382 -1.1418 -1.2184  0.0503
 7005SOL    HW232649   0.873   0.418   2.374 -1.0591 -0.8673  2.5575
 7006SOL     OW32650   2.531   3.643   9.932  0.2348  0.0933  0.2808
 7006SOL    HW132651   2.502   3.591  10.008  0.1766  2.3269  1.7841
 7006SOL    HW232652   2.511   3.586   9.858 -0.5164  0.5161  0.1568
 7007SOL     OW32653   0.130   3.145  14.123  0.6483 -0.6160 -0.7361
 7007SOL    HW132654   0.039   3.139  14.151  0.3140  2.8583 -1.1181
 7007SOL    HW232655   0.176   3.131  14.206 -1.8169  2.0027  1.0319
 7008SOL     OW32656   3.961   3.290   5.463  0.0730 -0.1401 -0.0620
 7008SOL    HW132657   3.926   3.274   5.551 -0.1169  0.3551 -0.0486
 7008SOL    HW232658   3.885   3.318   5.413  0.6926 -0.2233 -1.0399
 7009SOL     OW32659   4.641   1.317   6.583  0.9827  0.4261  0.1999
 7009SOL    HW132660   4.618   1.409   6.572  0.0557  0.2368  0.5131
 7009SOL    HW232661   4.629   1.310   6.678 -0.6489 -1.3554 -0.1342
 7010SOL     OW32662   1.206   2.113   5.576  0.6480  0.1953  0.4309
 7010SOL    HW132663   1.179   2.038   5.630  1.1729 -1.1498 -1.1830
 7010SOL    HW232664   1.224   2.062   5.498  0.1424  0.9579 -0.1785
 7011SOL     OW32665   2.095   1.836  15.548  0.0360 -0.1955 -0.2806
 7011SOL    HW132666   2.041   1.767  15.511  0.1243 -0.0784 -0.6301
 7011SOL    HW232667   2.030   1.901  15.573  0.1891 -0.7519  1.5689
 7012SOL     OW32668   4.145   4.615   3.558  0.2951 -0.1999  0.0488
 7012SOL    HW132669   4.127   4.652   3.645 -0.7413 -0.5154 -0.0195
 7012SOL    HW232670   4.175   4.526   3.578  0.3531 -0.5127 -1.4163
 7013SOL     OW32671   2.799   0.546   9.335  0.3153 -0.2952  0.4952
 7013SOL    HW132672   2.707   0.571   9.342 -0.0512 -0.7733 -2.6626
 7013SOL    HW232673   2.794   0.458   9.374  0.2998  0.0989  1.3812
 7014SOL     OW32674   0.746   0.760   7.820 -0.4034  0.0868  0.6148
 7014SOL    HW132675   0.814   0.821   7.792 -1.0002  0.3325 -0.3109
 7014SOL    HW232676   0.690   0.763   7.742 -1.0862  0.3618  1.1269
 7015SOL     OW32677   1.925   2.878   8.907 -0.4058  0.0534 -0.1882
 7015SOL    HW132678   1.847   2.865   8.962  0.3153  0.5977  0.9589
 7015SOL    HW232679   1.884   2.850   8.825 -1.5535  1.6276 -0.1436
 7016SOL     OW32680   1.439   0.187   9.087 -0.0174 -0.6497 -0.1449
 7016SOL    HW132681   1.420   0.269   9.041  0.0393  0.0021  0.9837
 7016SOL    HW232682   1.363   0.134   9.062 -0.2956  0.0006 -0.6899
 7017SOL     OW32683   0.293   3.593   1.875 -0.0330 -0.3785  0.1305
 7017SOL    HW132684   0.224   3.643   1.830 -1.3851 -0.6708  1.9131
 7017SOL    HW232685   0.264   3.503   1.865  0.4351 -0.2699 -2.3493
 7018SOL     OW32686   0.086   0.200   4.111  0.2677 -0.4436 -0.3268
 7018SOL    HW132687   0.102   0.197   4.017  2.1909  0.2426 -0.0413
 7018SOL    HW232688   0.130   0.122   4.143  2.6656  0.2903 -1.8015
 7019SOL     OW32689   3.356   0.846   5.983  0.1886  0.2842  0.5937
 7019SOL    HW132690   3.428   0.787   6.005 -0.4402 -0.2783  1.1417
 7019SOL    HW232691   3.395   0.878   5.902 -0.0618 -1.0072 -0.0390
 7020SOL     OW32692   0.911   4.276  13.781 -0.1318  0.1035  0.0539
 7020SOL    HW132693   0.845   4.224  13.735  1.3693 -0.1920 -1.7195
 7020SOL    HW232694   0.902   4.362  13.740  2.9321  1.6066  2.4988
 7021SOL     OW32695   4.585   4.440   1.638 -0.3661 -0.6090 -0.5558
 7021SOL    HW132696   4.579   4.509   1.572 -0.9843  1.9940  2.2122
 7021SOL    HW232697   4.626   4.488   1.709 -0.0083 -0.2343 -1.0163
 7022SOL     OW32698   2.662   3.499  14.887  0.4939  0.8550  0.6962
 7022SOL    HW132699   2.691   3.581  14.845 -0.1199  1.1591  0.8656
 7022SOL    HW232700   2.663   3.443  14.809  1.0666  3.1952 -0.9854
 7023SOL     OW32701   4.664   3.809   7.509  0.0497 -0.3746  0.4328
 7023SOL    HW132702   4.637   3.756   7.434  1.5596  1.5814 -1.4926
 7023SOL    HW232703   0.019   3.839   7.489 -0.8859  0.8541 -1.8497
 7024SOL     OW32704   4.315   3.790   6.090  0.3337  0.0695 -0.0529
 7024SOL    HW132705   4.223   3.789   6.061  0.6147  3.1029 -1.0886
 7024SOL    HW232706   4.320   3.882   6.117  0.2546  0.4472 -1.3152
 7025SOL     OW32707   1.551   0.402  14.368 -0.3848  0.1220  0.0897
 7025SOL    HW132708   1.643   0.428  14.361 -0.3245  0.1882  1.2599
 7025SOL    HW232709   1.521   0.487  14.401 -1.7892 -1.1269  2.0003
 7026SOL     OW32710   3.093   1.063   7.640  0.2818  0.1990  0.3822
 7026SOL    HW132711   3.095   1.157   7.626  0.1723  0.1223 -0.1751
 7026SOL    HW232712   3.033   1.031   7.572 -1.1112  1.0739  1.2089
 7027SOL     OW32713   1.829   3.308   8.826 -0.2285  0.0373  0.8120
 7027SOL    HW132714   1.787   3.252   8.761  2.2137 -1.7581  0.8120
 7027SOL    HW232715   1.769   3.382   8.812 -1.3415 -0.9670  0.2506
 7028SOL     OW32716   0.452   0.852  14.596  0.1779 -0.2568  0.2717
 7028SOL    HW132717   0.382   0.918  14.596 -2.0252 -2.5794 -0.0931
 7028SOL    HW232718   0.418   0.787  14.535 -2.9916 -0.8555  2.6607
 7029SOL     OW32719   2.236   0.359   5.545  0.4745 -0.2772  0.0639
 7029SOL    HW132720   2.321   0.346   5.587  0.4198 -0.6107  0.0703
 7029SOL    HW232721   2.266   0.353   5.454  3.8974 -2.4524  1.3410
 7030SOL     OW32722   4.305   3.705   8.882  0.3460 -0.0478  0.4755
 7030SOL    HW132723   4.370   3.766   8.918 -0.9468  1.5949  0.0232
 7030SOL    HW232724   4.235   3.769   8.871  0.4660 -0.2198 -1.2963
 7031SOL     OW32725   1.804   4.412  15.525 -0.1198 -0.2530  0.2606
 7031SOL    HW132726   1.793   4.317  15.525 -0.9774 -0.1451  1.2043
 7031SOL    HW232727   1.712   4.434  15.513  0.1113  0.8173  0.4427
 7032SOL     OW32728   1.654   2.546   3.299 -0.2828 -0.1542  0.8825
 7032SOL    HW132729   1.642   2.612   3.368 -0.2924  1.1227 -0.3348
 7032SOL    HW232730   1.667   2.607   3.227 -0.8412 -0.5051  0.4907
 7033SOL     OW32731   3.435   2.503   7.500  0.2258 -0.2904  0.2851
 7033SOL    HW132732   3.473   2.482   7.585  0.3617  0.4430  0.4072
 7033SOL    HW232733   3.389   2.420   7.508 -0.1316 -0.1104  0.0679
 7034SOL     OW32734   4.085   0.600  10.819 -0.8655 -0.6864  0.1507
 7034SOL    HW132735   4.179   0.590  10.828 -0.6271  1.1990 -0.3154
 7034SOL    HW232736   4.078   0.694  10.804  0.1810 -0.4759  0.9804
 7035SOL     OW32737   0.982   2.384   4.770  0.1170 -0.1897  0.5729
 7035SOL    HW132738   0.988   2.296   4.808  0.4330 -0.7794 -0.8440
 7035SOL    HW232739   1.058   2.434   4.801  2.2225 -1.9351 -1.7812
 7036SOL     OW32740   3.821   2.276  12.674  0.3961  0.3524  0.1278
 7036SOL    HW132741   3.748   2.227  12.713  0.3493  0.7025  0.4738
 7036SOL    HW232742   3.902   2.241  12.712 -0.2249 -0.6342  0.5441
 7037SOL     OW32743   2.859   1.695  14.855 -0.4868  0.6981 -0.5336
 7037SOL    HW132744   2.827   1.645  14.780  0.9734  1.0686 -1.4124
 7037SOL    HW232745   2.856   1.622  14.917 -1.8100  0.6102 -0.7128
 7038SOL     OW32746   3.714   2.183   7.603  0.0419  0.2054 -0.4395
 7038SOL    HW132747   3.800   2.161   7.640 -0.3080 -0.0700  0.2136
 7038SOL    HW232748   3.685   2.094   7.583  1.0474  0.0872 -1.3181
 7039SOL     OW32749   3.570   4.157  10.305 -0.3791  0.0760 -0.4200
 7039SOL    HW132750   3.592   4.174  10.213  0.7942  1.1070  0.0561
 7039SOL    HW232751   3.478   4.131  10.298 -0.3321  0.0778 -1.0815
 7040SOL     OW32752   1.922   2.408  10.568  0.2921  0.5013  0.6826
 7040SOL    HW132753   1.869   2.395  10.647 -0.9774 -3.3835 -0.8075
 7040SOL    HW232754   1.863   2.470  10.525 -0.7646 -0.5028  0.6566
 7041SOL     OW32755   0.646   2.227   5.120  0.4643 -0.2773 -0.0546
 7041SOL    HW132756   0.606   2.290   5.180  0.5583 -1.9419  1.7718
 7041SOL    HW232757   0.705   2.285   5.073  1.9175 -1.4462  0.3483
 7042SOL     OW32758   3.988   4.156   2.061 -0.4226  0.0080  0.3021
 7042SOL    HW132759   4.024   4.235   2.022  0.1789 -0.3980  0.0324
 7042SOL    HW232760   4.040   4.159   2.141  0.6345 -4.0801 -0.2305
 7043SOL     OW32761   4.033   3.208  16.896 -0.1041 -0.8488 -0.3335
 7043SOL    HW132762   3.983   3.155  16.960 -0.5030 -1.5613 -1.2334
 7043SOL    HW232763   4.118   3.226  16.934 -0.9286  1.0304  0.6239
 7044SOL     OW32764   3.817   3.785   1.740  0.1413  0.3367  0.2806
 7044SOL    HW132765   3.893   3.757   1.792  1.2447 -0.2476 -1.5992
 7044SOL    HW232766   3.865   3.813   1.662 -0.3777 -1.5149 -0.7163
 7045SOL     OW32767   1.942   1.064   1.715 -0.4547 -0.2965 -0.2306
 7045SOL    HW132768   1.910   1.154   1.712  0.7585  0.1573  0.4318
 7045SOL    HW232769   2.035   1.086   1.708 -0.6389  0.4639 -0.3007
 7046SOL     OW32770   1.064   3.686  14.557  0.1064  0.0263 -0.1160
 7046SOL    HW132771   1.143   3.678  14.504  0.7630  0.6409  0.7723
 7046SOL    HW232772   1.055   3.781  14.549  0.7272  0.0286 -0.8446
 7047SOL     OW32773   0.025   1.251   5.413  0.6603 -0.1469 -0.0984
 7047SOL    HW132774   0.068   1.177   5.369 -1.3081 -1.4831  0.1976
 7047SOL    HW232775   0.096   1.315   5.423  0.4732  0.2784 -1.5180
 7048SOL     OW32776   0.045   3.462  16.948 -0.0944  0.3335 -0.4215
 7048SOL    HW132777   0.136   3.444  16.969 -0.0501  1.6853  0.5151
 7048SOL    HW232778   0.046   3.401  16.875 -0.0726 -0.6810  0.4363
 7049SOL     OW32779   3.680   3.194   8.758 -0.0261 -0.1819  0.0963
 7049SOL    HW132780   3.676   3.102   8.732 -1.2824 -0.1225  0.0936
 7049SOL    HW232781   3.737   3.228   8.688 -1.0516  0.8299 -0.2551
 7050SOL     OW32782   0.091   0.053   4.896  0.2238  0.6784 -0.5956
 7050SOL    HW132783   0.091   0.149   4.896  0.1228  0.6771 -0.2263
 7050SOL    HW232784   0.149   0.045   4.820 -0.2103  0.4280 -0.8987
 7051SOL     OW32785   3.063   4.513   6.775 -0.2695 -0.0960 -0.1171
 7051SOL    HW132786   3.012   4.587   6.809  0.9062  0.7634 -0.2273
 7051SOL    HW232787   3.147   4.518   6.821 -1.3263  0.8399  1.6938
 7052SOL     OW32788   1.472   2.853   5.814 -0.4541  0.3293 -0.0968
 7052SOL    HW132789   1.379   2.843   5.796 -0.1705 -0.5650 -1.1114
 7052SOL    HW232790   1.505   2.775   5.768 -2.4720  1.2425 -3.0455
 7053SOL     OW32791   1.805   3.790   5.794 -0.3566  0.0278  0.0013
 7053SOL    HW132792   1.867   3.786   5.866  1.4684 -1.6427 -1.6417
 7053SOL    HW232793   1.776   3.699   5.787 -0.3573  0.0796 -0.7034
 7054SOL     OW32794   2.094   3.902   5.231 -0.3710 -0.2597 -0.0758
 7054SOL    HW132795   2.171   3.855   5.265 -2.1440 -0.8329  3.1173
 7054SOL    HW232796   2.033   3.828   5.229 -1.0349  0.3044 -0.6455
 7055SOL     OW32797   0.155   3.371   2.667 -0.1291  0.1302  0.4508
 7055SOL    HW132798   0.121   3.381   2.578  2.0684 -1.2696 -0.5502
 7055SOL    HW232799   0.226   3.315   2.635 -2.1959 -2.4273  0.4048
 7056SOL     OW32800   4.714   4.011   6.396  0.2211  0.7516 -0.6079
 7056SOL    HW132801   4.661   3.981   6.470 -1.9384  0.7669 -2.1455
 7056SOL    HW232802   4.728   4.102   6.421 -1.0821  0.4575  1.2475
 7057SOL     OW32803   3.197   2.998   3.994  0.2286 -0.1724 -0.0786
 7057SOL    HW132804   3.162   2.996   3.905  0.0783 -0.2975 -0.0178
 7057SOL    HW232805   3.236   2.910   3.988  0.6805 -0.0519  1.1438
 7058SOL     OW32806   4.510   0.638   8.032  0.2996  0.2606  0.3152
 7058SOL    HW132807   4.471   0.617   8.117  0.1009  0.8619  0.3751
 7058SOL    HW232808   4.485   0.731   8.029  0.7576  0.3359 -1.3223
 7059SOL     OW32809   3.954   3.805   7.367  0.1553  0.5231 -0.0848
 7059SOL    HW132810   3.924   3.734   7.424 -0.5411 -1.6606 -3.1772
 7059SOL    HW232811   3.936   3.759   7.285  0.0327 -0.8886  0.7293
 7060SOL     OW32812   2.547   3.323   4.914  0.4777  0.5764 -0.6548
 7060SOL    HW132813   2.527   3.286   4.828 -0.0832 -0.2658 -0.1598
 7060SOL    HW232814   2.578   3.409   4.886  0.8658  0.6560  0.0189
 7061SOL     OW32815   1.694   3.012   3.213  0.2437 -0.5878  0.2482
 7061SOL    HW132816   1.664   2.953   3.282 -0.7032 -0.3599  0.0241
 7061SOL    HW232817   1.700   2.955   3.137 -0.5034 -0.6121  0.2087
 7062SOL     OW32818   4.722   1.126  16.405  0.5592 -0.4984  0.6594
 7062SOL    HW132819   4.645   1.165  16.364  0.1962 -1.7207  0.1523
 7062SOL    HW232820   0.052   1.163  16.345  1.6109  0.4085  2.3517
 7063SOL     OW32821   3.378   2.715   2.499  0.3217 -0.3981 -0.1718
 7063SOL    HW132822   3.371   2.792   2.556 -0.1421  0.5353 -1.4730
 7063SOL    HW232823   3.466   2.686   2.524 -0.7300 -1.3084  2.5011
 7064SOL     OW32824   1.650   2.160   5.999  0.0546 -0.2554  0.4035
 7064SOL    HW132825   1.705   2.228   5.961 -0.6861 -0.0800 -0.3550
 7064SOL    HW232826   1.703   2.085   5.973 -1.2329  0.1461 -3.3479
 7065SOL     OW32827   1.921   0.436   7.239 -0.5546  0.5684 -0.0923
 7065SOL    HW132828   1.845   0.433   7.297 -0.4901  0.2415 -0.0258
 7065SOL    HW232829   1.893   0.369   7.175  1.3820 -0.4143  0.1026
 7066SOL     OW32830   2.558   3.957   4.541 -0.1375 -0.3764 -0.1885
 7066SOL    HW132831   2.618   3.883   4.548 -0.1347 -0.3769 -0.2218
 7066SOL    HW232832   2.475   3.922   4.576  0.2862 -1.4840 -0.3016
 7067SOL     OW32833   3.795   1.262   0.512  0.1315 -0.1611  0.1067
 7067SOL    HW132834   3.762   1.182   0.553 -0.6580  0.0867 -0.0300
 7067SOL    HW232835   3.833   1.237   0.428  0.6022  1.3488 -0.1313
 7068SOL     OW32836   2.864   3.138   7.185  0.8359 -0.6865 -0.2378
 7068SOL    HW132837   2.917   3.061   7.208 -1.3407 -2.3231 -0.7610
 7068SOL    HW232838   2.787   3.103   7.142  0.4293  0.6076 -0.5746
 7069SOL     OW32839   2.181   4.422   4.307 -0.5680 -0.5873 -0.1730
 7069SOL    HW132840   2.139   4.350   4.355  2.0197 -0.7069  1.9121
 7069SOL    HW232841   2.222   4.464   4.382 -0.4565 -1.7883  0.4316
 7070SOL     OW32842   0.369   0.924  12.110  0.0047  0.4363  0.3087
 7070SOL    HW132843   0.443   0.876  12.147 -0.9274 -0.6848  0.6911
 7070SOL    HW232844   0.295   0.899  12.165  0.3341  0.2137  0.6496
 7071SOL     OW32845   1.270   4.443   3.868 -0.1648 -0.5874  0.2816
 7071SOL    HW132846   1.236   4.428   3.956  0.7369 -0.4087  0.6681
 7071SOL    HW232847   1.359   4.464   3.899  0.2504 -0.0787 -1.2756
 7072SOL     OW32848   2.015   2.304  16.041 -0.5640 -0.1574  0.0749
 7072SOL    HW132849   2.047   2.367  15.977 -0.2228  0.9271  1.3150
 7072SOL    HW232850   2.091   2.300  16.099 -1.5535  1.3141  1.4580
 7073SOL     OW32851   0.165   0.651   0.580 -0.0133 -0.1768  0.0899
 7073SOL    HW132852   0.179   0.694   0.495 -1.9551 -1.8936 -1.0807
 7073SOL    HW232853   0.110   0.577   0.555  2.0186 -2.1090  1.3125
 7074SOL     OW32854   2.253   0.482   2.812 -0.0326  0.3092  0.4903
 7074SOL    HW132855   2.254   0.491   2.717 -3.0448  3.0448  0.7323
 7074SOL    HW232856   2.227   0.573   2.823  0.6062  0.2152  2.7790
 7075SOL     OW32857   2.171   0.023   9.204  0.6841 -0.5414 -0.3145
 7075SOL    HW132858   2.152   4.696   9.275  0.9719  1.3592  1.4103
 7075SOL    HW232859   2.097   0.020   9.143  0.5035 -1.6431 -0.0339
 7076SOL     OW32860   4.682   0.920   1.565 -0.4120  0.3638 -0.0741
 7076SOL    HW132861   4.605   0.977   1.576  0.1363  0.7443  1.8141
 7076SOL    HW232862   4.636   0.849   1.609 -1.1233  0.1881 -1.1072
 7077SOL     OW32863   3.938   3.906   4.724 -0.0966  0.1557 -0.0401
 7077SOL    HW132864   4.017   3.861   4.693 -0.4724 -0.1740 -0.5019
 7077SOL    HW232865   3.946   3.987   4.674 -0.8399 -0.5917 -1.3535
 7078SOL     OW32866   4.445   2.516   2.419 -0.0809  0.0382  0.6549
 7078SOL    HW132867   4.422   2.525   2.326  0.0834  3.4806  0.9376
 7078SOL    HW232868   4.541   2.521   2.420 -0.1245  0.5272  1.6075
 7079SOL     OW32869   1.074   3.159   6.880 -0.2700 -0.2780  0.0636
 7079SOL    HW132870   1.095   3.252   6.880 -0.0028 -0.3405 -1.4765
 7079SOL    HW232871   0.987   3.151   6.920  0.7774 -1.1977  2.1857
 7080SOL     OW32872   2.321   1.504  15.690 -0.2712 -0.3185  0.0930
 7080SOL    HW132873   2.341   1.507  15.597  0.5697  0.5867  0.2975
 7080SOL    HW232874   2.228   1.524  15.694 -0.4756 -1.1755 -0.5329
 7081SOL     OW32875   1.570   1.769  11.341  0.4033  0.0321 -0.7085
 7081SOL    HW132876   1.483   1.778  11.379  0.8481  1.5962 -0.0556
 7081SOL    HW232877   1.576   1.853  11.295 -0.1331  0.1211 -0.6088
 7082SOL     OW32878   2.279   1.069   2.141 -0.3665  0.0717 -0.1589
 7082SOL    HW132879   2.290   1.145   2.084  0.9699 -1.1676 -1.5449
 7082SOL    HW232880   2.183   1.064   2.145 -0.4692  2.6754  0.4056
 7083SOL     OW32881   2.713   2.587  17.553 -0.3093  0.4535 -0.2655
 7083SOL    HW132882   2.623   2.557  17.566  0.3104 -0.3568  2.0243
 7083SOL    HW232883   2.750   2.502  17.577  1.6685  1.2831 -0.3717
 7084SOL     OW32884   2.444   1.216   6.791  0.2880  0.5039 -0.2224
 7084SOL    HW132885   2.360   1.261   6.792  0.4828  0.8840 -0.8851
 7084SOL    HW232886   2.423   1.123   6.790 -2.1209  1.0780 -1.5357
 7085SOL     OW32887   3.393   4.052   9.177  0.1330  0.3042 -0.1601
 7085SOL    HW132888   3.429   4.139   9.194  1.1930 -0.2241  0.3124
 7085SOL    HW232889   3.472   3.999   9.193 -1.5307 -1.8640  0.8991
 7086SOL     OW32890   4.299   4.453   7.049 -0.0694 -0.0431 -0.3717
 7086SOL    HW132891   4.231   4.388   7.065  3.6083 -2.9739  3.3801
 7086SOL    HW232892   4.249   4.496   6.979  0.0787  2.0288  0.8066
 7087SOL     OW32893   4.351   1.890  13.712  0.5704  0.2423 -0.3846
 7087SOL    HW132894   4.392   1.836  13.780 -1.2928  0.8172  1.1931
 7087SOL    HW232895   4.391   1.977  13.707 -0.3687  0.6621 -0.5296
 7088SOL     OW32896   2.487   0.877   8.672  0.6054 -0.5861 -0.0155
 7088SOL    HW132897   2.501   0.854   8.763 -0.0750 -0.6841  0.0639
 7088SOL    HW232898   2.534   0.811   8.621  0.2477 -1.9886  1.4925
 7089SOL     OW32899   1.030   4.699   1.291 -0.1763 -0.0340  0.3200
 7089SOL    HW132900   0.961   4.643   1.256  0.1552 -1.1059  1.3951
 7089SOL    HW232901   0.987   0.006   1.365  2.1879 -1.7851  2.6440
 7090SOL     OW32902   3.726   2.171   5.865 -0.6948 -0.1959  0.3553
 7090SOL    HW132903   3.738   2.215   5.781 -0.3303 -1.7739 -0.3976
 7090SOL    HW232904   3.731   2.080   5.838 -2.2335 -0.3394  0.5478
 7091SOL     OW32905   4.285   0.552  11.248  0.2055 -0.3134  0.0501
 7091SOL    HW132906   4.270   0.494  11.174  0.9263 -1.3484  0.6956
 7091SOL    HW232907   4.381   0.559  11.253  0.1408  0.8425 -0.4396
 7092SOL     OW32908   1.407   4.568   7.316  0.7886  0.6778 -0.2313
 7092SOL    HW132909   1.384   4.476   7.330 -1.4853  1.0859 -1.3582
 7092SOL    HW232910   1.503   4.568   7.323  0.7939 -2.0163 -0.1921
 7093SOL     OW32911   0.695   2.073   3.082 -0.1175  0.5309  0.6611
 7093SOL    HW132912   0.622   2.100   3.138 -1.1766 -1.7993  0.3821
 7093SOL    HW232913   0.713   1.985   3.113 -0.2623 -0.1059 -1.0911
 7094SOL     OW32914   4.520   2.048   1.863 -0.0295 -0.6215 -0.1019
 7094SOL    HW132915   4.486   2.128   1.904  3.9642  1.1274 -0.1698
 7094SOL    HW232916   4.461   2.042   1.788 -2.1974  0.6184  1.5062
 7095SOL     OW32917   2.454   3.642   9.646  0.1770  0.7750  0.1629
 7095SOL    HW132918   2.369   3.609   9.675 -0.0553 -0.2304 -1.6882
 7095SOL    HW232919   2.428   3.710   9.583  1.1931  1.5595  0.5840
 7096SOL     OW32920   2.064   4.107   7.457  0.3970 -0.8192 -0.2324
 7096SOL    HW132921   2.128   4.159   7.505 -3.2062  2.5095  0.9553
 7096SOL    HW232922   1.991   4.110   7.518  1.1714 -0.2202  0.6658
 7097SOL     OW32923   3.204   0.233  17.246  0.4517  0.2625 -0.1404
 7097SOL    HW132924   3.155   0.297  17.194 -0.5656 -0.0140  0.4767
 7097SOL    HW232925   3.221   0.170  17.176  1.4018 -0.0350  0.3573
 7098SOL     OW32926   3.148   2.338   0.710  0.5775  0.1564 -0.3421
 7098SOL    HW132927   3.216   2.298   0.655  2.0371 -1.7944  2.8512
 7098SOL    HW232928   3.127   2.266   0.769 -2.6453  0.8778 -0.6222
 7099SOL     OW32929   3.970   3.348   9.295 -0.3586 -0.3097 -0.2238
 7099SOL    HW132930   3.902   3.296   9.339  0.8988 -1.4747  0.3376
 7099SOL    HW232931   3.935   3.360   9.206 -1.2923  0.8559  0.3054
 7100SOL     OW32932   0.296   1.355  11.213 -0.4449  0.5703 -0.2893
 7100SOL    HW132933   0.366   1.360  11.148  0.8878  0.8966  1.1679
 7100SOL    HW232934   0.220   1.341  11.156 -1.0597 -0.5747  0.8310
 7101SOL     OW32935   2.471   0.442  14.816 -0.2077 -0.2297  0.5424
 7101SOL    HW132936   2.539   0.469  14.878  0.5144  1.0567 -0.8067
 7101SOL    HW232937   2.487   0.348  14.814 -0.3380 -0.2177 -0.9298
 7102SOL     OW32938   1.661   4.449   6.792 -0.6403 -0.0067 -0.1663
 7102SOL    HW132939   1.700   4.508   6.857 -0.9407  0.2344 -0.2026
 7102SOL    HW232940   1.584   4.499   6.764 -1.8634 -1.8954 -0.1595
 7103SOL     OW32941   2.673   3.462  16.825 -0.6451 -0.0416 -0.2814
 7103SOL    HW132942   2.616   3.434  16.754  1.2188 -1.3770 -1.2390
 7103SOL    HW232943   2.662   3.392  16.889  0.6127  2.8001  3.1075
 7104SOL     OW32944   0.372   2.880  17.612 -0.4053  0.3025 -0.0423
 7104SOL    HW132945   0.441   2.845  17.556 -1.9052 -1.2454 -0.9112
 7104SOL    HW232946   0.401   2.843  17.695 -1.0419 -1.6119 -0.6775
 7105SOL     OW32947   2.493   1.593   3.420 -0.2225  0.6063 -0.0199
 7105SOL    HW132948   2.438   1.519   3.395 -0.9792  0.2270  2.7889
 7105SOL    HW232949   2.582   1.560   3.404 -1.4560 -2.5604 -0.3894
 7106SOL     OW32950   4.399   1.567   8.015 -0.0470 -0.3490  0.0702
 7106SOL    HW132951   4.361   1.543   7.931  3.0138 -1.2743 -1.0604
 7106SOL    HW232952   4.325   1.600   8.066 -0.8848 -1.6133 -0.3080
 7107SOL     OW32953   1.567   0.771   8.015  0.1379  0.2621  0.4948
 7107SOL    HW132954   1.580   0.729   8.100 -1.8298 -1.1610  0.0898
 7107SOL    HW232955   1.472   0.761   8.015 -0.0953  2.5627  1.6919
 7108SOL     OW32956   0.843   3.423   7.008 -0.5865  0.1879  0.3897
 7108SOL    HW132957   0.873   3.462   6.926 -1.5176 -0.9944 -0.4898
 7108SOL    HW232958   0.763   3.466   7.037  0.0999  2.0900 -0.5396
 7109SOL     OW32959   4.498   1.423  11.920  0.4978 -0.4233 -0.0649
 7109SOL    HW132960   4.582   1.417  11.965 -0.1533  2.3539  1.5558
 7109SOL    HW232961   4.522   1.479  11.847  0.3691 -1.0215 -0.5685
 7110SOL     OW32962   3.577   2.671   1.579  0.0661  0.1906 -0.0477
 7110SOL    HW132963   3.610   2.717   1.502  1.0972 -0.4867 -0.0141
 7110SOL    HW232964   3.616   2.585   1.560  0.9728  0.5622  0.1476
 7111SOL     OW32965   3.017   0.274  15.518 -0.6685  0.1908 -0.7289
 7111SOL    HW132966   2.995   0.329  15.443  0.8918  1.5032 -0.2429
 7111SOL    HW232967   2.933   0.288  15.560  0.7300  0.9477  1.8307
 7112SOL     OW32968   1.753   4.723   9.662 -0.2892 -0.2886  0.0874
 7112SOL    HW132969   1.700   0.067   9.645  0.8165  0.5197  0.4422
 7112SOL    HW232970   1.690   4.657   9.693 -1.1517 -0.9750 -3.0680
 7113SOL     OW32971   1.367   1.616   9.196  0.5107 -0.2938  0.4802
 7113SOL    HW132972   1.328   1.569   9.122  1.3992  1.7979 -1.3158
 7113SOL    HW232973   1.359   1.550   9.265 -0.2632  0.0347  0.7065
 7114SOL     OW32974   2.495   0.613  16.202  0.4556  0.5245  0.2299
 7114SOL    HW132975   2.407   0.648  16.189 -0.4655 -1.5097  0.9747
 7114SOL    HW232976   2.543   0.674  16.147 -1.0088  0.5540 -0.9898
 7115SOL     OW32977   1.971   2.610   0.699 -0.4768  0.5033 -0.6063
 7115SOL    HW132978   1.973   2.514   0.701  0.1531  0.4747 -3.1478
 7115SOL    HW232979   2.042   2.624   0.762 -0.5685  1.7734 -0.8001
 7116SOL     OW32980   1.376   3.586  14.065  0.2986 -0.0195  0.5382
 7116SOL    HW132981   1.467   3.561  14.049  0.5087  1.4301 -0.5973
 7116SOL    HW232982   1.377   3.641  14.143  0.4894 -0.4298  0.8256
 7117SOL     OW32983   0.264   2.698  12.420  0.1839  0.3397 -0.2695
 7117SOL    HW132984   0.169   2.683  12.422  0.2139  0.5091  2.1429
 7117SOL    HW232985   0.268   2.790  12.393  0.4930 -0.6890 -3.7538
 7118SOL     OW32986   2.292   1.403   8.315  0.5941  0.4510  0.4169
 7118SOL    HW132987   2.281   1.313   8.284  1.4212 -0.1881  1.9905
 7118SOL    HW232988   2.357   1.440   8.256  0.2678 -0.4560 -0.5197
 7119SOL     OW32989   1.681   1.857   8.219  0.2851 -0.5334 -0.5428
 7119SOL    HW132990   1.661   1.926   8.155 -0.3887 -0.8908 -0.7120
 7119SOL    HW232991   1.649   1.776   8.179 -0.8131 -0.6003  0.4514
 7120SOL     OW32992   2.684   0.493  15.327  0.6208 -0.6083  0.2355
 7120SOL    HW132993   2.713   0.410  15.289  1.1850  0.3614 -1.4473
 7120SOL    HW232994   2.749   0.511  15.396  1.9726 -2.5395 -0.5569
 7121SOL     OW32995   3.406   4.047   6.215  1.0215 -1.1159  0.2200
 7121SOL    HW132996   3.459   4.116   6.175  0.9855 -1.2246 -0.0127
 7121SOL    HW232997   3.434   4.039   6.307 -0.6779  2.4228  1.0387
 7122SOL     OW32998   0.911   3.115   1.532  0.9338 -0.4149 -0.0617
 7122SOL    HW132999   0.943   3.127   1.442  0.1353 -0.0289 -0.2990
 7122SOL    HW233000   0.989   3.091   1.582  0.9825 -1.6575 -0.7244
 7123SOL     OW33001   1.316   1.401  13.298  0.2407  0.0518  0.0742
 7123SOL    HW133002   1.295   1.424  13.389 -1.2576 -0.4944 -0.1428
 7123SOL    HW233003   1.409   1.378  13.300  0.4427  0.9417  0.8475
 7124SOL     OW33004   3.322   1.668   2.872 -0.0425  0.6612  0.1335
 7124SOL    HW133005   3.242   1.655   2.922 -0.8373  0.9188 -1.0788
 7124SOL    HW233006   3.288   1.738   2.816  2.1258  1.5391 -0.1197
 7125SOL     OW33007   0.402   2.418   7.877  0.2233  0.1708  0.3917
 7125SOL    HW133008   0.495   2.428   7.901  0.5813 -0.2985 -0.8124
 7125SOL    HW233009   0.363   2.398   7.962 -0.5015  2.9348  0.7148
 7126SOL     OW33010   0.333   2.157  17.568  1.2639  0.1072  0.3757
 7126SOL    HW133011   0.292   2.076  17.600 -0.8707  0.5289 -1.3115
 7126SOL    HW233012   0.407   2.141  17.627 -0.0947 -1.8621  1.5985
 7127SOL     OW33013   1.408   4.326  10.172 -0.5614  0.0336  0.2714
 7127SOL    HW133014   1.372   4.316  10.260 -1.2680  1.2103  0.1101
 7127SOL    HW233015   1.411   4.421  10.163  1.8010 -0.4321 -3.4844
 7128SOL     OW33016   1.479   3.106   9.153  0.5968  0.2851  0.5432
 7128SOL    HW133017   1.557   3.158   9.133  0.4442  0.0912 -0.5584
 7128SOL    HW233018   1.485   3.042   9.082 -0.1139 -1.2559  1.8757
 7129SOL     OW33019   3.602   0.059   5.321 -0.5013  0.1407 -0.2571
 7129SOL    HW133020   3.616   0.125   5.253 -2.9604  1.0405  0.1428
 7129SOL    HW233021   3.657   4.720   5.290 -0.8075  0.0685 -0.6256
 7130SOL     OW33022   2.205   0.745  11.363  0.1722 -0.2649 -0.4924
 7130SOL    HW133023   2.136   0.688  11.397 -0.1306  1.4599  1.7960
 7130SOL    HW233024   2.274   0.680  11.350  0.3242 -0.4056  1.0272
 7131SOL     OW33025   0.482   1.428   6.635 -0.8734  0.0534  0.0685
 7131SOL    HW133026   0.569   1.458   6.609 -1.6261 -0.3316 -2.9409
 7131SOL    HW233027   0.467   1.483   6.711 -0.9029 -0.4102  0.3988
 7132SOL     OW33028   3.143   0.803  15.111  0.6048 -0.2031  0.3157
 7132SOL    HW133029   3.080   0.870  15.135  1.6681  0.2150  1.9365
 7132SOL    HW233030   3.146   0.752  15.191 -1.1402 -1.0431 -0.1643
 7133SOL     OW33031   2.653   2.876   1.282 -0.7558 -0.0122 -0.1912
 7133SOL    HW133032   2.598   2.935   1.334 -0.3271  0.3152 -0.1090
 7133SOL    HW233033   2.632   2.795   1.329 -2.4248  0.1097 -0.7024
 7134SOL     OW33034   0.672   2.382   7.918  0.6212 -0.4399  0.3144
 7134SOL    HW133035   0.723   2.319   7.868 -0.1286 -1.0299  0.2864
 7134SOL    HW233036   0.646   2.325   7.991 -0.9195  0.3209  0.3678
 7135SOL     OW33037   2.026   1.026   8.321  0.2486  0.1056 -0.2417
 7135SOL    HW133038   2.015   1.094   8.388 -3.2978 -0.4496 -0.2480
 7135SOL    HW233039   2.002   0.948   8.371  0.0549 -0.7010 -1.5924
 7136SOL     OW33040   0.951   2.598  10.281 -0.1031  0.0481  0.0610
 7136SOL    HW133041   0.980   2.512  10.249 -0.4051 -0.3032  0.7433
 7136SOL    HW233042   1.012   2.605  10.354 -2.4516  2.6340  1.7730
 7137SOL     OW33043   1.464   0.576   7.394  0.1364 -0.5643 -0.5562
 7137SOL    HW133044   1.479   0.669   7.376 -1.2227 -0.5090 -1.4780
 7137SOL    HW233045   1.393   0.584   7.458 -2.5490  0.1698 -3.6233
 7138SOL     OW33046   0.272   1.211   8.193 -0.1998  0.1821 -0.6772
 7138SOL    HW133047   0.190   1.246   8.229  0.8018  1.2873  0.5779
 7138SOL    HW233048   0.303   1.297   8.164 -0.4158 -0.0225 -1.5123
 7139SOL     OW33049   1.731   1.363   8.598 -0.1299  0.0211  0.1309
 7139SOL    HW133050   1.811   1.321   8.569  0.1451 -0.2264  1.2584
 7139SOL    HW233051   1.674   1.338   8.525 -1.4433  0.2985  1.0654
 7140SOL     OW33052   3.971   2.440   1.931 -0.0702 -0.1573 -0.3734
 7140SOL    HW133053   4.041   2.500   1.906 -0.3107  0.1973 -0.2038
 7140SOL    HW233054   3.990   2.431   2.024 -0.3390  0.9523 -0.2054
 7141SOL     OW33055   0.320   3.292  13.986  0.1247  0.0069  0.0517
 7141SOL    HW133056   0.256   3.231  14.021  0.8075 -0.6900  0.0729
 7141SOL    HW233057   0.364   3.233  13.925 -0.9444  1.7645 -2.4051
 7142SOL     OW33058   2.745   3.120   7.468  0.2019  0.5658 -0.0859
 7142SOL    HW133059   2.661   3.078   7.448 -0.4436  2.2398 -0.8575
 7142SOL    HW233060   2.801   3.048   7.440  0.1867  0.6389 -0.3072
 7143SOL     OW33061   1.767   1.652   6.891 -0.1236  0.3712  0.2643
 7143SOL    HW133062   1.737   1.649   6.800  2.4049 -0.4125 -0.5231
 7143SOL    HW233063   1.728   1.737   6.911 -0.5396  0.6630 -1.7571
 7144SOL     OW33064   1.397   3.474   3.477  0.3530  0.2867  0.3776
 7144SOL    HW133065   1.323   3.455   3.420  1.4034  0.0276 -0.8846
 7144SOL    HW233066   1.439   3.546   3.430  2.2620 -0.8185  0.4390
 7145SOL     OW33067   3.752   2.802   8.432 -0.4373  0.2402  0.2946
 7145SOL    HW133068   3.837   2.769   8.463  0.4658 -0.0181 -2.4042
 7145SOL    HW233069   3.712   2.717   8.417 -0.8957  0.2000  1.8363
 7146SOL     OW33070   2.523   3.993   3.441 -0.9987  0.2008 -0.2912
 7146SOL    HW133071   2.594   4.052   3.416  0.3723 -0.3073  2.3969
 7146SOL    HW233072   2.535   3.915   3.388 -0.0577  0.8055 -0.9589
 7147SOL     OW33073   3.966   1.942   4.882  0.4604 -0.2394 -0.0884
 7147SOL    HW133074   4.039   1.937   4.944 -2.1549  0.4268  3.0452
 7147SOL    HW233075   4.023   1.950   4.805 -0.0703 -0.9894 -0.5587
 7148SOL     OW33076   3.699   2.085  15.248  0.3667  0.3015  0.2082
 7148SOL    HW133077   3.610   2.061  15.273  0.4053 -0.3565 -0.2555
 7148SOL    HW233078   3.679   2.144  15.175 -0.8718  0.4771  0.6925
 7149SOL     OW33079   1.219   3.554   5.903  0.8424 -0.2020  0.1731
 7149SOL    HW133080   1.295   3.597   5.941  0.8454 -0.3584  0.3465
 7149SOL    HW233081   1.190   3.522   5.989 -2.6821  0.0894 -0.9129
 7150SOL     OW33082   3.951   1.198   5.143  0.5645 -0.1928  0.1439
 7150SOL    HW133083   3.926   1.282   5.180 -1.4264 -0.5428 -0.3971
 7150SOL    HW233084   3.968   1.146   5.222  0.7001 -1.3814 -0.6595
 7151SOL     OW33085   4.713   1.410   7.064 -0.0934 -0.0492  0.3967
 7151SOL    HW133086   0.018   1.381   7.147 -0.7685 -0.2066  0.6573
 7151SOL    HW233087   0.000   1.339   7.002  3.1984 -0.7126  2.2787
 7152SOL     OW33088   2.378   4.299   5.911 -0.2978 -0.0475 -0.3472
 7152SOL    HW133089   2.319   4.343   5.850  0.6643  0.6052 -0.8089
 7152SOL    HW233090   2.360   4.208   5.885  1.1620 -0.5061  0.2349
 7153SOL     OW33091   1.899   0.545  16.458  0.4853  0.5001  0.6222
 7153SOL    HW133092   1.948   0.512  16.533  0.1559 -0.2471  0.5095
 7153SOL    HW233093   1.910   0.478  16.390 -1.0001 -0.0242  0.8901
 7154SOL     OW33094   4.592   0.241   5.392  0.0152  0.1488 -0.0944
 7154SOL    HW133095   4.498   0.227   5.377  0.0130 -1.2165  1.1925
 7154SOL    HW233096   4.593   0.193   5.475  1.0963  0.3513  0.0078
 7155SOL     OW33097   0.456   2.454   7.622 -0.1570 -0.6069  0.1649
 7155SOL    HW133098   0.434   2.434   7.713 -2.3672 -0.1786 -0.2863
 7155SOL    HW233099   0.550   2.444   7.639  0.5423  1.6126 -2.5299
 7156SOL     OW33100   4.199   2.949   5.781 -0.1017  0.2394  0.2484
 7156SOL    HW133101   4.202   2.903   5.697 -0.7689 -1.4601  1.1571
 7156SOL    HW233102   4.224   2.881   5.843 -0.7211  0.2339  0.4921
 7157SOL     OW33103   3.476   2.245   8.139  0.0171  0.5291  0.3887
 7157SOL    HW133104   3.394   2.209   8.104  1.4030 -1.9306 -0.3162
 7157SOL    HW233105   3.539   2.176   8.160 -0.8920 -0.3165  0.3313
 7158SOL     OW33106   3.423   1.461   4.180 -0.4810 -0.6541  0.0309
 7158SOL    HW133107   3.435   1.430   4.090  0.5236  1.7056 -0.6534
 7158SOL    HW233108   3.327   1.463   4.175 -0.4031  1.4411 -0.4740
 7159SOL     OW33109   0.438   3.416   3.483 -0.0217 -0.2388  0.1873
 7159SOL    HW133110   0.426   3.324   3.507  1.0421 -0.2761  0.5601
 7159SOL    HW233111   0.493   3.410   3.405 -1.7398 -1.2412 -0.9520
 7160SOL     OW33112   1.670   3.229   1.621  0.3521  0.4970 -0.4185
 7160SOL    HW133113   1.663   3.159   1.685  1.5732 -0.5944 -1.4677
 7160SOL    HW233114   1.759   3.223   1.587  0.3768 -1.9431  0.0933
 7161SOL     OW33115   1.479   2.993  14.837 -0.1767  0.1424  0.6117
 7161SOL    HW133116   1.456   3.007  14.745  0.4591  1.0475  0.5985
 7161SOL    HW233117   1.574   2.991  14.835 -0.1716  0.6318  0.4809
 7162SOL     OW33118   0.272   2.575   8.549  0.4834  0.0672 -0.5251
 7162SOL    HW133119   0.224   2.649   8.586 -0.5269 -0.6446 -0.4085
 7162SOL    HW233120   0.247   2.575   8.457  1.0208  0.0192 -0.6721
 7163SOL     OW33121   0.837   3.980  16.956 -0.1993  0.0096 -0.1662
 7163SOL    HW133122   0.863   4.030  16.879 -1.1023 -1.0559 -1.1524
 7163SOL    HW233123   0.825   4.055  17.015  1.4621  0.5895 -0.5609
 7164SOL     OW33124   4.435   4.432   3.276  0.1471 -0.3352  0.3315
 7164SOL    HW133125   4.405   4.462   3.362 -0.8204  0.0928 -0.1589
 7164SOL    HW233126   4.423   4.504   3.214 -0.5099 -0.8137 -0.1013
 7165SOL     OW33127   1.020   0.179   6.120  0.4910 -0.0192 -0.3023
 7165SOL    HW133128   0.987   0.160   6.033 -1.2853 -2.8740  0.9773
 7165SOL    HW233129   1.112   0.154   6.113  0.5974 -0.8560  3.5922
 7166SOL     OW33130   2.373   2.421  14.180  0.1648  1.1831  0.2558
 7166SOL    HW133131   2.420   2.501  14.157  0.4612  0.3167 -2.1247
 7166SOL    HW233132   2.346   2.394  14.092  0.3154  2.4981 -0.1882
 7167SOL     OW33133   2.102   2.019   5.527 -0.1101  0.7465  0.1709
 7167SOL    HW133134   2.165   1.955   5.559  0.3878  2.2981  2.2672
 7167SOL    HW233135   2.067   2.059   5.607 -0.0067  1.0841  0.0491
 7168SOL     OW33136   4.571   1.274   6.216 -0.3344 -0.5274  0.3524
 7168SOL    HW133137   4.667   1.281   6.216 -0.5180  1.6704 -0.5135
 7168SOL    HW233138   4.552   1.357   6.172 -0.8383 -0.0746  1.4368
 7169SOL     OW33139   2.851   3.566   2.322  0.2849 -0.0005 -0.4983
 7169SOL    HW133140   2.795   3.598   2.251 -0.2061  0.7061  0.2062
 7169SOL    HW233141   2.837   3.471   2.318 -1.8662  0.3405 -0.7684
 7170SOL     OW33142   3.004   1.297   2.560  0.8880 -0.2576  0.4083
 7170SOL    HW133143   3.029   1.372   2.613 -1.6337  0.4214  0.6382
 7170SOL    HW233144   2.911   1.307   2.579  0.4603  0.0157 -1.8484
 7171SOL     OW33145   3.933   0.480  16.324  0.0925 -0.0260  0.1119
 7171SOL    HW133146   4.000   0.431  16.371  0.4431  1.0389  0.7417
 7171SOL    HW233147   3.874   0.410  16.297  0.1725  0.2364 -0.7505
 7172SOL     OW33148   0.881   0.483   8.682 -0.3543  0.0918  0.2714
 7172SOL    HW133149   0.956   0.456   8.630 -2.5118  0.6574 -3.1182
 7172SOL    HW233150   0.846   0.545   8.618  0.2665  0.6235  0.4525
 7173SOL     OW33151   3.493   3.219   2.269 -0.4942 -0.0811 -0.1827
 7173SOL    HW133152   3.405   3.184   2.254 -0.1078 -0.9787 -0.3813
 7173SOL    HW233153   3.500   3.277   2.193 -0.2098 -1.1475 -0.9731
 7174SOL     OW33154   0.772   1.865   4.718 -0.3878 -0.3892  0.0592
 7174SOL    HW133155   0.742   1.783   4.758 -0.7254 -0.4033 -0.2246
 7174SOL    HW233156   0.746   1.926   4.788 -2.1136 -1.5038  0.3997
 7175SOL     OW33157   4.566   4.589   9.349  0.2575 -0.6098  0.7894
 7175SOL    HW133158   4.594   4.663   9.296 -0.8848 -0.0429  0.9661
 7175SOL    HW233159   4.638   4.527   9.340  0.4758 -0.1670 -0.4749
 7176SOL     OW33160   3.037   2.160   9.161  0.2908  0.1696  0.1124
 7176SOL    HW133161   2.985   2.143   9.239  2.5545  1.0072  1.8142
 7176SOL    HW233162   3.059   2.076   9.121  0.4830  0.2487  0.0498
 7177SOL     OW33163   1.752   3.723   7.188 -0.0175 -0.2789 -0.4813
 7177SOL    HW133164   1.814   3.695   7.255 -1.6835  1.1909  1.6730
 7177SOL    HW233165   1.686   3.760   7.246  0.9844 -0.7358  0.9391
 7178SOL     OW33166   2.381   0.372   3.592  0.0902  0.0586  0.2751
 7178SOL    HW133167   2.414   0.443   3.537 -2.0237  0.0700 -0.9671
 7178SOL    HW233168   2.298   0.349   3.552  0.8894 -0.0539 -1.2904
 7179SOL     OW33169   0.553   0.930   5.742  0.4473  0.1723  0.2024
 7179SOL    HW133170   0.573   0.838   5.761 -0.1506 -0.1952 -0.9497
 7179SOL    HW233171   0.537   0.968   5.829 -0.0517  1.3788 -0.4160
 7180SOL     OW33172   3.760   1.635   2.381 -0.0281  0.0199 -0.5936
 7180SOL    HW133173   3.680   1.646   2.434 -0.9100 -2.7083 -1.3547
 7180SOL    HW233174   3.817   1.581   2.436  1.5101  0.7628 -1.4759
 7181SOL     OW33175   3.859   4.345   6.153 -0.2337  0.3747  0.0995
 7181SOL    HW133176   3.886   4.405   6.084 -1.2263  1.2137  0.4425
 7181SOL    HW233177   3.777   4.391   6.171 -0.8611 -0.3159 -1.0077
 7182SOL     OW33178   2.040   4.350   0.492 -1.0490  0.2666  0.1472
 7182SOL    HW133179   2.030   4.314   0.404  0.6676  0.5579 -0.1563
 7182SOL    HW233180   1.953   4.389   0.498 -1.6982 -1.0117 -0.8780
 7183SOL     OW33181   0.187   1.030  15.710 -0.6974  0.3089  0.3153
 7183SOL    HW133182   0.132   1.105  15.734  1.0550  1.8685 -0.4967
 7183SOL    HW233183   0.177   1.020  15.616  0.1964  0.8189  0.1622
 7184SOL     OW33184   3.069   3.323  16.178 -0.7003 -0.0249  0.7513
 7184SOL    HW133185   3.021   3.400  16.149  1.8255  1.3324  0.1066
 7184SOL    HW233186   3.062   3.334  16.272  0.2522  0.6550  0.7472
 7185SOL     OW33187   1.624   2.562  12.379 -0.0073  0.5656 -0.7459
 7185SOL    HW133188   1.716   2.586  12.376  0.0064  0.5635 -0.2902
 7185SOL    HW233189   1.634   2.482  12.429  0.8000  0.8742 -0.4231
 7186SOL     OW33190   1.683   1.909   9.232 -0.1283  0.2542 -0.9122
 7186SOL    HW133191   1.734   1.859   9.296 -1.2364 -1.3948 -1.2971
 7186SOL    HW233192   1.723   1.992   9.258  1.3106 -0.8278  0.3502
 7187SOL     OW33193   1.547   3.898   0.536  1.0161 -0.2752 -0.0068
 7187SOL    HW133194   1.522   3.806   0.522 -1.1700  0.1434  1.1046
 7187SOL    HW233195   1.492   3.919   0.612  2.8686 -0.7476  1.4827
 7188SOL     OW33196   4.324   0.809  16.825 -0.1666  0.4437  0.2945
 7188SOL    HW133197   4.408   0.813  16.780  0.0099  1.8060  0.7389
 7188SOL    HW233198   4.271   0.809  16.746 -0.3224  1.4181  0.3964
 7189SOL     OW33199   4.336   1.653   4.051  0.4766 -0.3100  0.1953
 7189SOL    HW133200   4.245   1.652   4.080  0.4264  0.1921  0.0647
 7189SOL    HW233201   4.359   1.741   4.021 -0.0886 -0.1541  0.2190
 7190SOL     OW33202   2.108   0.558  13.636  0.0157 -0.0211  0.2703
 7190SOL    HW133203   2.129   0.650  13.653  0.2717  0.4112 -2.3181
 7190SOL    HW233204   2.117   0.571  13.541 -0.0784 -0.2031  0.2368
 7191SOL     OW33205   4.273   3.630   1.315  0.2173  0.4079  0.4839
 7191SOL    HW133206   4.206   3.584   1.264 -0.8284  0.4438  1.8422
 7191SOL    HW233207   4.244   3.622   1.405 -0.3842 -4.4281 -0.1442
 7192SOL     OW33208   1.920   4.011   3.632  0.0316  0.0838  0.1195
 7192SOL    HW133209   1.997   4.039   3.681  0.2282  0.7240 -0.5535
 7192SOL    HW233210   1.877   3.953   3.694  2.0989  1.0776  2.4543
 7193SOL     OW33211   3.850   2.440   7.314 -0.1523 -0.3174 -0.3943
 7193SOL    HW133212   3.863   2.433   7.219 -1.4041 -0.3281 -0.5666
 7193SOL    HW233213   3.942   2.453   7.337 -0.0608 -0.8551 -0.4613
 7194SOL     OW33214   0.108   1.921  14.008  0.6086 -0.4573 -0.1638
 7194SOL    HW133215   0.181   1.902  14.066  1.6281  4.0700  0.0288
 7194SOL    HW233216   0.037   1.927  14.073  0.0930  3.1842 -1.0781
 7195SOL     OW33217   1.051   0.661   7.391  0.1275 -0.0994  0.0552
 7195SOL    HW133218   1.034   0.743   7.346 -2.4122  0.4139  1.9452
 7195SOL    HW233219   1.127   0.684   7.445  0.3479 -0.8088  0.0476
 7196SOL     OW33220   0.362   0.666  14.424  0.1643  0.6346 -0.0335
 7196SOL    HW133221   0.366   0.570  14.423 -4.0246  0.4499  0.9798
 7196SOL    HW233222   0.281   0.684  14.376  0.4504 -1.1217 -1.1737
 7197SOL     OW33223   1.150   1.262   7.286  0.1765  0.4166 -0.0046
 7197SOL    HW133224   1.224   1.262   7.346 -1.4202 -0.3726  1.9614
 7197SOL    HW233225   1.190   1.236   7.203 -1.2611 -1.3871 -0.1321
 7198SOL     OW33226   2.828   4.471   9.167  0.3776  0.2662 -0.0663
 7198SOL    HW133227   2.861   4.381   9.175 -1.2828 -0.1897  1.5441
 7198SOL    HW233228   2.767   4.477   9.240  0.4406 -1.4707  0.1278
 7199SOL     OW33229   4.141   4.065  14.944 -0.3745 -0.3386 -0.6232
 7199SOL    HW133230   4.092   4.129  14.996 -0.4907  0.1544 -1.3503
 7199SOL    HW233231   4.220   4.117  14.928 -0.3295 -0.2825 -0.2385
 7200SOL     OW33232   0.090   1.713  16.558 -0.1785  0.1172  0.3710
 7200SOL    HW133233   0.130   1.705  16.644 -0.3431 -1.0532  0.3309
 7200SOL    HW233234   0.146   1.771  16.506  2.6081 -1.5647  1.5132
 7201SOL     OW33235   2.747   0.774  12.260  0.3938 -0.0468 -0.1195
 7201SOL    HW133236   2.686   0.708  12.227 -0.2155 -0.8887  2.6565
 7201SOL    HW233237   2.795   0.792  12.180  1.4317 -0.2557  0.4621
 7202SOL     OW33238   1.944   0.494   2.437  0.1935  0.5000  0.2340
 7202SOL    HW133239   1.891   0.568   2.405 -0.8132  1.7080  4.7256
 7202SOL    HW233240   1.943   0.431   2.364 -1.4582  1.7433 -0.8145
 7203SOL     OW33241   4.666   0.116   5.681  0.1534  0.4914 -0.3660
 7203SOL    HW133242   4.646   0.044   5.740 -1.5408  1.6177  0.4124
 7203SOL    HW233243   4.597   0.182   5.691  1.1519  1.7685 -1.7383
 7204SOL     OW33244   0.084   4.366  12.355 -0.3451 -0.0825 -0.2944
 7204SOL    HW133245   0.020   4.425  12.396  2.1328  1.8261  0.7705
 7204SOL    HW233246   0.164   4.417  12.342 -1.7780  1.7755 -1.8850
 7205SOL     OW33247   1.133   2.288   2.556 -1.0660 -0.0481 -0.1566
 7205SOL    HW133248   1.070   2.330   2.499  0.5413  1.9304 -0.4711
 7205SOL    HW233249   1.199   2.357   2.567  0.0587 -1.1798  0.2479
 7206SOL     OW33250   2.396   1.688  16.456 -0.3355  0.2699  0.0399
 7206SOL    HW133251   2.304   1.712  16.457  0.0272  1.6666 -0.3582
 7206SOL    HW233252   2.436   1.764  16.498  2.5122 -1.4084  0.4078
 7207SOL     OW33253   3.840   2.121   1.602 -0.2342  0.6205 -0.0733
 7207SOL    HW133254   3.777   2.157   1.540 -2.5419 -0.5405  1.6252
 7207SOL    HW233255   3.812   2.168   1.680  1.1546 -0.4422  1.0637
 7208SOL     OW33256   0.722   3.223   2.383 -0.2159 -0.0362 -0.4216
 7208SOL    HW133257   0.641   3.191   2.422  0.4507  0.2089  1.1571
 7208SOL    HW233258   0.749   3.281   2.454  2.7601 -3.4346  1.1901
 7209SOL     OW33259   2.932   2.986   2.575 -0.1205  0.2125 -0.1065
 7209SOL    HW133260   3.009   3.037   2.550  0.0557  0.7235  1.4732
 7209SOL    HW233261   2.954   2.938   2.656 -0.9497 -0.9437 -0.5666
 7210SOL     OW33262   3.905   2.949   2.469 -0.3894 -0.3144  0.0636
 7210SOL    HW133263   3.861   2.972   2.387 -0.8342 -0.8109  0.1570
 7210SOL    HW233264   3.863   3.017   2.521  2.8106  2.7937 -1.4480
 7211SOL     OW33265   0.543   1.075   2.412  0.1863  0.2187 -0.1291
 7211SOL    HW133266   0.569   1.024   2.488  0.1553  0.9351  0.3613
 7211SOL    HW233267   0.487   1.013   2.366  0.7585 -1.1349  1.0066
 7212SOL     OW33268   2.329   4.547   4.098  0.3200  0.4110  0.1374
 7212SOL    HW133269   2.271   4.542   4.174 -0.3556  3.1355 -0.1796
 7212SOL    HW233270   2.396   4.482   4.118  0.7131 -0.4948 -4.1929
 7213SOL     OW33271   1.086   2.658   8.508 -0.1378 -0.4641  0.2307
 7213SOL    HW133272   1.096   2.711   8.429  0.1471  4.6086  3.7097
 7213SOL    HW233273   1.174   2.619   8.512  0.4597  0.8511 -0.0113
 7214SOL     OW33274   2.433   2.260   8.217  0.3519 -0.2773  0.4514
 7214SOL    HW133275   2.340   2.256   8.198  0.3054  2.1159  0.2239
 7214SOL    HW233276   2.471   2.215   8.142 -1.3371  1.8021 -1.6279
 7215SOL     OW33277   2.147   2.228   8.138  0.1858  0.2918  0.6528
 7215SOL    HW133278   2.135   2.197   8.048 -0.2861  1.0899  0.4379
 7215SOL    HW233279   2.067   2.199   8.180  0.2823 -0.6752  0.1716
 7216SOL     OW33280   3.235   4.029   8.925  0.1146 -0.4068  0.1798
 7216SOL    HW133281   3.275   4.017   9.011 -0.2062  0.1633  0.4061
 7216SOL    HW233282   3.191   3.945   8.910  1.7463 -1.1645 -0.3797
 7217SOL     OW33283   3.705   2.441   7.945 -0.3438  0.1277 -0.0682
 7217SOL    HW133284   3.794   2.469   7.965 -0.7397  0.2251  1.5240
 7217SOL    HW233285   3.644   2.488   8.001  0.0929 -2.2444  2.3994
 7218SOL     OW33286   3.118   2.483   5.459  0.5354 -0.1975  0.7456
 7218SOL    HW133287   3.055   2.461   5.528 -0.4333  0.2939  0.0155
 7218SOL    HW233288   3.200   2.498   5.506  0.9016  0.9912 -0.2717
 7219SOL     OW33289   3.637   2.693   2.574  0.2586 -0.5814 -0.0928
 7219SOL    HW133290   3.718   2.652   2.545  0.6458  0.0353  0.1247
 7219SOL    HW233291   3.676   2.765   2.622  0.4449  0.4540 -1.8089
 7220SOL     OW33292   2.505   2.440  17.610  0.3014  0.4492  0.1239
 7220SOL    HW133293   2.538   2.381  17.678 -0.5956  2.4017  2.2576
 7220SOL    HW233294   2.414   2.417  17.633  0.6861  0.6481  1.8533
 7221SOL     OW33295   1.259   1.142   8.679  0.3238  0.1910 -0.0096
 7221SOL    HW133296   1.173   1.174   8.707  0.6333  1.0370 -0.0342
 7221SOL    HW233297   1.227   1.079   8.615  2.5765 -2.3741  1.4064
 7222SOL     OW33298   3.757   0.005   7.669 -0.4457  0.5312 -0.5761
 7222SOL    HW133299   3.841   4.710   7.634 -1.2668 -1.3149 -0.9495
 7222SOL    HW233300   3.719   4.659   7.704  0.6873 -0.2983 -1.2711
 7223SOL     OW33301   1.974   0.121   7.415 -0.2077  0.5758 -0.0618
 7223SOL    HW133302   1.997   0.195   7.471 -0.8437 -0.7585  1.9856
 7223SOL    HW233303   2.050   0.067   7.436  0.5283  1.8943  0.6621
 7224SOL     OW33304   0.696   2.482  12.529  0.1152  0.0659  0.3211
 7224SOL    HW133305   0.696   2.422  12.603 -1.5536 -0.2213  0.1019
 7224SOL    HW233306   0.611   2.493  12.485  0.3889 -0.9307 -0.4603
 7225SOL     OW33307   0.474   0.524   7.068 -0.5393  0.5397 -0.0405
 7225SOL    HW133308   0.499   0.613   7.046 -0.7687  0.6328  0.0779
 7225SOL    HW233309   0.457   0.495   6.978  3.3583 -0.0021 -0.6416
 7226SOL     OW33310   1.492   2.912   1.323  0.2364  0.5567 -0.0281
 7226SOL    HW133311   1.444   2.922   1.241  0.8354 -0.7329 -0.5458
 7226SOL    HW233312   1.416   2.896   1.379 -0.1223 -1.7682 -1.1561
 7227SOL     OW33313   2.313   3.094   1.133  0.5253 -0.5071 -0.1040
 7227SOL    HW133314   2.381   3.097   1.066  2.0816  1.2509  1.5480
 7227SOL    HW233315   2.261   3.173   1.119 -0.9233 -1.2926  0.8466
 7228SOL     OW33316   4.470   2.248  16.840  0.2684  0.0515  0.4388
 7228SOL    HW133317   4.547   2.283  16.795 -1.1925  2.8358  0.1638
 7228SOL    HW233318   4.510   2.163  16.861 -1.0159 -0.3833  1.1062
 7229SOL     OW33319   1.152   0.631   6.606 -0.0194 -0.7979 -0.8743
 7229SOL    HW133320   1.228   0.690   6.603  1.0739 -2.1600  0.0861
 7229SOL    HW233321   1.189   0.557   6.558  1.1020 -1.3079  0.7611
 7230SOL     OW33322   2.546   3.473   8.933 -0.1970  0.2136  0.1825
 7230SOL    HW133323   2.601   3.549   8.918 -2.5796  1.6251 -1.3736
 7230SOL    HW233324   2.605   3.399   8.917 -0.0575  0.1258  1.1119
 7231SOL     OW33325   2.241   0.547   8.601  0.3089  0.2354 -0.1976
 7231SOL    HW133326   2.215   0.570   8.691 -0.6332 -0.3891 -0.3022
 7231SOL    HW233327   2.196   0.617   8.554 -2.8777 -1.4150  0.3169
 7232SOL     OW33328   2.023   0.821   7.923 -0.6751  0.2030 -0.1394
 7232SOL    HW133329   1.936   0.814   7.883 -0.4828 -0.8271 -0.3704
 7232SOL    HW233330   2.075   0.876   7.864 -2.7533  0.6995 -1.5282
 7233SOL     OW33331   1.235   4.603   8.462 -0.1013 -0.3153 -0.4575
 7233SOL    HW133332   1.238   4.569   8.551  1.3310 -1.5328 -0.9816
 7233SOL    HW233333   1.292   4.680   8.456 -1.7139  0.8631 -0.7947
 7234SOL     OW33334   4.117   2.710   6.927  0.1392  0.6441 -0.0986
 7234SOL    HW133335   4.190   2.768   6.906  1.1963 -0.9107 -0.7544
 7234SOL    HW233336   4.111   2.722   7.022 -1.1709 -0.2480 -0.0677
 7235SOL     OW33337   2.170   1.355   8.624  0.5370  0.0814 -0.2271
 7235SOL    HW133338   2.184   1.397   8.709 -0.0423 -1.4998  0.6326
 7235SOL    HW233339   2.151   1.433   8.572  0.8090  0.3013  0.0019
 7236SOL     OW33340   1.113   3.835   6.214 -0.2245  0.6883 -0.0692
 7236SOL    HW133341   1.196   3.803   6.178 -1.1482  0.9735 -2.4497
 7236SOL    HW233342   1.092   3.766   6.278  1.0107 -0.6186 -1.0648
 7237SOL     OW33343   4.271   1.367   1.259 -0.0858  0.0501 -0.3848
 7237SOL    HW133344   4.302   1.350   1.170 -2.7436 -1.2720 -1.0580
 7237SOL    HW233345   4.177   1.350   1.257 -0.1635  0.1437  2.9776
 7238SOL     OW33346   2.905   2.916   7.421 -0.6374 -0.1895  0.1370
 7238SOL    HW133347   2.838   2.853   7.398 -0.5329 -0.9804  1.9808
 7238SOL    HW233348   2.979   2.857   7.431 -0.7352 -0.0816  1.4614
 7239SOL     OW33349   3.374   1.290  13.905  0.1058 -0.3234  0.2753
 7239SOL    HW133350   3.423   1.339  13.838  1.0930 -0.0542  1.2062
 7239SOL    HW233351   3.300   1.264  13.849 -1.2869 -0.7622  2.3392
 7240SOL     OW33352   2.113   3.535   2.875 -0.2499  0.1328  0.4989
 7240SOL    HW133353   2.152   3.449   2.865 -2.8600 -0.9934  0.0359
 7240SOL    HW233354   2.166   3.574   2.805 -3.0474  1.2919 -0.9552
 7241SOL     OW33355   1.641   2.796   3.451  0.1594  0.1533  0.2738
 7241SOL    HW133356   1.679   2.827   3.533 -0.3371 -0.1896  0.6423
 7241SOL    HW233357   1.550   2.805   3.480 -0.2789 -0.5151 -0.8917
 7242SOL     OW33358   0.974   4.106   5.691  0.4073 -0.1169  0.0188
 7242SOL    HW133359   0.974   4.011   5.704  1.1991 -0.1991 -0.5809
 7242SOL    HW233360   1.068   4.118   5.678  0.1944  0.3245 -1.1524
 7243SOL     OW33361   0.410   0.637  13.500 -0.7175 -0.4749  0.3102
 7243SOL    HW133362   0.325   0.624  13.458 -0.4839 -0.9102 -0.0243
 7243SOL    HW233363   0.458   0.574  13.447 -0.9679 -0.3217 -0.0985
 7244SOL     OW33364   1.014   3.864   6.647  0.4411  0.3702  0.2868
 7244SOL    HW133365   0.965   3.919   6.586  0.2654  1.4291  1.3582
 7244SOL    HW233366   1.023   3.787   6.592 -0.3748 -0.6640  1.5882
 7245SOL     OW33367   4.027   1.750   1.988  0.3921 -0.3381 -0.4452
 7245SOL    HW133368   3.960   1.694   2.026 -1.4456 -0.3917 -3.7605
 7245SOL    HW233369   3.995   1.834   2.022 -0.7785 -1.6888  1.7202
 7246SOL     OW33370   1.848   4.663   6.179  0.2279 -0.6711  0.0927
 7246SOL    HW133371   1.868   4.720   6.254  0.0925 -1.4319  0.7133
 7246SOL    HW233372   1.776   4.710   6.136  1.0870 -0.5861 -1.2515
 7247SOL     OW33373   4.169   0.830   2.258 -0.2330  0.0106 -0.0883
 7247SOL    HW133374   4.088   0.829   2.208 -0.0334 -0.6235 -0.4044
 7247SOL    HW233375   4.153   0.903   2.318  1.3799  0.9595 -0.8013
 7248SOL     OW33376   2.954   0.681   8.828  1.3303  0.0498 -0.1114
 7248SOL    HW133377   3.032   0.683   8.773  1.3664  1.0579 -0.0276
 7248SOL    HW233378   2.994   0.726   8.903  1.4188 -0.9152  0.4174
 7249SOL     OW33379   1.628   4.106  10.315 -0.0374  0.0889  0.2496
 7249SOL    HW133380   1.579   4.072  10.390  0.9503 -0.7502  0.5141
 7249SOL    HW233381   1.682   4.172  10.358  1.1736  0.2332 -1.5019
 7250SOL     OW33382   3.815   0.832  17.034  0.3568  0.6969 -0.3138
 7250SOL    HW133383   3.781   0.749  17.000  1.8202  0.4330 -1.1299
 7250SOL    HW233384   3.845   0.803  17.120 -2.0205 -0.7073  0.0499
 7251SOL     OW33385   3.270   1.207   1.010  0.2390  0.2730  0.6538
 7251SOL    HW133386   3.217   1.250   0.944 -0.2348 -1.7630 -0.3066
 7251SOL    HW233387   3.310   1.280   1.057  0.0004 -0.1164  1.4667
 7252SOL     OW33388   2.051   4.633   1.116  0.2138  0.3437 -0.1419
 7252SOL    HW133389   2.034   4.710   1.061  1.8583 -1.1487 -2.7373
 7252SOL    HW233390   2.079   4.568   1.052 -0.7775  0.0878 -0.3123
 7253SOL     OW33391   0.587   4.329   8.794 -0.4687 -0.2389 -1.3740
 7253SOL    HW133392   0.602   4.244   8.755  0.3006 -0.8176  0.1961
 7253SOL    HW233393   0.652   4.325   8.864 -0.5966  0.6978 -1.1967
 7254SOL     OW33394   3.996   1.335   1.229  0.1194 -0.5690  0.1375
 7254SOL    HW133395   4.016   1.280   1.304  2.1801  0.2207  0.1807
 7254SOL    HW233396   3.903   1.322   1.212  0.1630 -0.6864 -0.0228
 7255SOL     OW33397   0.490   2.809   5.787 -0.4729 -0.2660 -0.7557
 7255SOL    HW133398   0.498   2.833   5.695  0.6867  0.5095 -0.4487
 7255SOL    HW233399   0.535   2.874   5.840 -2.9556  1.6553 -1.0349
 7256SOL     OW33400   0.830   0.940   5.564 -0.0962 -0.8739 -0.2463
 7256SOL    HW133401   0.795   0.990   5.491  0.4774 -0.8768 -0.5288
 7256SOL    HW233402   0.759   0.880   5.585 -0.2671 -0.4092  0.5134
 7257SOL     OW33403   0.503   4.403   3.170  0.1657  0.1097  0.5256
 7257SOL    HW133404   0.411   4.411   3.145 -0.2153 -0.1453  1.8541
 7257SOL    HW233405   0.506   4.470   3.239  1.0149  1.1244 -0.4844
 7258SOL     OW33406   0.607   2.766   3.625 -1.0771  0.3627  0.5200
 7258SOL    HW133407   0.582   2.802   3.540  1.5010  1.4426  0.1990
 7258SOL    HW233408   0.678   2.706   3.601 -0.5342  1.0432  0.4104
 7259SOL     OW33409   4.689   3.533  13.471 -0.5474 -0.0883 -1.1255
 7259SOL    HW133410   4.637   3.605  13.508  0.0537 -0.0213 -0.4293
 7259SOL    HW233411   0.043   3.569  13.483 -0.2779 -1.6382  1.4331
 7260SOL     OW33412   1.121   1.637   9.389 -0.2999 -0.1156 -0.0527
 7260SOL    HW133413   1.119   1.730   9.412 -1.6332 -0.5278  1.4649
 7260SOL    HW233414   1.159   1.635   9.301  0.3814  0.1432  0.2348
 7261SOL     OW33415   4.083   3.129  12.805 -0.1923 -0.6785  0.2476
 7261SOL    HW133416   4.134   3.060  12.763 -0.3868 -1.2565  0.9675
 7261SOL    HW233417   4.076   3.107  12.898  0.2729  0.6848  0.6094
 7262SOL     OW33418   1.860   3.503   1.095 -0.0755  0.3472  0.5416
 7262SOL    HW133419   1.817   3.513   1.180 -1.1511  0.7652 -0.0573
 7262SOL    HW233420   1.803   3.445   1.045  1.1088  0.1567 -0.5596
 7263SOL     OW33421   2.045   4.118   8.462 -0.6932 -0.5042  0.4179
 7263SOL    HW133422   2.098   4.047   8.424 -0.8249 -1.2704  1.6528
 7263SOL    HW233423   2.032   4.091   8.553  1.5747 -1.4849  0.4519
 7264SOL     OW33424   1.293   3.365   5.718  0.5789 -0.1382  0.1549
 7264SOL    HW133425   1.249   3.331   5.796 -0.6217  1.1840  0.0316
 7264SOL    HW233426   1.280   3.459   5.730 -0.4197 -0.4404  1.3803
 7265SOL     OW33427   1.720   4.144   7.919 -0.5645  0.0401 -0.2340
 7265SOL    HW133428   1.805   4.176   7.950 -0.0356 -1.6309  0.0301
 7265SOL    HW233429   1.706   4.062   7.965 -1.2627 -0.4210 -1.2666
 7266SOL     OW33430   1.314   2.822   7.111  0.0380  0.1775 -0.3902
 7266SOL    HW133431   1.240   2.882   7.096  1.2324  2.0200  1.0298
 7266SOL    HW233432   1.345   2.806   7.021 -1.1890 -1.2783 -0.5358
 7267SOL     OW33433   4.190   1.448   5.207 -0.4660  0.4165 -0.4686
 7267SOL    HW133434   4.237   1.376   5.248 -0.6838  0.9300  0.6985
 7267SOL    HW233435   4.101   1.413   5.210  0.9731 -2.7609  4.9603
 7268SOL     OW33436   2.311   3.335   3.589 -0.3171  0.6955  0.6262
 7268SOL    HW133437   2.236   3.381   3.627 -2.0819 -1.8491  0.2527
 7268SOL    HW233438   2.381   3.375   3.640 -0.3698  1.2199  0.2793
 7269SOL     OW33439   4.429   0.031   4.155  0.6846 -0.2234 -0.0900
 7269SOL    HW133440   4.442   4.671   4.166  0.1262 -0.4438 -1.3514
 7269SOL    HW233441   4.410   0.064   4.243 -2.4920 -0.0900 -0.8291
 7270SOL     OW33442   1.117   3.999  15.043  0.7402 -0.2224 -0.1287
 7270SOL    HW133443   1.166   4.081  15.037  0.0904  0.2088  0.4409
 7270SOL    HW233444   1.067   4.012  15.124  0.5294  1.0713 -0.4584
 7271SOL     OW33445   3.952   0.219   1.203 -0.4148  0.0804 -0.0456
 7271SOL    HW133446   4.036   0.221   1.249 -1.1842  1.6136  1.3067
 7271SOL    HW233447   3.961   0.288   1.137 -1.3582 -1.4966 -1.7948
 7272SOL     OW33448   1.872   0.496   8.565 -0.1892  0.6439 -0.5007
 7272SOL    HW133449   1.851   0.426   8.503  2.6482  0.2929 -1.0722
 7272SOL    HW233450   1.896   0.450   8.645  0.1448 -0.6262 -1.3254
 7273SOL     OW33451   1.267   2.135  12.212 -0.5882 -0.5821 -0.5208
 7273SOL    HW133452   1.178   2.171  12.212  0.4460  1.9776 -1.2346
 7273SOL    HW233453   1.311   2.197  12.153 -2.9511 -0.7334 -2.4305
 7274SOL     OW33454   0.769   3.816  13.517  0.2677  0.7298 -0.2112
 7274SOL    HW133455   0.774   3.764  13.437 -0.6748  1.9928 -1.0971
 7274SOL    HW233456   0.805   3.762  13.587  1.1632  0.4588 -0.8884
 7275SOL     OW33457   1.111   0.554   8.944 -0.0551  0.9409  0.2088
 7275SOL    HW133458   1.100   0.574   8.851 -0.6013 -2.0336 -0.3708
 7275SOL    HW233459   1.054   0.624   8.977 -1.2514  0.1864 -0.2679
 7276SOL     OW33460   3.073   0.508   3.392 -0.1732  0.2474  0.6636
 7276SOL    HW133461   3.045   0.450   3.463  1.1138  0.7367  1.5590
 7276SOL    HW233462   3.166   0.515   3.410 -0.2392 -0.4347  1.2884
 7277SOL     OW33463   2.722   4.002  15.371  0.4453 -0.6343  0.5770
 7277SOL    HW133464   2.747   4.031  15.284 -1.1113  2.1092  1.0551
 7277SOL    HW233465   2.642   4.054  15.372 -0.2915 -1.7691  0.0705
 7278SOL     OW33466   2.117   1.568   4.717  0.2235 -0.3662  0.5535
 7278SOL    HW133467   2.111   1.662   4.738  0.1975 -0.2205 -0.1219
 7278SOL    HW233468   2.098   1.534   4.805  0.5005 -3.8847 -0.7502
 7279SOL     OW33469   1.890   4.429   1.255 -0.6579  0.3530  0.2101
 7279SOL    HW133470   1.809   4.479   1.240  0.6934  2.4204 -0.2025
 7279SOL    HW233471   1.950   4.498   1.226  1.6205 -1.2256  1.1948
 7280SOL     OW33472   1.467   3.118  14.584  0.1085  0.1963  0.9611
 7280SOL    HW133473   1.505   3.204  14.565 -1.1010  0.8594  1.5591
 7280SOL    HW233474   1.526   3.066  14.529 -2.3431  0.7389 -2.1850
 7281SOL     OW33475   1.032   2.299   0.606 -0.0929  0.1833  0.8129
 7281SOL    HW133476   1.090   2.243   0.659  0.3442 -1.3800 -1.3107
 7281SOL    HW233477   1.085   2.379   0.610  0.4510  0.1319 -4.8527
 7282SOL     OW33478   3.784   4.662  11.652  0.2425  0.4636  0.2946
 7282SOL    HW133479   3.808   4.670  11.745 -1.1265 -2.2510  0.8825
 7282SOL    HW233480   3.793   4.567  11.648 -0.5860  0.3727  0.6826
 7283SOL     OW33481   4.255   1.871   7.780  0.0084 -0.2329 -0.5019
 7283SOL    HW133482   4.232   1.964   7.776 -2.5545 -0.6678  3.5840
 7283SOL    HW233483   4.206   1.836   7.855  0.7535  0.8454  0.4689
 7284SOL     OW33484   3.581   4.165   2.400  0.1598 -0.3965  0.4688
 7284SOL    HW133485   3.579   4.122   2.314 -3.4430  0.8246 -0.0607
 7284SOL    HW233486   3.504   4.222   2.399  0.9941  0.7476  2.1185
 7285SOL     OW33487   1.516   2.555  11.307  0.0457  0.4963  0.0218
 7285SOL    HW133488   1.563   2.621  11.255 -1.1411  1.1480 -0.2268
 7285SOL    HW233489   1.462   2.611  11.363  1.1852  0.7563  0.8587
 7286SOL     OW33490   1.496   4.517   1.722  0.2833  0.5637  0.1048
 7286SOL    HW133491   1.513   4.572   1.798  4.1666 -0.7029  0.1444
 7286SOL    HW233492   1.577   4.526   1.672  0.9439  0.5010  1.1778
 7287SOL     OW33493   2.187   4.688   7.104  0.4915  0.0629 -0.6195
 7287SOL    HW133494   2.240   4.679   7.183 -3.4021 -2.1095  1.7443
 7287SOL    HW233495   2.155   4.598   7.095  1.0945 -0.1514 -0.6214
 7288SOL     OW33496   3.522   2.845   1.297 -0.0612  0.0982 -0.0627
 7288SOL    HW133497   3.564   2.922   1.260  1.6607  1.0378  3.8334
 7288SOL    HW233498   3.452   2.869   1.358  0.2644  2.0724 -0.4650
 7289SOL     OW33499   2.484   0.032  10.203 -0.1362  0.3985  0.2575
 7289SOL    HW133500   2.423   0.097  10.167  1.5014  2.7799  1.7370
 7289SOL    HW233501   2.565   0.080  10.183 -0.1775 -0.0304 -0.9677
 7290SOL     OW33502   1.644   3.925   6.856  0.1471 -0.1897  0.7614
 7290SOL    HW133503   1.723   3.905   6.906  1.0562  0.1316 -0.5309
 7290SOL    HW233504   1.634   4.018   6.878 -0.8059 -0.2876  0.7501
 7291SOL     OW33505   4.484   2.989   6.265 -0.1686 -0.3378  0.0991
 7291SOL    HW133506   4.438   3.072   6.251  1.4209  0.8085  1.6384
 7291SOL    HW233507   4.536   2.974   6.186 -0.3354 -0.4587  0.0127
 7292SOL     OW33508   2.727   2.420   2.142  0.0124 -0.4007  0.2622
 7292SOL    HW133509   2.790   2.386   2.078 -0.5542 -2.0011  0.5714
 7292SOL    HW233510   2.779   2.395   2.219  2.3820  2.1152 -0.4888
 7293SOL     OW33511   0.803   0.824   2.794  0.1077 -0.1094 -0.6769
 7293SOL    HW133512   0.765   0.773   2.866  0.8269  0.1454 -0.1260
 7293SOL    HW233513   0.893   0.837   2.822 -0.6306 -0.7872  2.0282
 7294SOL     OW33514   2.131   0.983  11.049  0.3186 -0.4764 -0.2774
 7294SOL    HW133515   2.051   0.958  11.096  0.2350 -1.1490 -0.7742
 7294SOL    HW233516   2.101   1.065  11.008  0.8099  1.6272  3.6486
 7295SOL     OW33517   1.318   4.705   6.575 -0.0525  0.4311 -0.2302
 7295SOL    HW133518   1.245   0.024   6.608 -1.6726 -0.4971 -2.3115
 7295SOL    HW233519   1.373   4.707   6.653 -1.8482 -0.4910  1.0632
 7296SOL     OW33520   1.302   4.713   2.898 -0.5217 -0.4064  0.1215
 7296SOL    HW133521   1.245   4.731   2.973  1.7043 -1.6245  2.1067
 7296SOL    HW233522   1.294   4.619   2.914 -0.4036 -0.4226  0.0784
 7297SOL     OW33523   0.687   3.470  15.821 -0.5030 -0.4140 -0.4162
 7297SOL    HW133524   0.658   3.547  15.772  1.4774 -1.4821 -3.3236
 7297SOL    HW233525   0.646   3.403  15.766 -0.3163 -0.3909 -0.5848
 7298SOL     OW33526   1.911   2.077   0.686  0.5822  0.3761 -0.4165
 7298SOL    HW133527   1.849   2.030   0.630 -0.2518  0.9808  0.0024
 7298SOL    HW233528   1.979   2.012   0.704  0.9954  0.8908 -0.1339
 7299SOL     OW33529   0.588   1.591   2.834  0.6048 -0.1942  0.4309
 7299SOL    HW133530   0.593   1.661   2.769  0.9424  0.5374  1.2553
 7299SOL    HW233531   0.561   1.644   2.908  1.5881 -1.2755  1.5555
 7300SOL     OW33532   1.552   4.236   6.439 -0.1375 -0.0841  0.0513
 7300SOL    HW133533   1.633   4.185   6.448  2.0724  3.2113 -1.4560
 7300SOL    HW233534   1.484   4.173   6.413  1.1008 -1.5547  0.3482
 7301SOL     OW33535   1.585   3.086   2.076 -0.5902  0.0785 -0.5165
 7301SOL    HW133536   1.549   3.005   2.114 -0.6272  1.2099  1.8521
 7301SOL    HW233537   1.579   3.146   2.150 -1.3718 -2.1232  1.2021
 7302SOL     OW33538   3.943   2.706   5.587  0.0832 -0.6593 -0.1265
 7302SOL    HW133539   3.982   2.665   5.664  0.6591  0.5852  0.2466
 7302SOL    HW233540   4.023   2.723   5.538 -1.6164  1.6824 -2.1024
 7303SOL     OW33541   3.480   2.134   4.605 -0.0194  0.2226  0.1571
 7303SOL    HW133542   3.538   2.211   4.611  1.0226 -0.5467 -0.0376
 7303SOL    HW233543   3.474   2.104   4.695  1.2465 -0.2319  0.0904
 7304SOL     OW33544   1.415   1.161   2.236  0.5530  0.7129  0.7177
 7304SOL    HW133545   1.446   1.152   2.326  0.1336  1.9955  0.9855
 7304SOL    HW233546   1.491   1.150   2.180 -0.3236 -1.5169 -0.0198
 7305SOL     OW33547   3.448   0.375   9.195  0.3753  0.3723  0.1762
 7305SOL    HW133548   3.495   0.458   9.192  0.0544  0.5537  0.0981
 7305SOL    HW233549   3.359   0.409   9.206  1.1358  2.3141  0.3788
 7306SOL     OW33550   0.513   0.356   8.709 -0.1812  0.0575 -0.3149
 7306SOL    HW133551   0.443   0.398   8.660  0.2725 -0.1205 -1.1139
 7306SOL    HW233552   0.579   0.347   8.640  1.4616  1.3026  1.0975
 7307SOL     OW33553   1.753   1.203   3.576 -0.5530 -0.1046  0.2802
 7307SOL    HW133554   1.670   1.156   3.584 -1.2047  1.0782  0.4570
 7307SOL    HW233555   1.819   1.135   3.585  0.0195  0.2615 -1.0982
 7308SOL     OW33556   2.266   4.108   3.492 -0.9853  0.3699 -0.5545
 7308SOL    HW133557   2.346   4.065   3.461 -0.3909  0.1452  1.2547
 7308SOL    HW233558   2.202   4.072   3.430 -1.3104 -0.7362  0.4163
 7309SOL     OW33559   0.257   3.671   1.444 -0.1297 -0.1417 -0.3111
 7309SOL    HW133560   0.339   3.636   1.407 -1.5406 -1.6105 -2.0421
 7309SOL    HW233561   0.205   3.594   1.467 -1.5382  0.4198 -1.6099
 7310SOL     OW33562   1.084   0.477  11.612  0.3827  0.1903  0.0724
 7310SOL    HW133563   1.158   0.502  11.667 -1.4245 -2.2661  3.6015
 7310SOL    HW233564   1.121   0.496  11.526  1.3471 -1.8136  0.0380
 7311SOL     OW33565   1.032   2.942   8.723 -0.0194  0.1442 -0.0902
 7311SOL    HW133566   1.124   2.918   8.710  0.2605 -0.7234  3.7318
 7311SOL    HW233567   1.036   3.035   8.745 -1.2690 -0.1840  1.5336
 7312SOL     OW33568   1.887   0.613   3.277 -0.2602  0.1905  0.2926
 7312SOL    HW133569   1.855   0.633   3.365 -0.8429 -1.1982  0.3891
 7312SOL    HW233570   1.886   0.518   3.278  4.1162  0.1479 -1.3943
 7313SOL     OW33571   4.574   2.868  15.761 -0.0318  0.0682  0.3132
 7313SOL    HW133572   4.599   2.837  15.848  1.0846 -0.8163 -0.3233
 7313SOL    HW233573   4.493   2.917  15.773 -1.4949 -3.1447  3.9022
 7314SOL     OW33574   0.158   0.969   5.597  0.6886 -0.1284 -0.3267
 7314SOL    HW133575   0.217   0.965   5.522  1.3435 -1.9583  0.2701
 7314SOL    HW233576   0.195   1.041   5.647  0.9780 -0.5083  0.0063
 7315SOL     OW33577   1.341   4.056   6.438 -0.2303  0.1380 -0.3934
 7315SOL    HW133578   1.331   4.026   6.528 -0.1860  0.9499 -0.1179
 7315SOL    HW233579   1.353   3.969   6.398 -1.7439 -0.5613  0.7014
 7316SOL     OW33580   3.086   1.985   1.177 -0.0842 -0.5001  0.1024
 7316SOL    HW133581   3.161   1.959   1.232 -0.1836 -0.4014  0.2859
 7316SOL    HW233582   3.084   1.910   1.118  1.1546  0.6096 -1.3524
 7317SOL     OW33583   2.400   3.311   6.776  0.6280  0.3757 -0.5573
 7317SOL    HW133584   2.485   3.271   6.754  0.8805  0.3608  0.4603
 7317SOL    HW233585   2.419   3.404   6.785  0.3456  0.2793  1.0267
 7318SOL     OW33586   2.854   0.418   5.889  0.8076  0.0841 -0.4976
 7318SOL    HW133587   2.825   0.343   5.941  0.6608 -0.4387 -1.3329
 7318SOL    HW233588   2.785   0.481   5.910  2.2615  1.4398  0.2326
 7319SOL     OW33589   1.654   3.053   5.846 -0.2769 -0.5049  0.1676
 7319SOL    HW133590   1.588   2.985   5.858 -1.8893  1.0795  0.1945
 7319SOL    HW233591   1.631   3.073   5.756 -1.0784  3.1201  1.1434
 7320SOL     OW33592   4.605   2.899   4.215  0.0663  0.5391 -0.5122
 7320SOL    HW133593   4.574   2.908   4.125  1.8862 -1.5616 -1.3466
 7320SOL    HW233594   4.575   2.981   4.253 -2.8184 -0.8825  0.2802
 7321SOL     OW33595   4.320   1.983   6.070  0.4697 -0.0535  0.1349
 7321SOL    HW133596   4.384   1.986   6.141 -1.6512  3.1227  1.8913
 7321SOL    HW233597   4.344   2.063   6.023 -0.6264  0.0226 -0.2867
 7322SOL     OW33598   3.965   0.045   8.925  0.1220 -0.3444 -0.5136
 7322SOL    HW133599   3.897   0.095   8.879  0.7016 -0.5281 -1.5610
 7322SOL    HW233600   3.915   4.701   8.950 -0.0389  0.6125  2.2345
 7323SOL     OW33601   0.300   2.496   7.404  0.7133  0.1790 -0.7431
 7323SOL    HW133602   0.289   2.585   7.439  1.3579 -0.2370  0.5082
 7323SOL    HW233603   0.349   2.471   7.482 -1.8541  0.1265  0.8607
 7324SOL     OW33604   4.634   3.029   9.324 -0.7693 -0.1414  0.2517
 7324SOL    HW133605   4.609   3.116   9.294 -1.5001 -0.0054  1.2499
 7324SOL    HW233606   4.729   3.040   9.328 -0.6589 -0.7932 -0.5816
 7325SOL     OW33607   0.508   4.503   8.597 -0.1466  0.0759  0.2812
 7325SOL    HW133608   0.567   4.486   8.671  2.1760 -2.4909 -2.1727
 7325SOL    HW233609   0.464   4.420   8.581 -2.4909  0.8956  2.4493
 7326SOL     OW33610   4.470   2.464   3.834 -0.0030  0.8589  0.0989
 7326SOL    HW133611   4.434   2.483   3.921  0.2765 -1.4226  0.7063
 7326SOL    HW233612   4.394   2.437   3.783  1.7556  1.1122 -2.6946
 7327SOL     OW33613   3.497   3.297  16.995 -0.0932 -0.0745  0.3882
 7327SOL    HW133614   3.439   3.257  16.930  1.3791 -1.9509  0.2346
 7327SOL    HW233615   3.429   3.315  17.060 -0.7124 -0.7648 -0.0609
 7328SOL     OW33616   3.812   1.079   2.079  0.2976 -0.1419  0.0491
 7328SOL    HW133617   3.821   1.127   2.161  3.2234  1.7462 -1.3831
 7328SOL    HW233618   3.734   1.118   2.039  0.0095 -0.7566  0.0015
 7329SOL     OW33619   4.587   1.059   6.842  0.2663 -0.2362 -0.6113
 7329SOL    HW133620   4.546   1.016   6.917  0.6042 -0.8249 -0.7654
 7329SOL    HW233621   4.658   1.112   6.878 -0.4313  0.1326  0.2146
 7330SOL     OW33622   3.293   0.778  10.366 -0.5149  0.0024 -0.0952
 7330SOL    HW133623   3.356   0.711  10.394 -0.9825  0.3902  1.9218
 7330SOL    HW233624   3.344   0.854  10.340  0.5846  0.2128  2.6077
 7331SOL     OW33625   3.383   1.395  11.208 -0.1145 -0.0568 -0.2754
 7331SOL    HW133626   3.298   1.392  11.164  0.0577  0.8363 -0.6694
 7331SOL    HW233627   3.428   1.322  11.164 -1.3508 -0.1180 -1.4591
 7332SOL     OW33628   1.398   3.106   6.704 -0.0728  0.1976 -0.2969
 7332SOL    HW133629   1.394   3.102   6.608 -2.1951  3.1493 -0.3293
 7332SOL    HW233630   1.397   3.011   6.716 -0.3268  0.3803  1.1622
 7333SOL     OW33631   1.069   0.958   7.532  0.1878  0.0206 -0.2904
 7333SOL    HW133632   0.985   0.960   7.486 -0.7352 -2.2867  1.3024
 7333SOL    HW233633   1.132   0.983   7.464 -0.8192 -1.4102 -1.7376
 7334SOL     OW33634   4.672   0.940   2.472  0.1171 -0.6403  0.0138
 7334SOL    HW133635   0.021   0.938   2.520 -0.0570  0.7021  0.3798
 7334SOL    HW233636   4.669   0.862   2.417 -1.7577 -0.9490  0.5323
 7335SOL     OW33637   3.805   4.481   7.412 -0.3039  0.0657 -0.1533
 7335SOL    HW133638   3.854   4.428   7.349 -2.3059 -0.4156 -1.2985
 7335SOL    HW233639   3.718   4.443   7.404  0.6460 -1.3704 -3.4570
 7336SOL     OW33640   0.090   3.100   5.675 -0.0507 -0.2456  0.1945
 7336SOL    HW133641   0.062   3.191   5.684  2.2073  0.4624  0.1734
 7336SOL    HW233642   0.169   3.100   5.729  0.8237 -0.5531 -1.1023
 7337SOL     OW33643   0.482   0.220   2.730  0.0652  0.7585  0.0054
 7337SOL    HW133644   0.531   0.186   2.805 -0.4787  1.6087  0.7421
 7337SOL    HW233645   0.551   0.280   2.701  1.2447  0.2805  1.8391
 7338SOL     OW33646   4.104   2.583   8.748 -0.1731  0.4132  0.0613
 7338SOL    HW133647   4.087   2.490   8.739  3.5358 -0.1331 -1.2921
 7338SOL    HW233648   4.073   2.616   8.664  1.7820  0.4057 -0.6723
 7339SOL     OW33649   4.712   4.666  16.223  0.6789  0.2110  0.5145
 7339SOL    HW133650   4.700   4.729  16.295  1.7080  1.5339 -0.4767
 7339SOL    HW233651   4.622   4.648  16.196  1.4478 -1.3417 -1.0019
 7340SOL     OW33652   4.709   2.333   7.619 -0.3985 -0.3768 -0.5078
 7340SOL    HW133653   0.019   2.255   7.585  0.6571  1.1021 -2.4895
 7340SOL    HW233654   0.037   2.359   7.688 -0.1909 -0.4859 -0.6536
 7341SOL     OW33655   3.451   1.523  11.912 -0.5528  0.3112 -0.0491
 7341SOL    HW133656   3.478   1.605  11.953 -1.1814 -0.1591  1.3058
 7341SOL    HW233657   3.415   1.551  11.829  1.1192 -2.3702 -1.6996
 7342SOL     OW33658   3.636   4.550   6.115 -0.3794  0.5721  0.6594
 7342SOL    HW133659   3.563   4.577   6.171 -0.2406  1.8295  0.2217
 7342SOL    HW233660   3.669   4.635   6.087  0.6096 -0.0012  0.0871
 7343SOL     OW33661   1.989   3.668   6.013  0.0234  0.0724 -0.0410
 7343SOL    HW133662   1.948   3.631   6.091 -0.8311  0.7206 -0.1754
 7343SOL    HW233663   2.051   3.723   6.061  1.9468  0.0879 -2.5191
 7344SOL     OW33664   1.518   1.233  10.242  0.1598 -0.0840 -0.3131
 7344SOL    HW133665   1.543   1.299  10.308  1.8616 -0.9491 -0.0992
 7344SOL    HW233666   1.575   1.158  10.261 -0.5204 -0.7192 -0.8131
 7345SOL     OW33667   4.227   1.202   7.091  0.2847  0.2883  0.2263
 7345SOL    HW133668   4.147   1.149   7.090  0.7620 -0.4527  1.4629
 7345SOL    HW233669   4.217   1.280   7.146 -0.2397  1.7459 -1.9238
 7346SOL     OW33670   2.491   0.348   8.170 -0.3096 -0.7707 -0.3425
 7346SOL    HW133671   2.468   0.392   8.252 -0.9065 -1.0025 -0.3803
 7346SOL    HW233672   2.469   0.260   8.201 -2.7083  0.1752  0.6973
 7347SOL     OW33673   2.951   1.908   7.757 -0.0371  0.2554 -0.2684
 7347SOL    HW133674   2.913   1.986   7.798  0.8658 -0.2675  1.5336
 7347SOL    HW233675   2.996   1.948   7.682 -0.8942 -1.1726 -1.5239
 7348SOL     OW33676   2.575   2.538   3.449 -0.3298 -0.0601  0.3698
 7348SOL    HW133677   2.485   2.520   3.422 -0.1849  0.1252 -0.2347
 7348SOL    HW233678   2.597   2.618   3.402  1.2531 -0.9368 -0.3664
 7349SOL     OW33679   0.602   1.774   8.386 -0.0784 -0.4418  0.0438
 7349SOL    HW133680   0.666   1.814   8.445 -0.9337 -0.8858  1.2827
 7349SOL    HW233681   0.655   1.697   8.367  0.1371 -0.6492  1.4599
 7350SOL     OW33682   1.773   3.683   9.827 -0.5297 -0.2313  0.7317
 7350SOL    HW133683   1.712   3.617   9.795  0.0894 -0.4640  0.0473
 7350SOL    HW233684   1.714   3.752   9.856  2.1486  1.7550  1.4630
 7351SOL     OW33685   2.724   0.371  13.657 -0.6280  0.4955 -0.1522
 7351SOL    HW133686   2.732   0.331  13.570  0.0115 -0.0529  0.1558
 7351SOL    HW233687   2.712   0.291  13.706  0.0297  1.3668  1.4254
 7352SOL     OW33688   3.086   4.176   6.002  0.1586  0.4221 -0.9779
 7352SOL    HW133689   3.144   4.163   5.927  0.7666 -3.1374  0.1417
 7352SOL    HW233690   3.123   4.109   6.059  0.2520 -0.0637 -1.6023
 7353SOL     OW33691   0.347   1.156   3.529 -0.3834  0.1578  0.2952
 7353SOL    HW133692   0.380   1.228   3.583  0.2430 -0.9584  1.4030
 7353SOL    HW233693   0.257   1.164   3.563 -0.4050 -3.2044  1.1179
 7354SOL     OW33694   1.265   2.644  10.966  0.1758  0.1715  0.7461
 7354SOL    HW133695   1.228   2.730  10.983  0.8629  0.5313  0.4456
 7354SOL    HW233696   1.214   2.598  11.032  0.8673 -1.0164  0.4504
 7355SOL     OW33697   1.958   0.294   5.683 -0.0457 -0.4116  0.2392
 7355SOL    HW133698   1.961   0.297   5.587  1.5773 -1.4427  0.2602
 7355SOL    HW233699   2.035   0.240   5.699  0.6037  0.7801  1.1486
 7356SOL     OW33700   1.382   0.117   3.652 -0.2120 -0.1317  0.0098
 7356SOL    HW133701   1.430   0.039   3.623 -0.3459  0.0287 -0.6568
 7356SOL    HW233702   1.316   0.079   3.709  1.0042  0.1175  1.5629
 7357SOL     OW33703   1.939   1.962   2.778  0.2741  0.1071  0.9073
 7357SOL    HW133704   1.882   1.887   2.792 -0.9206  0.5467 -1.5706
 7357SOL    HW233705   2.013   1.928   2.728 -0.4125  0.0207 -0.0525
 7358SOL     OW33706   0.816   1.504   4.640 -0.0352 -0.0600 -0.3291
 7358SOL    HW133707   0.887   1.478   4.698 -1.9722 -1.7024  1.3336
 7358SOL    HW233708   0.770   1.572   4.689  0.5068  0.2512 -0.2503
 7359SOL     OW33709   3.971   3.809   1.516  0.5276 -0.0564  0.6246
 7359SOL    HW133710   3.896   3.757   1.487 -0.2193  0.6420  1.3107
 7359SOL    HW233711   4.044   3.759   1.480  0.1701 -0.5815  0.6240
 7360SOL     OW33712   3.696   4.211   7.394  0.0742 -0.4462  0.3370
 7360SOL    HW133713   3.766   4.146   7.405 -0.3314 -0.6920  1.4436
 7360SOL    HW233714   3.700   4.270   7.469 -0.4951 -0.5669  0.4670
 7361SOL     OW33715   1.330   0.595   3.970  0.5503 -0.0943  0.0035
 7361SOL    HW133716   1.240   0.568   3.952  1.2884 -2.5212 -0.0292
 7361SOL    HW233717   1.382   0.517   3.987  0.9866  0.1209 -0.3492
 7362SOL     OW33718   2.467   1.598   9.693 -0.2248 -0.2175  0.0275
 7362SOL    HW133719   2.509   1.579   9.777 -1.2123  0.5709  0.7036
 7362SOL    HW233720   2.513   1.679   9.671  0.1147 -0.2700  0.5310
 7363SOL     OW33721   2.523   4.409   5.237  0.0785  0.1135 -0.0248
 7363SOL    HW133722   2.437   4.379   5.266 -1.2332  1.4506 -2.5745
 7363SOL    HW233723   2.577   4.418   5.316 -0.8759 -0.6326  0.7075
 7364SOL     OW33724   0.615   2.549   4.521 -0.1057 -0.1836 -0.0679
 7364SOL    HW133725   0.700   2.526   4.486  0.9814  2.8822  0.5300
 7364SOL    HW233726   0.626   2.634   4.564  0.2444  0.3329 -1.1776
 7365SOL     OW33727   3.971   4.717   3.339 -0.0469 -0.1619  0.5547
 7365SOL    HW133728   3.965   0.073   3.372 -2.1986 -0.3250  0.6058
 7365SOL    HW233729   4.042   4.691   3.397  0.1677 -0.2285  0.2642
 7366SOL     OW33730   0.049   3.904   8.433 -0.2435 -0.0038 -0.5013
 7366SOL    HW133731   0.102   3.824   8.436 -0.3531 -0.1471 -2.3059
 7366SOL    HW233732   0.012   3.913   8.521 -0.6183 -0.7641 -0.5877
 7367SOL     OW33733   3.423   1.983  12.634 -0.1355  0.3866 -0.0675
 7367SOL    HW133734   3.488   1.962  12.567  0.6344 -1.6765  1.3454
 7367SOL    HW233735   3.362   1.912  12.615  0.6951 -0.4222  0.3166
 7368SOL     OW33736   1.214   3.112  13.741 -0.3285 -0.1202  0.1816
 7368SOL    HW133737   1.223   3.034  13.796 -1.9161 -1.0581 -0.9016
 7368SOL    HW233738   1.276   3.082  13.675  0.4973  1.0924  0.4117
 7369SOL     OW33739   1.995   1.876  11.746  0.2810  0.4471  0.1262
 7369SOL    HW133740   1.928   1.884  11.814  2.8387  2.7059  2.3711
 7369SOL    HW233741   1.955   1.806  11.694 -0.2845  1.1059 -0.3310
 7370SOL     OW33742   4.244   4.513   6.656  0.1661 -0.0199  0.2839
 7370SOL    HW133743   4.335   4.529   6.679  0.0252  0.3995  0.5540
 7370SOL    HW233744   4.200   4.554   6.731 -1.4823  2.7569 -2.1466
 7371SOL     OW33745   1.869   4.592   4.677 -0.5995  0.4249 -0.1727
 7371SOL    HW133746   1.965   4.597   4.683 -0.4943 -1.6076  0.0764
 7371SOL    HW233747   1.852   4.677   4.638  0.4764  0.4470 -0.6096
 7372SOL     OW33748   3.252   1.733   9.501  0.4260 -0.1781 -0.5381
 7372SOL    HW133749   3.274   1.654   9.551  0.2767  0.7781  1.0544
 7372SOL    HW233750   3.312   1.796   9.541 -0.5907 -1.2754  2.7705
 7373SOL     OW33751   0.698   3.810   2.267 -0.6239  0.3801  0.3165
 7373SOL    HW133752   0.672   3.817   2.359  1.6931  0.7712  0.9247
 7373SOL    HW233753   0.623   3.766   2.226  0.8717 -1.0732 -0.8571
 7374SOL     OW33754   3.618   1.854   9.395 -0.3962 -0.2297 -0.1502
 7374SOL    HW133755   3.681   1.925   9.408 -1.6030  1.1085 -1.5796
 7374SOL    HW233756   3.548   1.882   9.454 -1.3143  2.0888 -2.3436
 7375SOL     OW33757   0.114   1.996   4.743  0.2358  0.0164 -0.0566
 7375SOL    HW133758   0.118   1.904   4.770 -0.2151  0.0694  0.1974
 7375SOL    HW233759   0.197   2.004   4.696  0.1444  1.5502  0.0534
 7376SOL     OW33760   2.025   2.324   1.578  0.3365  0.0502 -0.2352
 7376SOL    HW133761   2.016   2.273   1.658 -2.0702  1.2702  0.2671
 7376SOL    HW233762   1.934   2.351   1.567 -0.3221 -1.7048  0.9337
 7377SOL     OW33763   0.018   0.461   7.577  0.8843  0.4258 -0.0664
 7377SOL    HW133764   4.681   0.446   7.640  0.3814 -0.0847 -0.7645
 7377SOL    HW233765   4.717   0.412   7.503  3.5837  0.5779 -1.4186
 7378SOL     OW33766   0.530   3.039  14.489 -0.4486  0.1063 -0.2143
 7378SOL    HW133767   0.558   3.100  14.421  1.5761  0.4133  0.8893
 7378SOL    HW233768   0.609   2.988  14.509  0.0274  0.4820 -1.1133
 7379SOL     OW33769   2.436   2.313   2.664  0.5125  0.0149  0.1147
 7379SOL    HW133770   2.356   2.275   2.703 -0.3558  0.7449 -0.9547
 7379SOL    HW233771   2.492   2.240   2.689  1.6876  0.7998 -0.2288
 7380SOL     OW33772   4.347   2.208  13.967  0.0439  0.7911 -0.4939
 7380SOL    HW133773   4.257   2.239  13.961 -0.9153 -1.7274  0.6442
 7380SOL    HW233774   4.350   2.176  13.877  0.5957 -0.8381  0.1014
 7381SOL     OW33775   4.166   0.210   9.135  0.3254  0.0122  0.1682
 7381SOL    HW133776   4.212   0.128   9.155 -0.9464 -0.7643 -0.0841
 7381SOL    HW233777   4.092   0.172   9.088  0.6633 -1.7108  1.0233
 7382SOL     OW33778   2.266   4.473   3.161  0.2588  0.1907 -0.1708
 7382SOL    HW133779   2.307   4.396   3.122 -0.4142  0.7895 -2.0304
 7382SOL    HW233780   2.179   4.435   3.174 -0.2356  1.9040  1.5352
 7383SOL     OW33781   3.259   2.388   9.686  0.1804 -0.3794 -0.3648
 7383SOL    HW133782   3.295   2.438   9.759  0.2835  0.8681 -1.2729
 7383SOL    HW233783   3.185   2.343   9.727 -0.9865 -0.0705 -2.1352
 7384SOL     OW33784   2.388   0.487   3.850 -0.4024  0.0502  0.1119
 7384SOL    HW133785   2.343   0.572   3.844 -1.1395 -0.1252  3.0586
 7384SOL    HW233786   2.384   0.448   3.762 -0.9074 -0.3883  0.3271
 7385SOL     OW33787   2.584   2.704   8.084  0.4134 -0.0174 -0.2359
 7385SOL    HW133788   2.492   2.732   8.082  0.2788 -0.2407  2.5683
 7385SOL    HW233789   2.634   2.783   8.065  1.1760 -0.6719 -0.9307
 7386SOL     OW33790   4.203   4.655  17.279 -0.0577  0.1294 -0.0481
 7386SOL    HW133791   4.221   4.563  17.297  2.1134  0.6579  0.5437
 7386SOL    HW233792   4.291   4.691  17.289 -0.3681  1.1007 -0.8674
 7387SOL     OW33793   3.898   1.779   4.617  0.0998 -0.0030 -0.0029
 7387SOL    HW133794   3.984   1.769   4.575 -0.2616  0.9943 -0.9782
 7387SOL    HW233795   3.911   1.864   4.659  1.0463  0.4184 -1.1445
 7388SOL     OW33796   1.030   4.213   0.890  0.4243  0.1848 -0.1137
 7388SOL    HW133797   0.974   4.216   0.968 -0.0631 -1.9093 -0.3835
 7388SOL    HW233798   0.962   4.241   0.830 -0.3147 -0.0423  0.6161
 7389SOL     OW33799   0.852   0.728  16.359 -0.6256  0.3533  0.3321
 7389SOL    HW133800   0.848   0.662  16.290 -0.3818 -0.5552  1.1868
 7389SOL    HW233801   0.945   0.721  16.381 -0.0446  3.2613 -1.1769
 7390SOL     OW33802   3.576   1.895  12.426  0.0348  0.1173 -0.5967
 7390SOL    HW133803   3.602   1.817  12.376  0.8754  0.6693 -1.0172
 7390SOL    HW233804   3.550   1.956  12.357  1.0680  0.7135 -0.4463
 7391SOL     OW33805   2.192   0.513   1.226  0.0925  0.0360  0.3745
 7391SOL    HW133806   2.171   0.420   1.232  0.6228 -0.2453 -1.9445
 7391SOL    HW233807   2.135   0.527   1.150  1.5436 -0.1354 -0.7507
 7392SOL     OW33808   3.618   1.051   7.545  0.2438 -0.6399 -0.4747
 7392SOL    HW133809   3.693   1.041   7.485  0.5440  0.5825 -0.2915
 7392SOL    HW233810   3.566   0.972   7.530 -1.1134 -0.1176  1.4732
 7393SOL     OW33811   1.928   2.887   0.853  0.3716 -0.4881 -0.5142
 7393SOL    HW133812   1.859   2.845   0.904  0.7579 -1.2942 -0.6597
 7393SOL    HW233813   1.890   2.897   0.765  0.8359  2.3120 -0.3986
 7394SOL     OW33814   0.552   1.373  16.590  0.1987  0.0028  0.4012
 7394SOL    HW133815   0.525   1.464  16.605  2.1166  0.3866  1.5622
 7394SOL    HW233816   0.633   1.369  16.641  1.4327  0.8388 -1.4963
 7395SOL     OW33817   1.877   3.603   4.651 -0.2057 -0.0307 -0.0838
 7395SOL    HW133818   1.870   3.694   4.680  0.6315 -0.5379  1.7220
 7395SOL    HW233819   1.871   3.621   4.557 -0.6477  1.8913  0.3211
 7396SOL     OW33820   1.228   3.837   3.534  0.6132  0.0072 -0.2406
 7396SOL    HW133821   1.148   3.861   3.487  0.3426 -0.4095  0.0133
 7396SOL    HW233822   1.193   3.770   3.593 -2.1819  0.6007 -1.2011
 7397SOL     OW33823   2.943   2.392   0.479  0.0876 -0.1817 -0.0364
 7397SOL    HW133824   2.987   2.420   0.560 -1.8498 -0.3360  1.0746
 7397SOL    HW233825   3.007   2.421   0.414 -0.7026 -0.2876 -0.8568
 7398SOL     OW33826   2.248   3.466   4.366 -0.0266 -0.6493 -0.0998
 7398SOL    HW133827   2.170   3.438   4.317 -1.5251 -1.7825  2.9276
 7398SOL    HW233828   2.291   3.531   4.310 -1.0981 -0.6874 -0.9705
 7399SOL     OW33829   0.107   1.917   0.631  0.1796 -0.2191 -0.0440
 7399SOL    HW133830   0.147   1.835   0.659 -0.3867 -0.2642  0.6557
 7399SOL    HW233831   0.146   1.934   0.546  2.0172  0.9538  1.0234
 7400SOL     OW33832   4.090   0.513  14.500  0.1324 -0.2655 -0.0668
 7400SOL    HW133833   4.030   0.477  14.435  1.5024 -2.2882 -0.2126
 7400SOL    HW233834   4.173   0.516  14.452 -0.2726  0.6876 -0.6994
 7401SOL     OW33835   2.816   4.016   9.941 -0.1186  0.4171  0.4394
 7401SOL    HW133836   2.798   4.110   9.933 -0.2922  0.2617 -1.1094
 7401SOL    HW233837   2.881   4.018  10.011 -2.7163  0.9074  2.7948
 7402SOL     OW33838   3.706   0.801   3.073 -0.3476  0.4492  0.0589
 7402SOL    HW133839   3.623   0.848   3.089  1.0558  1.9933  2.8579
 7402SOL    HW233840   3.701   0.736   3.143  0.2336  0.0214 -0.2989
 7403SOL     OW33841   0.212   4.105   4.622  0.1930  0.4897  0.1317
 7403SOL    HW133842   0.304   4.106   4.596  0.6869  0.2543  1.8466
 7403SOL    HW233843   0.199   4.190   4.665 -1.6458  1.0602 -1.5531
 7404SOL     OW33844   1.792   0.780   9.226  0.0117  0.1695  0.4951
 7404SOL    HW133845   1.699   0.782   9.249 -0.2167 -0.5331 -0.3326
 7404SOL    HW233846   1.810   0.693   9.262  1.7610  0.7013  0.8664
 7405SOL     OW33847   1.155   4.271   7.324  0.0044 -0.0241 -0.4686
 7405SOL    HW133848   1.129   4.354   7.363  1.3854  0.1292  0.1204
 7405SOL    HW233849   1.078   4.224   7.357 -1.2412  0.8938 -2.0290
 7406SOL     OW33850   3.396   1.269   7.581 -0.1458 -0.2436 -0.5393
 7406SOL    HW133851   3.445   1.348   7.604  1.1835 -1.3592  0.4934
 7406SOL    HW233852   3.465   1.202   7.587  0.6086  0.3698 -2.4948
 7407SOL     OW33853   2.979   0.601   2.127 -0.2621  0.6561  0.2716
 7407SOL    HW133854   2.922   0.527   2.109  0.4546 -0.7099  3.6670
 7407SOL    HW233855   3.037   0.610   2.051 -0.9567  0.6193 -0.2585
 7408SOL     OW33856   2.189   0.802   7.418  0.1592  0.0140  0.0463
 7408SOL    HW133857   2.243   0.877   7.443 -1.4762  1.7422 -1.7390
 7408SOL    HW233858   2.214   0.787   7.327 -2.1409 -2.1454 -0.2251
 7409SOL     OW33859   1.657   4.308   9.447  0.0806  0.3908 -0.0331
 7409SOL    HW133860   1.601   4.373   9.491  2.6297  1.6921  1.2962
 7409SOL    HW233861   1.589   4.260   9.400 -0.4144 -0.7106  1.7886
 7410SOL     OW33862   2.504   3.358   7.232 -0.2300 -0.4259 -0.7969
 7410SOL    HW133863   2.587   3.369   7.184 -0.3444 -0.0384 -0.9050
 7410SOL    HW233864   2.443   3.401   7.173  0.3309 -0.9917 -1.7906
 7411SOL     OW33865   4.380   1.234   5.734  0.1381 -0.2055  0.3559
 7411SOL    HW133866   4.453   1.198   5.784 -0.2777 -1.5255  0.0192
 7411SOL    HW233867   4.425   1.249   5.651 -3.7567 -0.3380 -1.7650
 7412SOL     OW33868   1.648   0.063   8.284 -0.8409  0.0922 -0.5834
 7412SOL    HW133869   1.654   0.061   8.189  2.4171  1.9584 -0.3933
 7412SOL    HW233870   1.728   0.016   8.305 -0.8977 -0.2527 -1.1569
 7413SOL     OW33871   0.371   2.769   3.753  0.1862 -0.1658 -0.3341
 7413SOL    HW133872   0.385   2.715   3.831  0.4755 -0.4203 -0.5604
 7413SOL    HW233873   0.461   2.782   3.725  1.3051 -1.7450  2.5872
 7414SOL     OW33874   2.100   1.593   2.760  0.0760  0.3588  0.2156
 7414SOL    HW133875   2.028   1.534   2.781 -1.0806  3.1681  4.2975
 7414SOL    HW233876   2.168   1.534   2.726 -0.1367  1.1162 -1.5018
 7415SOL     OW33877   1.953   3.054  17.104 -0.0146  0.4052 -0.1940
 7415SOL    HW133878   2.007   2.978  17.127 -1.1509  0.0529  1.2929
 7415SOL    HW233879   1.871   3.035  17.149  0.4038 -0.8661  0.0509
 7416SOL     OW33880   1.029   3.802   7.372  0.2937  0.5083  0.3305
 7416SOL    HW133881   0.973   3.791   7.295  2.2091 -0.0154 -1.0064
 7416SOL    HW233882   1.042   3.897   7.369 -1.4893  0.6378 -3.1398
 7417SOL     OW33883   0.632   3.368  15.554  0.3772 -0.6577 -0.2477
 7417SOL    HW133884   0.544   3.349  15.521 -0.5078  1.8597  0.6647
 7417SOL    HW233885   0.666   3.430  15.489  1.9384 -0.3956  0.8288
 7418SOL     OW33886   1.730   0.384   5.397  0.4882  0.0720  0.2553
 7418SOL    HW133887   1.730   0.468   5.350 -0.5497  0.6445  1.2822
 7418SOL    HW233888   1.816   0.348   5.374 -0.2771 -2.3067  1.2280
 7419SOL     OW33889   1.302   4.693   5.522 -0.4733  0.4318  0.6101
 7419SOL    HW133890   1.236   4.718   5.587 -1.0876 -2.0427  0.9203
 7419SOL    HW233891   1.261   4.619   5.477 -1.0551  0.1070  1.6642
 7420SOL     OW33892   3.759   1.530  16.165 -0.4484  0.3307 -0.2269
 7420SOL    HW133893   3.715   1.473  16.228 -1.2349  1.5568  0.3320
 7420SOL    HW233894   3.799   1.597  16.220 -0.4683 -0.8997  1.2777
 7421SOL     OW33895   1.321   0.960   1.902 -0.8281  0.7048  0.3214
 7421SOL    HW133896   1.292   0.873   1.928 -1.7782  0.5813 -1.1283
 7421SOL    HW233897   1.243   0.998   1.862  0.4478 -1.1653 -3.9248
 7422SOL     OW33898   4.528   2.608  16.784 -1.6350 -0.6258 -0.1962
 7422SOL    HW133899   4.603   2.561  16.820 -1.5571  0.7908  1.4655
 7422SOL    HW233900   4.572   2.636  16.704 -0.5437  1.0365  0.9802
 7423SOL     OW33901   3.008   0.221  10.189  0.1766  0.0109  0.1477
 7423SOL    HW133902   3.002   0.245  10.282  0.0824  1.6830 -0.2895
 7423SOL    HW233903   3.101   0.202  10.180 -0.3671 -1.9786 -1.1034
 7424SOL     OW33904   2.228   2.592   5.651 -0.6696  0.6022  0.1591
 7424SOL    HW133905   2.271   2.676   5.637  0.1953  0.1157 -0.1625
 7424SOL    HW233906   2.218   2.590   5.746  1.1993 -2.0643  0.3081
 7425SOL     OW33907   1.342   4.449   7.549 -0.7206 -0.2632  0.0434
 7425SOL    HW133908   1.421   4.418   7.594 -0.1535 -0.1948 -0.8901
 7425SOL    HW233909   1.378   4.522   7.499 -0.5473 -1.1975 -1.2304
 7426SOL     OW33910   0.488   3.106   6.662 -0.3355 -0.3680 -0.6346
 7426SOL    HW133911   0.402   3.080   6.696 -0.0236  1.1309  1.2690
 7426SOL    HW233912   0.454   3.151   6.585 -1.7352 -1.1378 -0.4770
 7427SOL     OW33913   4.134   0.005  17.646 -0.2003 -0.4347  0.5639
 7427SOL    HW133914   4.224   0.025  17.670 -0.7723  0.5919  1.8953
 7427SOL    HW233915   4.101   0.017  17.736 -3.0763 -0.0965 -0.5261
 7428SOL     OW33916   2.397   2.751   5.794 -0.0268  0.3768 -0.3355
 7428SOL    HW133917   2.428   2.801   5.869  1.0963 -0.5367 -0.1991
 7428SOL    HW233918   2.445   2.801   5.728 -0.3678 -1.6625 -2.1220
 7429SOL     OW33919   1.073   1.677   6.464 -0.2128 -0.0588 -0.1615
 7429SOL    HW133920   1.055   1.653   6.555 -2.7846  0.6363 -0.4956
 7429SOL    HW233921   1.142   1.617   6.435 -1.0011 -0.6300 -0.8730
 7430SOL     OW33922   4.581   4.022   5.608 -0.1578 -0.1802 -0.2293
 7430SOL    HW133923   4.560   4.038   5.700 -1.1942  0.1388 -0.5194
 7430SOL    HW233924   4.494   4.014   5.570 -1.1256  0.5099  1.8113
 7431SOL     OW33925   4.263   3.214  17.042  0.0616 -0.8365 -1.4521
 7431SOL    HW133926   4.242   3.123  17.063  0.7192 -0.7615 -0.4599
 7431SOL    HW233927   4.339   3.211  16.984  1.6716 -1.8057  0.6786
 7432SOL     OW33928   0.427   2.123  10.330  0.5027  0.4915 -0.7777
 7432SOL    HW133929   0.396   2.138  10.420 -0.1661 -0.9867 -0.7603
 7432SOL    HW233930   0.449   2.213  10.307  1.0359  1.0427  1.8037
 7433SOL     OW33931   2.932   3.723   5.823 -0.3830  0.1178 -0.1046
 7433SOL    HW133932   2.842   3.715   5.791 -0.7112  1.2154  0.5496
 7433SOL    HW233933   2.982   3.667   5.764  2.9250  2.0548  0.9062
 7434SOL     OW33934   0.429   0.804   5.298 -0.3635  0.4603 -0.2622
 7434SOL    HW133935   0.460   0.742   5.364  1.1147  1.5566  0.0792
 7434SOL    HW233936   0.359   0.751   5.259  0.0911  0.8562 -1.6088
 7435SOL     OW33937   0.232   2.327   5.690  0.2546  0.0218 -0.0554
 7435SOL    HW133938   0.143   2.290   5.684  0.7061 -1.3112  1.7513
 7435SOL    HW233939   0.239   2.345   5.596 -1.0883 -1.4776 -0.4444
 7436SOL     OW33940   0.040   1.407   8.294  0.0667 -0.1019 -0.2011
 7436SOL    HW133941   0.011   1.450   8.213 -1.7156 -0.9678 -0.0124
 7436SOL    HW233942   0.063   1.488   8.340  0.2739 -1.9605  2.9455
 7437SOL     OW33943   4.389   0.271   4.357  0.2112 -0.0842  0.2736
 7437SOL    HW133944   4.376   0.332   4.431  2.7996 -0.1103  0.7497
 7437SOL    HW233945   4.484   0.277   4.347  0.2135  0.3324  0.5164
 7438SOL     OW33946   3.099   4.084   2.123 -0.3733 -0.6020 -0.7552
 7438SOL    HW133947   3.097   4.094   2.218  1.9684  2.0260 -0.9756
 7438SOL    HW233948   3.011   4.104   2.090 -1.0284 -0.5626  1.0077
 7439SOL     OW33949   1.043   4.368   3.182  0.3207  0.5235 -0.4370
 7439SOL    HW133950   1.039   4.432   3.111 -0.7145 -0.2300 -1.0475
 7439SOL    HW233951   1.137   4.350   3.181  0.5185  1.3361  2.7734
 7440SOL     OW33952   3.234   2.240   4.909 -0.2079 -0.1693  0.3712
 7440SOL    HW133953   3.164   2.184   4.874  0.4933 -0.7505 -0.1100
 7440SOL    HW233954   3.245   2.305   4.839  1.6265 -0.9623 -0.0786
 7441SOL     OW33955   2.715   4.333  14.203  0.2001  0.3654  0.7949
 7441SOL    HW133956   2.765   4.268  14.252 -1.2576 -0.4040  1.2662
 7441SOL    HW233957   2.639   4.280  14.179  0.8982  0.5018 -1.6550
 7442SOL     OW33958   3.107   4.096  14.730  0.4780 -0.2460  0.2284
 7442SOL    HW133959   3.165   4.042  14.676 -1.3909 -1.6126 -0.3871
 7442SOL    HW233960   3.152   4.181  14.728 -0.6689  0.3800  1.0323
 7443SOL     OW33961   3.299   2.398   0.126  0.5490 -0.3748 -0.2464
 7443SOL    HW133962   3.290   2.374   0.034 -0.4669 -0.3146 -0.1696
 7443SOL    HW233963   3.388   2.373   0.147  0.3619  0.4333  1.4803
 7444SOL     OW33964   4.182   1.227   9.953  0.5718  0.1455  0.5082
 7444SOL    HW133965   4.216   1.314   9.973 -1.5129  1.1546 -0.2709
 7444SOL    HW233966   4.207   1.161  10.017  0.2551  0.9847  1.4862
 7445SOL     OW33967   2.631   2.613   1.427 -0.6069  0.4602  0.7102
 7445SOL    HW133968   2.718   2.613   1.386  0.2534  1.6204  2.5263
 7445SOL    HW233969   2.640   2.525   1.461 -2.3610 -0.4441 -1.1931
 7446SOL     OW33970   1.420   1.547   8.574 -0.2570 -0.2512 -0.3693
 7446SOL    HW133971   1.474   1.594   8.638 -0.0889  0.6112 -1.1455
 7446SOL    HW233972   1.387   1.474   8.626 -1.2880 -0.4424 -1.3054
 7447SOL     OW33973   3.371   2.181   8.618  0.0319 -0.9163  0.8900
 7447SOL    HW133974   3.331   2.266   8.598 -0.4082 -1.3291  0.0110
 7447SOL    HW233975   3.336   2.152   8.702  1.6930 -0.3483  1.7855
 7448SOL     OW33976   4.450   3.396   5.152 -0.0898  0.1084 -0.2159
 7448SOL    HW133977   4.363   3.361   5.172 -0.2250 -0.6072 -2.1236
 7448SOL    HW233978   4.500   3.317   5.136 -0.4615 -0.3869  1.0579
 7449SOL     OW33979   2.001   3.352   9.697  0.1412 -0.1297 -0.4580
 7449SOL    HW133980   1.995   3.318   9.608  1.9142  1.4204 -1.1779
 7449SOL    HW233981   1.928   3.304   9.734  2.3690 -3.8648 -0.9446
 7450SOL     OW33982   4.228   3.656   6.901  0.5478 -0.0161 -0.3308
 7450SOL    HW133983   4.197   3.741   6.934  0.9841 -1.0048  2.6511
 7450SOL    HW233984   4.314   3.657   6.943 -0.0502  0.6132  0.8998
 7451SOL     OW33985   2.199   1.771   1.302  0.2045 -0.2248  0.3467
 7451SOL    HW133986   2.236   1.859   1.314 -1.6081  0.5350  0.4141
 7451SOL    HW233987   2.131   1.791   1.237 -0.2953 -0.6992  0.7226
 7452SOL     OW33988   4.058   0.243   3.054 -0.0088 -0.2864  0.0816
 7452SOL    HW133989   3.965   0.264   3.050  0.2958  1.4556  1.8806
 7452SOL    HW233990   4.067   0.173   2.990  1.9960 -0.8423  0.9689
 7453SOL     OW33991   1.735   0.246  13.686 -0.7899 -0.2014  0.0955
 7453SOL    HW133992   1.707   0.223  13.774 -1.1142 -2.7053 -0.6772
 7453SOL    HW233993   1.784   0.167  13.662  2.0115  1.2853  0.9509
 7454SOL     OW33994   0.712   2.204   7.525 -0.8783  0.6765  0.5718
 7454SOL    HW133995   0.712   2.299   7.536 -0.6412  0.4283  2.7431
 7454SOL    HW233996   0.638   2.194   7.465  1.0871  1.0335 -1.9049
 7455SOL     OW33997   4.338   1.043   5.114 -0.0976 -0.7394  0.1867
 7455SOL    HW133998   4.363   1.106   5.183 -0.6550 -0.2398 -0.0699
 7455SOL    HW233999   4.348   1.104   5.041 -1.8549 -1.2683 -0.4767
 7456SOL     OW34000   3.037   1.490   4.930 -0.2365  0.5505  0.2495
 7456SOL    HW134001   2.985   1.567   4.905  1.5767  0.3410 -4.2070
 7456SOL    HW234002   3.076   1.462   4.848  1.3056  3.6546 -0.0719
 7457SOL     OW34003   0.949   2.568   1.625 -0.0226 -0.6307 -0.0118
 7457SOL    HW134004   0.903   2.595   1.546  1.3328  2.5146  0.2513
 7457SOL    HW234005   0.947   2.473   1.623 -0.8093 -0.6319  0.9527
 7458SOL     OW34006   0.727   1.820   6.545 -0.2560 -0.5537 -0.3077
 7458SOL    HW134007   0.751   1.855   6.631  0.6012  1.4641 -1.3592
 7458SOL    HW234008   0.667   1.884   6.507 -1.6669 -3.5606 -3.0378
 7459SOL     OW34009   0.073   2.815   2.727 -0.2316  0.6645 -0.0075
 7459SOL    HW134010   0.131   2.836   2.653  2.9468  0.7144  2.5228
 7459SOL    HW234011   0.113   2.736   2.762 -1.6739 -0.9449 -1.9782
 7460SOL     OW34012   1.422   0.835  15.283 -0.0423 -0.3599 -0.2489
 7460SOL    HW134013   1.481   0.909  15.275 -0.1485 -0.3489 -0.9555
 7460SOL    HW234014   1.396   0.854  15.373  0.6220 -1.8178  0.2548
 7461SOL     OW34015   4.132   2.632  11.303 -0.0487 -0.2614  0.2765
 7461SOL    HW134016   4.140   2.570  11.376  0.2918  2.0802  2.2246
 7461SOL    HW234017   4.082   2.574  11.245 -0.9637 -0.8465  1.6433
 7462SOL     OW34018   1.633   0.021   2.205  0.0775 -0.1796 -0.1051
 7462SOL    HW134019   1.591   0.011   2.290 -1.2603  3.0934 -0.4049
 7462SOL    HW234020   1.724   0.022   2.233 -0.4313 -0.4769  1.5437
 7463SOL     OW34021   2.589   0.146   7.213 -0.6751  0.0482  0.2236
 7463SOL    HW134022   2.671   0.158   7.261  0.8250 -2.6753 -1.6297
 7463SOL    HW234023   2.591   0.204   7.137  1.4235  1.4424  1.3369
 7464SOL     OW34024   2.761   2.878  12.496 -0.2040  0.3866  0.0192
 7464SOL    HW134025   2.838   2.851  12.447 -0.3588  2.7119 -1.4690
 7464SOL    HW234026   2.810   2.899  12.576 -0.7110  2.2624 -0.1688
 7465SOL     OW34027   3.014   3.176   6.380 -0.0008  0.3302 -0.1363
 7465SOL    HW134028   2.977   3.258   6.413 -0.1735 -0.1306  0.8132
 7465SOL    HW234029   3.046   3.205   6.295  0.5169  1.2150  0.3693
 7466SOL     OW34030   4.522   0.593   0.916  0.4754 -0.0149 -0.3106
 7466SOL    HW134031   4.600   0.618   0.965  0.4044  1.0949 -0.7567
 7466SOL    HW234032   4.466   0.650   0.969  2.3690 -0.9398  2.6546
 7467SOL     OW34033   3.664   4.628   6.830 -0.5847  0.7507  0.0404
 7467SOL    HW134034   3.655   4.697   6.896 -0.2731 -0.4668  1.3595
 7467SOL    HW234035   3.633   4.551   6.877 -1.3767  0.9146 -0.2115
 7468SOL     OW34036   0.161   0.896   8.380 -0.3958  0.1849  0.2419
 7468SOL    HW134037   0.129   0.906   8.470 -2.2708 -1.7031 -0.2248
 7468SOL    HW234038   0.196   0.985   8.367 -0.5788  0.1036 -0.7706
 7469SOL     OW34039   0.859   1.636   5.512 -0.4905 -1.2461  0.2364
 7469SOL    HW134040   0.905   1.553   5.521 -1.0830 -1.7759 -1.4955
 7469SOL    HW234041   0.844   1.625   5.418  1.3124 -3.3133  0.1983
 7470SOL     OW34042   2.443   3.484   0.732 -0.3966 -0.4760 -0.0970
 7470SOL    HW134043   2.433   3.391   0.709  0.6715 -0.7128  0.3737
 7470SOL    HW234044   2.423   3.526   0.649  0.4708  1.7973  0.8651
 7471SOL     OW34045   3.015   3.608   3.802 -0.4823  0.0795 -0.3700
 7471SOL    HW134046   3.107   3.584   3.817 -0.6919 -1.4525 -1.5045
 7471SOL    HW234047   2.976   3.525   3.825 -1.6044  0.2191 -1.7618
 7472SOL     OW34048   1.989   2.790   4.778  0.0050  0.1477  0.3349
 7472SOL    HW134049   1.912   2.778   4.722  0.2279 -0.8917  0.2427
 7472SOL    HW234050   1.983   2.879   4.813 -1.1781  1.3562 -2.9446
 7473SOL     OW34051   2.687   3.664   3.696 -0.3074  0.0949  0.1052
 7473SOL    HW134052   2.755   3.727   3.723 -0.9799  0.1207  1.7442
 7473SOL    HW234053   2.724   3.630   3.615 -0.1632  0.3156  0.0765
 7474SOL     OW34054   4.425   2.890  14.344  0.3599  0.0805  0.2533
 7474SOL    HW134055   4.351   2.944  14.317 -0.1773  0.2205  2.0059
 7474SOL    HW234056   4.383   2.809  14.373  0.5156  0.5309  1.7237
 7475SOL     OW34057   1.312   2.247   2.057 -0.2551  0.6482 -0.0854
 7475SOL    HW134058   1.242   2.270   2.119  1.3578  2.5338  1.0423
 7475SOL    HW234059   1.352   2.330   2.033  0.4813  0.5497  0.7794
 7476SOL     OW34060   1.357   2.122   2.936 -0.1594  0.0445 -0.5447
 7476SOL    HW134061   1.437   2.072   2.925  1.6196  2.4145  1.7570
 7476SOL    HW234062   1.324   2.103   2.848 -0.8223 -0.6442 -0.1415
 7477SOL     OW34063   3.353   0.108   4.643  0.0180 -0.5256  0.5250
 7477SOL    HW134064   3.448   0.113   4.640 -0.1330  1.4680 -1.1564
 7477SOL    HW234065   3.330   0.130   4.733  1.5779 -0.2164  0.8504
 7478SOL     OW34066   0.823   0.327  16.795 -0.4382  0.8117 -0.0697
 7478SOL    HW134067   0.831   0.347  16.701  0.2198  0.2789 -0.1183
 7478SOL    HW234068   0.785   0.240  16.801  0.5862  0.4424  1.0192
 7479SOL     OW34069   4.687   4.267   6.440 -0.7073  0.0061 -0.5026
 7479SOL    HW134070   0.034   4.317   6.446 -1.0077  0.1926  2.2751
 7479SOL    HW234071   4.625   4.339   6.454 -2.1879 -1.7054  1.9245
 7480SOL     OW34072   3.284   3.741   6.911 -0.1283 -0.0210  0.4361
 7480SOL    HW134073   3.260   3.679   6.979 -0.9344  2.7302  2.6237
 7480SOL    HW234074   3.310   3.822   6.956  1.2780  0.8402 -1.9120
 7481SOL     OW34075   4.528   0.414   6.412  0.5582 -0.1892  0.1508
 7481SOL    HW134076   4.620   0.387   6.402  0.7317  0.7200 -0.6980
 7481SOL    HW234077   4.474   0.357   6.357  1.8622 -0.9886 -0.3116
 7482SOL     OW34078   1.436   0.283   6.004  0.2792  0.1195  0.6444
 7482SOL    HW134079   1.517   0.304   5.956 -0.0049 -2.0957 -0.8276
 7482SOL    HW234080   1.375   0.272   5.931 -0.4170 -2.0867  1.5635
 7483SOL     OW34081   4.212   1.088  11.652 -0.1155  0.3002  0.2899
 7483SOL    HW134082   4.242   1.165  11.603 -1.6489 -0.9179 -2.5172
 7483SOL    HW234083   4.244   1.119  11.737 -0.3890  0.6690  0.2576
 7484SOL     OW34084   2.649   0.003   5.905 -0.0577  0.5537 -0.4795
 7484SOL    HW134085   2.725   0.023   5.959  0.3223 -1.3171 -0.3240
 7484SOL    HW234086   2.600   4.694   5.975  1.7577 -0.6367  0.0533
 7485SOL     OW34087   0.405   4.509   7.612 -0.4070 -0.1667  0.3266
 7485SOL    HW134088   0.471   4.500   7.681  0.5476 -0.3458 -0.5980
 7485SOL    HW234089   0.459   4.504   7.533 -0.4226 -1.1025  0.3766
 7486SOL     OW34090   4.016   4.284  15.067 -0.7836 -0.2036  0.1551
 7486SOL    HW134091   3.928   4.266  15.099 -0.8188 -0.7708 -0.2704
 7486SOL    HW234092   4.032   4.364  15.116 -0.5594 -0.4545  0.4882
 7487SOL     OW34093   0.886   2.727   6.686 -0.3492  0.4745 -0.3990
 7487SOL    HW134094   0.810   2.782   6.668 -1.2969 -0.6443  0.2542
 7487SOL    HW234095   0.873   2.700   6.777  0.0100 -1.0582 -0.7989
 7488SOL     OW34096   4.062   3.890  15.956  0.0984  0.0353 -0.2024
 7488SOL    HW134097   3.982   3.846  15.985  0.5615 -0.3842  0.4716
 7488SOL    HW234098   4.089   3.944  16.030 -2.0461 -0.4558  0.9532
 7489SOL     OW34099   0.090   3.291   7.595 -0.2788 -0.9669 -0.7074
 7489SOL    HW134100   0.098   3.380   7.559 -1.5658 -0.8595 -0.7172
 7489SOL    HW234101   0.094   3.314   7.688  0.2141  1.1656 -1.2491
 7490SOL     OW34102   0.530   3.841  13.893 -0.0205  0.7351  0.0630
 7490SOL    HW134103   0.622   3.815  13.884 -0.5896 -1.1628 -0.3358
 7490SOL    HW234104   0.537   3.936  13.883 -0.5402  0.9083  1.3336
 7491SOL     OW34105   0.458   1.216  10.070 -0.0964 -0.2026  0.0433
 7491SOL    HW134106   0.460   1.266  10.152  1.5821  1.3943 -0.9861
 7491SOL    HW234107   0.392   1.263  10.019  1.2926  1.2274 -0.4215
 7492SOL     OW34108   1.735   4.609   1.641 -0.2300 -0.2240  0.5293
 7492SOL    HW134109   1.820   4.565   1.634 -0.5068 -0.7491  0.4716
 7492SOL    HW234110   1.748   4.645   1.729 -0.1520 -1.6046  1.0985
 7493SOL     OW34111   4.685   2.523  14.979 -0.0494 -0.1522  0.1145
 7493SOL    HW134112   4.609   2.578  14.998 -0.1258 -0.0521 -0.4836
 7493SOL    HW234113   4.716   2.519  15.070 -0.3577 -0.0334  0.2237
 7494SOL     OW34114   4.445   3.658  15.193  0.0172 -0.1965 -0.1789
 7494SOL    HW134115   4.478   3.572  15.165 -0.3345 -0.7879  1.2331
 7494SOL    HW234116   4.355   3.668  15.160  1.0021 -0.4840 -2.9785
 7495SOL     OW34117   1.144   4.096   2.655 -0.3177 -0.0774  0.1262
 7495SOL    HW134118   1.160   4.062   2.567  1.4009  0.8163  0.0845
 7495SOL    HW234119   1.086   4.169   2.634  0.8135  0.2526 -1.8353
 7496SOL     OW34120   1.248   3.024  14.433  0.0131  0.0162 -0.5062
 7496SOL    HW134121   1.317   3.045  14.496 -2.5315  1.0672  1.9297
 7496SOL    HW234122   1.239   3.101  14.377  2.2241  0.6682  0.0489
 7497SOL     OW34123   1.888   1.588  14.739 -0.1651  0.3612  0.3912
 7497SOL    HW134124   1.978   1.618  14.750  0.5150 -0.7663 -2.3398
 7497SOL    HW234125   1.896   1.493  14.741 -1.7594  0.2458  1.0017
 7498SOL     OW34126   1.904   4.497  12.923  0.5772  0.1645 -0.5081
 7498SOL    HW134127   1.989   4.457  12.900  1.6859  1.0985  1.9961
 7498SOL    HW234128   1.858   4.459  12.848 -3.0746  0.2340  1.7026
 7499SOL     OW34129   2.104   0.437   5.868 -0.6714  0.0275 -0.0296
 7499SOL    HW134130   2.047   0.477   5.934 -0.6302  2.7706 -1.6733
 7499SOL    HW234131   2.037   0.395   5.815 -0.0783 -2.0722  0.8846
 7500SOL     OW34132   4.500   2.201  17.599 -0.1272 -0.1186  0.3374
 7500SOL    HW134133   4.526   2.137  17.533  1.1889  2.1165 -1.2929
 7500SOL    HW234134   4.406   2.214  17.584 -0.1032 -0.7813 -0.4040
 7501SOL     OW34135   2.986   1.496  17.659  0.0553  0.3202  0.3013
 7501SOL    HW134136   3.005   1.534  17.573  1.3913 -2.0671 -0.4660
 7501SOL    HW234137   2.919   1.431  17.638  2.3673 -1.5285 -1.3602
 7502SOL     OW34138   2.949   2.989  11.212 -0.2502 -0.2562  0.3371
 7502SOL    HW134139   3.037   2.956  11.226 -0.2425  0.0499  0.9968
 7502SOL    HW234140   2.967   3.083  11.203 -1.4236 -0.1024 -0.4810
 7503SOL     OW34141   3.474   0.637   5.407  0.0369 -0.1287  0.7219
 7503SOL    HW134142   3.518   0.709   5.360  0.8086 -0.6157  0.6986
 7503SOL    HW234143   3.549   0.612   5.460 -0.5431 -1.0707  1.0778
 7504SOL     OW34144   3.488   4.486   2.767  0.1934  0.6946 -0.0490
 7504SOL    HW134145   3.525   4.400   2.749  0.3909  1.1946 -1.9910
 7504SOL    HW234146   3.558   4.537   2.807 -0.1894  0.4977  0.8846
 7505SOL     OW34147   3.221   0.468   5.714  0.3882  0.8876 -0.4569
 7505SOL    HW134148   3.162   0.516   5.655 -1.2428 -1.7528 -0.9720
 7505SOL    HW234149   3.219   0.392   5.656  0.6257  2.0301 -1.9707
 7506SOL     OW34150   3.916   3.210  12.613 -0.4619 -0.4500  0.3115
 7506SOL    HW134151   3.839   3.244  12.659 -2.6521 -2.7336 -1.6619
 7506SOL    HW234152   3.966   3.162  12.678 -0.8388  1.4381  2.0099
 7507SOL     OW34153   0.964   3.113  11.886  0.2722  0.4418 -0.0515
 7507SOL    HW134154   0.922   3.044  11.937 -1.8352  0.2734 -1.9923
 7507SOL    HW234155   1.038   3.124  11.945 -0.5070 -1.2424  1.2151
 7508SOL     OW34156   0.048   4.705   8.540 -0.0762 -0.5820 -0.4525
 7508SOL    HW134157   0.041   4.630   8.481 -2.2313  0.8389 -2.0078
 7508SOL    HW234158   4.693   0.006   8.547  0.7988  1.2286  1.8315
 7509SOL     OW34159   0.223   4.661   6.176 -0.4849 -0.1342 -0.0890
 7509SOL    HW134160   0.295   4.601   6.155 -1.7255 -1.6351 -0.1026
 7509SOL    HW234161   0.181   4.620   6.252 -0.8125  1.3042  0.5066
 7510SOL     OW34162   2.604   4.143   5.174 -0.2689 -0.0905  0.2579
 7510SOL    HW134163   2.536   4.107   5.232 -2.3089  0.0574 -2.0221
 7510SOL    HW234164   2.576   4.234   5.173 -1.4357 -0.4593 -1.2530
 7511SOL     OW34165   1.150   0.166   6.665 -0.4229 -0.0829 -0.0855
 7511SOL    HW134166   1.236   0.204   6.646 -1.7822  2.0899 -1.9590
 7511SOL    HW234167   1.087   0.238   6.672 -0.4915 -0.1953  0.4617
 7512SOL     OW34168   4.570   1.020   7.345  0.0381  0.2105 -0.1015
 7512SOL    HW134169   4.576   1.030   7.440 -2.4415 -3.3102  0.4284
 7512SOL    HW234170   4.475   1.019   7.339 -0.0992 -0.7604  2.1439
 7513SOL     OW34171   3.708   3.368  17.514  0.1403  0.3335 -0.2524
 7513SOL    HW134172   3.778   3.318  17.471 -1.1009 -1.0600 -0.6520
 7513SOL    HW234173   3.711   3.443  17.455  1.8057 -1.1879 -2.1137
 7514SOL     OW34174   3.960   4.457   5.895  0.5703  0.1864 -0.0847
 7514SOL    HW134175   4.018   4.531   5.912  0.4739  0.5918 -1.5708
 7514SOL    HW234176   4.008   4.416   5.823 -1.6920 -1.8686 -0.3942
 7515SOL     OW34177   0.030   0.905  12.832  0.0387 -0.3592  0.6270
 7515SOL    HW134178   0.086   0.917  12.909 -1.0240  0.6709  1.2263
 7515SOL    HW234179   0.096   0.888  12.765 -0.6603 -1.8755  0.3308
 7516SOL     OW34180   3.973   3.923   1.224 -0.2773 -0.4075 -0.4500
 7516SOL    HW134181   3.918   3.963   1.292 -0.0563  1.5283 -1.4205
 7516SOL    HW234182   4.061   3.952   1.248 -0.6806  1.4636 -1.3050
 7517SOL     OW34183   2.649   0.309   6.750 -0.4035 -0.1659 -0.2492
 7517SOL    HW134184   2.672   0.216   6.759 -2.1883 -0.5073  0.9694
 7517SOL    HW234185   2.738   0.342   6.755  0.3246 -1.8519 -2.0607
 7518SOL     OW34186   3.161   2.666   5.232 -0.0831  0.0702  0.2494
 7518SOL    HW134187   3.125   2.609   5.300 -0.3000  1.4168  1.2562
 7518SOL    HW234188   3.080   2.685   5.185  0.4164  1.0486 -0.2200
 7519SOL     OW34189   4.655   2.180  16.264 -0.1595  0.0174  0.0171
 7519SOL    HW134190   4.638   2.090  16.237 -0.1758 -0.0273  0.1758
 7519SOL    HW234191   4.572   2.227  16.273  0.5436  0.9205  1.9401
 7520SOL     OW34192   3.385   2.700   7.324 -0.0575  0.5182 -0.4296
 7520SOL    HW134193   3.409   2.779   7.372 -0.4000  1.0633 -1.1446
 7520SOL    HW234194   3.415   2.638   7.390  1.3056 -0.9880 -2.4483
 7521SOL     OW34195   0.413   0.949  10.974  0.4248 -0.2261 -0.3439
 7521SOL    HW134196   0.353   0.975  11.044  3.3597  1.4465  1.5665
 7521SOL    HW234197   0.449   1.030  10.939 -1.4546  0.3508 -0.9256
 7522SOL     OW34198   2.044   0.396  15.254  0.7842 -0.0758  0.2400
 7522SOL    HW134199   2.041   0.404  15.350 -1.3301 -0.9838  0.2599
 7522SOL    HW234200   2.043   0.488  15.227  1.3076 -0.4443 -1.0424
 7523SOL     OW34201   0.594   1.005   2.697  0.9121 -0.3517 -0.3494
 7523SOL    HW134202   0.658   1.071   2.725 -0.0064 -0.1780  1.3638
 7523SOL    HW234203   0.626   0.934   2.753  0.0871  0.0830  0.6702
 7524SOL     OW34204   0.103   0.566   7.009 -0.2234  0.0177  0.3169
 7524SOL    HW134205   0.150   0.570   6.925  1.3558 -0.9006  1.1585
 7524SOL    HW234206   0.018   0.545   6.972  0.4362  0.1232 -1.2733
 7525SOL     OW34207   1.874   0.326   3.315  0.0682 -0.2952  0.6290
 7525SOL    HW134208   1.788   0.337   3.273  0.8994  0.2046 -0.9294
 7525SOL    HW234209   1.900   0.250   3.263  1.0174  0.0456  0.6103
 7526SOL     OW34210   3.207   1.729   6.102  0.2276 -0.3747 -0.1375
 7526SOL    HW134211   3.183   1.776   6.181 -0.3044 -2.2553  0.8189
 7526SOL    HW234212   3.197   1.798   6.036  1.6959 -1.8144 -1.8750
 7527SOL     OW34213   3.274   1.342   6.839 -0.4514  0.0689  0.2672
 7527SOL    HW134214   3.290   1.301   6.924 -0.4611 -1.2291 -0.3531
 7527SOL    HW234215   3.359   1.329   6.798 -0.7362  1.3861 -0.7560
 7528SOL     OW34216   2.622   4.349   1.961  0.0120  0.2855  0.1804
 7528SOL    HW134217   2.702   4.396   1.940 -1.0007  1.0875 -1.8190
 7528SOL    HW234218   2.592   4.375   2.048 -2.0155 -1.0938 -0.0986
 7529SOL     OW34219   3.334   2.764  12.953 -0.7095 -0.3416 -0.2025
 7529SOL    HW134220   3.352   2.676  12.987 -0.9327 -0.5719 -0.6909
 7529SOL    HW234221   3.399   2.815  13.003 -0.2899  1.1964 -2.2883
 7530SOL     OW34222   4.636   3.584   2.919  0.1128 -0.2800  0.1148
 7530SOL    HW134223   4.674   3.567   2.833  0.6000  2.1110 -0.1486
 7530SOL    HW234224   4.558   3.639   2.905 -0.1533 -0.2621  1.5895
 7531SOL     OW34225   0.040   1.033  12.099 -0.1340 -0.4830 -0.2304
 7531SOL    HW134226   0.064   1.020  12.190  2.0282 -2.5030 -1.0982
 7531SOL    HW234227   4.683   1.003  12.093 -0.0079 -0.7261 -0.9686
 7532SOL     OW34228   4.055   2.237   2.649 -0.0841  0.6080  0.4022
 7532SOL    HW134229   4.127   2.185   2.613 -2.3204 -2.1080 -0.1663
 7532SOL    HW234230   4.047   2.308   2.586 -0.1599  1.8018  1.7424
 7533SOL     OW34231   2.887   3.003   3.323  0.3478  0.3764  0.1196
 7533SOL    HW134232   2.808   3.033   3.278 -0.7979 -1.3083  1.0195
 7533SOL    HW234233   2.842   2.957   3.394 -1.4812 -2.8237 -3.1216
 7534SOL     OW34234   2.910   3.365  10.450  0.0592 -0.3982 -0.4991
 7534SOL    HW134235   2.836   3.419  10.422 -1.5466 -1.6640  1.3182
 7534SOL    HW234236   2.985   3.400  10.402  0.5586 -0.5730  0.1556
 7535SOL     OW34237   4.160   4.420   7.966 -0.9346  0.1940  0.8656
 7535SOL    HW134238   4.224   4.426   7.895  0.5693 -0.1588  2.2065
 7535SOL    HW234239   4.183   4.340   8.014 -1.1151 -1.5415 -1.9472
 7536SOL     OW34240   4.467   0.981  16.420 -0.2439 -0.4702 -0.1745
 7536SOL    HW134241   4.406   1.053  16.438 -0.0846 -0.2777 -0.4138
 7536SOL    HW234242   4.426   0.910  16.470 -1.8380 -0.5755 -1.6416
 7537SOL     OW34243   2.654   3.413   4.448 -0.1199  0.4430 -0.0538
 7537SOL    HW134244   2.637   3.410   4.354  0.7606 -1.2086 -0.1577
 7537SOL    HW234245   2.744   3.447   4.448 -0.4294  1.2483 -0.0136
 7538SOL     OW34246   1.909   1.442   7.673  0.2449 -0.2362 -0.2574
 7538SOL    HW134247   1.880   1.358   7.637  2.6427 -1.3844  0.4515
 7538SOL    HW234248   1.997   1.462   7.641  1.3540 -2.1853  1.5730
 7539SOL     OW34249   1.696   3.849   8.513 -0.2438 -0.4596 -0.0127
 7539SOL    HW134250   1.773   3.792   8.515  0.0160 -0.1592 -1.5844
 7539SOL    HW234251   1.725   3.921   8.458  1.4120 -0.7429  0.5040
 7540SOL     OW34252   0.678   0.186   0.314  0.4567  0.0647 -0.0804
 7540SOL    HW134253   0.629   0.165   0.234 -0.2004  1.5204 -0.0538
 7540SOL    HW234254   0.709   0.102   0.349 -1.8136 -0.3197  1.0041
 7541SOL     OW34255   3.619   4.556   2.332  0.1827 -0.2055 -0.0772
 7541SOL    HW134256   3.603   4.644   2.298 -0.8212  0.0682  1.1029
 7541SOL    HW234257   3.529   4.526   2.340 -0.1393  0.2160 -2.0047
 7542SOL     OW34258   3.655   4.654  15.598  0.4043 -0.1308 -0.4163
 7542SOL    HW134259   3.698   0.004  15.613  0.2963  0.6013 -4.0872
 7542SOL    HW234260   3.567   4.677  15.628  0.2605  0.3516 -1.1780
 7543SOL     OW34261   0.273   2.117   4.300 -0.1386 -0.1316 -0.3975
 7543SOL    HW134262   0.346   2.066   4.267 -0.0884  0.2312 -0.8395
 7543SOL    HW234263   0.265   2.178   4.227  1.3592 -0.1457 -0.5721
 7544SOL     OW34264   4.182   4.039   4.398 -0.2310  0.3429 -0.3094
 7544SOL    HW134265   4.190   4.023   4.304 -1.7699  0.5403 -0.4617
 7544SOL    HW234266   4.269   4.004   4.420 -0.5461 -1.4901 -2.0091
 7545SOL     OW34267   4.069   4.506  14.362 -0.1195  0.5282  0.1750
 7545SOL    HW134268   4.151   4.554  14.375 -0.7786  1.3041  1.5284
 7545SOL    HW234269   4.098   4.421  14.395 -0.2242  0.4544  0.0706
 7546SOL     OW34270   3.941   1.226  15.982 -0.2478  0.1006 -0.6551
 7546SOL    HW134271   3.983   1.272  16.056 -0.1621 -1.6973  0.4079
 7546SOL    HW234272   4.014   1.181  15.940  0.4323 -2.1615  2.8939
 7547SOL     OW34273   2.391   4.286   3.640 -0.2726 -0.5155 -0.2065
 7547SOL    HW134274   2.332   4.242   3.579 -0.2255 -0.4731 -0.2824
 7547SOL    HW234275   2.397   4.362   3.583  0.7726  1.2173  2.2083
 7548SOL     OW34276   0.786   1.221   2.238  0.5198  0.0417 -0.3395
 7548SOL    HW134277   0.710   1.193   2.289  1.7378 -0.3417  1.2911
 7548SOL    HW234278   0.768   1.179   2.154 -0.7806 -0.2374  0.0844
 7549SOL     OW34279   3.483   2.603   1.174 -0.1843  0.1300 -0.1786
 7549SOL    HW134280   3.392   2.573   1.178  0.5598 -2.2378 -1.0449
 7549SOL    HW234281   3.482   2.686   1.222 -2.2937  0.3316 -0.6058
 7550SOL     OW34282   0.614   3.965   5.133  0.0657  0.5026  0.3555
 7550SOL    HW134283   0.557   3.920   5.195  0.6721 -0.8016 -0.0246
 7550SOL    HW234284   0.650   4.024   5.199 -1.0182 -0.1919  1.5605
 7551SOL     OW34285   4.559   2.134   4.184  0.5162  0.1257 -0.5896
 7551SOL    HW134286   4.579   2.220   4.148  0.5119  0.7387  0.8729
 7551SOL    HW234287   4.642   2.130   4.230  0.8205  1.8569 -1.0094
 7552SOL     OW34288   2.306   1.817   5.659 -0.6198  0.4823  0.4593
 7552SOL    HW134289   2.366   1.812   5.733  1.2458  1.2821 -1.0153
 7552SOL    HW234290   2.346   1.767   5.588  2.6109  1.8532  1.3095
 7553SOL     OW34291   0.161   3.229   7.235  0.1663  0.0456 -0.0403
 7553SOL    HW134292   0.217   3.254   7.161  2.4940  0.7260  1.9632
 7553SOL    HW234293   0.105   3.303   7.258 -0.9443 -0.5620 -0.7116
 7554SOL     OW34294   2.646   0.299   1.853  0.3837 -0.3215 -0.2704
 7554SOL    HW134295   2.581   0.349   1.804  1.5764  0.8117 -0.7066
 7554SOL    HW234296   2.673   0.239   1.783 -1.8498 -1.3026 -0.2666
 7555SOL     OW34297   4.202   3.284   5.183  0.0778  0.6908 -0.4648
 7555SOL    HW134298   4.161   3.243   5.260 -0.4944  0.5518 -0.8458
 7555SOL    HW234299   4.119   3.289   5.135  0.7790  0.8440 -1.6562
 7556SOL     OW34300   3.035   1.613   2.411  0.3149  0.1100  0.0052
 7556SOL    HW134301   2.981   1.586   2.337  0.2339  0.9399 -0.2371
 7556SOL    HW234302   2.976   1.643   2.481 -1.5211  0.6284 -1.7582
 7557SOL     OW34303   0.738   4.134   3.913 -0.1736  0.2241  0.1776
 7557SOL    HW134304   0.752   4.228   3.922 -3.2140  0.5837  1.0985
 7557SOL    HW234305   0.697   4.134   3.827  1.4834  1.1671 -0.6133
 7558SOL     OW34306   1.763   4.111   4.620  0.8331 -0.2997 -0.1049
 7558SOL    HW134307   1.820   4.182   4.651 -0.0013  0.4536 -0.3202
 7558SOL    HW234308   1.779   4.112   4.526 -1.2518  0.1402 -0.4569
 7559SOL     OW34309   3.581   4.289   4.835  0.1917  0.2455 -1.2026
 7559SOL    HW134310   3.527   4.368   4.836  0.5621  0.4956 -0.8709
 7559SOL    HW234311   3.505   4.232   4.850  0.2284  0.1072 -1.5407
 7560SOL     OW34312   0.094   0.763   2.906  0.6035  0.3208  0.1835
 7560SOL    HW134313   0.124   0.786   2.994  0.3851 -1.6948  0.7889
 7560SOL    HW234314   0.171   0.731   2.859  0.5675  0.0319  0.3185
 7561SOL     OW34315   3.050   3.234   5.094 -0.7372 -0.1614  0.3502
 7561SOL    HW134316   3.124   3.184   5.060 -2.2619 -1.2188 -1.3847
 7561SOL    HW234317   3.053   3.311   5.036 -1.4161 -1.7414 -1.7935
 7562SOL     OW34318   1.964   0.829   2.638 -0.2122 -0.0559  0.1424
 7562SOL    HW134319   2.048   0.830   2.592 -0.6995  0.2046 -0.7442
 7562SOL    HW234320   1.913   0.806   2.560  1.3764  0.1025 -0.9526
 7563SOL     OW34321   1.363   3.434   1.562  0.2809  0.4816 -0.6967
 7563SOL    HW134322   1.382   3.403   1.473  2.2337 -1.1296  0.2833
 7563SOL    HW234323   1.267   3.429   1.562  0.3537 -0.9870 -1.8122
 7564SOL     OW34324   0.160   0.532   9.106  0.3988 -0.0354 -0.5400
 7564SOL    HW134325   0.132   0.615   9.067  0.9500  0.3639 -0.0915
 7564SOL    HW234326   0.189   0.491   9.025  1.4140  0.6546 -0.5295
 7565SOL     OW34327   4.171   1.976  17.000  0.0319  0.5567 -0.5634
 7565SOL    HW134328   4.192   2.050  16.943  3.1287  0.0663 -0.0598
 7565SOL    HW234329   4.178   2.026  17.081  2.6709  0.3311 -0.6411
 7566SOL     OW34330   4.102   3.742   0.828 -0.2762 -0.1048  0.5343
 7566SOL    HW134331   4.050   3.743   0.909 -2.5023  3.3082 -0.9547
 7566SOL    HW234332   4.084   3.829   0.793 -1.0951 -0.1496  0.8376
 7567SOL     OW34333   1.826   3.568  17.311  0.1350 -0.0370 -0.1751
 7567SOL    HW134334   1.890   3.505  17.279  1.1417  0.5421  0.7195
 7567SOL    HW234335   1.844   3.650  17.265 -2.3769 -0.4082 -1.8382
 7568SOL     OW34336   0.037   0.045  12.316  0.5784 -0.0004 -0.4555
 7568SOL    HW134337   4.677   0.062  12.316  0.4753 -0.5785  0.1742
 7568SOL    HW234338   0.051   0.012  12.405  0.5565  1.9056  0.2547
 7569SOL     OW34339   1.381   0.685   3.347  0.1770 -0.1532  0.2054
 7569SOL    HW134340   1.427   0.769   3.340 -0.2528 -0.0173 -0.9370
 7569SOL    HW234341   1.402   0.645   3.431  4.1621 -0.6873 -1.0178
 7570SOL     OW34342   0.676   3.338   3.970  0.5677  0.0497  0.1948
 7570SOL    HW134343   0.687   3.432   3.957 -0.9601 -0.0415 -1.7580
 7570SOL    HW234344   0.597   3.324   3.917  1.2930 -1.7841 -0.3958
 7571SOL     OW34345   3.133   4.180   2.582  0.1500 -0.0605  0.1215
 7571SOL    HW134346   3.071   4.252   2.576  1.7473  0.8407 -4.9732
 7571SOL    HW234347   3.079   4.104   2.563 -1.1345  0.9037 -0.0600
 7572SOL     OW34348   1.850   3.624   3.663 -0.1514 -0.3932 -0.8258
 7572SOL    HW134349   1.825   3.546   3.613  1.3856 -1.6902  0.4097
 7572SOL    HW234350   1.830   3.685   3.591  2.4983  0.3423 -0.9453
 7573SOL     OW34351   2.374   0.102  16.631 -0.3198 -0.2695  0.1827
 7573SOL    HW134352   2.466   0.118  16.653 -0.3281  1.5215 -1.0908
 7573SOL    HW234353   2.369   0.008  16.648  0.2524 -0.1070  1.2968
 7574SOL     OW34354   1.832   1.025   3.317 -0.3441  0.3010  0.4217
 7574SOL    HW134355   1.788   1.107   3.296 -0.6589  0.2345  0.8356
 7574SOL    HW234356   1.797   0.970   3.248  0.2130 -1.8274  1.8364
 7575SOL     OW34357   0.201   0.127   9.553  0.3709  0.3647 -0.0859
 7575SOL    HW134358   0.220   0.212   9.513  0.6219 -0.1655 -1.1077
 7575SOL    HW234359   0.109   0.113   9.573  0.4350  2.4502  1.5983
 7576SOL     OW34360   3.173   4.596   1.134  0.2669  0.0520  0.2727
 7576SOL    HW134361   3.078   4.590   1.123  0.6466 -1.2485 -2.3560
 7576SOL    HW234362   3.182   4.691   1.135  0.9748 -0.0197  0.2819
 7577SOL     OW34363   1.337   2.478   3.557 -0.1962  0.0708  0.3289
 7577SOL    HW134364   1.395   2.465   3.632  1.7383 -4.0780 -1.8220
 7577SOL    HW234365   1.251   2.483   3.598 -0.2892  0.2615  0.1105
 7578SOL     OW34366   3.067   4.427   8.900 -0.1655 -0.4281  0.2535
 7578SOL    HW134367   2.988   4.373   8.903 -1.6514  1.6592 -1.3781
 7578SOL    HW234368   3.040   4.510   8.939  1.1875 -0.5625  1.4600
 7579SOL     OW34369   3.252   3.636  12.708 -0.3450 -0.0934 -0.0668
 7579SOL    HW134370   3.241   3.719  12.662 -0.4655 -0.3010 -0.4152
 7579SOL    HW234371   3.169   3.598  12.678  0.1820  0.6911 -2.5718
 7580SOL     OW34372   2.400   1.095   4.250  0.0236  0.2264 -0.3349
 7580SOL    HW134373   2.446   1.055   4.176  0.9607  1.7661 -0.5955
 7580SOL    HW234374   2.468   1.148   4.292  0.4899 -0.2741 -0.4539
 7581SOL     OW34375   4.425   4.651   3.011 -0.4089  0.5590  0.0698
 7581SOL    HW134376   4.502   4.633   2.957  1.1080  1.8854  1.7942
 7581SOL    HW234377   4.471   4.688   3.087 -1.0252  0.6405  0.4060
 7582SOL     OW34378   2.971   0.570   8.264  0.1740  0.6918 -0.1393
 7582SOL    HW134379   2.907   0.499   8.254 -1.5215  2.4087 -1.3544
 7582SOL    HW234380   2.947   0.630   8.194 -1.2508  1.4604  0.9995
 7583SOL     OW34381   0.231   2.267   8.634 -0.1971  0.3484  0.3549
 7583SOL    HW134382   0.219   2.361   8.648  1.7590  0.4423  1.4303
 7583SOL    HW234383   0.160   2.239   8.577  0.2721  2.2539 -1.1617
 7584SOL     OW34384   4.086   2.286  12.739 -0.1037 -0.4454  1.0802
 7584SOL    HW134385   4.097   2.381  12.749  0.8499 -0.1657 -2.6753
 7584SOL    HW234386   4.168   2.245  12.765 -1.3225 -3.2807  0.4926
 7585SOL     OW34387   4.630   3.329   2.652 -0.4465  0.5538  0.0823
 7585SOL    HW134388   4.713   3.328   2.700 -0.3918 -0.8119 -0.0380
 7585SOL    HW234389   4.574   3.260   2.687 -0.9981  0.2363 -1.4137
 7586SOL     OW34390   4.208   1.631   5.776  0.9170 -0.1991 -0.8698
 7586SOL    HW134391   4.207   1.544   5.735 -0.7435 -1.0461  0.9890
 7586SOL    HW234392   4.187   1.611   5.867 -1.1764  3.0971 -0.6238
 7587SOL     OW34393   1.258   0.654  13.873  0.0568 -0.2123 -0.1062
 7587SOL    HW134394   1.188   0.716  13.851  0.8087 -0.5744 -3.5171
 7587SOL    HW234395   1.253   0.599  13.796 -2.0225 -0.6161  0.3158
 7588SOL     OW34396   3.920   2.738   3.398 -0.1737 -0.3761 -0.1435
 7588SOL    HW134397   3.937   2.664   3.340  2.1697  0.5283 -0.6040
 7588SOL    HW234398   3.831   2.756   3.369 -0.1401  2.4226  1.4692
 7589SOL     OW34399   0.382   0.207   5.511 -0.0332 -0.2505  0.5818
 7589SOL    HW134400   0.306   0.153   5.488  0.9130 -0.9835 -0.8745
 7589SOL    HW234401   0.346   0.281   5.559  0.6729  1.1489 -1.0286
 7590SOL     OW34402   2.580   2.046  10.170  0.4259  0.2170  0.5511
 7590SOL    HW134403   2.570   2.122  10.229 -2.1945 -1.2954  2.0353
 7590SOL    HW234404   2.676   2.044  10.178  0.1223 -1.2328  4.0808
 7591SOL     OW34405   4.221   0.443   4.773  0.2480 -0.1357 -0.0818
 7591SOL    HW134406   4.190   0.357   4.801  0.9855 -0.2571  0.3600
 7591SOL    HW234407   4.273   0.473   4.847  0.9669 -0.2534 -0.5293
 7592SOL     OW34408   3.743   4.470   7.717 -0.6053  0.1376 -0.2557
 7592SOL    HW134409   3.822   4.475   7.662 -0.5656  3.3331  0.1197
 7592SOL    HW234410   3.753   4.378   7.743  0.7700 -0.6067 -3.3675
 7593SOL     OW34411   4.647   2.475  10.416  0.0366 -0.0662  0.1668
 7593SOL    HW134412   4.626   2.553  10.467 -1.3429  0.8244 -1.7617
 7593SOL    HW234413   4.668   2.526  10.338 -1.8699  0.6987  0.1532
 7594SOL     OW34414   4.084   4.033   0.768 -0.0150 -0.1981  0.1081
 7594SOL    HW134415   4.054   4.032   0.859 -0.1336  0.7921  0.0821
 7594SOL    HW234416   4.031   4.104   0.731 -0.1407 -0.1305  0.4217
 7595SOL     OW34417   2.342   0.143   6.973 -0.2109  0.1251 -0.3869
 7595SOL    HW134418   2.282   0.075   7.002 -0.9548  1.8140  1.9849
 7595SOL    HW234419   2.362   0.118   6.883 -0.3345  1.7079 -0.8601
 7596SOL     OW34420   0.288   2.782   6.230 -0.2074 -0.6973  0.2641
 7596SOL    HW134421   0.253   2.745   6.149  1.1233 -1.2499 -0.0582
 7596SOL    HW234422   0.323   2.703   6.271  0.4169 -0.9982 -0.8595
 7597SOL     OW34423   4.364   4.673   5.488  0.2655  0.1887  0.5256
 7597SOL    HW134424   4.454   4.645   5.476 -0.6532 -2.5359  0.0902
 7597SOL    HW234425   4.366   0.020   5.436 -0.9642 -0.1323 -0.0264
 7598SOL     OW34426   2.602   0.471   5.367 -0.0419 -0.7248  0.3040
 7598SOL    HW134427   2.572   0.488   5.456  0.4739 -0.2601  0.3897
 7598SOL    HW234428   2.586   0.558   5.330  0.1481 -0.3288  1.1538
 7599SOL     OW34429   2.434   1.353   9.095 -0.4479  0.2845  0.2484
 7599SOL    HW134430   2.418   1.408   9.173 -3.1692  0.0965 -0.1795
 7599SOL    HW234431   2.493   1.411   9.046  0.9700  0.6689  2.3766
 7600SOL     OW34432   2.106   1.682   9.320  0.1298  0.1237 -0.1787
 7600SOL    HW134433   2.153   1.765   9.322 -2.4707  1.5824  0.7547
 7600SOL    HW234434   2.138   1.643   9.401 -0.0688 -0.7865 -0.5354
 7601SOL     OW34435   3.702   2.074   2.139  0.0383 -0.6890 -0.1214
 7601SOL    HW134436   3.786   2.054   2.096  0.5618 -0.6673  0.8857
 7601SOL    HW234437   3.711   2.004   2.205  3.6862  1.1981  1.4189
 7602SOL     OW34438   2.742   4.316   4.033 -0.5385  0.2961  0.2851
 7602SOL    HW134439   2.728   4.222   4.038 -1.6961  0.5974  2.6472
 7602SOL    HW234440   2.686   4.330   3.956 -0.1129  0.1634 -0.0513
 7603SOL     OW34441   0.140   3.458  11.465  0.2733 -0.0390 -0.0281
 7603SOL    HW134442   0.155   3.428  11.555  1.3581 -2.1801 -0.9384
 7603SOL    HW234443   0.176   3.388  11.411 -0.8302 -0.9812  0.4414
 7604SOL     OW34444   4.368   0.388   7.363 -0.1518  0.1341 -0.0637
 7604SOL    HW134445   4.405   0.431   7.286  0.4766 -0.1125  0.0983
 7604SOL    HW234446   4.450   0.368   7.408 -0.3895  1.6224  1.0294
 7605SOL     OW34447   3.272   3.907  10.143  0.5943  0.6891  0.4676
 7605SOL    HW134448   3.277   3.975  10.210 -2.5536 -0.8654  2.2772
 7605SOL    HW234449   3.178   3.894  10.149  0.5931 -0.6419 -2.5347
 7606SOL     OW34450   0.972   1.945   9.112 -0.8539  0.2377  0.2282
 7606SOL    HW134451   1.062   1.917   9.131 -0.5988 -0.1549 -1.5558
 7606SOL    HW234452   0.942   1.872   9.057  1.3436 -0.1332 -0.5025
 7607SOL     OW34453   0.922   0.476   2.035  0.3158  0.1447  0.8084
 7607SOL    HW134454   1.008   0.451   2.001  0.4406  0.2963  1.0074
 7607SOL    HW234455   0.933   0.441   2.123 -1.1063 -2.5391 -0.0918
 7608SOL     OW34456   3.630   4.328  11.865  0.2008 -0.1819  0.6296
 7608SOL    HW134457   3.676   4.260  11.815 -0.9898  1.3251 -2.5354
 7608SOL    HW234458   3.593   4.378  11.792  2.1544 -0.8884 -0.8525
 7609SOL     OW34459   2.616   0.530   8.328  0.8100  0.0502  0.0307
 7609SOL    HW134460   2.609   0.459   8.392 -0.8789 -0.6190 -0.8914
 7609SOL    HW234461   2.655   0.484   8.254 -0.2109 -0.5718 -0.1135
 7610SOL     OW34462   4.141   2.232  16.845  0.2690 -0.1352 -0.4487
 7610SOL    HW134463   4.219   2.281  16.873 -0.4696  0.7363  0.0769
 7610SOL    HW234464   4.175   2.195  16.763 -0.4772 -0.0583 -0.7934
 7611SOL     OW34465   0.037   2.062   9.076  0.8348 -0.8394 -0.3128
 7611SOL    HW134466   0.070   2.150   9.093 -0.5366 -0.0143 -1.9271
 7611SOL    HW234467   0.075   2.059   8.988  0.4508  1.7232 -0.5764
 7612SOL     OW34468   0.921   4.127  13.436 -0.0486 -0.2840  0.1826
 7612SOL    HW134469   0.939   4.044  13.393 -0.4154  0.2584 -1.0078
 7612SOL    HW234470   0.997   4.181  13.416  0.0867 -0.6955 -0.4046
 7613SOL     OW34471   4.062   2.825  16.656 -0.0194 -0.0139  0.0352
 7613SOL    HW134472   3.975   2.828  16.618 -0.1240 -0.0830  0.2667
 7613SOL    HW234473   4.050   2.766  16.731  0.8594  0.1572  0.3146
 7614SOL     OW34474   3.570   2.051   9.199 -0.5842 -0.3006 -0.2060
 7614SOL    HW134475   3.657   2.064   9.236  0.1959 -0.8569 -1.8357
 7614SOL    HW234476   3.523   2.120   9.244  0.7067 -0.4259  1.3431
 7615SOL     OW34477   0.591   4.509  12.268 -0.5523 -0.1671  0.1035
 7615SOL    HW134478   0.662   4.454  12.235 -1.1952 -1.6996  1.2803
 7615SOL    HW234479   0.523   4.445  12.290 -0.6456  0.1976  0.9007
 7616SOL     OW34480   3.645   2.312  16.213 -0.8592 -0.5320 -0.4986
 7616SOL    HW134481   3.563   2.285  16.172 -1.6693  2.0871 -0.5581
 7616SOL    HW234482   3.661   2.400  16.179 -0.4587 -0.3883  0.0541
 7617SOL     OW34483   3.918   3.728   1.050  0.1485 -0.5302  0.5211
 7617SOL    HW134484   3.937   3.648   1.100  0.4277 -0.5544  0.3763
 7617SOL    HW234485   3.943   3.792   1.117 -1.8300  2.3481 -1.4965
 7618SOL     OW34486   4.635   0.288   7.412 -0.6426  0.3764  0.2239
 7618SOL    HW134487   4.659   0.196   7.425  0.5902  0.8191  1.0201
 7618SOL    HW234488   4.650   0.287   7.317 -0.7641  0.0116  0.2075
 7619SOL     OW34489   0.406   1.446   7.475  0.6494  0.2133  0.2427
 7619SOL    HW134490   0.384   1.395   7.553 -0.5447  0.7220  0.2450
 7619SOL    HW234491   0.343   1.518   7.471 -0.5226 -0.6927  2.2128
 7620SOL     OW34492   1.885   1.422   5.890 -0.5280 -0.0079  0.0292
 7620SOL    HW134493   1.793   1.445   5.905 -0.7920 -1.4062  0.5089
 7620SOL    HW234494   1.929   1.498   5.851 -0.1320 -0.4185 -0.3203
 7621SOL     OW34495   4.018   4.268   8.265 -0.3323 -0.3230  0.0691
 7621SOL    HW134496   4.112   4.258   8.250  0.2737  2.0329  2.2412
 7621SOL    HW234497   3.985   4.280   8.176  1.3450  0.0518 -0.5003
 7622SOL     OW34498   3.143   1.629   8.259 -0.0749  0.0573 -0.3950
 7622SOL    HW134499   3.048   1.637   8.255  0.1537  2.8503 -0.1640
 7622SOL    HW234500   3.156   1.590   8.172  4.8957 -0.4392  0.5816
 7623SOL     OW34501   3.639   3.674  14.303 -0.1252 -0.1776 -0.5598
 7623SOL    HW134502   3.576   3.729  14.350 -0.8147  0.6250 -2.4216
 7623SOL    HW234503   3.700   3.737  14.265  1.2586 -0.9440  0.3985
 7624SOL     OW34504   4.485   0.981   1.024  0.1854  0.1903 -0.2544
 7624SOL    HW134505   4.494   0.896   1.068  0.6075 -0.2180 -1.1399
 7624SOL    HW234506   4.422   1.025   1.081  0.2930  0.2831 -0.2085
 7625SOL     OW34507   0.536   2.427   4.747  0.3853  0.1063 -0.8475
 7625SOL    HW134508   0.567   2.459   4.662  0.9717  1.5197 -0.0975
 7625SOL    HW234509   0.450   2.469   4.749  0.1570 -0.3832 -0.4168
 7626SOL     OW34510   0.877   0.110   8.607 -0.2771  0.3285 -0.2209
 7626SOL    HW134511   0.875   0.050   8.532  0.0855  0.8795 -0.6815
 7626SOL    HW234512   0.971   0.129   8.597 -0.4844  0.8577 -1.2240
 7627SOL     OW34513   0.473   4.469   4.982 -0.2249  0.8302 -0.4752
 7627SOL    HW134514   0.443   4.550   5.023 -1.2622 -1.3222  2.9230
 7627SOL    HW234515   0.505   4.415   5.054 -0.6649  0.9912 -0.1618
 7628SOL     OW34516   2.824   4.486   1.906  0.2352 -0.1508  0.1678
 7628SOL    HW134517   2.904   4.439   1.929 -0.7579 -1.2939  1.3380
 7628SOL    HW234518   2.851   4.549   1.840  1.3123 -1.1653 -0.3554
 7629SOL     OW34519   1.230   4.689  11.964 -0.2035  0.3786  0.2828
 7629SOL    HW134520   1.298   4.715  12.025 -2.2917  2.7777  1.5590
 7629SOL    HW234521   1.263   4.605  11.932  1.2982  1.8252 -1.9694
 7630SOL     OW34522   2.603   3.181   9.652 -0.0636 -0.9576 -0.8999
 7630SOL    HW134523   2.572   3.264   9.618  1.1012 -0.2267 -0.1911
 7630SOL    HW234524   2.695   3.193   9.629 -0.5094  0.0185 -2.1397
 7631SOL     OW34525   1.672   4.247   7.368  0.0375  0.3113 -0.0927
 7631SOL    HW134526   1.632   4.238   7.281 -0.0999  1.4906 -0.1530
 7631SOL    HW234527   1.619   4.182   7.413 -0.1491  2.1101  2.2750
 7632SOL     OW34528   2.434   3.883   0.396  0.7937  0.1152 -0.3691
 7632SOL    HW134529   2.459   3.967   0.434 -1.2929  1.0826 -1.1502
 7632SOL    HW234530   2.343   3.894   0.371  0.6430 -0.1269  0.0683
 7633SOL     OW34531   1.276   3.581   6.353  0.4336 -0.3196  0.1268
 7633SOL    HW134532   1.336   3.544   6.418  0.9307  1.1935  0.5457
 7633SOL    HW234533   1.324   3.662   6.334  1.5727 -1.3594 -1.3582
 7634SOL     OW34534   4.275   0.592   4.988 -0.0230 -0.3786  0.3690
 7634SOL    HW134535   4.321   0.676   4.982  1.4931 -1.3525 -1.5256
 7634SOL    HW234536   4.299   0.559   5.075  1.3074 -0.3837 -0.0012
 7635SOL     OW34537   1.838   1.227  13.507  0.8259  0.5670 -0.1445
 7635SOL    HW134538   1.868   1.227  13.598 -2.2283 -1.8379  0.8720
 7635SOL    HW234539   1.915   1.239  13.452  1.1700  2.1930  0.7125
 7636SOL     OW34540   3.589   0.682   0.283  0.0947 -0.9352  0.4400
 7636SOL    HW134541   3.583   0.646   0.194  0.8331 -0.2886  0.1313
 7636SOL    HW234542   3.501   0.655   0.310  0.7195 -0.9494  2.4466
 7637SOL     OW34543   3.203   2.302   6.420 -0.1910 -0.5445 -0.0902
 7637SOL    HW134544   3.125   2.294   6.366  0.8350 -0.2214 -1.6216
 7637SOL    HW234545   3.201   2.213   6.456  0.1429 -0.3957  0.2994
 7638SOL     OW34546   1.594   3.866   9.872  0.2901  0.6024 -0.4016
 7638SOL    HW134547   1.591   3.900   9.961  0.1578 -1.2990  0.3280
 7638SOL    HW234548   1.533   3.924   9.827  0.1529  0.3455 -0.5504
 7639SOL     OW34549   1.270   4.443   8.704 -0.1656 -0.0945 -0.0435
 7639SOL    HW134550   1.241   4.380   8.769 -0.2527 -0.3205 -0.3007
 7639SOL    HW234551   1.366   4.440   8.706 -0.1722 -0.3786 -0.1991
 7640SOL     OW34552   3.859   3.634   9.800  0.2382 -0.0272  0.5728
 7640SOL    HW134553   3.950   3.606   9.798  0.5022  0.8673  0.1336
 7640SOL    HW234554   3.844   3.627   9.705  0.3405 -1.3308  0.6510
 7641SOL     OW34555   3.388   4.114   7.259  0.1558  0.7186 -0.4087
 7641SOL    HW134556   3.385   4.191   7.315 -4.1341  0.9987 -1.0770
 7641SOL    HW234557   3.336   4.061   7.318 -0.0719  1.0888 -0.2761
 7642SOL     OW34558   4.517   1.797   2.557  0.3010  0.5163  0.4338
 7642SOL    HW134559   4.433   1.834   2.529  0.1849  0.1756  0.3341
 7642SOL    HW234560   4.501   1.703   2.565  2.9702 -0.0282 -0.8833
 7643SOL     OW34561   2.225   0.444   7.245 -0.0209 -0.4731  0.2927
 7643SOL    HW134562   2.136   0.466   7.274 -0.2049 -1.1801  0.2436
 7643SOL    HW234563   2.251   0.385   7.315 -0.2732  0.2993  1.0477
 7644SOL     OW34564   2.616   1.294   3.733 -0.1571 -0.4760 -0.1898
 7644SOL    HW134565   2.601   1.273   3.826 -1.2137 -1.0869 -0.5011
 7644SOL    HW234566   2.541   1.251   3.693 -0.1212 -0.5419 -0.1868
 7645SOL     OW34567   0.645   1.276   8.855  0.2786 -0.3317 -0.1242
 7645SOL    HW134568   0.663   1.369   8.869 -2.4149  0.1304  0.1703
 7645SOL    HW234569   0.551   1.287   8.843  0.1617 -1.7525 -0.4899
 7646SOL     OW34570   0.204   0.970  14.659  0.4474  0.3096  0.0030
 7646SOL    HW134571   0.181   0.900  14.720  1.6102  0.3311  0.4526
 7646SOL    HW234572   0.130   0.966  14.597  0.6786 -0.1318 -0.2486
 7647SOL     OW34573   3.450   3.036   5.826 -0.4977  0.3447  0.4329
 7647SOL    HW134574   3.430   3.088   5.749 -1.0419 -1.4593 -0.6620
 7647SOL    HW234575   3.516   2.978   5.788 -0.3543  1.6191 -1.2263
 7648SOL     OW34576   2.246   1.377  14.531 -0.2071  0.5581 -0.2243
 7648SOL    HW134577   2.216   1.408  14.617 -0.1463  2.8384 -1.0468
 7648SOL    HW234578   2.168   1.357  14.479 -0.0414  0.1516 -0.3189
 7649SOL     OW34579   4.202   4.261   6.482 -0.0627 -0.0035  0.0904
 7649SOL    HW134580   4.155   4.234   6.403 -0.2667  1.0048 -0.1223
 7649SOL    HW234581   4.205   4.356   6.470 -0.1218 -0.0676 -0.4541
 7650SOL     OW34582   3.864   0.361   3.789 -0.2136  0.0647  0.4910
 7650SOL    HW134583   3.867   0.424   3.717  0.6359 -3.1926 -2.2804
 7650SOL    HW234584   3.957   0.346   3.804  0.1235  1.4788 -0.2193
 7651SOL     OW34585   1.027   0.771   8.074  0.4209 -0.3342  0.2636
 7651SOL    HW134586   0.951   0.717   8.053  0.2726 -0.4903  1.2367
 7651SOL    HW234587   1.038   0.755   8.167  3.5914  1.8088  0.2636
 7652SOL     OW34588   3.808   4.170  10.439 -0.0583  0.4703  0.2550
 7652SOL    HW134589   3.739   4.160  10.374  1.5483 -0.1480 -1.3548
 7652SOL    HW234590   3.760   4.148  10.518 -1.2321  1.1698 -0.2582
 7653SOL     OW34591   4.372   0.549  10.920 -0.0354  0.0363  0.3621
 7653SOL    HW134592   4.393   0.642  10.907 -0.5371 -0.0888 -1.2858
 7653SOL    HW234593   4.442   0.504  10.873 -0.8101  0.1790 -0.9026
 7654SOL     OW34594   1.546   2.377   5.650  0.1504  0.2142  0.1092
 7654SOL    HW134595   1.530   2.470   5.666  2.3567  0.2615  2.0602
 7654SOL    HW234596   1.515   2.358   5.561 -0.6668 -2.3046  0.9409
 7655SOL     OW34597   1.990   4.319   3.904 -0.0162  0.0228  0.6596
 7655SOL    HW134598   2.060   4.275   3.856  0.8293  1.2947  0.7161
 7655SOL    HW234599   1.971   4.387   3.840  1.1671  0.0154  0.2936
 7656SOL     OW34600   3.495   4.343   1.525  0.3916  0.3166  0.1883
 7656SOL    HW134601   3.421   4.382   1.477 -1.5798 -2.8961  0.5869
 7656SOL    HW234602   3.456   4.261   1.557  1.5543 -1.1038 -2.0347
 7657SOL     OW34603   2.206   1.599   9.571 -0.0213  0.0347  0.5052
 7657SOL    HW134604   2.291   1.593   9.614  1.3579  0.1647 -2.2256
 7657SOL    HW234605   2.147   1.601   9.647 -2.2837  0.9628 -1.3151
 7658SOL     OW34606   3.274   2.502   9.085 -0.0494  0.1984 -0.4255
 7658SOL    HW134607   3.255   2.535   8.998  0.8614  1.8277 -0.0136
 7658SOL    HW234608   3.210   2.556   9.133  0.2478 -0.3553  0.5888
 7659SOL     OW34609   1.614   0.039   7.795 -0.0887  0.0222  0.0518
 7659SOL    HW134610   1.672   0.065   7.723  1.6382 -0.5170  1.2580
 7659SOL    HW234611   1.529   0.025   7.753 -0.4926  0.2464  0.8078
 7660SOL     OW34612   3.755   4.087  11.670  0.2061 -0.1390  0.0056
 7660SOL    HW134613   3.687   4.031  11.705 -0.2578  0.3951 -0.0513
 7660SOL    HW234614   3.833   4.043  11.706  0.9945  2.4938  1.4911
 7661SOL     OW34615   1.149   3.379  17.281  0.2025  0.5194 -0.0408
 7661SOL    HW134616   1.169   3.365  17.188  0.7958  1.4276 -0.0526
 7661SOL    HW234617   1.237   3.390  17.318  0.0032  1.0593  0.2727
 7662SOL     OW34618   0.856   2.976   3.115 -0.0218  0.0451  0.2186
 7662SOL    HW134619   0.762   2.979   3.097 -0.1233 -1.4036  0.4914
 7662SOL    HW234620   0.862   2.881   3.131 -0.9515  0.3014  2.0772
 7663SOL     OW34621   2.134   4.419   7.101 -0.0941 -0.1587 -0.0860
 7663SOL    HW134622   2.051   4.379   7.078  0.1992 -1.8847  1.8715
 7663SOL    HW234623   2.185   4.339   7.096 -0.1240 -0.2140  0.4996
 7664SOL     OW34624   1.060   1.242   8.026  0.9933 -0.3991  0.0967
 7664SOL    HW134625   1.062   1.201   7.940 -1.5171  3.3266 -1.6895
 7664SOL    HW234626   1.139   1.205   8.065  0.3764 -0.1318  1.6086
 7665SOL     OW34627   0.579   3.151   7.633  1.0593  0.1316 -0.6385
 7665SOL    HW134628   0.499   3.128   7.584  1.9411 -0.3290 -1.8555
 7665SOL    HW234629   0.622   3.065   7.632  1.9876  0.5611  1.9003
 7666SOL     OW34630   3.946   0.988   9.002  0.0348  0.1989 -0.5234
 7666SOL    HW134631   3.971   0.905   8.963  0.9648  0.4303 -0.4352
 7666SOL    HW234632   4.024   1.014   9.051  2.0911 -3.8015 -1.7068
 7667SOL     OW34633   3.159   2.589   0.867 -0.5765 -0.6181 -0.1822
 7667SOL    HW134634   3.074   2.630   0.852 -0.6112 -0.9217 -0.8614
 7667SOL    HW234635   3.159   2.507   0.817  0.9064  0.6247 -2.2101
 7668SOL     OW34636   1.844   2.474   6.556 -0.5973  0.0246 -0.1849
 7668SOL    HW134637   1.777   2.507   6.495  1.9720  0.4249 -2.7781
 7668SOL    HW234638   1.869   2.554   6.602 -1.7237  1.5374 -2.1779
 7669SOL     OW34639   3.614   0.978   6.227 -0.0221 -0.4930 -0.2208
 7669SOL    HW134640   3.703   0.962   6.256  0.2048  0.8642 -0.1654
 7669SOL    HW234641   3.595   1.070   6.248  0.5049 -0.2733 -0.7219
 7670SOL     OW34642   3.186   2.385  11.144 -0.1042  0.5014 -0.2463
 7670SOL    HW134643   3.142   2.377  11.228  3.3293  0.1739  1.5161
 7670SOL    HW234644   3.212   2.477  11.142  0.5454  0.3265  0.2443
 7671SOL     OW34645   3.221   3.604   3.344 -0.4160 -0.0543  0.1578
 7671SOL    HW134646   3.177   3.523   3.318 -0.0812 -0.3735  0.5804
 7671SOL    HW234647   3.152   3.665   3.320  1.2408  1.1020 -1.7138
 7672SOL     OW34648   3.375   2.705  12.250 -0.2846 -0.5003  0.8038
 7672SOL    HW134649   3.465   2.735  12.260 -0.5926 -0.1006  2.2729
 7672SOL    HW234650   3.394   2.629  12.195  0.8613  1.3408 -1.3104
 7673SOL     OW34651   0.468   0.715   9.887 -0.2181 -0.2680  0.4671
 7673SOL    HW134652   0.468   0.623   9.912 -0.7398  0.2170  2.3258
 7673SOL    HW234653   0.528   0.754   9.951 -0.3967  0.4870  0.1834
 7674SOL     OW34654   1.181   0.742   3.163 -0.0167 -0.0742  0.0521
 7674SOL    HW134655   1.213   0.692   3.239 -1.7360  0.3090  1.0231
 7674SOL    HW234656   1.245   0.813   3.155 -0.3558 -0.0470 -2.3908
 7675SOL     OW34657   2.452   2.402   5.655 -0.0438  0.1334  0.0264
 7675SOL    HW134658   2.397   2.478   5.637 -1.2786  0.0379  3.5217
 7675SOL    HW234659   2.525   2.447   5.698 -0.0724 -0.7510  0.9938
 7676SOL     OW34660   4.142   2.830   0.193 -0.2671 -0.4542  0.0804
 7676SOL    HW134661   4.050   2.803   0.184 -0.2377 -0.1389 -1.1136
 7676SOL    HW234662   4.141   2.868   0.281  0.0596  0.4408 -0.3057
 7677SOL     OW34663   0.330   2.394   3.895 -0.0423  0.0272  0.3400
 7677SOL    HW134664   0.290   2.434   3.818 -0.3873  1.0925  1.0667
 7677SOL    HW234665   0.421   2.388   3.868  0.2691  3.3813  0.6581
 7678SOL     OW34666   0.368   0.316   2.274 -0.5077 -0.7589  0.1895
 7678SOL    HW134667   0.415   0.382   2.326  0.2566 -0.1477 -1.2838
 7678SOL    HW234668   0.396   0.341   2.186 -1.3585 -0.8093 -0.0949
 7679SOL     OW34669   2.776   4.039   8.695  0.1714  0.9431  0.1534
 7679SOL    HW134670   2.835   4.006   8.627  0.7780 -2.1366  2.1437
 7679SOL    HW234671   2.690   4.003   8.673  0.2563  0.4690  0.6002
 7680SOL     OW34672   3.862   2.449   7.639 -0.2762  0.2258 -0.1726
 7680SOL    HW134673   3.894   2.508   7.707  2.2413  0.4777 -1.5569
 7680SOL    HW234674   3.776   2.486   7.617 -0.9964 -1.2901  0.1270
 7681SOL     OW34675   3.833   1.854   6.926 -0.4634  0.2541  0.5047
 7681SOL    HW134676   3.750   1.826   6.966 -0.3266  3.2693  2.9408
 7681SOL    HW234677   3.812   1.835   6.835  0.6295 -0.8075  0.4694
 7682SOL     OW34678   2.447   2.447  11.827 -0.5439 -1.2817  0.2099
 7682SOL    HW134679   2.357   2.429  11.851 -0.7939 -1.4534 -0.8667
 7682SOL    HW234680   2.444   2.526  11.881 -1.1098 -2.4986  1.9578
 7683SOL     OW34681   2.300   0.223   3.896  0.1557 -0.4363 -0.1808
 7683SOL    HW134682   2.328   0.315   3.902 -0.1874 -0.1556 -3.0309
 7683SOL    HW234683   2.335   0.179   3.974  0.1301  0.1509  0.1656
 7684SOL     OW34684   1.585   1.698   8.759  0.6451 -0.1514 -0.3176
 7684SOL    HW134685   1.626   1.777   8.723  2.2457 -1.8997 -2.3210
 7684SOL    HW234686   1.595   1.707   8.854  1.1215  2.7456 -0.6397
 7685SOL     OW34687   3.679   0.541   5.572  0.2020 -0.3317 -0.4164
 7685SOL    HW134688   3.700   0.451   5.548  1.1336 -0.5840  1.3693
 7685SOL    HW234689   3.733   0.541   5.651 -0.8790  1.9197  0.3118
 7686SOL     OW34690   4.129   1.762   8.493  0.7118 -0.2287 -0.0078
 7686SOL    HW134691   4.071   1.785   8.565  0.9600 -1.8859  0.7024
 7686SOL    HW234692   4.108   1.846   8.452 -1.2871 -0.2073  1.0556
 7687SOL     OW34693   2.176   1.878   8.327 -0.0328 -0.2017 -1.2547
 7687SOL    HW134694   2.253   1.895   8.273  0.2156  1.4880 -0.3654
 7687SOL    HW234695   2.213   1.902   8.411 -0.3731 -0.6489 -0.9774
 7688SOL     OW34696   2.894   4.263   3.567  0.2934 -0.2744 -0.2875
 7688SOL    HW134697   2.982   4.290   3.594  0.2730 -0.6919  0.2210
 7688SOL    HW234698   2.848   4.346   3.577  0.0304 -0.1667 -2.4611
 7689SOL     OW34699   0.445   1.704   7.026 -0.5816  0.5705  0.2984
 7689SOL    HW134700   0.418   1.794   7.041  2.9018  1.4388  1.3390
 7689SOL    HW234701   0.380   1.659   7.080  0.8380  0.1034  1.6314
 7690SOL     OW34702   1.456   2.199   0.341 -0.0954 -0.0348 -0.3251
 7690SOL    HW134703   1.387   2.252   0.302 -2.3955 -3.0057 -0.2454
 7690SOL    HW234704   1.531   2.257   0.353 -1.3395  1.4366  0.3786
 7691SOL     OW34705   0.662   0.237   8.924 -0.5570 -0.0597  0.1176
 7691SOL    HW134706   0.631   0.299   8.989 -1.6987  0.0308 -0.5150
 7691SOL    HW234707   0.616   0.278   8.851  2.2212  0.2324 -1.5037
 7692SOL     OW34708   2.931   3.242   3.105  0.2159 -0.1089 -0.4649
 7692SOL    HW134709   2.862   3.177   3.110  0.4619 -0.2897  0.6556
 7692SOL    HW234710   2.885   3.316   3.066 -0.5881  0.1698  1.0303
 7693SOL     OW34711   4.428   4.544   4.315 -0.9238  0.1756  0.0126
 7693SOL    HW134712   4.469   4.512   4.395 -0.4200 -1.1620 -0.7711
 7693SOL    HW234713   4.379   4.465   4.294 -0.5538  0.6326 -2.5711
 7694SOL     OW34714   3.500   3.308  16.554 -0.0506  0.0013 -0.0166
 7694SOL    HW134715   3.426   3.359  16.520  0.7389  0.7167 -0.6743
 7694SOL    HW234716   3.540   3.364  16.621  0.3520 -0.1755 -0.1109
 7695SOL     OW34717   0.428   3.594   4.910  0.5355  0.1227 -0.6305
 7695SOL    HW134718   0.347   3.644   4.900 -0.5949 -1.1853  1.8480
 7695SOL    HW234719   0.490   3.667   4.916  0.8075 -0.3429  2.6667
 7696SOL     OW34720   0.008   3.979  15.355 -0.5123  0.5027  0.2226
 7696SOL    HW134721   4.728   4.050  15.293 -1.0982 -0.2625 -0.5122
 7696SOL    HW234722   4.672   3.921  15.325 -0.3516  1.3815 -1.8152
 7697SOL     OW34723   4.006   0.647   7.589  0.2956 -0.1355 -0.5189
 7697SOL    HW134724   3.914   0.656   7.566 -0.7977 -0.3969  3.7860
 7697SOL    HW234725   4.009   0.560   7.630 -0.5542  0.9703  1.9224
 7698SOL     OW34726   3.002   1.681   9.391  0.9375  0.0047 -0.2513
 7698SOL    HW134727   3.032   1.634   9.313  0.8280  1.0242 -0.9130
 7698SOL    HW234728   3.082   1.712   9.433 -0.9767  2.5459  1.4652
 7699SOL     OW34729   0.935   1.465   9.051  0.5051  0.0042  0.1401
 7699SOL    HW134730   0.998   1.394   9.036  0.4850 -0.4138  1.9394
 7699SOL    HW234731   0.867   1.413   9.095  0.6770  1.5006  2.1808
 7700SOL     OW34732   2.488   4.269   6.158  0.2205  0.3445 -0.6147
 7700SOL    HW134733   2.436   4.267   6.077 -0.0782  2.2800 -0.4631
 7700SOL    HW234734   2.414   4.245   6.212  0.5737  1.0068  0.1633
 7701SOL     OW34735   4.004   4.490   4.742  0.4046  0.0721  0.2391
 7701SOL    HW134736   3.991   4.395   4.738  2.0379 -0.1669  0.4206
 7701SOL    HW234737   4.056   4.487   4.823  1.1594  2.0905 -0.1770
 7702SOL     OW34738   3.089   2.861   1.718 -0.2351  0.7204 -0.3645
 7702SOL    HW134739   3.156   2.797   1.693  0.4002  0.8683  0.9521
 7702SOL    HW234740   3.131   2.913   1.786 -0.9351 -0.4229  0.9423
 7703SOL     OW34741   2.635   4.259   9.299 -0.4557 -0.1006  0.1941
 7703SOL    HW134742   2.626   4.189   9.363 -0.2510  1.0243  1.4700
 7703SOL    HW234743   2.700   4.215   9.244 -2.7938 -3.4164  0.1025
 7704SOL     OW34744   2.042   1.533  15.692 -0.2330 -0.0317 -0.4839
 7704SOL    HW134745   1.977   1.582  15.742 -1.0463 -0.4657 -1.1010
 7704SOL    HW234746   2.007   1.548  15.604  1.3652  1.5418 -0.8563
 7705SOL     OW34747   3.399   4.671   9.586 -0.2396 -0.8593  0.5191
 7705SOL    HW134748   3.415   4.582   9.615  2.6857 -1.6783 -3.5719
 7705SOL    HW234749   3.329   4.712   9.637  0.0199 -2.3523  2.0347
 7706SOL     OW34750   2.371   1.265  11.277  0.1790 -0.0472  0.4197
 7706SOL    HW134751   2.291   1.272  11.329 -1.1290  0.9868 -1.7323
 7706SOL    HW234752   2.429   1.319  11.331  0.5084  1.1150 -1.1213
 7707SOL     OW34753   2.446   4.120   0.537  0.1255 -0.2620 -0.4449
 7707SOL    HW134754   2.472   4.150   0.624 -2.7879  3.6903 -0.9287
 7707SOL    HW234755   2.389   4.193   0.514  0.3380 -0.0187 -0.2017
 7708SOL     OW34756   0.144   1.398   7.328 -0.5496 -0.1510  0.0631
 7708SOL    HW134757   0.119   1.432   7.414 -0.0047 -0.3194  0.2902
 7708SOL    HW234758   0.177   1.315   7.363 -1.3884  0.2498  1.8164
 7709SOL     OW34759   4.117   2.097   4.329  0.8330  0.1733 -0.1516
 7709SOL    HW134760   4.164   2.029   4.377 -0.2393  0.0889  0.7735
 7709SOL    HW234761   4.028   2.071   4.349  0.7074 -0.1075 -1.1221
 7710SOL     OW34762   1.119   1.053   2.644  0.0143 -0.3672  0.1044
 7710SOL    HW134763   1.072   1.057   2.728 -1.0124  0.4321 -0.4997
 7710SOL    HW234764   1.099   1.141   2.612  0.6808 -1.2598 -2.7415
 7711SOL     OW34765   1.614   1.767   7.668 -0.6521 -0.2319  0.9861
 7711SOL    HW134766   1.530   1.793   7.630 -1.5457 -2.2941  1.5820
 7711SOL    HW234767   1.661   1.731   7.593 -0.0439  0.0314  1.2408
 7712SOL     OW34768   4.166   1.844   5.342  0.0483 -0.0846 -0.2229
 7712SOL    HW134769   4.107   1.860   5.416  1.3278 -1.8380  1.1602
 7712SOL    HW234770   4.178   1.749   5.344 -1.1186 -0.2294 -0.3060
 7713SOL     OW34771   0.007   0.990   8.611  0.2688 -0.2803 -0.1311
 7713SOL    HW134772   4.685   0.966   8.684 -1.1380 -1.4805 -1.5979
 7713SOL    HW234773   4.686   1.055   8.567 -0.3674  0.1051  1.2545
 7714SOL     OW34774   4.349   2.854   6.881  0.2260 -0.3138 -0.3371
 7714SOL    HW134775   4.362   2.861   6.975  1.9807 -2.7904 -0.3848
 7714SOL    HW234776   4.432   2.820   6.848 -0.5895 -2.4609 -0.2283
 7715SOL     OW34777   2.168   1.011   5.978  0.5965  0.1998  0.4306
 7715SOL    HW134778   2.236   0.944   5.970  1.0226  0.8459 -1.3988
 7715SOL    HW234779   2.104   0.964   6.031  0.7446 -0.3889  0.0826
 7716SOL     OW34780   4.731   1.617   8.968  0.4071  0.2722  0.1759
 7716SOL    HW134781   0.026   1.541   9.018 -0.7816 -0.9727 -1.0346
 7716SOL    HW234782   4.690   1.674   9.033 -0.5126  0.8910 -0.9496
 7717SOL     OW34783   2.315   2.740  16.761  0.2661  0.2675  0.5254
 7717SOL    HW134784   2.391   2.791  16.786  0.2931 -0.5107  2.0039
 7717SOL    HW234785   2.356   2.658  16.731 -1.7288 -0.0909 -1.2368
 7718SOL     OW34786   2.942   2.396   9.016  0.1949  0.0448 -0.2498
 7718SOL    HW134787   2.986   2.323   9.061  1.1071  1.5432  1.3247
 7718SOL    HW234788   2.923   2.444   9.097 -1.7691  0.3116 -0.8651
 7719SOL     OW34789   0.009   3.778   5.599  0.3140 -0.1048  0.3368
 7719SOL    HW134790   4.684   3.853   5.604  0.1271 -0.0979 -1.8074
 7719SOL    HW234791   4.733   3.765   5.504 -0.2056  1.0132  0.2445
 7720SOL     OW34792   4.601   4.223   2.161 -0.2338  0.2000 -0.4800
 7720SOL    HW134793   4.648   4.221   2.078 -0.3369 -0.8353 -0.5208
 7720SOL    HW234794   4.530   4.169   2.125  0.5903 -0.7300 -0.7244
 7721SOL     OW34795   1.565   3.682  10.125  0.2208  0.4116 -0.4769
 7721SOL    HW134796   1.621   3.646  10.193 -1.5113  1.8532  1.6992
 7721SOL    HW234797   1.560   3.774  10.151  0.2079  0.1212  0.5240
 7722SOL     OW34798   3.222   2.991   5.984 -0.0509 -0.3612 -0.5675
 7722SOL    HW134799   3.285   3.007   5.914  0.6199 -0.0679  0.1095
 7722SOL    HW234800   3.247   3.063   6.042 -1.6521  2.4527 -3.4219
 7723SOL     OW34801   3.292   3.210   3.378  0.4391  0.1334 -0.2868
 7723SOL    HW134802   3.361   3.238   3.318  0.5521  1.1214  0.3031
 7723SOL    HW234803   3.222   3.274   3.363 -0.3241 -0.2219  1.6991
 7724SOL     OW34804   3.004   0.027   2.339  0.3650  0.2041  0.1515
 7724SOL    HW134805   3.099   0.026   2.343  0.3707  2.6236  0.7604
 7724SOL    HW234806   2.989   4.667   2.342 -2.1795  0.6124  0.8100
 7725SOL     OW34807   0.088   2.133   6.400  0.4870 -0.2369 -0.2250
 7725SOL    HW134808   0.111   2.064   6.337 -0.4124 -0.5855 -0.1698
 7725SOL    HW234809   0.001   2.163   6.372  1.5828  2.0544 -1.1403
 7726SOL     OW34810   1.398   0.806   9.290 -0.3123  0.4053  0.1580
 7726SOL    HW134811   1.303   0.817   9.290 -0.3523  0.0621  0.0963
 7726SOL    HW234812   1.433   0.889   9.322 -0.9727  0.4707  0.6977
 7727SOL     OW34813   1.580   1.034  15.303  0.2833  0.1075 -0.3185
 7727SOL    HW134814   1.590   1.055  15.396 -0.9981  3.1923 -0.8584
 7727SOL    HW234815   1.666   1.028  15.262  2.0228  0.0354  3.2629
 7728SOL     OW34816   0.608   4.340   3.432  0.3614 -0.0663  0.2722
 7728SOL    HW134817   0.552   4.411   3.398  0.5496  0.0328  0.1684
 7728SOL    HW234818   0.694   4.380   3.421  0.0440  0.0779 -1.7953
 7729SOL     OW34819   1.906   2.746   3.039  0.0967 -0.5100  0.0762
 7729SOL    HW134820   1.980   2.696   3.003  0.3388 -0.7024  0.8429
 7729SOL    HW234821   1.947   2.831   3.023 -1.3609  0.3963  1.2060
 7730SOL     OW34822   2.608   0.555  15.023  0.0740  0.0626 -0.0352
 7730SOL    HW134823   2.645   0.643  15.028 -0.4434  0.3245 -0.7861
 7730SOL    HW234824   2.635   0.525  15.110  2.7302  1.3461 -0.4098
 7731SOL     OW34825   0.962   2.941   5.832  0.0107 -0.6820  0.2555
 7731SOL    HW134826   0.944   2.937   5.926 -0.5488  0.1149  0.1742
 7731SOL    HW234827   0.879   2.902   5.804  1.0790 -1.0328 -2.4649
 7732SOL     OW34828   1.511   1.860   3.305  0.0574  0.2280  0.0194
 7732SOL    HW134829   1.485   1.941   3.350  2.4007  1.4384 -0.8111
 7732SOL    HW234830   1.590   1.844   3.355  1.0225  1.8034 -1.0016
 7733SOL     OW34831   3.213   4.239   5.431 -0.9265 -0.4158  0.3048
 7733SOL    HW134832   3.171   4.256   5.516 -2.3455 -2.4815  0.0178
 7733SOL    HW234833   3.213   4.321   5.382  1.4756 -1.7915 -1.9752
 7734SOL     OW34834   2.255   2.951   8.740 -0.0500  0.1183 -0.1165
 7734SOL    HW134835   2.246   2.881   8.675 -2.3031  0.2255  0.1015
 7734SOL    HW234836   2.286   2.909   8.820  2.2751 -1.2032 -1.7024
 7735SOL     OW34837   2.408   1.774   9.015 -0.6178  0.2850 -0.1416
 7735SOL    HW134838   2.454   1.786   9.097  0.2102  0.8462 -0.6867
 7735SOL    HW234839   2.444   1.689   8.989  1.2581  0.5190  1.7439
 7736SOL     OW34840   4.456   3.394  17.649 -0.1717  0.4693  0.0194
 7736SOL    HW134841   4.361   3.393  17.646 -0.0151 -3.8040 -2.8733
 7736SOL    HW234842   4.464   3.466  17.712  0.4942 -1.3443  2.0229
 7737SOL     OW34843   4.702   1.348   2.540  0.0772 -0.1967  0.0849
 7737SOL    HW134844   0.028   1.415   2.574 -0.0723 -0.4848  0.9276
 7737SOL    HW234845   4.627   1.407   2.529  0.1837 -0.3991 -1.6161
 7738SOL     OW34846   0.018   2.416   3.948 -0.4690 -0.2215  0.1874
 7738SOL    HW134847   0.063   2.482   3.896 -1.3460 -0.1781 -0.5281
 7738SOL    HW234848   4.664   2.430   3.913 -0.6584 -2.5235 -0.2792
 7739SOL     OW34849   2.561   4.558   9.744 -0.3975 -0.4619  0.4374
 7739SOL    HW134850   2.472   4.588   9.725  0.9562  0.6217 -4.1984
 7739SOL    HW234851   2.610   4.635   9.774 -1.6875  1.2783 -1.9170
 7740SOL     OW34852   1.573   0.414  13.295  0.2494  0.1001  0.2061
 7740SOL    HW134853   1.578   0.331  13.247 -1.1013  1.1128 -1.6941
 7740SOL    HW234854   1.656   0.412  13.343  0.5018  1.1596 -0.1910
 7741SOL     OW34855   0.976   2.108   2.704  0.6980 -0.5438  0.1719
 7741SOL    HW134856   1.050   2.160   2.670  0.0139  0.2629 -0.0826
 7741SOL    HW234857   0.946   2.158   2.780 -0.2352 -0.9357  0.0485
 7742SOL     OW34858   2.544   3.557   7.667  0.6773 -0.1054  0.2110
 7742SOL    HW134859   2.610   3.494   7.638  1.0683 -0.2867  1.4906
 7742SOL    HW234860   2.601   3.629   7.695  1.8682 -0.4014 -1.4586
 7743SOL     OW34861   2.800   2.085   7.196  0.2899  0.3343  0.3903
 7743SOL    HW134862   2.795   2.004   7.247  1.2253  1.2452  1.9598
 7743SOL    HW234863   2.771   2.149   7.261  1.7409 -2.1729  3.5194
 7744SOL     OW34864   3.971   3.407  15.066  0.5953  0.3150 -0.3680
 7744SOL    HW134865   3.882   3.402  15.102  1.0255  1.1259  0.8074
 7744SOL    HW234866   3.995   3.315  15.057 -1.0429 -0.2050  0.4934
 7745SOL     OW34867   3.772   1.319   1.535  0.3811 -0.1469  0.2893
 7745SOL    HW134868   3.690   1.366   1.555  0.4499  0.4042 -0.7250
 7745SOL    HW234869   3.819   1.400   1.513  0.3223 -0.3456 -0.5581
 7746SOL     OW34870   0.339   2.843   6.601 -0.4400 -0.0639 -0.2692
 7746SOL    HW134871   0.265   2.785   6.582  0.2763 -1.2824  0.6665
 7746SOL    HW234872   0.385   2.833   6.518 -0.3780  1.0026 -0.3569
 7747SOL     OW34873   3.638   2.610  13.076 -0.1314  0.3316 -0.2333
 7747SOL    HW134874   3.639   2.643  13.166 -0.4573  1.3157 -0.5856
 7747SOL    HW234875   3.575   2.539  13.088  1.0511 -0.6728  0.0763
 7748SOL     OW34876   4.671   0.881   3.695 -0.3015 -0.2640  0.0070
 7748SOL    HW134877   4.592   0.891   3.748 -0.3295  1.1107 -0.2971
 7748SOL    HW234878   0.005   0.850   3.755  1.3270  0.9846 -1.2228
 7749SOL     OW34879   4.597   2.966   5.724 -0.2437  0.5450  0.1267
 7749SOL    HW134880   4.686   2.990   5.698  0.5280 -0.9376  1.4581
 7749SOL    HW234881   4.554   3.045   5.690  3.1906  3.1118  1.7300
 7750SOL     OW34882   3.573   3.250   8.171 -0.1122 -0.1238 -0.1319
 7750SOL    HW134883   3.539   3.312   8.236  2.6427  0.0936  1.1239
 7750SOL    HW234884   3.573   3.167   8.219 -1.3339  0.7312  1.3365
 7751SOL     OW34885   2.366   1.382   1.640 -0.0631  0.2871 -0.0082
 7751SOL    HW134886   2.421   1.317   1.685 -1.2699 -0.2647  0.6496
 7751SOL    HW234887   2.325   1.431   1.711  3.1567  0.3829  1.7985
 7752SOL     OW34888   1.031   2.078   6.350  0.0731 -1.0035 -0.2996
 7752SOL    HW134889   1.113   2.078   6.400 -1.2393  2.8926  1.8441
 7752SOL    HW234890   1.025   1.986   6.324  0.9626 -1.0538 -0.3583
 7753SOL     OW34891   4.676   0.445   1.616 -0.4123 -0.0413 -0.1746
 7753SOL    HW134892   0.031   0.460   1.583  0.8250 -1.4039  2.5973
 7753SOL    HW234893   4.698   0.438   1.709  1.9107  1.0440 -0.6189
 7754SOL     OW34894   2.315   2.799  11.167 -0.2339  0.6204  0.0635
 7754SOL    HW134895   2.373   2.752  11.107 -1.4879 -0.7333 -0.1093
 7754SOL    HW234896   2.369   2.877  11.168 -1.6570  1.6167 -1.6475
 7755SOL     OW34897   3.753   1.179   4.942  0.0023  0.2220  0.0156
 7755SOL    HW134898   3.719   1.268   4.928 -1.0807 -0.2605 -0.4434
 7755SOL    HW234899   3.829   1.201   4.995  0.6766  0.2148 -0.9493
 7756SOL     OW34900   0.634   4.148   3.243  0.5313 -0.0766  0.1896
 7756SOL    HW134901   0.610   4.212   3.310 -1.1228  0.5808 -1.0363
 7756SOL    HW234902   0.608   4.193   3.163 -1.4200  0.0165  0.8799
 7757SOL     OW34903   4.083   2.013   8.366  0.0698 -0.5556  0.3695
 7757SOL    HW134904   4.063   2.105   8.379  0.9784 -0.2455 -0.4482
 7757SOL    HW234905   4.178   2.012   8.355  0.1350 -1.2947  0.9794
 7758SOL     OW34906   1.768   2.139   9.356  0.4719 -0.2280  0.2340
 7758SOL    HW134907   1.827   2.098   9.420  1.6780  5.4871  2.8065
 7758SOL    HW234908   1.706   2.194   9.404 -0.8469  0.8887 -2.7775
 7759SOL     OW34909   4.405   4.033   4.191 -0.8113  0.0537 -0.7156
 7759SOL    HW134910   4.467   3.961   4.204  0.9842  1.4287 -1.6187
 7759SOL    HW234911   4.355   3.998   4.117 -1.2338 -4.0876  1.5708
 7760SOL     OW34912   2.087   0.593  14.805  0.7609 -0.1343 -0.1809
 7760SOL    HW134913   2.160   0.626  14.856 -0.2566 -0.8358  1.7328
 7760SOL    HW234914   2.127   0.589  14.718  0.3212 -1.0203 -0.3538
 7761SOL     OW34915   1.727   0.631   5.248 -0.3076 -0.5429  0.3707
 7761SOL    HW134916   1.655   0.685   5.215 -0.7499 -1.3557 -0.0006
 7761SOL    HW234917   1.774   0.696   5.300  2.0655 -2.0404  0.1111
 7762SOL     OW34918   4.495   0.493  17.042  1.2630 -0.5830 -0.0814
 7762SOL    HW134919   4.476   0.569  17.098  2.5436 -0.2792 -0.0642
 7762SOL    HW234920   4.446   0.506  16.961  1.5198  2.8852  0.3252
 7763SOL     OW34921   4.645   2.657   3.661 -0.3601  0.3931  0.0715
 7763SOL    HW134922   4.561   2.679   3.702 -0.8404 -1.2680 -0.0220
 7763SOL    HW234923   4.638   2.563   3.648 -1.8327  0.4446  0.4547
 7764SOL     OW34924   0.852   1.561  10.216  0.3945  0.4078  0.6115
 7764SOL    HW134925   0.785   1.616  10.257  2.0471  2.1026  1.0725
 7764SOL    HW234926   0.822   1.471  10.230 -1.4248  0.6261 -1.7666
 7765SOL     OW34927   1.500   0.672   1.782 -0.4966 -0.6777  0.2726
 7765SOL    HW134928   1.467   0.760   1.800 -0.9661 -1.1087  1.5169
 7765SOL    HW234929   1.582   0.671   1.832  0.6187 -1.8940 -1.5125
 7766SOL     OW34930   4.269   0.315  16.910 -0.1677  0.2838  0.0692
 7766SOL    HW134931   4.286   0.282  16.998 -0.1336 -0.6509 -0.2834
 7766SOL    HW234932   4.192   0.369  16.923 -0.6127 -0.7408  1.6686
 7767SOL     OW34933   4.563   3.622   4.733  0.3673 -0.2105  0.5871
 7767SOL    HW134934   4.553   3.619   4.638 -0.6720 -0.4218  0.6995
 7767SOL    HW234935   4.650   3.583   4.742  0.2577 -1.0202 -1.8368
 7768SOL     OW34936   4.045   1.433   3.456  0.0476 -0.3843  0.2807
 7768SOL    HW134937   4.071   1.526   3.449  2.0848 -0.9996 -0.5619
 7768SOL    HW234938   4.117   1.404   3.512  0.2156 -3.0232 -1.3381
 7769SOL     OW34939   3.124   3.174   9.763 -0.0274  0.5753 -0.0180
 7769SOL    HW134940   3.174   3.105   9.719  0.4258 -0.7007  2.5064
 7769SOL    HW234941   3.065   3.120   9.816 -1.9468  1.1945 -1.4914
 7770SOL     OW34942   0.534   2.805   8.779 -0.0091  0.3937  0.1194
 7770SOL    HW134943   0.473   2.874   8.752  0.0537  0.0609 -0.8618
 7770SOL    HW234944   0.601   2.873   8.792  1.7740 -1.5121  0.9032
 7771SOL     OW34945   3.120   0.397   1.287 -0.4528  0.3877  0.0192
 7771SOL    HW134946   3.116   0.416   1.381  2.3484 -1.6886  0.5683
 7771SOL    HW234947   3.058   0.466   1.265  0.5425  1.3222  0.1700
 7772SOL     OW34948   2.180   2.978   3.313 -0.1305 -0.6532  0.3817
 7772SOL    HW134949   2.101   3.022   3.284 -0.0755  0.0652  1.3280
 7772SOL    HW234950   2.162   2.885   3.299  1.1034 -0.5429 -1.8790
 7773SOL     OW34951   3.020   4.306  10.393  0.0898  0.2229  0.3087
 7773SOL    HW134952   3.092   4.336  10.337  1.2321 -0.8508  1.1928
 7773SOL    HW234953   3.041   4.213  10.403 -0.6954  0.1869  1.6059
 7774SOL     OW34954   2.518   1.720  12.429  0.3953  0.2882  0.1641
 7774SOL    HW134955   2.523   1.634  12.389 -0.9893  0.4727 -0.4227
 7774SOL    HW234956   2.441   1.718  12.487  1.1180  0.1387  1.1219
 7775SOL     OW34957   0.254   0.619  11.933  0.1324  0.5329  0.1023
 7775SOL    HW134958   0.162   0.592  11.941 -0.2313  2.3047  1.7642
 7775SOL    HW234959   0.294   0.586  12.014 -1.3723  0.0501  0.6638
 7776SOL     OW34960   4.503   3.969   3.554  0.0189 -0.0364 -0.2873
 7776SOL    HW134961   4.469   3.997   3.639 -0.5011 -1.5030 -0.0156
 7776SOL    HW234962   4.537   4.053   3.524 -1.8439  0.5953 -0.6152
 7777SOL     OW34963   4.470   1.098  13.299 -0.6026  0.4911 -0.4749
 7777SOL    HW134964   4.537   1.033  13.321 -0.4898 -0.5312 -3.7546
 7777SOL    HW234965   4.406   1.034  13.267 -0.1164  0.4872 -1.4582
 7778SOL     OW34966   4.524   1.711   6.360  0.0791 -0.4932 -0.5168
 7778SOL    HW134967   4.462   1.782   6.377  0.6365 -0.2037  0.2921
 7778SOL    HW234968   4.527   1.658   6.441  0.4208 -0.3845 -0.4625
 7779SOL     OW34969   4.128   2.158   5.037  0.2773 -0.0123  0.0791
 7779SOL    HW134970   4.156   2.067   5.043 -0.0192 -0.1054  0.0470
 7779SOL    HW234971   4.141   2.198   5.123  1.1891  0.4149 -0.2581
 7780SOL     OW34972   0.836   4.073   1.923 -0.1656 -0.0143  0.2400
 7780SOL    HW134973   0.857   4.001   1.982 -0.1305  0.1987  0.4877
 7780SOL    HW234974   0.772   4.021   1.875  0.4095 -0.2183 -0.3078
 7781SOL     OW34975   3.763   3.771   4.040 -0.4662  0.1340 -0.0707
 7781SOL    HW134976   3.798   3.736   3.959 -2.1600 -1.3255 -0.1933
 7781SOL    HW234977   3.838   3.780   4.099 -1.6614 -3.7118  2.0872
 7782SOL     OW34978   0.846   3.176   2.016 -0.6261  0.2657 -0.4665
 7782SOL    HW134979   0.909   3.105   2.015 -1.6968 -0.6943  1.0186
 7782SOL    HW234980   0.894   3.240   1.961  1.4724  0.6805  1.8545
 7783SOL     OW34981   0.831   3.068   3.595 -0.1939 -0.2304  0.0181
 7783SOL    HW134982   0.861   3.148   3.552 -1.5814  0.5540  0.5249
 7783SOL    HW234983   0.870   3.085   3.680  0.5500  0.5992 -0.4918
 7784SOL     OW34984   1.488   1.215   4.755 -0.3386 -0.1726 -0.2489
 7784SOL    HW134985   1.561   1.184   4.700 -0.3549 -0.1397 -0.2890
 7784SOL    HW234986   1.463   1.294   4.707  1.2179  1.4796  1.6334
 7785SOL     OW34987   4.343   3.432   4.460 -0.1848 -0.1157 -0.2389
 7785SOL    HW134988   4.352   3.396   4.372  1.2020 -0.3541  0.0018
 7785SOL    HW234989   4.337   3.356   4.518 -1.5039  1.2021  1.3493
 7786SOL     OW34990   3.701   0.707   2.568  0.2861  0.2801 -0.5560
 7786SOL    HW134991   3.696   0.794   2.609 -4.6400 -1.0626  1.6577
 7786SOL    HW234992   3.782   0.720   2.519  0.0206 -1.2589 -1.3942
 7787SOL     OW34993   2.859   4.079   6.729  0.6264  0.4902  0.0712
 7787SOL    HW134994   2.921   4.085   6.802 -0.8720 -0.3852  1.4125
 7787SOL    HW234995   2.885   4.150   6.670  0.8402  1.0788  0.8744
 7788SOL     OW34996   0.995   2.997   2.845  0.4536 -0.1892  0.0318
 7788SOL    HW134997   0.937   3.023   2.916  1.4617 -0.0916  0.8169
 7788SOL    HW234998   1.039   2.921   2.883 -1.1086 -0.1710  1.8777
 7789SOL     OW34999   1.874   2.420   8.181 -0.0684  0.1430  0.7530
 7789SOL    HW135000   1.867   2.515   8.173  1.9458  0.2041 -0.2728
 7789SOL    HW235001   1.877   2.386   8.092 -0.0119 -4.2651  2.4253
 7790SOL     OW35002   4.219   3.303  17.358  0.3639  0.3416  0.1974
 7790SOL    HW135003   4.226   3.296  17.263  0.5488  0.2945  0.2147
 7790SOL    HW235004   4.292   3.358  17.386 -0.9361  0.9840  2.3202
 7791SOL     OW35005   0.627   4.021   6.820 -0.1697  0.6101 -0.3014
 7791SOL    HW135006   0.613   3.969   6.742  1.4842 -0.5622  0.1829
 7791SOL    HW235007   0.717   4.051   6.805 -0.1437  1.1298  0.8522
 7792SOL     OW35008   3.041   3.120   5.463 -0.2644 -0.1201 -0.2030
 7792SOL    HW135009   3.082   3.207   5.458 -1.2000  0.3968  1.1419
 7792SOL    HW235010   3.022   3.109   5.556  0.3920  0.6562  0.0257
 7793SOL     OW35011   2.074   3.207   5.070  0.1435  0.2821  0.2280
 7793SOL    HW135012   2.157   3.239   5.034  1.0748  0.4028  2.4741
 7793SOL    HW235013   2.043   3.294   5.095 -2.8842 -0.9170  0.6274
 7794SOL     OW35014   2.038   1.707  12.100  0.0900  0.1310  0.4051
 7794SOL    HW135015   2.064   1.794  12.069  1.0163  0.1248  1.1389
 7794SOL    HW235016   1.964   1.723  12.158  0.5289 -2.0901  1.6123
 7795SOL     OW35017   0.115   2.234  17.377  0.2300  0.2535  0.2639
 7795SOL    HW135018   0.180   2.190  17.432 -1.0591 -1.6689  0.2444
 7795SOL    HW235019   0.166   2.311  17.349  0.7347 -0.2168 -0.1062
 7796SOL     OW35020   1.112   3.428   6.830  0.1188  0.2259  0.1638
 7796SOL    HW135021   1.035   3.453   6.779  0.4314 -4.5013 -2.6355
 7796SOL    HW235022   1.115   3.493   6.900  2.2901  1.5063 -1.1525
 7797SOL     OW35023   3.440   1.192   9.643 -0.6371 -0.0827  0.2494
 7797SOL    HW135024   3.496   1.147   9.579  0.8710 -1.0577  2.2323
 7797SOL    HW235025   3.379   1.234   9.582  0.0628 -0.4320 -0.6972
 7798SOL     OW35026   0.128   3.016   5.093  0.7962 -0.7561 -0.8781
 7798SOL    HW135027   0.082   3.002   5.010 -2.0297 -0.6120  0.6609
 7798SOL    HW235028   0.150   3.108   5.091  0.5059 -0.6842 -0.8581
 7799SOL     OW35029   4.011   1.847   8.713  0.3510 -0.2054 -0.6858
 7799SOL    HW135030   3.967   1.926   8.744 -0.6903 -1.1796  0.3297
 7799SOL    HW235031   3.991   1.781   8.780 -0.6405 -0.2938 -1.0698
 7800SOL     OW35032   2.771   2.695   4.264  0.3681  0.2447 -0.0658
 7800SOL    HW135033   2.796   2.643   4.340 -0.1099  0.1492  0.0263
 7800SOL    HW235034   2.749   2.780   4.302 -0.8298  0.8545 -2.0797
 7801SOL     OW35035   0.755   2.792   4.952 -0.0623 -0.3142 -0.0050
 7801SOL    HW135036   0.675   2.752   4.986 -0.8572  0.5298 -0.8985
 7801SOL    HW235037   0.802   2.802   5.035  1.9582  0.8797 -1.3010
 7802SOL     OW35038   1.265   0.354   4.217 -0.1008 -0.1436  0.6324
 7802SOL    HW135039   1.192   0.389   4.166 -0.3934 -1.9538 -0.1780
 7802SOL    HW235040   1.308   0.438   4.233 -1.1456  0.3716  0.7376
 7803SOL     OW35041   1.054   3.672   4.170 -0.1463 -0.8547  0.1257
 7803SOL    HW135042   1.059   3.760   4.208  0.8580 -1.2786  0.9788
 7803SOL    HW235043   1.088   3.691   4.082 -2.5373 -0.5870 -0.7370
 7804SOL     OW35044   1.252   0.492   9.330  0.3971 -0.0670 -0.2677
 7804SOL    HW135045   1.177   0.482   9.271 -0.3148  1.8605  0.3142
 7804SOL    HW235046   1.241   0.423   9.395  0.0420 -0.3122 -0.5841
 7805SOL     OW35047   4.664   1.738  13.419 -0.3620  0.2391 -0.1747
 7805SOL    HW135048   0.015   1.757  13.458 -0.0320 -0.9063 -0.3286
 7805SOL    HW235049   4.696   1.697  13.338  0.2417 -2.1603  1.2916
 7806SOL     OW35050   0.452   4.212  17.034  0.3195  0.2941  0.3824
 7806SOL    HW135051   0.419   4.149  17.099  0.4985 -0.4044 -0.2061
 7806SOL    HW235052   0.433   4.284  17.095  0.0077 -0.1839  0.8532
 7807SOL     OW35053   1.406   0.116   4.366 -0.4542  0.0936 -0.2296
 7807SOL    HW135054   1.396   0.208   4.341 -0.2713  0.4254  0.8993
 7807SOL    HW235055   1.500   0.102   4.377 -0.7820 -0.0617  2.4239
 7808SOL     OW35056   3.156   4.286   9.212 -0.3790  0.2799 -0.1471
 7808SOL    HW135057   3.072   4.260   9.174 -0.3908 -1.2363  0.9628
 7808SOL    HW235058   3.194   4.332   9.137  0.7880 -0.7976 -0.2043
 7809SOL     OW35059   3.837   4.641   2.602  0.1010 -0.5045 -0.0797
 7809SOL    HW135060   3.786   4.643   2.521  0.3048 -0.2035 -0.2022
 7809SOL    HW235061   3.769   4.625   2.667  0.2298  0.3715  0.2748
 7810SOL     OW35062   1.263   2.873   4.592  0.3281 -0.0019  0.2841
 7810SOL    HW135063   1.325   2.854   4.663  1.3238 -2.2055 -1.1696
 7810SOL    HW235064   1.204   2.929   4.643 -1.7056 -2.3211  0.4860
 7811SOL     OW35065   2.169   2.802  16.545 -0.0691 -0.9195  0.3126
 7811SOL    HW135066   2.236   2.772  16.607  0.6605  0.2746  0.1184
 7811SOL    HW235067   2.125   2.873  16.591 -0.0977 -0.0119 -1.1172
 7812SOL     OW35068   2.372   0.447   3.053 -0.5601  0.0836 -0.3557
 7812SOL    HW135069   2.363   0.455   2.958 -0.5940  1.6010 -0.2367
 7812SOL    HW235070   2.292   0.486   3.087 -2.0212 -1.0023 -2.5627
 7813SOL     OW35071   1.150   1.939   1.870  0.1454  0.3280 -0.8199
 7813SOL    HW135072   1.167   1.902   1.784 -0.1448  0.8901 -1.1125
 7813SOL    HW235073   1.237   1.957   1.906  0.2923 -0.0088 -1.0143
 7814SOL     OW35074   2.957   0.372   1.807  0.1751 -0.2442 -0.0971
 7814SOL    HW135075   2.969   0.465   1.826  0.1682 -0.5698  1.5033
 7814SOL    HW235076   2.915   0.351   1.890 -0.3418  0.1790 -0.2494
 7815SOL     OW35077   3.435   4.412   9.644  0.2360 -0.1699 -0.0727
 7815SOL    HW135078   3.387   4.407   9.561  1.5582  1.5305 -0.9341
 7815SOL    HW235079   3.485   4.331   9.639 -0.1204 -0.3069 -1.3921
 7816SOL     OW35080   1.173   2.019   7.614  0.6093 -0.0247 -0.4311
 7816SOL    HW135081   1.091   2.044   7.655 -0.5155 -1.3591 -1.8413
 7816SOL    HW235082   1.171   1.924   7.628 -0.9620  0.4814  2.6042
 7817SOL     OW35083   0.942   3.821  14.044 -0.0626  0.3159 -0.3734
 7817SOL    HW135084   1.029   3.855  14.066  0.5591  0.4147 -2.8625
 7817SOL    HW235085   0.955   3.731  14.073  0.4598  0.1372 -1.1426
 7818SOL     OW35086   0.611   4.337  13.670  0.3864  0.5401 -0.3042
 7818SOL    HW135087   0.664   4.409  13.705  0.6116  0.9689 -1.5253
 7818SOL    HW235088   0.546   4.316  13.737  1.6831 -0.5626  0.6115
 7819SOL     OW35089   1.731   3.566   1.333 -0.1778  0.6703  0.5735
 7819SOL    HW135090   1.719   3.660   1.322 -1.0356  0.2064 -2.3807
 7819SOL    HW235091   1.695   3.568   1.422 -0.5292  1.2004  0.4188
 7820SOL     OW35092   1.296   0.455   5.390 -0.6474 -0.2426 -0.1674
 7820SOL    HW135093   1.358   0.503   5.444 -0.0347 -1.1117 -0.0946
 7820SOL    HW235094   1.269   0.524   5.329 -2.6986 -0.6666  0.2648
 7821SOL     OW35095   3.859   0.292   7.440  0.3035 -0.3402 -0.3704
 7821SOL    HW135096   3.884   0.200   7.437 -1.8143 -0.8149 -3.3433
 7821SOL    HW235097   3.947   0.330   7.450 -0.5760  2.4021 -3.1250
 7822SOL     OW35098   0.130   4.669   4.466  0.6179  0.0699 -0.4239
 7822SOL    HW135099   0.190   4.721   4.519  1.5173  1.9251 -3.3141
 7822SOL    HW235100   0.175   4.585   4.453 -0.3369  0.1162 -3.8336
 7823SOL     OW35101   3.415   4.538   3.156  0.1154 -0.6572 -0.1872
 7823SOL    HW135102   3.370   4.606   3.206  0.4191 -0.3546 -0.3277
 7823SOL    HW235103   3.345   4.491   3.110  0.8839 -2.0095  0.0393
 7824SOL     OW35104   4.592   2.834   3.939  0.5258  0.4356  0.1425
 7824SOL    HW135105   4.594   2.881   3.855 -0.5709 -0.9830 -0.6876
 7824SOL    HW235106   4.683   2.824   3.965  0.1718 -1.4303  0.6795
 7825SOL     OW35107   1.532   1.087   8.551  0.4446 -0.2367  1.0080
 7825SOL    HW135108   1.546   1.136   8.469  1.5772 -0.6205  0.9794
 7825SOL    HW235109   1.480   1.145   8.607  1.4343  1.0464  0.6110
 7826SOL     OW35110   0.526   3.957   8.838 -0.8029 -0.0287 -0.0979
 7826SOL    HW135111   0.546   3.961   8.931 -1.7664  0.4378  0.0897
 7826SOL    HW235112   0.485   3.870   8.839  1.9997 -1.3097  1.2216
 7827SOL     OW35113   0.800   0.752   2.164 -0.4659 -0.4331 -0.0891
 7827SOL    HW135114   0.860   0.684   2.134  1.6994  0.6415  1.8364
 7827SOL    HW235115   0.851   0.827   2.133  0.4919 -1.1228 -0.1976
 7828SOL     OW35116   4.332   2.446   8.598 -0.0168  0.4450 -0.1218
 7828SOL    HW135117   4.283   2.367   8.621 -3.3657  2.7888  0.8070
 7828SOL    HW235118   4.411   2.434   8.651  0.3385  2.3509 -0.2288
 7829SOL     OW35119   0.549   2.004   0.530 -0.5468  0.0003 -0.1473
 7829SOL    HW135120   0.492   2.013   0.453 -2.3268  0.1684  1.1958
 7829SOL    HW235121   0.614   2.071   0.509  0.6208 -0.9417  0.4239
 7830SOL     OW35122   2.663   3.581   2.088 -0.1741  0.1623 -0.4749
 7830SOL    HW135123   2.701   3.521   2.024 -2.9424 -0.1008 -1.8643
 7830SOL    HW235124   2.600   3.614   2.024  1.8682  1.4045 -1.8600
 7831SOL     OW35125   3.694   0.468   6.916  0.0610  0.4275  0.0008
 7831SOL    HW135126   3.600   0.489   6.914 -0.1437 -0.4179  0.7615
 7831SOL    HW235127   3.709   0.403   6.847  0.6101 -1.2513  1.6891
 7832SOL     OW35128   3.207   4.707   3.290  0.4803  0.0936 -0.2737
 7832SOL    HW135129   3.228   0.034   3.361 -1.7415  0.7841 -0.2121
 7832SOL    HW235130   3.148   4.644   3.331 -0.6823  2.6070  1.9656
 7833SOL     OW35131   1.501   0.882   1.168  0.0419 -0.0364  0.4175
 7833SOL    HW135132   1.556   0.812   1.204  1.9870  1.6885  0.8046
 7833SOL    HW235133   1.492   0.851   1.078 -3.5114  0.3436  0.6710
 7834SOL     OW35134   0.280   3.523   6.697 -0.3737  0.2999 -0.6346
 7834SOL    HW135135   0.281   3.596   6.758  1.0697 -1.0178  0.9303
 7834SOL    HW235136   0.283   3.576   6.618  2.0119  1.9774  0.5780
 7835SOL     OW35137   4.357   2.866   7.150  0.5549 -0.1763 -0.4064
 7835SOL    HW135138   4.380   2.956   7.176  0.8563 -0.1284 -0.8523
 7835SOL    HW235139   4.395   2.828   7.229  2.5999  4.0191  0.6416
 7836SOL     OW35140   3.070   1.726   5.313  0.4047 -0.7514  0.3701
 7836SOL    HW135141   2.999   1.682   5.267 -0.0397 -1.4647  1.7599
 7836SOL    HW235142   3.068   1.679   5.396 -3.6190  0.5142  0.9924
 7837SOL     OW35143   4.231   2.041   1.364  0.1794 -0.0494 -0.1905
 7837SOL    HW135144   4.310   2.014   1.317 -1.0430 -0.4018 -2.0551
 7837SOL    HW235145   4.170   2.045   1.291 -1.6897 -0.7007  1.3218
 7838SOL     OW35146   3.749   4.548  10.897  0.2043 -0.4130  0.6198
 7838SOL    HW135147   3.798   4.629  10.883 -1.2738  0.4631  0.5667
 7838SOL    HW235148   3.683   4.562  10.830 -0.3320  1.5956  1.5767
 7839SOL     OW35149   0.519   2.192   8.102 -0.0941  0.0413  0.7830
 7839SOL    HW135150   0.528   2.121   8.167 -3.3843 -0.5133  0.5975
 7839SOL    HW235151   0.458   2.254   8.143 -2.5380 -0.1457 -2.6236
 7840SOL     OW35152   2.949   2.422   1.656 -0.4650  0.3117  0.8620
 7840SOL    HW135153   2.930   2.483   1.586  1.1085  0.3866  0.4888
 7840SOL    HW235154   2.862   2.426   1.695 -1.2498  1.8138 -1.0873
 7841SOL     OW35155   1.506   0.251   2.168 -0.0601  0.1181 -0.3204
 7841SOL    HW135156   1.564   0.175   2.173  0.6472  0.7451  0.9619
 7841SOL    HW235157   1.448   0.213   2.101 -0.5774 -1.6962  1.1564
 7842SOL     OW35158   1.610   2.301   9.010 -0.4177 -0.4779  0.5643
 7842SOL    HW135159   1.663   2.246   8.952 -0.8345  0.6135 -0.8435
 7842SOL    HW235160   1.667   2.288   9.086  0.0041  0.9392  0.5099
 7843SOL     OW35161   4.100   0.705   6.690 -0.3378 -0.0788  0.6955
 7843SOL    HW135162   4.045   0.703   6.612  0.1099  0.4757  0.3711
 7843SOL    HW235163   4.038   0.658   6.746 -1.0135  2.9524  2.4694
 7844SOL     OW35164   0.646   1.926   7.243  0.0536  0.3755  0.3593
 7844SOL    HW135165   0.742   1.924   7.244  0.1046  2.4880  2.1252
 7844SOL    HW235166   0.624   1.833   7.245 -0.7489  0.5521 -0.5433
 7845SOL     OW35167   1.175   2.382   5.611 -0.1345  0.5153 -0.3576
 7845SOL    HW135168   1.240   2.347   5.673 -0.1639  3.4084  1.2938
 7845SOL    HW235169   1.148   2.300   5.571  3.6155 -1.1602  0.5003
 7846SOL     OW35170   2.571   3.221   0.718 -0.2402 -0.0129  0.1414
 7846SOL    HW135171   2.650   3.238   0.666  0.6033  0.4162  1.5473
 7846SOL    HW235172   2.546   3.132   0.694 -0.6962  0.0874  0.2477
 7847SOL     OW35173   0.860   0.482   4.663  0.4585  0.1081  0.2591
 7847SOL    HW135174   0.954   0.484   4.643  0.8013 -1.7384  1.7289
 7847SOL    HW235175   0.852   0.512   4.753  0.2755 -1.3270  0.7134
 7848SOL     OW35176   3.941   4.561   2.271 -0.4812  0.0694 -0.1130
 7848SOL    HW135177   3.998   4.539   2.344  1.2906  3.8835 -0.3504
 7848SOL    HW235178   3.883   4.484   2.272  0.3814 -0.5995 -1.1561
 7849SOL     OW35179   1.298   1.812   7.979 -0.9564 -0.1759  0.2886
 7849SOL    HW135180   1.321   1.896   8.019 -0.5161 -0.4477  0.6041
 7849SOL    HW235181   1.225   1.790   8.037 -0.9399 -3.5584 -0.9734
 7850SOL     OW35182   1.735   1.726   7.909  0.0462 -0.6921 -0.6428
 7850SOL    HW135183   1.694   1.752   7.827 -0.1635 -0.2090 -0.3863
 7850SOL    HW235184   1.658   1.688   7.951 -0.6385  1.7747  0.3527
 7851SOL     OW35185   0.427   0.620  14.775  0.1478 -0.2617  0.2686
 7851SOL    HW135186   0.431   0.693  14.714 -1.3485  1.9537  2.8542
 7851SOL    HW235187   0.417   0.540  14.722  1.0717  1.1815 -2.0547
 7852SOL     OW35188   4.286   2.443  16.571 -0.6163 -0.2451 -0.2075
 7852SOL    HW135189   4.275   2.538  16.578 -0.4623 -0.2634  0.3251
 7852SOL    HW235190   4.378   2.431  16.593 -0.1214  1.5408 -1.2856
 7853SOL     OW35191   0.100   0.761  12.503 -0.2699 -0.4338 -0.1514
 7853SOL    HW135192   0.106   0.670  12.530 -1.5738 -0.7265 -0.8096
 7853SOL    HW235193   0.157   0.802  12.567 -1.2610  0.5202  0.1145
 7854SOL     OW35194   0.288   4.180   5.886 -0.1074  0.4361 -0.1067
 7854SOL    HW135195   0.245   4.194   5.802 -1.5966 -1.6872  0.2982
 7854SOL    HW235196   0.228   4.229   5.942  0.6355  0.7015  0.4623
 7855SOL     OW35197   4.427   4.674   3.462 -0.8398  0.1754  0.2480
 7855SOL    HW135198   4.339   4.641   3.475 -0.4258 -0.9728  0.0834
 7855SOL    HW235199   4.417   0.033   3.482  0.5147  0.5959 -0.9985
 7856SOL     OW35200   3.038   0.571   6.046 -0.0953  0.3856 -0.9470
 7856SOL    HW135201   2.998   0.517   5.977 -0.5085 -2.0975  1.1998
 7856SOL    HW235202   3.104   0.510   6.080 -0.1896  0.9269  0.2064
 7857SOL     OW35203   0.990   1.930  12.188  0.0191  0.7236 -0.4020
 7857SOL    HW135204   0.949   1.844  12.183  1.7852 -0.2849  2.2119
 7857SOL    HW235205   1.024   1.938  12.277  0.2996  0.4384 -0.4824
 7858SOL     OW35206   3.271   2.677   5.760  0.0610 -0.1549 -0.5052
 7858SOL    HW135207   3.355   2.699   5.718 -0.0421 -1.3197 -1.3233
 7858SOL    HW235208   3.221   2.754   5.731  0.0607  0.4604  1.1151
 7859SOL     OW35209   4.712   3.799   7.217 -0.1487 -0.4744 -0.1476
 7859SOL    HW135210   0.040   3.741   7.174  1.1937 -0.6807  2.0657
 7859SOL    HW235211   4.650   3.835   7.153 -0.6463 -0.9421  0.0697
 7860SOL     OW35212   0.809   1.500   5.254  0.4778 -0.6994  0.3175
 7860SOL    HW135213   0.903   1.482   5.261  0.7489  0.8610  0.7051
 7860SOL    HW235214   0.807   1.584   5.208  0.0576 -0.6925  0.3544
 7861SOL     OW35215   4.247   0.507   3.894  0.3062  0.8341 -0.1609
 7861SOL    HW135216   4.273   0.461   3.974 -1.3727 -0.7466 -0.5437
 7861SOL    HW235217   4.184   0.573   3.922  0.6504  0.8917  0.4833
 7862SOL     OW35218   0.463   3.174  13.799  0.2704  0.2264  0.0109
 7862SOL    HW135219   0.552   3.160  13.766  0.4510  0.2961  0.4668
 7862SOL    HW235220   0.403   3.129  13.740  1.6147  0.3755 -1.4856
 7863SOL     OW35221   3.529   1.926  15.506  0.3459  0.6891  0.1039
 7863SOL    HW135222   3.601   1.896  15.560  0.6095 -0.9236 -1.1504
 7863SOL    HW235223   3.529   1.876  15.424  1.6056  0.5937  0.1662
 7864SOL     OW35224   2.551   2.793  12.342  0.6888 -0.8184 -0.4792
 7864SOL    HW135225   2.603   2.818  12.419  0.0565 -0.4383 -0.1785
 7864SOL    HW235226   2.615   2.751  12.285 -0.1781 -1.5181 -0.9215
 7865SOL     OW35227   2.938   1.285   4.045 -0.8050 -0.4671  0.3446
 7865SOL    HW135228   2.973   1.362   4.000 -1.2161  0.6533  1.9517
 7865SOL    HW235229   2.979   1.209   4.004  2.4848  1.1066  0.7696
 7866SOL     OW35230   2.025   3.117  11.751  0.2614 -0.4399 -0.0984
 7866SOL    HW135231   1.937   3.087  11.774  0.3985 -1.1354 -0.4815
 7866SOL    HW235232   2.016   3.141  11.659  0.4873 -0.9072 -0.2417
 7867SOL     OW35233   1.548   3.410  17.664 -0.3058 -0.3574 -0.3501
 7867SOL    HW135234   1.584   3.484  17.616 -1.7322  2.1872  2.5212
 7867SOL    HW235235   1.553   3.451   0.015  0.0964  1.4203 -1.2222
 7868SOL     OW35236   4.722   4.548   4.832  0.1355 -0.2289  0.0452
 7868SOL    HW135237   4.707   4.540   4.926  1.1440 -0.2585  0.2075
 7868SOL    HW235238   0.034   4.632   4.841 -0.7352  0.2378  0.1045
 7869SOL     OW35239   1.817   3.294  17.669  0.6113  0.0587 -0.4846
 7869SOL    HW135240   1.883   3.353  17.705  1.7077 -0.2381 -2.0301
 7869SOL    HW235241   1.743   3.301  17.730  2.3883 -0.2935  1.7134
 7870SOL     OW35242   3.382   2.419  16.913 -0.7773  0.2018 -0.7254
 7870SOL    HW135243   3.446   2.413  16.841 -1.0289 -1.9282 -0.7802
 7870SOL    HW235244   3.416   2.490  16.966 -1.2550 -0.7773  0.8988
 7871SOL     OW35245   1.091   2.630   5.686 -0.3225 -0.0717  0.0365
 7871SOL    HW135246   1.019   2.646   5.625 -0.9119  1.0301  1.0114
 7871SOL    HW235247   1.127   2.549   5.651 -0.1600  0.5229 -1.1603
 7872SOL     OW35248   0.767   0.798   9.619 -0.1488 -0.2265  0.1243
 7872SOL    HW135249   0.739   0.712   9.650  0.8011 -1.2941 -1.9724
 7872SOL    HW235250   0.789   0.778   9.528  1.5896 -0.1439  0.5260
 7873SOL     OW35251   2.735   2.717   0.609 -0.4602 -0.3017  0.1326
 7873SOL    HW135252   2.815   2.764   0.586 -0.1349 -0.5797  0.7069
 7873SOL    HW235253   2.702   2.766   0.684 -1.8197  0.5130 -1.0027
 7874SOL     OW35254   3.963   0.094   6.168  0.4988 -0.1759 -0.6762
 7874SOL    HW135255   4.026   0.024   6.153 -0.9120 -1.4186 -0.7895
 7874SOL    HW235256   3.945   0.084   6.262 -0.0987 -3.2109 -1.1306
 7875SOL     OW35257   4.489   0.628  14.737 -0.0814 -0.5560 -0.3220
 7875SOL    HW135258   4.492   0.533  14.746 -1.1127 -0.7417 -2.1090
 7875SOL    HW235259   4.395   0.635  14.753 -0.1221  1.4413 -1.3319
 7876SOL     OW35260   1.624   2.905   9.306 -0.3673 -0.3327 -0.5062
 7876SOL    HW135261   1.558   2.855   9.354 -0.5420  0.1749 -0.2209
 7876SOL    HW235262   1.577   2.980   9.271 -0.3224  0.0149  0.1916
 7877SOL     OW35263   1.608   0.233   3.528  0.3235 -0.1168 -0.3467
 7877SOL    HW135264   1.573   0.258   3.442 -2.8254 -0.3197  0.8472
 7877SOL    HW235265   1.532   0.191   3.570  0.9154 -0.7968  0.0522
 7878SOL     OW35266   2.365   0.074   4.106  0.5665  0.1463  0.0584
 7878SOL    HW135267   2.304   0.080   4.179  0.6685  0.2070  0.1396
 7878SOL    HW235268   2.365   4.716   4.083 -2.6098 -0.0829  1.0545
 7879SOL     OW35269   0.283   0.182   1.907  0.5365 -0.3116  0.7436
 7879SOL    HW135270   0.332   0.155   1.829  0.7739  0.1604  0.7361
 7879SOL    HW235271   0.319   0.267   1.932 -1.7540  0.3909  1.7156
 7880SOL     OW35272   0.485   2.849   3.018  0.1491  0.2432 -0.0988
 7880SOL    HW135273   0.493   2.755   3.032  1.5068  0.5956  1.3919
 7880SOL    HW235274   0.532   2.880   3.095  0.6164 -1.4793  0.3054
 7881SOL     OW35275   2.941   0.313   2.362 -0.1314  0.4491  0.1131
 7881SOL    HW135276   2.957   0.221   2.339 -1.4574 -0.0985  1.4248
 7881SOL    HW235277   3.029   0.332   2.396  0.7151 -2.3991 -0.4291
 7882SOL     OW35278   1.964   1.257   8.473  0.6293  0.0282 -0.1721
 7882SOL    HW135279   2.040   1.258   8.532 -0.7791  0.6831  1.5962
 7882SOL    HW235280   1.994   1.320   8.407  2.5416 -1.7480 -1.0218
 7883SOL     OW35281   1.296   2.828   2.703  0.0478 -0.1975 -0.1393
 7883SOL    HW135282   1.347   2.753   2.671 -0.8651 -0.0660 -1.8699
 7883SOL    HW235283   1.254   2.790   2.779 -2.6281 -1.2592 -2.1743
 7884SOL     OW35284   0.291   2.013   2.428 -0.3580 -0.1744 -0.6744
 7884SOL    HW135285   0.233   2.067   2.482  1.4928  1.0740  0.0622
 7884SOL    HW235286   0.241   2.016   2.346 -1.7389  2.5786  0.2588
 7885SOL     OW35287   0.711   0.552   9.732  0.1252  0.7013  0.1829
 7885SOL    HW135288   0.757   0.468   9.731  0.3376  0.8110  0.7568
 7885SOL    HW235289   0.646   0.540   9.801  0.7070  1.0664  0.7911
 7886SOL     OW35290   1.559   1.323   9.097 -0.9330  0.6702  0.0825
 7886SOL    HW135291   1.641   1.372   9.091 -0.1763 -0.8163 -1.7270
 7886SOL    HW235292   1.542   1.334   9.003 -3.6184 -1.8830  0.2637
 7887SOL     OW35293   4.733   1.494  13.967  0.6200  0.1792 -0.1781
 7887SOL    HW135294   0.066   1.542  14.015  0.4826 -1.5438  1.7502
 7887SOL    HW235295   4.688   1.561  13.916 -0.9601  1.0559  2.3377
 7888SOL     OW35296   0.178   2.289   4.133  0.7261 -0.1208 -0.5215
 7888SOL    HW135297   0.119   2.361   4.110 -0.3518 -1.2320 -1.2041
 7888SOL    HW235298   0.232   2.300   4.056  0.0249 -0.6700 -1.0901
 7889SOL     OW35299   3.812   3.914  14.515  0.2788  0.0597 -0.1779
 7889SOL    HW135300   3.900   3.948  14.531  0.3072  0.9631 -2.2310
 7889SOL    HW235301   3.761   3.962  14.580 -0.6331 -1.2928  0.1165
 7890SOL     OW35302   1.078   2.076   3.848 -0.5182 -0.0568  0.0838
 7890SOL    HW135303   1.093   2.035   3.763  0.0788  0.0252  0.1465
 7890SOL    HW235304   1.149   2.050   3.907 -0.5772 -1.5748 -0.5305
 7891SOL     OW35305   0.204   3.817   5.791  0.1437  0.5250 -0.2371
 7891SOL    HW135306   0.289   3.816   5.747 -0.0097 -0.6980 -0.5030
 7891SOL    HW235307   0.148   3.788   5.719 -0.7024 -0.3563  0.7711
 7892SOL     OW35308   0.330   3.876   2.116 -0.0370  0.6814  0.3288
 7892SOL    HW135309   0.240   3.910   2.112  0.3046  1.5491  0.0552
 7892SOL    HW235310   0.338   3.904   2.208 -0.6332 -1.1186  0.9216
 7893SOL     OW35311   3.796   1.006   9.243  0.0606 -0.2759  0.2846
 7893SOL    HW135312   3.748   0.923   9.236 -0.5082 -0.0145  1.1106
 7893SOL    HW235313   3.851   0.995   9.165  1.7199  0.6382  1.3312
 7894SOL     OW35314   2.478   2.772  14.086  0.0461 -0.0348  0.0930
 7894SOL    HW135315   2.487   2.845  14.147  1.8778  1.1933 -1.6275
 7894SOL    HW235316   2.396   2.737  14.120 -0.9023  1.0106 -1.1362
 7895SOL     OW35317   4.429   0.936   0.222  0.3400  0.8950 -0.0563
 7895SOL    HW135318   4.339   0.938   0.189  0.9425  3.5779 -1.5928
 7895SOL    HW235319   4.447   1.027   0.198 -2.8133  1.4876 -0.1380
 7896SOL     OW35320   0.717   0.616   4.442  0.1026 -0.0180  0.4253
 7896SOL    HW135321   0.708   0.592   4.534  0.8277  0.0830  0.5204
 7896SOL    HW235322   0.796   0.670   4.452 -0.1455 -0.1597  3.1035
 7897SOL     OW35323   2.949   3.990  10.185 -0.0022  0.4128  0.0162
 7897SOL    HW135324   2.883   4.045  10.227 -0.4153 -0.8147  0.9832
 7897SOL    HW235325   3.020   4.002  10.248 -0.5127  2.3185  0.2471
 7898SOL     OW35326   3.525   4.151   9.532 -0.3198 -0.1011 -0.0582
 7898SOL    HW135327   3.619   4.158   9.546 -0.8218  1.1696  2.7617
 7898SOL    HW235328   3.521   4.077   9.472  1.3511  0.0343 -0.3323
 7899SOL     OW35329   0.794   0.583   7.366 -0.8562  0.2021  0.0099
 7899SOL    HW135330   0.887   0.604   7.371 -1.1985  1.7945 -0.5731
 7899SOL    HW235331   0.779   0.659   7.310 -3.7202 -0.4071 -0.0176
 7900SOL     OW35332   1.814   3.735   9.378 -0.1144 -0.2550  0.3547
 7900SOL    HW135333   1.836   3.821   9.342 -1.7467  0.9240  2.2004
 7900SOL    HW235334   1.868   3.737   9.457 -2.4763  0.5526  1.9344
 7901SOL     OW35335   0.500   1.033   7.849 -0.4322  0.2499 -0.6359
 7901SOL    HW135336   0.497   0.937   7.848 -2.7221  0.2920  0.8252
 7901SOL    HW235337   0.594   1.048   7.861 -0.5591  1.1408 -0.8017
 7902SOL     OW35338   3.983   1.157   4.056  0.4374 -0.4021 -0.4102
 7902SOL    HW135339   4.068   1.181   4.018 -0.2079  0.4310 -1.2933
 7902SOL    HW235340   3.928   1.189   3.985 -1.6173  1.0585  1.8435
 7903SOL     OW35341   0.372   2.033  15.962  0.4467  0.4332 -0.0368
 7903SOL    HW135342   0.323   2.056  15.883  0.9745 -0.3937 -0.6089
 7903SOL    HW235343   0.458   2.072  15.945  0.8409 -0.4750 -0.1292
 7904SOL     OW35344   0.321   1.485  10.877 -0.3512 -0.3073 -0.1002
 7904SOL    HW135345   0.302   1.464  10.786 -2.9608 -0.7123  0.5360
 7904SOL    HW235346   0.262   1.426  10.923 -2.8178  1.6826 -0.7350
 7905SOL     OW35347   2.342   4.156   8.520 -0.0888  0.0035 -0.0591
 7905SOL    HW135348   2.299   4.094   8.462 -1.0352 -0.1301  0.7869
 7905SOL    HW235349   2.337   4.244   8.482  2.3411 -0.1824 -0.8504
 7906SOL     OW35350   0.378   3.215   7.865  0.4317 -0.4877 -0.4025
 7906SOL    HW135351   0.421   3.208   7.780  0.5392 -1.4643 -0.2594
 7906SOL    HW235352   0.430   3.155   7.917  0.4047 -1.9744 -2.0805
 7907SOL     OW35353   4.328   3.807   1.933  0.3739 -0.0158 -0.7362
 7907SOL    HW135354   4.277   3.884   1.907  0.4505  0.4321  0.4495
 7907SOL    HW235355   4.273   3.779   2.007 -2.2289  1.4104 -2.1301
 7908SOL     OW35356   1.817   1.217   7.562 -0.2566 -0.0103 -0.1876
 7908SOL    HW135357   1.744   1.156   7.553  0.7743 -0.8750 -2.7407
 7908SOL    HW235358   1.882   1.148   7.545  0.2055  0.1563  0.8855
 7909SOL     OW35359   2.004   0.844  14.120  0.0720 -0.3080  0.1109
 7909SOL    HW135360   2.054   0.773  14.081  2.1332  1.6199 -0.7675
 7909SOL    HW235361   1.979   0.887  14.038 -0.9345 -0.8298  0.1456
 7910SOL     OW35362   4.237   1.042  11.086 -0.0617  0.1457  0.1967
 7910SOL    HW135363   4.330   1.029  11.106  0.0106  0.0313 -0.2204
 7910SOL    HW235364   4.200   1.042  11.175  1.7001  2.6073  0.9240
 7911SOL     OW35365   1.426   4.583  17.069 -0.0077  0.0053 -0.5446
 7911SOL    HW135366   1.443   4.628  17.152  0.0645 -0.6903 -0.1847
 7911SOL    HW235367   1.332   4.569  17.075 -0.0526  1.3407  1.6482
 7912SOL     OW35368   4.621   4.199   7.800  0.2957  0.1120  0.9295
 7912SOL    HW135369   4.678   4.131   7.835 -1.4922 -0.7592  2.1224
 7912SOL    HW235370   4.686   4.267   7.782  1.8341 -2.3456 -2.7203
 7913SOL     OW35371   1.569   3.783   4.836  0.1069 -0.6105 -0.0191
 7913SOL    HW135372   1.649   3.835   4.825 -0.3082  0.3478  1.5021
 7913SOL    HW235373   1.563   3.787   4.931  3.4560 -0.1153  0.1726
 7914SOL     OW35374   1.987   3.561   1.876  0.0127 -0.0238 -0.1990
 7914SOL    HW135375   1.982   3.465   1.869 -1.9173  0.0629  0.0635
 7914SOL    HW235376   1.893   3.569   1.892 -0.1697 -1.7597 -0.3436
 7915SOL     OW35377   2.391   0.738   1.950  0.1594  0.4855  0.0753
 7915SOL    HW135378   2.481   0.764   1.968  0.3453 -0.5674  0.7030
 7915SOL    HW235379   2.348   0.819   1.924  1.0199  0.0702 -2.6453
 7916SOL     OW35380   1.919   4.622   9.121  0.0864 -0.1620 -0.0762
 7916SOL    HW135381   1.926   4.616   9.025  1.9886  2.2508 -0.0867
 7916SOL    HW235382   1.849   4.562   9.148 -0.2205  0.1117 -0.2478
 7917SOL     OW35383   2.588   4.106   7.404  0.2407  0.2597  0.5741
 7917SOL    HW135384   2.634   4.079   7.483  1.6338  1.4437  0.1763
 7917SOL    HW235385   2.518   4.150   7.452 -0.6697 -0.4377 -0.1229
 7918SOL     OW35386   2.160   0.639  14.037 -0.3324  0.0835  0.0114
 7918SOL    HW135387   2.234   0.689  14.004 -1.7923  0.6569 -2.3831
 7918SOL    HW235388   2.150   0.568  13.973 -1.8207 -1.2289  1.6712
 7919SOL     OW35389   2.375   3.916  11.096 -0.4086 -0.2819  0.3523
 7919SOL    HW135390   2.353   3.828  11.128 -1.9799  0.6372  1.8450
 7919SOL    HW235391   2.332   3.928  11.012  1.1041  1.7544 -0.1492
 7920SOL     OW35392   1.516   2.443   6.150 -0.2082  0.4967  0.7431
 7920SOL    HW135393   1.463   2.516   6.118  0.0129  0.4651  0.2975
 7920SOL    HW235394   1.475   2.374   6.096  1.8291 -0.6095  0.6087
 7921SOL     OW35395   1.607   0.679   4.894  0.2866 -0.0433 -0.4673
 7921SOL    HW135396   1.658   0.754   4.922 -0.6500  0.0592  1.0196
 7921SOL    HW235397   1.652   0.601   4.928 -0.0201  0.4892  1.1861
 7922SOL     OW35398   3.279   0.455  10.464  0.0833 -0.0220  0.0828
 7922SOL    HW135399   3.271   0.464  10.558 -3.2242  1.6781 -0.3648
 7922SOL    HW235400   3.274   0.360  10.454 -0.0571  0.0160 -0.2323
 7923SOL     OW35401   0.786   1.773   5.186  0.0652  0.1665  0.8003
 7923SOL    HW135402   0.814   1.863   5.205 -0.3576  0.3896  0.3744
 7923SOL    HW235403   0.839   1.752   5.109 -2.6505  0.7987 -1.2388
 7924SOL     OW35404   3.643   2.176   5.067 -0.2222 -0.1939 -0.4539
 7924SOL    HW135405   3.605   2.239   5.128 -1.5716 -1.4167 -0.0446
 7924SOL    HW235406   3.723   2.223   5.043 -2.1202  2.2686 -1.9751
 7925SOL     OW35407   1.870   2.734   2.102 -0.4130  0.0387 -0.3519
 7925SOL    HW135408   1.896   2.824   2.083 -3.0186  1.0209  0.6810
 7925SOL    HW235409   1.836   2.705   2.018 -1.4416 -0.8822  0.3742
 7926SOL     OW35410   4.194   2.279   5.264  0.1697  0.2190  0.1791
 7926SOL    HW135411   4.146   2.313   5.339 -0.5415 -0.6441  0.1145
 7926SOL    HW235412   4.279   2.322   5.272 -0.4213  1.1322  1.5464
 7927SOL     OW35413   1.351   4.272   6.739 -0.4074 -0.3489 -0.2817
 7927SOL    HW135414   1.323   4.357   6.706 -1.2476 -0.7509 -0.5955
 7927SOL    HW235415   1.310   4.218   6.672  1.6668 -3.5032  0.9585
 7928SOL     OW35416   2.544   0.840  10.843  0.2047  0.1012  0.1906
 7928SOL    HW135417   2.505   0.898  10.778 -0.1695 -0.2236  0.1268
 7928SOL    HW235418   2.537   0.904  10.915 -2.0789 -1.0705  0.9988
 7929SOL     OW35419   0.075   4.110   9.221  0.4924  0.0706  0.6036
 7929SOL    HW135420   0.124   4.111   9.303 -2.6163  0.0238  2.4478
 7929SOL    HW235421   0.143   4.069   9.168 -0.5858  1.4165 -1.8449
 7930SOL     OW35422   4.367   0.909  17.613 -0.9121 -0.2002  0.4999
 7930SOL    HW135423   4.381   0.850  17.539 -2.0908  2.1454 -1.6032
 7930SOL    HW235424   4.382   0.993  17.570  0.6121 -1.0025 -0.5231
 7931SOL     OW35425   4.032   0.595   4.248 -0.0419 -0.6160 -0.2141
 7931SOL    HW135426   4.075   0.619   4.166 -3.4941  1.4621 -1.3902
 7931SOL    HW235427   4.022   0.680   4.289  1.7530 -1.2496  1.5636
 7932SOL     OW35428   0.964   1.957   4.477  0.2977 -0.6973 -0.4434
 7932SOL    HW135429   0.868   1.948   4.474  0.3818 -1.5933 -0.5535
 7932SOL    HW235430   0.994   1.888   4.536  0.4574  1.1492  1.6539
 7933SOL     OW35431   4.141   1.732   6.537  0.0330  0.0253  0.0226
 7933SOL    HW135432   4.089   1.797   6.490 -1.8684 -1.6189 -0.1478
 7933SOL    HW235433   4.138   1.776   6.622  1.5238  2.6840 -1.3099
 7934SOL     OW35434   4.211   0.549   5.569  0.5509  0.2221 -0.3086
 7934SOL    HW135435   4.276   0.618   5.562 -0.4625  1.3345  1.2105
 7934SOL    HW235436   4.139   0.612   5.565  0.0580 -0.4077 -1.5691
 7935SOL     OW35437   2.907   4.447  12.604  0.5592 -0.7561 -0.8001
 7935SOL    HW135438   2.938   4.392  12.532 -1.6015 -0.9320 -1.5983
 7935SOL    HW235439   2.967   4.437  12.678 -2.3540  1.0675  1.8250
 7936SOL     OW35440   4.544   1.207  10.960 -0.0890  0.3552 -0.3576
 7936SOL    HW135441   4.452   1.232  10.947  0.2081  1.3822 -0.5104
 7936SOL    HW235442   4.553   1.121  10.920  1.7506  0.6634 -0.5955
 7937SOL     OW35443   4.315   3.344   2.856 -0.1753  0.0673  0.1196
 7937SOL    HW135444   4.399   3.314   2.890 -1.7057 -0.1490  3.7601
 7937SOL    HW235445   4.309   3.428   2.900  0.7535 -0.1109  0.5892
 7938SOL     OW35446   2.629   4.328   6.417  0.1834 -0.1636  0.1062
 7938SOL    HW135447   2.633   4.295   6.327 -0.8553 -1.1301  0.4201
 7938SOL    HW235448   2.576   4.407   6.406 -0.4884 -0.4059  1.6367
 7939SOL     OW35449   2.608   1.544   2.536 -0.2500  0.2183 -0.4992
 7939SOL    HW135450   2.616   1.573   2.627  0.2398  1.2057 -0.8563
 7939SOL    HW235451   2.620   1.450   2.551 -1.3069  0.5664  2.5530
 7940SOL     OW35452   0.474   2.986   4.027 -0.2278  0.5632 -0.0274
 7940SOL    HW135453   0.495   2.892   4.022  0.7514  0.8828 -1.8945
 7940SOL    HW235454   0.521   3.013   3.949 -1.4800 -1.8859 -1.6466
 7941SOL     OW35455   1.309   3.308   4.533  0.4481 -0.2615  0.2393
 7941SOL    HW135456   1.273   3.395   4.553 -0.8339 -1.4822  3.1585
 7941SOL    HW235457   1.403   3.324   4.528  0.2260  1.3364  1.1889
 7942SOL     OW35458   1.653   3.572   7.564 -0.4301 -0.3492  0.2172
 7942SOL    HW135459   1.716   3.596   7.496 -1.1099 -0.6986 -0.5386
 7942SOL    HW235460   1.577   3.622   7.535 -1.2451 -2.4427 -1.2547
 7943SOL     OW35461   1.564   1.336   8.365 -0.2484 -0.0478 -0.0005
 7943SOL    HW135462   1.603   1.377   8.288 -1.1229  0.2524 -0.2828
 7943SOL    HW235463   1.478   1.378   8.360 -0.4898 -0.7352 -1.7204
 7944SOL     OW35464   3.937   1.738   7.271  0.7187  0.5668 -0.6225
 7944SOL    HW135465   3.885   1.676   7.323  1.1433  0.3942 -0.4032
 7944SOL    HW235466   3.992   1.770   7.343 -0.8532 -0.1595  0.8954
 7945SOL     OW35467   2.913   3.624  12.001 -0.0006  0.0890 -0.0531
 7945SOL    HW135468   2.967   3.673  11.939  1.3423 -1.2666  0.0372
 7945SOL    HW235469   2.959   3.540  12.000  0.7673  0.5040  0.5135
 7946SOL     OW35470   1.023   1.691  16.281  0.5332 -0.1808  0.0324
 7946SOL    HW135471   0.982   1.610  16.311  0.8832  0.4935  2.2990
 7946SOL    HW235472   0.964   1.726  16.214 -1.9312 -1.4777  1.5525
 7947SOL     OW35473   4.460   3.696  10.766 -0.1033 -0.3587  0.2860
 7947SOL    HW135474   4.495   3.691  10.855 -1.6973  0.1231  0.9407
 7947SOL    HW235475   4.406   3.617  10.773  0.6978 -1.0991 -2.0155
 7948SOL     OW35476   2.574   3.365  17.077 -0.0138 -0.6369 -0.4713
 7948SOL    HW135477   2.488   3.336  17.107 -0.2412  1.4176  0.8661
 7948SOL    HW235478   2.575   3.461  17.075  0.9800 -0.6463 -0.0842
 7949SOL     OW35479   4.167   3.342   2.039 -0.1883 -0.3544  0.1010
 7949SOL    HW135480   4.220   3.405   2.088  0.0259 -0.5826  0.1640
 7949SOL    HW235481   4.234   3.302   1.982 -0.2460  1.3469 -1.1569
 7950SOL     OW35482   2.316   1.865  11.525 -0.2473 -0.5221 -0.0989
 7950SOL    HW135483   2.375   1.935  11.496  0.4796 -1.4526 -0.8688
 7950SOL    HW235484   2.263   1.898  11.598  3.0442  1.6531  1.3182
 7951SOL     OW35485   0.930   1.712   7.880 -0.2424 -0.1687 -0.3825
 7951SOL    HW135486   0.836   1.731   7.880  0.0062  1.0333 -2.6080
 7951SOL    HW235487   0.946   1.725   7.974  0.3671  2.2928 -0.8166
 7952SOL     OW35488   0.030   0.591   0.029 -0.4865  0.3004  0.4114
 7952SOL    HW135489   4.716   0.672   0.009 -0.2746  0.1614 -0.6985
 7952SOL    HW235490   4.692   0.548   0.073  0.0159 -1.5606 -0.5707
 7953SOL     OW35491   0.860   1.566   6.165  0.1054  0.1995  0.0676
 7953SOL    HW135492   0.822   1.579   6.078  1.0554  1.7644 -0.1189
 7953SOL    HW235493   0.887   1.655   6.184  3.5635 -0.6651 -0.7083
 7954SOL     OW35494   1.470   2.127   6.749 -0.0388 -0.1078  0.2358
 7954SOL    HW135495   1.509   2.179   6.819 -0.3861 -2.4009  2.1281
 7954SOL    HW235496   1.406   2.185   6.707  0.8846  1.6224  1.1941
 7955SOL     OW35497   4.111   1.917  12.009  0.2236  0.8078  0.0879
 7955SOL    HW135498   4.190   1.865  12.022 -0.5752 -0.6394 -0.8765
 7955SOL    HW235499   4.060   1.890  12.085  2.1884  1.1924  1.5369
 7956SOL     OW35500   0.758   3.109  12.748  0.1911 -0.0558  0.0428
 7956SOL    HW135501   0.698   3.070  12.684 -0.2896 -1.4912  1.3864
 7956SOL    HW235502   0.838   3.057  12.741  1.2134  1.5790 -0.5183
 7957SOL     OW35503   4.641   1.225  17.414  0.8617 -0.7118  0.4789
 7957SOL    HW135504   4.688   1.185  17.341  0.9097 -1.5525  0.9716
 7957SOL    HW235505   4.679   1.183  17.491  1.5944  1.2490  1.1809
 7958SOL     OW35506   3.684   3.022   2.328 -0.6357  0.2109  0.2513
 7958SOL    HW135507   3.629   3.095   2.355 -0.4372  0.1101  0.9205
 7958SOL    HW235508   3.619   2.954   2.307 -1.8107  1.2604  0.5140
 7959SOL     OW35509   1.211   4.194   9.606  0.2014  0.6436 -0.2201
 7959SOL    HW135510   1.134   4.241   9.639  2.9171  2.6961  3.1734
 7959SOL    HW235511   1.169   4.124   9.557 -1.3206  2.4722 -1.5306
 7960SOL     OW35512   2.884   3.913  12.875 -0.0011 -0.0738  0.2870
 7960SOL    HW135513   2.903   3.842  12.937  1.5662  0.4176  0.3734
 7960SOL    HW235514   2.896   3.868  12.791 -1.3072  0.5636 -0.2404
 7961SOL     OW35515   2.317   2.260   1.503  0.2870  0.3042 -0.5790
 7961SOL    HW135516   2.346   2.265   1.594 -0.5730  2.6399 -0.4476
 7961SOL    HW235517   2.225   2.288   1.509 -0.5526 -1.7232 -4.0072
 7962SOL     OW35518   3.312   0.081   3.048 -0.5202  0.0131 -0.4810
 7962SOL    HW135519   3.266   0.040   3.121  0.7751 -0.1068  0.2743
 7962SOL    HW235520   3.270   0.167   3.044 -0.7470 -0.0561  0.5305
 7963SOL     OW35521   0.006   4.430  13.706  0.3745  0.3797  1.1467
 7963SOL    HW135522   0.046   4.348  13.677 -2.2967 -0.1511 -0.9415
 7963SOL    HW235523   0.012   4.428  13.802  1.5298 -1.6110  1.0323
 7964SOL     OW35524   0.821   4.278   7.342  0.0414  0.1580  0.1738
 7964SOL    HW135525   0.831   4.216   7.269  3.0244  0.4668  0.2964
 7964SOL    HW235526   0.784   4.350   7.292  1.8046  1.7704  1.1998
 7965SOL     OW35527   3.260   3.300   8.155 -0.5374  0.0767  0.1758
 7965SOL    HW135528   3.331   3.271   8.098  0.6997 -0.5375  2.0531
 7965SOL    HW235529   3.308   3.365   8.206  0.4120 -0.7719  0.3654
 7966SOL     OW35530   2.818   4.472   5.875 -0.4369  0.7319 -0.4245
 7966SOL    HW135531   2.839   4.557   5.836 -4.0895  2.9538  2.5167
 7966SOL    HW235532   2.804   4.491   5.968  0.8304  2.8571 -0.6747
 7967SOL     OW35533   4.277   4.716   8.596 -0.1862 -0.4224  0.1797
 7967SOL    HW135534   4.260   4.715   8.690  0.4143 -1.6629  0.2740
 7967SOL    HW235535   4.189   0.008   8.567 -0.1121  1.2538  1.5312
 7968SOL     OW35536   4.499   4.056   5.880  0.4235 -0.0124  0.2807
 7968SOL    HW135537   4.531   4.031   5.967 -1.6884 -0.3631  0.9514
 7968SOL    HW235538   4.411   4.019   5.879  0.6334 -0.5062  0.0139
 7969SOL     OW35539   3.757   1.639  10.393 -0.2703  0.3681 -0.1781
 7969SOL    HW135540   3.790   1.559  10.434  2.4717  1.1099 -0.9509
 7969SOL    HW235541   3.836   1.689  10.417  0.6321 -1.7718  1.3098
 7970SOL     OW35542   0.560   3.006   3.508  0.5295  0.6381 -0.4944
 7970SOL    HW135543   0.489   3.046   3.559 -1.0180 -1.1887 -1.2218
 7970SOL    HW235544   0.638   3.018   3.563 -0.3146  0.6249  0.7174
 7971SOL     OW35545   3.812   2.927  16.952 -0.2449 -0.5609  0.0055
 7971SOL    HW135546   3.786   2.967  17.036 -1.3694 -1.0285 -0.1244
 7971SOL    HW235547   3.886   2.872  16.978  1.4192  2.2521  1.2404
 7972SOL     OW35548   4.062   1.461  15.739  0.3086 -0.2575 -0.0562
 7972SOL    HW135549   3.987   1.472  15.798  1.7972  0.2980  1.7432
 7972SOL    HW235550   4.043   1.382  15.688 -0.6088  0.0412 -0.1830
 7973SOL     OW35551   2.117   0.110   3.735  0.6091 -0.0692 -0.3072
 7973SOL    HW135552   2.164   0.052   3.676  0.3292  0.2111 -0.8027
 7973SOL    HW235553   2.185   0.160   3.780 -1.0403  1.7408  0.1943
 7974SOL     OW35554   1.099   4.662   0.530 -0.0864 -0.3730  0.2696
 7974SOL    HW135555   1.161   4.663   0.602  0.0687 -3.1403  0.1657
 7974SOL    HW235556   1.147   4.622   0.458  1.4773  0.4598  0.8434
 7975SOL     OW35557   4.353   1.189  17.237 -0.1168 -0.6359  0.1143
 7975SOL    HW135558   4.278   1.188  17.178  0.2477  1.4235 -0.3882
 7975SOL    HW235559   4.429   1.191  17.180  0.0161  1.3311  0.3681
 7976SOL     OW35560   2.357   0.493   7.887 -0.3966  0.0803 -0.0712
 7976SOL    HW135561   2.339   0.400   7.884  1.5381 -0.3044 -0.0208
 7976SOL    HW235562   2.401   0.505   7.971  0.4088  1.7981 -0.7318
 7977SOL     OW35563   3.819   2.548  12.580 -0.1099 -0.0019  0.5832
 7977SOL    HW135564   3.826   2.453  12.591 -3.0744 -0.1170  1.4630
 7977SOL    HW235565   3.910   2.565  12.555  0.1851  0.5983  2.1021
 7978SOL     OW35566   3.613   4.119   8.179 -0.1526 -0.8539  0.1797
 7978SOL    HW135567   3.691   4.065   8.165  0.3099 -0.0671 -0.2866
 7978SOL    HW235568   3.603   4.101   8.272 -0.9483  1.3221  0.4919
 7979SOL     OW35569   1.943   4.109   1.202 -0.2743 -0.2829  0.0310
 7979SOL    HW135570   2.010   4.113   1.270 -0.5881  1.6504  0.2438
 7979SOL    HW235571   1.997   4.131   1.125 -1.0040  0.4263 -0.2882
 7980SOL     OW35572   3.280   2.248  12.673  0.0722 -0.2538 -1.0624
 7980SOL    HW135573   3.330   2.187  12.618 -0.4193 -0.8488 -0.8555
 7980SOL    HW235574   3.194   2.206  12.666 -0.2826 -0.0948  2.3951
 7981SOL     OW35575   2.885   2.211  16.189 -0.8887  0.2013  0.4236
 7981SOL    HW135576   2.901   2.118  16.203 -0.6281 -0.2989 -3.2342
 7981SOL    HW235577   2.793   2.212  16.217 -1.6318  0.3592 -2.0396
 7982SOL     OW35578   3.349   0.781   3.636  0.0054  0.0099 -0.0168
 7982SOL    HW135579   3.391   0.696   3.648 -0.9095 -0.8174 -2.6439
 7982SOL    HW235580   3.356   0.817   3.724  0.0482 -1.1379  0.4497
 7983SOL     OW35581   1.760   1.768   2.762 -0.6234 -0.5184 -0.8721
 7983SOL    HW135582   1.738   1.677   2.745 -0.6977 -0.5119 -0.8139
 7983SOL    HW235583   1.681   1.808   2.724  0.3182  2.0969 -0.0789
 7984SOL     OW35584   0.789   0.547   4.913  0.7799  0.1494 -0.1067
 7984SOL    HW135585   0.735   0.479   4.952 -0.3979  0.4905 -1.1343
 7984SOL    HW235586   0.853   0.546   4.984  1.3894 -0.8753 -0.6705
 7985SOL     OW35587   0.981   3.486  16.272  0.4741 -0.6734 -0.3257
 7985SOL    HW135588   0.926   3.422  16.227 -0.3656 -0.7820  0.8647
 7985SOL    HW235589   0.920   3.558  16.286 -0.8001 -1.3494 -2.4317
 7986SOL     OW35590   4.482   0.756   4.588 -0.4481  0.2516 -0.4836
 7986SOL    HW135591   4.474   0.790   4.499  1.3992  2.1106  0.0601
 7986SOL    HW235592   4.558   0.699   4.580  0.2555  1.4760 -2.5832
 7987SOL     OW35593   2.606   4.038  10.277 -0.2402  0.3281  0.0492
 7987SOL    HW135594   2.625   3.972  10.210 -0.0372 -0.7273  1.1583
 7987SOL    HW235595   2.668   4.105  10.249 -1.1244  0.3099 -2.0070
 7988SOL     OW35596   3.574   3.183   6.926 -0.3839  0.5724 -0.2281
 7988SOL    HW135597   3.588   3.090   6.944  1.6178  0.4169 -2.5629
 7988SOL    HW235598   3.664   3.216   6.919 -0.3707  0.0775 -2.1671
 7989SOL     OW35599   2.704   0.058   9.826  0.0786  0.4884  0.3622
 7989SOL    HW135600   2.777   0.034   9.884  1.2300  0.8931 -0.9235
 7989SOL    HW235601   2.668   0.136   9.867  2.0431  1.0138  1.1245
 7990SOL     OW35602   3.759   2.641  10.177  0.4795 -0.4514  0.3748
 7990SOL    HW135603   3.844   2.597  10.185  0.7698  0.1832  0.7145
 7990SOL    HW235604   3.784   2.728  10.207 -1.2056 -0.7298  2.5824
 7991SOL     OW35605   3.995   1.193  12.358  0.0256 -0.1659  0.3740
 7991SOL    HW135606   3.912   1.159  12.326 -1.0637  2.1279  0.7535
 7991SOL    HW235607   4.062   1.141  12.312  1.0895  1.5798 -0.0506
 7992SOL     OW35608   1.461   0.135   3.315 -0.4201 -1.1945  0.0452
 7992SOL    HW135609   1.381   0.134   3.262 -0.8548 -1.0547  0.6994
 7992SOL    HW235610   1.504   0.052   3.295  1.1140 -0.3892  0.0347
 7993SOL     OW35611   4.381   3.880   3.961 -0.1600 -0.3492  0.2480
 7993SOL    HW135612   4.441   3.940   3.917 -1.1924 -0.5348 -1.4048
 7993SOL    HW235613   4.387   3.805   3.902 -2.1861  0.4307 -0.9390
 7994SOL     OW35614   3.630   2.640   8.819 -0.5322  0.1695 -0.1476
 7994SOL    HW135615   3.581   2.580   8.876 -0.2391 -0.3485 -0.4343
 7994SOL    HW235616   3.572   2.638   8.743  0.1790  2.6745 -0.7537
 7995SOL     OW35617   0.643   2.869   6.706 -0.0753 -0.0194  0.0444
 7995SOL    HW135618   0.567   2.927   6.711 -0.7551 -0.9300  0.2359
 7995SOL    HW235619   0.607   2.782   6.724 -1.6593  0.1340 -2.5431
 7996SOL     OW35620   2.959   0.669   2.394  0.0766  0.2330  0.5646
 7996SOL    HW135621   3.018   0.744   2.391 -0.0099  0.2540 -0.5524
 7996SOL    HW235622   2.970   0.640   2.303  0.8198 -0.5296  0.9081
 7997SOL     OW35623   3.216   1.679   8.704  0.6064  0.0743  0.4019
 7997SOL    HW135624   3.184   1.596   8.739  3.4367 -2.4645 -3.1060
 7997SOL    HW235625   3.285   1.655   8.642  0.1842  1.2609 -0.5191
 7998SOL     OW35626   1.387   0.993   5.269 -0.0735  0.1937  0.6172
 7998SOL    HW135627   1.408   1.076   5.227 -0.1129  0.6966  1.5903
 7998SOL    HW235628   1.293   0.984   5.249  0.4013 -0.6617 -1.1856
 7999SOL     OW35629   1.600   1.355  10.515  0.3003  0.5962 -0.6307
 7999SOL    HW135630   1.620   1.276  10.565 -0.7992  0.1365 -0.8990
 7999SOL    HW235631   1.684   1.388  10.484  1.1947 -1.0872  0.0010
 8000SOL     OW35632   0.805   0.939   6.259  0.4609  0.2845 -0.0349
 8000SOL    HW135633   0.866   0.947   6.333  2.3906  0.0022 -1.5764
 8000SOL    HW235634   0.801   0.843   6.261  1.0696  0.2650  0.2333
 8001SOL     OW35635   4.342   1.403   8.361 -0.0043 -0.4281  0.1683
 8001SOL    HW135636   4.275   1.386   8.427  1.6480  1.1653  2.2434
 8001SOL    HW235637   4.316   1.338   8.295 -1.3900  0.0839  0.2040
 8002SOL     OW35638   2.144   4.130   3.748 -0.1119  0.5744  0.1586
 8002SOL    HW135639   2.193   4.099   3.671 -1.5777  2.4113 -1.5102
 8002SOL    HW235640   2.205   4.104   3.816  0.8349 -0.1859 -0.9783
 8003SOL     OW35641   3.450   3.196   6.055 -0.2545 -0.1190  0.0662
 8003SOL    HW135642   3.519   3.152   6.106 -0.1948  1.7816  1.6140
 8003SOL    HW235643   3.456   3.140   5.978 -1.6562  1.4662 -1.1842
 8004SOL     OW35644   3.956   3.638   7.648  0.4223 -0.2201 -0.4602
 8004SOL    HW135645   3.983   3.710   7.705 -0.7323 -0.1034 -0.0616
 8004SOL    HW235646   3.907   3.581   7.707 -1.9456 -0.3697 -2.5233
 8005SOL     OW35647   3.582   4.362   6.501 -0.0387 -0.2518 -0.0786
 8005SOL    HW135648   3.628   4.445   6.485 -0.0768 -0.3238 -0.5776
 8005SOL    HW235649   3.523   4.393   6.570  0.2729 -1.3842  0.6821
 8006SOL     OW35650   0.856   4.020   3.318 -0.1187  0.4400 -0.0762
 8006SOL    HW135651   0.798   4.049   3.247 -0.1046  0.8881  0.0972
 8006SOL    HW235652   0.796   3.995   3.388 -0.7227 -1.1445 -1.1615
 8007SOL     OW35653   1.784   0.681   2.328  0.4802 -0.1928 -0.4509
 8007SOL    HW135654   1.759   0.769   2.301 -1.0422 -0.4134  0.2522
 8007SOL    HW235655   1.693   0.656   2.341  0.6787 -1.2131 -1.0127
 8008SOL     OW35656   3.463   0.349   1.259 -0.1804  0.2712  0.1044
 8008SOL    HW135657   3.411   0.428   1.244 -0.3431  0.4983  1.8058
 8008SOL    HW235658   3.405   0.278   1.287  2.3359 -1.4940  0.8407
 8009SOL     OW35659   3.891   3.883   7.754  0.4543  0.0986  0.7128
 8009SOL    HW135660   3.941   3.945   7.807 -0.6154  2.2254 -0.7503
 8009SOL    HW235661   3.901   3.934   7.674 -0.0256 -0.6138  0.1997
 8010SOL     OW35662   3.476   0.494   5.166 -0.0126 -0.0312 -0.0461
 8010SOL    HW135663   3.555   0.449   5.197  0.0983 -0.0265 -0.3212
 8010SOL    HW235664   3.447   0.536   5.247  1.6460  0.9311  0.0702
 8011SOL     OW35665   0.999   0.087   4.064  0.6625 -0.7219 -0.2844
 8011SOL    HW135666   1.004   0.107   4.157  0.4107 -1.6179 -0.0769
 8011SOL    HW235667   1.089   0.093   4.033  0.1565  0.9216 -1.4660
 8012SOL     OW35668   1.292   2.148   8.516 -0.3042  0.3875  0.3618
 8012SOL    HW135669   1.273   2.197   8.436  1.5679 -0.0989 -0.3931
 8012SOL    HW235670   1.296   2.225   8.573  0.4459  0.6103  0.0130
 8013SOL     OW35671   4.716   2.533  15.243 -0.1780 -0.0833  0.4146
 8013SOL    HW135672   4.703   2.446  15.281  0.3733  1.5886  4.4950
 8013SOL    HW235673   4.651   2.581  15.293 -1.0466  0.4230 -1.2049
 8014SOL     OW35674   3.655   4.653   2.816  0.2192 -0.2403 -0.5228
 8014SOL    HW135675   3.661   4.653   2.911  0.3233  2.0120 -0.5295
 8014SOL    HW235676   3.642   0.012   2.798 -0.4725 -0.3196 -0.4448
 8015SOL     OW35677   0.044   0.651   7.932 -0.2223 -0.0895 -0.6144
 8015SOL    HW135678   4.685   0.646   7.953  0.0886  0.4936  0.9005
 8015SOL    HW235679   0.050   0.715   8.003 -2.4128  0.2629 -0.7285
 8016SOL     OW35680   2.911   0.097   3.213  0.0554  0.1771  0.0995
 8016SOL    HW135681   2.866   0.097   3.297 -0.4655  3.2150 -0.2026
 8016SOL    HW235682   2.998   0.071   3.243  1.2295  2.5439 -1.3160
 8017SOL     OW35683   1.559   2.311  13.538  0.3403 -0.0286 -0.1610
 8017SOL    HW135684   1.552   2.403  13.564 -0.3692 -0.3464  0.7881
 8017SOL    HW235685   1.472   2.282  13.567 -0.1285  0.9944 -0.5530
 8018SOL     OW35686   0.573   1.294   1.819  0.5902  0.0828  0.2142
 8018SOL    HW135687   0.491   1.245   1.809  0.7837 -0.2368  0.2125
 8018SOL    HW235688   0.639   1.231   1.793 -0.1133 -0.8663  0.7125
 8019SOL     OW35689   2.230   1.244  16.135  0.2654 -0.4714  0.1804
 8019SOL    HW135690   2.272   1.312  16.083 -0.0322 -0.2518  0.2257
 8019SOL    HW235691   2.140   1.268  16.112  0.2963 -1.0331 -0.5334
 8020SOL     OW35692   2.788   2.409  15.762 -0.5846  0.0510  0.6263
 8020SOL    HW135693   2.737   2.471  15.709 -1.6085  0.3958  1.9997
 8020SOL    HW235694   2.822   2.353  15.692 -0.7153  2.5275 -1.4516
 8021SOL     OW35695   4.075   0.205  11.335 -0.2867 -0.5600 -0.2781
 8021SOL    HW135696   4.169   0.184  11.332 -0.4902 -1.6840  1.4904
 8021SOL    HW235697   4.037   0.133  11.385  0.6332 -0.5111  0.4955
 8022SOL     OW35698   2.088   1.944  12.406  0.3767 -0.3982  0.0519
 8022SOL    HW135699   2.009   1.902  12.439  1.5654 -0.7978  2.3749
 8022SOL    HW235700   2.156   1.901  12.459 -0.1507 -0.4167  0.7107
 8023SOL     OW35701   3.410   4.524  15.877  0.4481  0.2230 -0.2139
 8023SOL    HW135702   3.383   4.433  15.884 -0.4463  0.5949  1.1349
 8023SOL    HW235703   3.475   4.545  15.944 -0.4386 -0.9135  0.9781
 8024SOL     OW35704   0.959   2.209   5.728  0.5660  0.7753  0.2637
 8024SOL    HW135705   0.977   2.210   5.822 -0.5835 -0.7848  0.4910
 8024SOL    HW235706   0.899   2.283   5.722 -0.4018  0.0590  0.9945
 8025SOL     OW35707   1.318   0.398   8.713  0.2447 -0.6832 -0.4928
 8025SOL    HW135708   1.412   0.402   8.733 -0.4424  1.1043  2.4632
 8025SOL    HW235709   1.281   0.396   8.801  0.4132  0.2045 -0.4007
 8026SOL     OW35710   2.220   4.624  10.075 -0.5750  0.0943 -0.4040
 8026SOL    HW135711   2.240   4.556  10.010  0.3010  1.7956 -1.9038
 8026SOL    HW235712   2.126   4.639  10.068 -0.3777  0.5854 -1.9000
 8027SOL     OW35713   2.217   0.499   9.473 -0.0650 -0.2276 -0.5211
 8027SOL    HW135714   2.178   0.412   9.477 -0.7619  0.1891  1.6301
 8027SOL    HW235715   2.220   0.514   9.568  0.0175  2.5777 -0.9461
 8028SOL     OW35716   4.047   1.695   6.846 -0.0516 -1.0027  0.8567
 8028SOL    HW135717   3.969   1.721   6.897 -0.4627  2.2970 -1.4337
 8028SOL    HW235718   4.021   1.633   6.778  0.2295  0.8335 -0.9235
 8029SOL     OW35719   4.119   2.744   4.834  0.3410  0.2583  0.0364
 8029SOL    HW135720   4.139   2.654   4.860  1.1408  0.4764  0.1611
 8029SOL    HW235721   4.150   2.750   4.744 -1.2484 -0.9002 -0.6056
 8030SOL     OW35722   4.399   1.998  12.349 -0.4952  0.2966  0.3263
 8030SOL    HW135723   4.488   1.981  12.377  0.8728  2.9705 -2.3864
 8030SOL    HW235724   4.378   1.924  12.292  0.2766 -1.2910  2.1111
 8031SOL     OW35725   4.652   1.467   8.031  0.1513 -0.4554 -0.5507
 8031SOL    HW135726   4.561   1.494   8.041  0.6016  2.3189 -3.9897
 8031SOL    HW235727   4.676   1.524   7.958 -1.4929 -0.8251 -1.3815
 8032SOL     OW35728   2.384   4.453   3.412 -0.3203 -0.1500 -0.1960
 8032SOL    HW135729   2.327   4.469   3.337  0.5287 -1.5949 -1.1441
 8032SOL    HW235730   2.460   4.412   3.371  0.8602 -0.2995  2.1500
 8033SOL     OW35731   3.121   0.846   3.487 -0.1163 -0.2436 -0.0937
 8033SOL    HW135732   3.136   0.940   3.482 -0.8268 -0.1358 -0.2889
 8033SOL    HW235733   3.207   0.812   3.510 -0.3985 -0.1008  1.1812
 8034SOL     OW35734   3.107   1.496   7.028  0.2178  0.3502 -0.0071
 8034SOL    HW135735   3.203   1.496   7.034  0.0143  0.0422  3.3051
 8034SOL    HW235736   3.084   1.403   7.027 -0.2842  0.4677  0.6044
 8035SOL     OW35737   1.534   3.641   3.314  0.1128  0.8167  0.7494
 8035SOL    HW135738   1.570   3.635   3.225 -2.0465 -2.0781  0.0651
 8035SOL    HW235739   1.587   3.700   3.367 -1.0931  1.8270  0.8377
 8036SOL     OW35740   0.357   2.419   2.704  0.0444  0.4372  0.0030
 8036SOL    HW135741   0.392   2.503   2.675  0.8476  0.3551  0.7390
 8036SOL    HW235742   0.392   2.365   2.634 -1.0865 -0.2198 -0.0662
 8037SOL     OW35743   4.419   1.296   4.419  0.4296  0.1109 -0.2153
 8037SOL    HW135744   4.411   1.275   4.326  1.0354  1.3921 -0.5627
 8037SOL    HW235745   4.390   1.383   4.390  1.0181  0.6045  0.6759
 8038SOL     OW35746   0.538   4.714  14.400 -0.2057  0.2364 -0.2299
 8038SOL    HW135747   0.581   0.022  14.326 -0.2111 -0.0468 -0.3973
 8038SOL    HW235748   0.613   4.658  14.420  0.5994  0.4442 -2.5772
 8039SOL     OW35749   2.904   4.708   1.730  0.4008  0.4977 -0.4214
 8039SOL    HW135750   2.902   0.031   1.807 -1.0875  0.0452 -0.1191
 8039SOL    HW235751   2.899   0.033   1.655 -1.0702  0.5494 -0.2822
 8040SOL     OW35752   1.204   2.816   5.845  0.0407  0.5443 -0.4252
 8040SOL    HW135753   1.126   2.872   5.839 -0.9567 -0.9179 -1.1528
 8040SOL    HW235754   1.173   2.742   5.793  0.3026 -0.0971  0.3260
 8041SOL     OW35755   0.665   2.855  16.729  0.3023 -0.2684 -0.1023
 8041SOL    HW135756   0.753   2.876  16.758  0.6254 -0.7578 -0.7117
 8041SOL    HW235757   0.670   2.760  16.735  0.2857 -0.2675 -0.0752
 8042SOL     OW35758   4.729   1.666   8.420  0.2122  0.0446 -0.1633
 8042SOL    HW135759   0.017   1.651   8.512  1.0910  0.3678 -0.3217
 8042SOL    HW235760   0.023   1.756   8.405 -0.4774  0.5352  1.4889
 8043SOL     OW35761   1.218   1.863   9.119 -0.7970 -0.0332  0.0824
 8043SOL    HW135762   1.283   1.932   9.137 -0.5176 -0.1728 -0.3838
 8043SOL    HW235763   1.277   1.788   9.122  0.1386  0.6035 -2.3538
 8044SOL     OW35764   3.221   0.742   1.967 -0.6072  0.0020  0.2991
 8044SOL    HW135765   3.313   0.718   1.957 -0.3030  0.6155  1.5812
 8044SOL    HW235766   3.240   0.836   1.977  1.6239 -0.4986  0.6834
 8045SOL     OW35767   1.524   1.494   4.206 -0.0594  0.4037 -0.0241
 8045SOL    HW135768   1.552   1.420   4.151  0.3214 -0.1347  0.8867
 8045SOL    HW235769   1.608   1.534   4.225 -0.0528  0.8868 -1.0421
 8046SOL     OW35770   1.222   4.442   6.548 -0.1699 -0.1343  0.0778
 8046SOL    HW135771   1.255   4.531   6.536 -2.3222  0.6542 -0.0915
 8046SOL    HW235772   1.183   4.420   6.463  0.5268 -0.2807 -0.2021
 8047SOL     OW35773   2.375   3.420   1.027 -0.1598 -0.0749 -0.6839
 8047SOL    HW135774   2.373   3.462   0.941  4.7430 -0.1096 -0.8143
 8047SOL    HW235775   2.434   3.344   1.028 -4.0510 -3.0750 -0.5529
 8048SOL     OW35776   0.556   0.331   9.526  0.4683  0.4120  0.1205
 8048SOL    HW135777   0.592   0.247   9.555 -1.0508 -0.9830 -1.9655
 8048SOL    HW235778   0.634   0.388   9.530  1.4377 -0.9377  0.5314
 8049SOL     OW35779   3.982   0.823   4.497  0.4525 -0.1244  1.1031
 8049SOL    HW135780   4.038   0.780   4.560 -0.7216 -2.8293  0.2957
 8049SOL    HW235781   4.025   0.908   4.489  0.5542 -0.2895 -0.2097
 8050SOL     OW35782   1.167   0.715   1.574  0.0923 -0.3040 -0.1338
 8050SOL    HW135783   1.224   0.791   1.584  2.2335 -2.2489  2.2774
 8050SOL    HW235784   1.225   0.639   1.577 -0.3196 -0.6120  0.0259
 8051SOL     OW35785   3.967   4.361  10.616 -0.4217  0.4946 -0.5056
 8051SOL    HW135786   3.978   4.270  10.643  3.0541  0.8216 -0.8413
 8051SOL    HW235787   3.938   4.355  10.525  1.4859 -1.2039 -0.9826
 8052SOL     OW35788   0.704   1.776  13.506 -0.1867  0.1984 -0.2156
 8052SOL    HW135789   0.654   1.702  13.470  0.3417 -0.5968  0.6908
 8052SOL    HW235790   0.754   1.725  13.569 -0.2585 -0.3413 -0.5903
 8053SOL     OW35791   0.035   0.927   4.453  0.0201 -0.1051  0.1793
 8053SOL    HW135792   0.060   0.958   4.540 -1.6146 -0.0403  0.6198
 8053SOL    HW235793   0.099   0.861   4.428  0.6423 -0.1661  1.9960
 8054SOL     OW35794   3.428   2.265   9.271 -0.5172  0.2030 -0.5851
 8054SOL    HW135795   3.446   2.357   9.289  3.3521 -0.4906 -0.8241
 8054SOL    HW235796   3.344   2.262   9.225 -0.1627 -2.2854 -1.0508
 8055SOL     OW35797   1.568   3.529   5.525 -0.2324  0.1617 -0.1686
 8055SOL    HW135798   1.620   3.509   5.447  0.5390  0.8683  0.1750
 8055SOL    HW235799   1.491   3.473   5.512  0.2525 -0.6936  0.6799
 8056SOL     OW35800   4.316   1.571  15.404 -0.2811  0.3017 -0.1090
 8056SOL    HW135801   4.228   1.562  15.368  0.0466  1.4011 -1.1979
 8056SOL    HW235802   4.336   1.662  15.383  2.1579 -0.4739 -1.1646
 8057SOL     OW35803   1.390   1.642   6.801  0.0826  0.3010  0.0110
 8057SOL    HW135804   1.387   1.695   6.881 -1.0685  0.0024  0.1764
 8057SOL    HW235805   1.314   1.587   6.819  1.2868 -1.6221 -0.7853
 8058SOL     OW35806   3.729   1.761  16.780 -0.2045 -0.1029  0.0066
 8058SOL    HW135807   3.731   1.709  16.700 -1.1121  0.2082 -0.2204
 8058SOL    HW235808   3.665   1.826  16.751 -0.3433  0.0786  0.7105
 8059SOL     OW35809   2.004   2.324   4.008 -0.2839  0.2141  0.1260
 8059SOL    HW135810   1.915   2.301   4.034 -0.1992  0.3891  0.5595
 8059SOL    HW235811   1.999   2.412   3.970 -0.4366  1.8052  3.8260
 8060SOL     OW35812   2.307   0.424   6.437  0.5781  0.2210 -0.0715
 8060SOL    HW135813   2.235   0.441   6.498  0.0296  0.5974 -0.8365
 8060SOL    HW235814   2.283   0.473   6.359  1.0202 -0.4518 -0.6391
 8061SOL     OW35815   0.014   4.171   3.759 -0.0480 -0.0940  0.2796
 8061SOL    HW135816   0.031   4.145   3.669  0.7057  1.0113  0.1076
 8061SOL    HW235817   0.091   4.225   3.771  0.5678 -0.4881 -1.8740
 8062SOL     OW35818   2.558   1.019   4.054  0.1786  0.2054  0.1853
 8062SOL    HW135819   2.635   0.971   4.084 -0.1793 -1.1138 -1.0105
 8062SOL    HW235820   2.594   1.091   4.001  1.2621  0.0589  0.7383
 8063SOL     OW35821   1.905   0.531  10.941  0.4938  0.1779  0.1279
 8063SOL    HW135822   1.904   0.502  10.849 -0.8186  1.0682 -0.1510
 8063SOL    HW235823   1.993   0.510  10.971  0.3175  0.7129  1.0135
 8064SOL     OW35824   4.081   2.209   3.576 -0.0029 -0.1197  0.1504
 8064SOL    HW135825   4.110   2.254   3.655 -2.6940 -1.0298  1.6688
 8064SOL    HW235826   4.159   2.205   3.521 -2.5068  1.7088 -3.5029
 8065SOL     OW35827   4.217   1.368   2.636  0.0424  0.0109  0.0930
 8065SOL    HW135828   4.267   1.286   2.634 -1.6790 -1.1310  2.6616
 8065SOL    HW235829   4.221   1.391   2.543 -2.1610 -0.1638 -0.0544
 8066SOL     OW35830   0.371   1.190   6.572  0.5772 -0.6980  0.3803
 8066SOL    HW135831   0.443   1.151   6.522  0.7838  0.2786 -0.0757
 8066SOL    HW235832   0.401   1.273   6.609 -2.0735 -0.2324  1.4696
 8067SOL     OW35833   4.676   1.661   7.821  0.0152  0.0567  0.1677
 8067SOL    HW135834   4.654   1.753   7.839  2.9404  1.4241 -3.2369
 8067SOL    HW235835   4.696   1.671   7.728  2.2708  0.2393  0.6537
 8068SOL     OW35836   2.624   1.369   6.989  0.1542 -0.0850 -0.1294
 8068SOL    HW135837   2.658   1.313   7.058  0.7406 -1.2940 -1.4046
 8068SOL    HW235838   2.608   1.304   6.921  0.1954  0.6435 -0.8440
 8069SOL     OW35839   3.490   4.404   8.700 -0.3262 -0.5261 -0.0052
 8069SOL    HW135840   3.583   4.392   8.719 -0.1096 -1.0343 -1.4019
 8069SOL    HW235841   3.505   4.463   8.626 -2.8135 -0.0691 -0.1329
 8070SOL     OW35842   0.472   1.813  13.105  0.3100  0.4047 -0.0211
 8070SOL    HW135843   0.444   1.779  13.190 -1.7864  3.7093  0.6053
 8070SOL    HW235844   0.546   1.871  13.122 -1.3604  1.9272  1.9857
 8071SOL     OW35845   2.799   1.810   3.160 -0.4079 -0.1982 -0.4215
 8071SOL    HW135846   2.845   1.846   3.236  1.5871 -1.4431 -1.0441
 8071SOL    HW235847   2.709   1.813   3.194  0.2921  2.0750  1.2385
 8072SOL     OW35848   3.893   0.954   6.919 -0.0289 -0.4517  0.3172
 8072SOL    HW135849   3.971   0.931   6.868  0.8820  1.3068  0.9057
 8072SOL    HW235850   3.918   0.912   7.002  1.0660 -0.8451 -0.2081
 8073SOL     OW35851   1.588   4.194   3.682 -0.1910  0.2930 -0.5682
 8073SOL    HW135852   1.638   4.212   3.762 -1.2739 -3.0553  0.8448
 8073SOL    HW235853   1.501   4.204   3.719 -0.8423 -2.9025 -1.2491
 8074SOL     OW35854   0.222   0.538   4.498  0.3717  0.0899  0.2805
 8074SOL    HW135855   0.290   0.602   4.522  1.0343 -1.1326  1.6880
 8074SOL    HW235856   0.265   0.454   4.514  3.3728  1.1697 -2.0424
 8075SOL     OW35857   3.710   0.321   3.283  0.0428 -0.4223  0.2956
 8075SOL    HW135858   3.728   0.264   3.358 -0.1236 -0.4015  0.3525
 8075SOL    HW235859   3.670   0.248   3.235 -2.1549 -0.2048  1.7593
 8076SOL     OW35860   2.541   1.812   3.231 -0.1254  0.4459  0.5703
 8076SOL    HW135861   2.464   1.865   3.250  0.8325  1.2064  2.3325
 8076SOL    HW235862   2.538   1.742   3.297 -0.1099 -0.7079 -0.6450
 8077SOL     OW35863   4.018   1.555   4.383  0.2548 -0.4360  0.0193
 8077SOL    HW135864   3.971   1.615   4.325  0.2508 -1.5667 -1.1341
 8077SOL    HW235865   3.945   1.518   4.432  0.7896  0.1372  1.2489
 8078SOL     OW35866   3.373   4.326   2.364 -0.0877 -0.6147  0.2875
 8078SOL    HW135867   3.386   4.357   2.275 -1.8092  1.3514  0.7101
 8078SOL    HW235868   3.286   4.355   2.393 -0.7148 -1.5852 -0.6326
 8079SOL     OW35869   4.726   0.675   1.078  0.5622  0.5066 -0.1082
 8079SOL    HW135870   4.725   0.614   1.151 -2.8254 -1.4688 -1.7745
 8079SOL    HW235871   0.013   0.753   1.129 -0.9128  0.4281  0.6291
 8080SOL     OW35872   0.096   3.697   9.453  0.1331 -0.2367  0.0049
 8080SOL    HW135873   0.137   3.664   9.533 -0.3638  1.5360  0.9939
 8080SOL    HW235874   0.068   3.783   9.487  1.1446  0.1817 -0.2093
 8081SOL     OW35875   0.247   4.409   4.455  0.2187  0.1582  0.0768
 8081SOL    HW135876   0.330   4.382   4.416  2.0387  1.3968  3.0883
 8081SOL    HW235877   0.192   4.354   4.399  0.5669 -1.1124  0.9775
 8082SOL     OW35878   1.773   4.728   2.623 -0.1197  0.3505 -0.7753
 8082SOL    HW135879   1.862   0.005   2.657  0.8290 -0.6770 -2.9498
 8082SOL    HW235880   1.735   0.019   2.707  3.2689  2.0704  0.2341
 8083SOL     OW35881   2.297   4.081  13.079  0.0707 -0.1557 -0.0820
 8083SOL    HW135882   2.353   4.150  13.116 -1.2502  1.1003 -0.4364
 8083SOL    HW235883   2.288   4.119  12.991  1.1071 -0.9601 -0.5320
 8084SOL     OW35884   2.440   1.552   6.107 -0.2831 -0.2978  0.5866
 8084SOL    HW135885   2.405   1.580   6.192  0.0282  2.6113 -0.2465
 8084SOL    HW235886   2.365   1.502   6.073 -2.2518  4.1538 -1.6804
 8085SOL     OW35887   2.421   4.668  12.862  0.0960 -0.3329  0.4958
 8085SOL    HW135888   2.411   0.029  12.866 -0.3707 -0.2298 -3.0323
 8085SOL    HW235889   2.511   4.662  12.831  0.3322 -0.8338  1.3051
 8086SOL     OW35890   4.501   0.682   0.271 -0.0105  0.4915 -0.1112
 8086SOL    HW135891   4.483   0.776   0.270 -0.3880  0.3890 -2.4117
 8086SOL    HW235892   4.511   0.675   0.366 -3.4993  0.8937  0.2949
 8087SOL     OW35893   0.879   1.716   8.962  0.2012 -0.4173 -0.0941
 8087SOL    HW135894   0.903   1.632   9.001  1.3125 -0.0989 -0.1036
 8087SOL    HW235895   0.950   1.733   8.901  0.2723  1.0030  0.3940
 8088SOL     OW35896   4.733   2.563  14.485  0.4459 -0.2545 -0.0432
 8088SOL    HW135897   4.685   2.528  14.560  0.6729 -1.5438 -0.5000
 8088SOL    HW235898   4.733   2.490  14.423  1.1862  1.1476 -1.6839
 8089SOL     OW35899   0.170   0.463  16.750 -0.2648 -0.4160  0.5191
 8089SOL    HW135900   0.130   0.464  16.664  0.6091  1.5648  0.1269
 8089SOL    HW235901   0.260   0.451  16.718  0.3177 -0.7601  2.2417
 8090SOL     OW35902   1.353   1.056   4.036 -0.0779 -0.0320 -0.2578
 8090SOL    HW135903   1.317   0.975   4.074  1.5691 -0.2396  0.8622
 8090SOL    HW235904   1.302   1.073   3.956  0.1191  0.3441 -0.3029
 8091SOL     OW35905   0.255   2.732  17.373 -0.0854 -0.0392  0.2537
 8091SOL    HW135906   0.342   2.731  17.413  0.4013  1.9404 -0.7666
 8091SOL    HW235907   0.196   2.712  17.446 -0.3561  1.7398  0.5214
 8092SOL     OW35908   2.970   1.472   2.773  0.0032 -0.4687 -0.2741
 8092SOL    HW135909   2.939   1.552   2.732 -1.0076 -0.4739  0.5162
 8092SOL    HW235910   2.908   1.478   2.845  2.5367  2.7029  1.6487
 8093SOL     OW35911   0.550   0.948  10.312 -0.0380 -0.1787 -0.3065
 8093SOL    HW135912   0.486   0.882  10.339  0.4511 -0.4307  0.2529
 8093SOL    HW235913   0.573   0.921  10.223  1.9597  1.1164 -0.1834
 8094SOL     OW35914   3.058   3.428   9.673  0.1409  0.2309  0.3083
 8094SOL    HW135915   3.088   3.339   9.689 -1.7711 -0.6366 -0.8931
 8094SOL    HW235916   3.126   3.451   9.609  0.0072 -1.0744 -0.3090
 8095SOL     OW35917   0.398   1.071   7.601  0.5822 -0.2946  0.3032
 8095SOL    HW135918   0.358   1.158   7.595  1.4737 -0.0242 -2.1094
 8095SOL    HW235919   0.422   1.069   7.693  1.0220  2.4423  0.2743
 8096SOL     OW35920   2.612   1.370  16.207 -0.3733 -0.1766 -0.3207
 8096SOL    HW135921   2.629   1.419  16.287  0.5692  0.4102 -0.8774
 8096SOL    HW235922   2.533   1.411  16.171 -0.6332 -0.4685 -0.0740
 8097SOL     OW35923   3.477   0.190   4.165  0.9684 -0.4613  0.9499
 8097SOL    HW135924   3.493   0.277   4.129  0.3869 -0.1708  1.3853
 8097SOL    HW235925   3.433   0.211   4.248 -0.5239  1.2670 -0.2942
 8098SOL     OW35926   4.379   0.616   9.526  0.4016  0.2853  0.5549
 8098SOL    HW135927   4.445   0.681   9.504  0.5325  0.7666  2.3694
 8098SOL    HW235928   4.439   0.541   9.521  1.0040  0.9457 -1.7862
 8099SOL     OW35929   3.322   2.989   9.664 -0.0034 -0.1283 -0.1769
 8099SOL    HW135930   3.311   2.934   9.742  1.1638 -1.3945 -0.8948
 8099SOL    HW235931   3.360   2.922   9.607  3.0185  0.7396  0.8209
 8100SOL     OW35932   2.066   4.045   6.575  0.0005 -0.0032  0.2486
 8100SOL    HW135933   2.154   4.036   6.611 -0.6037 -0.2289  1.6702
 8100SOL    HW235934   2.031   4.104   6.641 -0.8743  0.2736 -0.4637
 8101SOL     OW35935   1.360   1.882  16.602 -0.2552  0.1145 -0.3273
 8101SOL    HW135936   1.281   1.896  16.549  0.8542 -0.0772 -2.0602
 8101SOL    HW235937   1.413   1.956  16.572 -2.6780  2.2150  0.5467
 8102SOL     OW35938   1.320   4.445  11.863  0.6236 -0.4325 -0.9766
 8102SOL    HW135939   1.290   4.372  11.916 -0.6541 -0.0169 -1.1365
 8102SOL    HW235940   1.324   4.402  11.777  1.3395  0.7527 -1.5440
 8103SOL     OW35941   2.645   3.830   9.771  0.2954 -0.0486 -0.0734
 8103SOL    HW135942   2.580   3.825   9.701  0.9129 -1.5165 -0.5430
 8103SOL    HW235943   2.610   3.753   9.817  2.5171 -0.2991  1.2039
 8104SOL     OW35944   3.238   2.936   1.952  0.4933  0.2368 -0.1798
 8104SOL    HW135945   3.322   2.978   1.933  0.5578  0.7731  1.2644
 8104SOL    HW235946   3.273   2.847   1.957  0.3526  0.1498 -0.7194
 8105SOL     OW35947   2.942   0.268   5.317  0.5274  0.0723  0.5034
 8105SOL    HW135948   2.862   0.216   5.309  1.7082 -1.9000  1.4645
 8105SOL    HW235949   2.898   0.349   5.292 -1.0100 -0.6494  0.8890
 8106SOL     OW35950   0.710   4.489  14.416  0.0109 -0.3514 -0.4214
 8106SOL    HW135951   0.674   4.410  14.376 -1.7041  1.6066 -2.6391
 8106SOL    HW235952   0.797   4.464  14.450 -0.1549  0.6605  0.7603
 8107SOL     OW35953   3.260   0.567   9.756  0.1696 -0.4015  0.4517
 8107SOL    HW135954   3.228   0.493   9.808  0.7543  0.8986  2.6398
 8107SOL    HW235955   3.194   0.567   9.686  0.8701 -0.1231 -0.2084
 8108SOL     OW35956   1.162   2.953   6.541 -0.3240 -0.0852 -0.1344
 8108SOL    HW135957   1.109   2.968   6.463 -1.6069  0.4109  0.8441
 8108SOL    HW235958   1.244   2.914   6.511 -0.9418 -0.1909 -1.6937
 8109SOL     OW35959   3.991   2.365   1.022  0.4525 -0.3015 -0.4996
 8109SOL    HW135960   4.067   2.400   1.069 -1.1982  3.0209 -0.3054
 8109SOL    HW235961   3.968   2.445   0.975 -0.5523 -1.7252 -2.4436
 8110SOL     OW35962   0.799   1.175   7.596  0.5846 -0.0039 -0.1916
 8110SOL    HW135963   0.827   1.197   7.507  2.7354 -0.5874  0.3425
 8110SOL    HW235964   0.735   1.107   7.575  1.8113 -1.0513 -0.5172
 8111SOL     OW35965   2.960   4.431  16.800 -0.3201 -0.1918  0.7478
 8111SOL    HW135966   2.985   4.340  16.818  0.9550  0.1470  0.6266
 8111SOL    HW235967   2.865   4.443  16.810 -0.5184 -0.2777 -1.0619
 8112SOL     OW35968   2.836   3.740   6.449  0.0077  0.0350  0.2429
 8112SOL    HW135969   2.756   3.764   6.496 -0.8636 -3.3504  0.4633
 8112SOL    HW235970   2.885   3.822   6.461 -0.8044  0.6758 -0.7607
 8113SOL     OW35971   3.847   2.846   1.165  0.0188  0.2756  0.3903
 8113SOL    HW135972   3.835   2.830   1.259 -1.7952 -0.8193 -0.0271
 8113SOL    HW235973   3.760   2.867   1.131  0.3974 -0.7981 -1.2529
 8114SOL     OW35974   1.206   0.167   8.933 -0.0939 -0.2101  0.6045
 8114SOL    HW135975   1.110   0.170   8.925 -0.0240  0.3056 -0.1069
 8114SOL    HW235976   1.219   0.096   8.870 -0.0189  0.7927 -0.5190
 8115SOL     OW35977   3.409   1.947   6.756 -0.4827  0.0026 -0.5218
 8115SOL    HW135978   3.338   1.959   6.820  1.3316 -2.3963  1.9332
 8115SOL    HW235979   3.386   2.018   6.697 -0.6184 -0.5676 -1.1600
 8116SOL     OW35980   3.942   2.598   8.276  0.1357  0.3469 -0.3428
 8116SOL    HW135981   3.857   2.597   8.319 -0.1363 -0.1323 -0.8890
 8116SOL    HW235982   3.999   2.628   8.347 -0.3593  1.4628 -0.4028
 8117SOL     OW35983   3.217   0.037  17.060 -0.1603 -0.1495 -0.4085
 8117SOL    HW135984   3.165   4.716  17.002 -2.4656  2.9415 -1.2565
 8117SOL    HW235985   3.294   0.036  17.003  1.2532  1.4132  1.4596
 8118SOL     OW35986   3.171   3.062  12.533 -0.1875 -0.0367  0.1707
 8118SOL    HW135987   3.176   3.017  12.448  0.3509 -0.4018  0.3972
 8118SOL    HW235988   3.229   3.003  12.580 -0.7376 -1.1413 -0.5219
 8119SOL     OW35989   0.936   2.388   8.856  0.0031 -0.3519 -0.5282
 8119SOL    HW135990   0.864   2.423   8.909 -0.2363 -0.1377 -0.9911
 8119SOL    HW235991   1.012   2.401   8.913  1.3670 -0.5970 -2.2800
 8120SOL     OW35992   1.301   3.499   4.914 -0.0428 -0.2515  0.2201
 8120SOL    HW135993   1.311   3.408   4.889 -0.3326 -1.3511  4.2040
 8120SOL    HW235994   1.352   3.538   4.843 -0.0853 -2.0943 -0.8197
 8121SOL     OW35995   2.128   3.350   1.146  0.4641 -0.7780  0.3801
 8121SOL    HW135996   2.207   3.400   1.130 -1.1104  1.5672 -0.0056
 8121SOL    HW235997   2.064   3.401   1.096  0.4968 -1.3994 -0.3033
 8122SOL     OW35998   3.978   0.975  14.115  0.8515  0.4683 -0.3565
 8122SOL    HW135999   3.975   1.064  14.152  1.9702  0.7705 -0.9722
 8122SOL    HW236000   4.058   0.983  14.062  0.3979 -0.3391 -1.1583
 8123SOL     OW36001   0.316   3.312   2.127 -0.0213 -0.2342  0.6505
 8123SOL    HW136002   0.244   3.370   2.153 -0.2773  0.6349 -2.0474
 8123SOL    HW236003   0.384   3.317   2.194 -0.1376  1.4657  0.6395
 8124SOL     OW36004   4.360   0.502  12.061  0.4563 -0.3425  0.0395
 8124SOL    HW136005   4.352   0.422  12.010 -0.0915  1.2483 -2.3319
 8124SOL    HW236006   4.347   0.568  11.993  1.3191 -0.7560 -0.5197
 8125SOL     OW36007   2.812   2.036  10.361 -0.0898 -0.6445  0.4077
 8125SOL    HW136008   2.889   1.984  10.384  0.2771  0.0073  0.6647
 8125SOL    HW236009   2.748   1.983  10.408  0.0536 -0.8137  0.4134
 8126SOL     OW36010   2.920   1.433   3.689 -0.3907  0.8530 -0.0492
 8126SOL    HW136011   2.831   1.399   3.683 -0.8395  2.1446 -0.6592
 8126SOL    HW236012   2.972   1.356   3.665  2.9732  2.1671  2.9412
 8127SOL     OW36013   3.576   1.762  11.967 -0.1757 -0.8028 -0.7064
 8127SOL    HW136014   3.633   1.837  11.983 -0.9558 -0.8377  2.3353
 8127SOL    HW236015   3.616   1.731  11.886  1.5613  1.8318 -0.8577
 8128SOL     OW36016   4.269   4.278   9.542 -0.2125 -0.4080  0.0472
 8128SOL    HW136017   4.350   4.233   9.519 -0.0975  1.0245 -2.2920
 8128SOL    HW236018   4.259   4.345   9.475  0.9735  1.1031  1.3845
 8129SOL     OW36019   2.008   1.244   9.494  0.1194 -0.5876  0.0977
 8129SOL    HW136020   1.967   1.306   9.434  2.9087  0.4073 -0.8154
 8129SOL    HW236021   2.059   1.184   9.438 -0.7880 -1.9633  0.7557
 8130SOL     OW36022   0.704   0.790   4.838  0.3925  0.5582  0.4952
 8130SOL    HW136023   0.613   0.774   4.862  0.2521  1.5925  0.6756
 8130SOL    HW236024   0.733   0.700   4.849 -2.1804 -0.4241 -0.6865
 8131SOL     OW36025   0.467   4.355   3.679 -0.1463  0.1344 -0.7215
 8131SOL    HW136026   0.511   4.353   3.594 -3.0765  1.7231 -2.2678
 8131SOL    HW236027   0.491   4.447   3.693 -1.7860  0.1881  1.8129
 8132SOL     OW36028   0.662   3.128   6.240 -0.4157 -0.0103  0.8284
 8132SOL    HW136029   0.669   3.074   6.318  2.1950  1.7800  1.8336
 8132SOL    HW236030   0.569   3.119   6.221 -0.1060 -1.7167  0.1409
 8133SOL     OW36031   2.678   2.772   4.918  0.7491  0.8396  0.1114
 8133SOL    HW136032   2.653   2.854   4.960  0.1754 -0.2083  1.7907
 8133SOL    HW236033   2.678   2.800   4.826 -2.8288 -0.9571 -0.4647
 8134SOL     OW36034   1.276   1.390   2.268 -0.4978  0.2956  0.2026
 8134SOL    HW136035   1.350   1.436   2.229 -1.1273  0.7207 -0.5005
 8134SOL    HW236036   1.315   1.303   2.266  0.2483  0.6142  1.0792
 8135SOL     OW36037   3.121   3.631   8.547 -0.3265 -0.3456 -0.3630
 8135SOL    HW136038   3.056   3.561   8.544 -1.7386  0.9183  0.3135
 8135SOL    HW236039   3.070   3.698   8.501 -1.1857 -0.8366 -0.1208
 8136SOL     OW36040   2.931   2.318   4.629 -0.6241  0.0597  0.4639
 8136SOL    HW136041   2.965   2.282   4.711 -1.5457  0.8448  1.1962
 8136SOL    HW236042   2.944   2.247   4.567  0.6997  0.6568  0.0501
 8137SOL     OW36043   1.978   2.853  15.942 -0.0174  0.2069 -0.2195
 8137SOL    HW136044   2.044   2.880  16.006 -0.2464 -2.2163  1.0348
 8137SOL    HW236045   1.907   2.916  15.950 -2.0186 -1.9136 -1.2562
 8138SOL     OW36046   2.442   3.996   2.456 -0.1742 -0.1842  0.2865
 8138SOL    HW136047   2.390   4.043   2.391  0.8085 -0.7617 -0.9210
 8138SOL    HW236048   2.392   4.000   2.537 -1.7578  0.3198 -0.7025
 8139SOL     OW36049   1.571   1.096  12.467  0.1600 -0.1395  0.7869
 8139SOL    HW136050   1.548   1.070  12.557  0.3224 -1.4441  0.4557
 8139SOL    HW236051   1.641   1.157  12.490  0.6782 -0.7756  0.9057
 8140SOL     OW36052   1.060   4.160   2.386 -0.1541  0.0244 -0.1709
 8140SOL    HW136053   1.013   4.184   2.305  0.0899  0.4667 -0.1812
 8140SOL    HW236054   1.079   4.245   2.425  0.4623 -0.5839  0.8486
 8141SOL     OW36055   1.997   3.510  14.087 -0.4206 -0.5720 -0.3346
 8141SOL    HW136056   1.964   3.572  14.152 -0.5220 -2.4208  1.3746
 8141SOL    HW236057   2.088   3.503  14.115 -0.6391 -0.0474  0.4990
 8142SOL     OW36058   0.466   2.590   5.469  0.4341  0.2052  0.6507
 8142SOL    HW136059   0.422   2.670   5.439 -1.1356 -0.8637  0.1288
 8142SOL    HW236060   0.559   2.608   5.451  0.1968 -2.4723 -3.2980
 8143SOL     OW36061   3.584   2.343   6.063 -0.1497  0.2020  0.6902
 8143SOL    HW136062   3.617   2.421   6.019  2.1414 -0.5622  1.0877
 8143SOL    HW236063   3.489   2.355   6.051  0.2792  1.0664 -1.8855
 8144SOL     OW36064   2.864   1.967  11.283  0.2421  0.3855 -0.3375
 8144SOL    HW136065   2.900   1.883  11.311 -0.3198  1.1337  2.6551
 8144SOL    HW236066   2.846   1.940  11.193  0.9903 -0.3183 -0.2712
 8145SOL     OW36067   2.960   1.177   3.629 -0.2039  0.2504  0.0248
 8145SOL    HW136068   3.047   1.173   3.590 -1.0360 -0.6701 -1.7203
 8145SOL    HW236069   2.971   1.132   3.713  0.7263 -0.3729 -0.4240
 8146SOL     OW36070   3.045   2.200  11.892  0.0733  0.3474 -0.0084
 8146SOL    HW136071   3.092   2.221  11.811 -0.2404  2.5780  0.3951
 8146SOL    HW236072   3.110   2.246  11.945  0.6809 -0.0322 -0.4222
 8147SOL     OW36073   0.059   4.381   2.928 -0.1442 -0.2741  0.5456
 8147SOL    HW136074   4.708   4.392   2.885 -0.8399  0.0519  1.9874
 8147SOL    HW236075   0.041   4.288   2.945  1.6062 -0.4280  1.5158
 8148SOL     OW36076   0.250   0.336  12.506  0.5209  0.0965  0.3730
 8148SOL    HW136077   0.244   0.271  12.436  0.2713 -0.5868  1.0196
 8148SOL    HW236078   0.309   0.399  12.465  0.0465 -1.5765 -2.8327
 8149SOL     OW36079   1.479   1.311   0.788 -0.2397 -0.5564  0.3821
 8149SOL    HW136080   1.419   1.344   0.721 -1.6746 -3.0639  0.4432
 8149SOL    HW236081   1.460   1.218   0.799  0.7307 -0.6516  1.2575
 8150SOL     OW36082   2.653   4.098   9.541 -0.0870  0.3480  0.6058
 8150SOL    HW136083   2.743   4.129   9.531 -0.7349  1.6387 -1.2336
 8150SOL    HW236084   2.662   4.004   9.524 -0.6919  0.0048  2.2088
 8151SOL     OW36085   4.734   2.174   8.502  0.0092  0.4932 -0.0636
 8151SOL    HW136086   4.665   2.166   8.567  0.0138  1.3474  0.0430
 8151SOL    HW236087   4.694   2.209   8.422 -2.7605 -1.5100  0.4519
 8152SOL     OW36088   0.882   2.692   5.510  0.2414  0.7748  0.3105
 8152SOL    HW136089   0.804   2.681   5.456  0.5732  1.5520 -0.3206
 8152SOL    HW236090   0.857   2.771   5.559 -0.0652  1.1961 -0.5206
 8153SOL     OW36091   2.752   4.386   3.059  0.1289 -0.3960  0.1513
 8153SOL    HW136092   2.724   4.445   2.988 -0.4654 -3.0519 -1.8167
 8153SOL    HW236093   2.843   4.413   3.070 -0.8143  2.5016  0.9477
 8154SOL     OW36094   4.267   0.770   9.153 -0.1763 -0.4629 -0.0129
 8154SOL    HW136095   4.219   0.715   9.214 -1.0492 -0.1220 -0.3885
 8154SOL    HW236096   4.248   0.854   9.195  0.4247 -0.8794  1.0807
 8155SOL     OW36097   1.349   3.961   8.224 -0.7207 -0.2214  0.0494
 8155SOL    HW136098   1.310   3.891   8.171  2.8679 -1.1730 -1.2766
 8155SOL    HW236099   1.264   4.000   8.245 -0.8181 -0.9973  1.1467
 8156SOL     OW36100   2.381   0.486  10.061  0.0999  0.2745 -0.2008
 8156SOL    HW136101   2.401   0.444  10.145  0.2232 -2.2243 -1.4931
 8156SOL    HW236102   2.342   0.569  10.090 -1.0806  0.1359 -1.4319
 8157SOL     OW36103   3.881   0.010  11.913 -0.1431  0.3529  0.4374
 8157SOL    HW136104   3.904   4.690  11.988 -0.2114  1.2261  1.0927
 8157SOL    HW236105   3.966   0.052  11.897  1.1909 -2.8684 -0.9928
 8158SOL     OW36106   1.402   2.063   2.667  0.3174 -0.1719 -0.1315
 8158SOL    HW136107   1.468   1.994   2.663  2.1444  1.3533  3.3938
 8158SOL    HW236108   1.324   2.027   2.627  0.9108 -1.5284 -0.0629
 8159SOL     OW36109   0.187   2.957   4.082 -0.7579 -0.1519  0.2064
 8159SOL    HW136110   0.267   2.968   4.031  0.1930 -0.2437  1.6993
 8159SOL    HW236111   0.193   2.865   4.107  2.0785  0.3510  1.2855
 8160SOL     OW36112   1.926   2.287  12.208 -0.3633 -0.3830 -0.7993
 8160SOL    HW136113   1.999   2.347  12.192 -0.8700  0.7448  1.0962
 8160SOL    HW236114   1.851   2.321  12.160  0.6420 -1.0144 -2.8576
 8161SOL     OW36115   2.124   1.184   3.430  0.2685  0.5603  0.9228
 8161SOL    HW136116   2.183   1.246   3.387 -2.5438  0.7741 -2.6884
 8161SOL    HW236117   2.143   1.108   3.374  0.9700  1.0239  0.5370
 8162SOL     OW36118   2.031   0.197   0.417  0.5089  0.0215  0.0243
 8162SOL    HW136119   2.026   0.207   0.322 -1.4992 -1.5624 -0.0523
 8162SOL    HW236120   1.941   0.171   0.439  0.2331  1.4606  0.5832
 8163SOL     OW36121   0.687   3.526   8.891  0.0200  0.0568 -0.3741
 8163SOL    HW136122   0.644   3.466   8.831 -0.4320  0.3883 -0.3834
 8163SOL    HW236123   0.680   3.605   8.836  3.1188 -0.0346 -0.9041
 8164SOL     OW36124   4.135   0.826   3.463 -0.5537 -0.1685  0.8434
 8164SOL    HW136125   4.079   0.820   3.386  3.4076  1.0633 -2.1581
 8164SOL    HW236126   4.204   0.760   3.452 -0.8014 -0.4392  0.9182
 8165SOL     OW36127   1.165   3.210  16.706 -0.2496  0.2825  0.2249
 8165SOL    HW136128   1.142   3.270  16.635 -1.5785  1.0345  1.2603
 8165SOL    HW236129   1.222   3.152  16.657 -1.5105  0.6748 -1.6794
 8166SOL     OW36130   4.355   2.047   5.712 -0.7730 -0.6856 -0.6053
 8166SOL    HW136131   4.272   2.066   5.757 -0.3267 -1.4618  0.5531
 8166SOL    HW236132   4.354   1.955   5.686  0.6874 -1.0129  0.5086
 8167SOL     OW36133   2.093   2.284   4.741  0.2224  0.1432 -0.1662
 8167SOL    HW136134   2.087   2.365   4.690 -1.7627  0.7499  1.0216
 8167SOL    HW236135   2.091   2.216   4.674  0.6529 -0.6761  0.6607
 8168SOL     OW36136   1.506   0.210   6.801 -0.3381  0.3221  0.6960
 8168SOL    HW136137   1.553   0.273   6.746 -0.6883 -0.2299 -0.2415
 8168SOL    HW236138   1.487   0.261   6.880  2.1402  1.1364  0.7602
 8169SOL     OW36139   0.393   1.770  17.600  0.2227  0.6011  0.3679
 8169SOL    HW136140   0.318   1.822  17.629  0.5341  2.2243 -1.7306
 8169SOL    HW236141   0.345   1.702  17.553  0.4454 -0.1845  1.2776
 8170SOL     OW36142   1.109   4.658  16.983  0.0640 -0.3912  0.2156
 8170SOL    HW136143   1.163   4.687  16.909 -0.4806  1.8510  0.7050
 8170SOL    HW236144   1.051   4.733  16.993  0.1685 -0.4774  1.4661
 8171SOL     OW36145   2.136   0.017   6.288  0.0461  0.5583 -0.1207
 8171SOL    HW136146   2.166   0.057   6.369  0.6697 -0.6254  0.2188
 8171SOL    HW236147   2.142   0.092   6.227 -0.4528  0.3224 -0.4635
 8172SOL     OW36148   3.537   1.813  16.099 -0.4675  0.2125  0.1762
 8172SOL    HW136149   3.506   1.751  16.033  2.7641 -0.4076 -0.7810
 8172SOL    HW236150   3.583   1.753  16.158  0.6432 -0.6997 -1.6074
 8173SOL     OW36151   2.444   2.224   5.436 -0.1145  0.5897  0.0726
 8173SOL    HW136152   2.534   2.243   5.409 -1.2880  1.6279 -3.2009
 8173SOL    HW236153   2.439   2.288   5.508  1.9660 -0.2376  0.9498
 8174SOL     OW36154   2.541   3.814   8.415 -0.0752  0.1794 -0.7354
 8174SOL    HW136155   2.572   3.747   8.354  1.1203  0.3685 -0.3268
 8174SOL    HW236156   2.462   3.849   8.372  0.1750  0.1823 -1.1954
 8175SOL     OW36157   0.447   4.508   6.087 -0.1973 -0.3450 -0.0549
 8175SOL    HW136158   0.430   4.416   6.110  1.3052 -1.0694 -1.8405
 8175SOL    HW236159   0.525   4.502   6.032  0.8663 -0.7373  1.4737
 8176SOL     OW36160   2.865   2.894  11.876 -0.0029 -0.0169 -0.2438
 8176SOL    HW136161   2.877   2.851  11.791  1.5277 -0.6127  0.2805
 8176SOL    HW236162   2.786   2.856  11.915  2.5857 -2.2990  2.7198
 8177SOL     OW36163   1.805   2.035   5.035 -0.0945  0.0509  0.3000
 8177SOL    HW136164   1.780   2.004   5.122  0.3583  2.0827  1.1595
 8177SOL    HW236165   1.727   2.086   5.012  1.2016  1.8646 -0.0832
 8178SOL     OW36166   3.207   2.748   4.320  0.0261 -0.0499  0.2596
 8178SOL    HW136167   3.289   2.708   4.290  0.5436 -0.5475  2.3254
 8178SOL    HW236168   3.148   2.702   4.260  0.8127 -0.7755  0.0561
 8179SOL     OW36169   1.567   0.173   5.377 -0.4640 -0.5768 -0.0034
 8179SOL    HW136170   1.612   0.258   5.373  1.2841 -1.4446  1.1771
 8179SOL    HW236171   1.575   0.165   5.472 -2.4163 -1.7063  0.0602
 8180SOL     OW36172   3.458   2.306   5.743  0.1265  0.1745  0.0210
 8180SOL    HW136173   3.479   2.237   5.806  1.3781  1.0403  0.5699
 8180SOL    HW236174   3.530   2.295   5.680  1.5384  0.8864  1.5009
 8181SOL     OW36175   4.466   2.111  16.555  0.3669  0.3129 -0.0972
 8181SOL    HW136176   4.442   2.148  16.470  1.3306  2.1271  0.4164
 8181SOL    HW236177   4.506   2.188  16.597 -1.0533  1.1269 -0.2304
 8182SOL     OW36178   0.248   0.703   7.204  0.5486 -0.1090  0.6909
 8182SOL    HW136179   0.293   0.750   7.133  0.4320  0.8680  1.2565
 8182SOL    HW236180   0.200   0.631   7.165  2.6152 -0.8763 -0.4090
 8183SOL     OW36181   3.882   2.911   7.087  0.3335 -0.1528 -0.8887
 8183SOL    HW136182   3.805   2.855   7.097  0.4089 -0.4594 -2.0184
 8183SOL    HW236183   3.942   2.852   7.133 -0.2749 -0.9431 -1.1098
 8184SOL     OW36184   1.408   2.015   0.524 -0.1759  0.3812 -0.2753
 8184SOL    HW136185   1.333   1.962   0.496  0.0123  0.3963 -0.8054
 8184SOL    HW236186   1.425   2.074   0.451  2.4790  0.9028  0.7931
 8185SOL     OW36187   4.354   4.407  16.455 -0.6793  0.4381 -0.8923
 8185SOL    HW136188   4.424   4.413  16.519 -1.4654 -1.3799  0.1299
 8185SOL    HW236189   4.351   4.499  16.427  1.9016 -0.8431 -5.2793
 8186SOL     OW36190   3.556   2.541   8.150 -0.2199  0.2751  0.0102
 8186SOL    HW136191   3.470   2.501   8.162  0.2313 -0.8402 -0.4746
 8186SOL    HW236192   3.602   2.484   8.212  1.2658  1.9095  0.4217
 8187SOL     OW36193   4.185   3.004   4.851  0.0823 -0.6946 -0.2798
 8187SOL    HW136194   4.136   2.929   4.818  1.7880 -1.8452 -0.1637
 8187SOL    HW236195   4.222   2.969   4.932  0.5796 -3.8956 -1.9191
 8188SOL     OW36196   1.395   2.321  15.548  0.1862  0.0669  0.2115
 8188SOL    HW136197   1.480   2.359  15.528 -0.6563  1.8609 -0.0073
 8188SOL    HW236198   1.356   2.386  15.606  0.4933 -0.5806  1.1366
 8189SOL     OW36199   2.399   3.842   8.847  0.1103  0.7489  0.1067
 8189SOL    HW136200   2.420   3.915   8.788 -1.9300 -1.2036 -3.0176
 8189SOL    HW236201   2.345   3.889   8.910 -0.8711  0.7955 -0.7759
 8190SOL     OW36202   4.709   3.575   3.606  0.2555 -0.4534 -0.1267
 8190SOL    HW136203   0.018   3.494   3.632 -0.8203 -1.1003 -0.3421
 8190SOL    HW236204   0.031   3.588   3.530 -0.9383 -1.7708 -1.2448
 8191SOL     OW36205   4.059   1.711   3.327  0.1084  0.1235  0.3650
 8191SOL    HW136206   4.013   1.706   3.243  1.3214  1.5711 -0.3887
 8191SOL    HW236207   4.021   1.786   3.372  0.1187  0.8267 -0.8073
 8192SOL     OW36208   0.624   4.391  11.950 -0.7115  0.0147  0.0428
 8192SOL    HW136209   0.529   4.402  11.956 -0.3359  2.2779  1.9494
 8192SOL    HW236210   0.653   4.361  12.037 -2.2035 -1.0990  0.1575
 8193SOL     OW36211   3.124   1.183   8.697 -0.0279 -0.1407 -0.4174
 8193SOL    HW136212   3.191   1.145   8.640  0.0543  0.3755 -0.6627
 8193SOL    HW236213   3.117   1.120   8.769 -0.6603 -0.2755 -0.5965
 8194SOL     OW36214   0.755   1.158   7.872  0.0016 -0.0876 -0.1270
 8194SOL    HW136215   0.749   1.185   7.780  0.6206  0.4000 -0.0254
 8194SOL    HW236216   0.821   1.090   7.860 -3.0124 -3.0146 -0.0312
 8195SOL     OW36217   1.183   0.950   6.810 -0.1207  0.3618  0.0612
 8195SOL    HW136218   1.156   1.032   6.769  0.3261  0.4399 -0.0850
 8195SOL    HW236219   1.159   0.876   6.754 -1.2881  1.4699 -0.8950
 8196SOL     OW36220   2.231   4.213   4.863  0.0317  0.5663 -0.5233
 8196SOL    HW136221   2.224   4.123   4.895  0.5975  0.7009 -0.0209
 8196SOL    HW236222   2.231   4.181   4.772 -0.7177 -0.1234 -0.2752
 8197SOL     OW36223   2.001   0.223  14.221  0.4266 -0.1846  0.7223
 8197SOL    HW136224   2.069   0.289  14.209 -0.7455  0.7374 -0.7773
 8197SOL    HW236225   2.001   0.204  14.315 -3.2138 -0.2895  0.6726
 8198SOL     OW36226   1.227   2.748   6.295  0.0917  0.6798 -0.0549
 8198SOL    HW136227   1.291   2.724   6.363 -0.2354 -0.2622 -0.0751
 8198SOL    HW236228   1.154   2.710   6.343  1.4786  1.5002  2.6814
 8199SOL     OW36229   3.234   3.549   9.011 -0.4778 -0.1507  0.2698
 8199SOL    HW136230   3.245   3.618   9.076 -1.4260 -0.8460  1.1580
 8199SOL    HW236231   3.204   3.478   9.067 -0.5755 -0.5601 -0.2985
 8200SOL     OW36232   1.260   1.821   3.833  0.7844  0.2301 -0.2566
 8200SOL    HW136233   1.289   1.905   3.869 -3.9307  1.4934  0.5496
 8200SOL    HW236234   1.319   1.805   3.759  0.8696  1.1327 -0.3889
 8201SOL     OW36235   1.193   2.390   6.099 -1.0359  0.0392  0.1914
 8201SOL    HW136236   1.221   2.482   6.096 -0.9417 -0.0451 -1.2574
 8201SOL    HW236237   1.267   2.343   6.060  0.8030  0.7921  2.7404
 8202SOL     OW36238   2.393   1.634  10.164 -0.2208 -0.1907  0.5598
 8202SOL    HW136239   2.477   1.667  10.195 -0.5309  1.4322 -0.3388
 8202SOL    HW236240   2.405   1.609  10.072 -2.9978 -1.7822  0.6349
 8203SOL     OW36241   4.688   1.502  17.436  0.0733  0.1959 -0.7188
 8203SOL    HW136242   4.663   1.411  17.420 -1.5555  0.5146 -0.0524
 8203SOL    HW236243   4.665   1.494  17.528  1.0408 -2.0481 -0.6780
 8204SOL     OW36244   2.128   0.339   4.615  0.0922 -0.6392 -0.7063
 8204SOL    HW136245   2.193   0.378   4.556  0.4362  0.8043  0.6337
 8204SOL    HW236246   2.082   0.414   4.653  3.4951  1.6755 -1.1464
 8205SOL     OW36247   2.911   3.830   0.290  0.2546 -0.2688 -0.8769
 8205SOL    HW136248   2.843   3.765   0.273  0.9075 -1.2908  0.3899
 8205SOL    HW236249   2.986   3.774   0.314  0.2132 -0.2883 -0.7920
 8206SOL     OW36250   0.186   3.782   9.211  0.1786  0.8724 -0.4641
 8206SOL    HW136251   0.152   3.743   9.292  0.1455 -1.3213 -1.5446
 8206SOL    HW236252   0.271   3.811   9.246 -0.5535  1.4305  0.8545
 8207SOL     OW36253   2.910   0.700   3.034  0.3475  0.4216 -0.2065
 8207SOL    HW136254   2.986   0.697   3.092 -0.4238  2.3501  0.8719
 8207SOL    HW236255   2.952   0.683   2.949 -0.4094 -0.8201 -0.3347
 8208SOL     OW36256   2.992   2.010   6.969  0.3611  0.3887 -0.0260
 8208SOL    HW136257   2.934   1.960   7.026 -2.0858  1.4208 -1.6340
 8208SOL    HW236258   2.946   2.018   6.886  1.0030 -2.1040 -0.6397
 8209SOL     OW36259   3.469   2.039   5.881 -0.4409  0.1277 -0.0508
 8209SOL    HW136260   3.559   2.070   5.895 -0.3204 -0.9687  1.5240
 8209SOL    HW236261   3.482   1.946   5.863  2.5869  1.2135 -3.5253
 8210SOL     OW36262   1.698   0.578   0.902 -0.0664  0.4875  0.0922
 8210SOL    HW136263   1.732   0.582   0.991  0.2153  0.4163 -0.0115
 8210SOL    HW236264   1.604   0.592   0.908  0.2412  2.6821 -0.2249
 8211SOL     OW36265   4.439   2.436   5.279  0.0094  0.7295  0.3195
 8211SOL    HW136266   4.526   2.406   5.250 -0.1094  0.1534  0.5608
 8211SOL    HW236267   4.459   2.458   5.370  1.7179  2.9037 -0.5646
 8212SOL     OW36268   3.125   2.033   3.405 -0.3326  0.2257 -0.3146
 8212SOL    HW136269   3.149   1.992   3.489  2.2230  1.7218 -0.3331
 8212SOL    HW236270   3.146   2.125   3.421  1.4474 -0.6553  2.5082
 8213SOL     OW36271   3.371   3.984   3.447 -0.0717 -0.1678 -0.4288
 8213SOL    HW136272   3.292   3.966   3.498  0.5209  2.6096  1.4563
 8213SOL    HW236273   3.448   3.956   3.497  0.9049  0.8458 -1.3698
 8214SOL     OW36274   2.802   3.298   2.276  0.4403 -0.0513 -0.5386
 8214SOL    HW136275   2.748   3.243   2.333  1.6107 -0.9068 -0.2520
 8214SOL    HW236276   2.802   3.245   2.196 -0.1154 -1.7659  0.5882
 8215SOL     OW36277   1.499   1.939  14.201 -0.0875  0.2546  0.2986
 8215SOL    HW136278   1.535   1.965  14.285 -0.0318  1.0104  0.0353
 8215SOL    HW236279   1.433   1.875  14.228 -1.1288  1.2115  0.0166
 8216SOL     OW36280   3.371   1.876   9.152  0.5360  0.4216 -0.1096
 8216SOL    HW136281   3.397   1.861   9.061 -0.0019 -0.8297 -0.0576
 8216SOL    HW236282   3.448   1.920   9.188  1.8397  0.5623 -3.0732
 8217SOL     OW36283   2.293   3.656   5.611  0.6382 -0.7393 -0.6766
 8217SOL    HW136284   2.224   3.620   5.666  0.5675  0.3921 -0.0161
 8217SOL    HW236285   2.357   3.589   5.635  2.3648  1.9902  2.3341
 8218SOL     OW36286   2.695   3.258   8.885  0.3776 -0.0741  0.1815
 8218SOL    HW136287   2.624   3.212   8.840  0.7287  0.9046 -1.3921
 8218SOL    HW236288   2.712   3.315   8.810 -1.5766  1.5784  0.9913
 8219SOL     OW36289   2.593   4.626  16.751 -0.1005  0.1480 -0.8231
 8219SOL    HW136290   2.580   4.531  16.752 -2.1823  0.4464  0.7428
 8219SOL    HW236291   2.664   4.634  16.687 -1.3348 -0.8760 -2.3337
 8220SOL     OW36292   2.487   3.097   7.717  0.2046  0.9621  0.3518
 8220SOL    HW136293   2.416   3.037   7.740 -0.0229  0.6809 -1.1288
 8220SOL    HW236294   2.497   3.135   7.805 -0.0670 -2.4625  1.8526
 8221SOL     OW36295   1.154   3.750  14.956  0.0437 -0.4382 -0.0683
 8221SOL    HW136296   1.095   3.765  14.882 -0.2724 -0.4367  0.1806
 8221SOL    HW236297   1.168   3.839  14.988 -0.1736  0.1481 -1.5979
 8222SOL     OW36298   1.263   0.902  11.165 -0.2878 -0.5617  0.7730
 8222SOL    HW136299   1.282   0.960  11.239  2.0576  0.3237 -0.5362
 8222SOL    HW236300   1.327   0.835  11.186  1.0575  0.3931 -0.3143
 8223SOL     OW36301   1.765   2.545  15.427 -0.0395 -0.5649 -0.2651
 8223SOL    HW136302   1.756   2.488  15.504 -1.2716 -0.8087 -0.6031
 8223SOL    HW236303   1.776   2.632  15.466 -0.3238 -0.7803  0.2973
 8224SOL     OW36304   2.493   1.958  16.559  0.1682  0.3801  0.0847
 8224SOL    HW136305   2.537   2.036  16.525  2.1347 -1.0146 -0.5611
 8224SOL    HW236306   2.485   1.987  16.650 -0.5271  1.5609 -0.3454
 8225SOL     OW36307   4.193   0.556   1.175 -0.5393  0.0625 -0.4216
 8225SOL    HW136308   4.117   0.559   1.234  0.6043  2.3521  0.9230
 8225SOL    HW236309   4.156   0.506   1.101 -2.0665  0.9423 -0.2521
 8226SOL     OW36310   3.258   2.292  11.713 -0.5364  0.4682  1.0259
 8226SOL    HW136311   3.275   2.256  11.626 -0.4573  0.2505  1.1311
 8226SOL    HW236312   3.269   2.385  11.691 -0.1640  0.2241  0.2055
 8227SOL     OW36313   0.190   2.090   8.845 -0.0165 -0.7218  0.2430
 8227SOL    HW136314   0.229   2.143   8.775 -1.1123 -1.3147 -0.8227
 8227SOL    HW236315   0.225   2.007   8.811  1.2592  0.8762 -2.3518
 8228SOL     OW36316   1.519   0.638   5.483  0.2586  1.0746  0.0656
 8228SOL    HW136317   1.520   0.731   5.506 -0.1376  0.5717  2.1358
 8228SOL    HW236318   1.530   0.639   5.388 -0.0783  1.6861  0.0350
 8229SOL     OW36319   4.715   3.810   4.970  0.3053 -0.0095  0.5716
 8229SOL    HW136320   4.662   3.851   5.038 -0.6245 -1.0295  0.4506
 8229SOL    HW236321   4.649   3.774   4.911  1.7914  0.1449 -1.1709
 8230SOL     OW36322   0.210   3.605   8.990 -0.0252  0.4838 -0.8468
 8230SOL    HW136323   0.217   3.669   9.062  1.6023 -0.6582  0.0159
 8230SOL    HW236324   0.130   3.560   9.016  2.0566 -3.0936 -0.5212
 8231SOL     OW36325   1.973   4.486   1.633 -0.6441  0.2106  0.3102
 8231SOL    HW136326   2.055   4.511   1.675 -0.7037  0.2077  0.4292
 8231SOL    HW236327   2.011   4.449   1.553 -0.4225 -3.7101  2.2573
 8232SOL     OW36328   0.336   3.029   8.855 -0.0966 -0.2113  0.1342
 8232SOL    HW136329   0.248   3.065   8.862  0.2036  0.3552  1.0221
 8232SOL    HW236330   0.358   3.010   8.946  1.0571 -0.7258 -0.2460
 8233SOL     OW36331   1.557   3.454   6.186  0.3973  0.2669 -0.0684
 8233SOL    HW136332   1.535   3.477   6.277 -2.2539 -1.8143 -0.1814
 8233SOL    HW236333   1.552   3.359   6.188 -0.3799  0.3240  0.7066
 8234SOL     OW36334   2.734   2.035  16.896  0.2083 -0.3373 -0.1764
 8234SOL    HW136335   2.775   1.987  16.969 -0.2690 -0.0419  0.2885
 8234SOL    HW236336   2.813   2.088  16.884 -0.4660  0.4839 -0.9283
 8235SOL     OW36337   4.326   1.288   8.654 -0.3505  0.3032  0.4300
 8235SOL    HW136338   4.351   1.227   8.723 -0.0804  0.8073  0.7844
 8235SOL    HW236339   4.414   1.316   8.628 -0.3999  0.0664  0.0200
 8236SOL     OW36340   1.182   2.465   9.669 -0.0583  0.2386 -0.2273
 8236SOL    HW136341   1.142   2.403   9.608 -1.3525  0.2611  0.6064
 8236SOL    HW236342   1.110   2.486   9.728  0.4557  0.4752  0.3173
 8237SOL     OW36343   3.321   1.413   9.060  0.0502 -0.0160 -0.3932
 8237SOL    HW136344   3.330   1.329   9.104  1.7895 -1.2360 -3.0800
 8237SOL    HW236345   3.302   1.467   9.136  0.9368 -0.8414  0.4032
 8238SOL     OW36346   1.717   3.051  17.252 -0.1424  0.7160  0.1571
 8238SOL    HW136347   1.702   3.145  17.264 -0.2827  0.5721  1.0583
 8238SOL    HW236348   1.629   3.024  17.277  0.5178 -1.2529  0.3809
 8239SOL     OW36349   1.867   1.374   7.359  0.1886  0.8880 -0.4285
 8239SOL    HW136350   1.842   1.313   7.429 -1.1537  2.6316  0.6265
 8239SOL    HW236351   1.854   1.321   7.281 -1.5557  0.2449  0.2875
 8240SOL     OW36352   1.907   0.928  12.720  0.5066  0.3001  0.4395
 8240SOL    HW136353   1.984   0.981  12.697  0.3711  0.6839  0.8741
 8240SOL    HW236354   1.885   0.953  12.810  0.0189 -1.6609  0.8665
 8241SOL     OW36355   1.247   0.675   4.466  0.3196 -0.0492  0.1575
 8241SOL    HW136356   1.311   0.695   4.534  0.8200  0.0582 -0.3403
 8241SOL    HW236357   1.301   0.665   4.387  0.2791  0.2922  0.0879
 8242SOL     OW36358   2.876   3.569   9.103 -0.1652  0.2728  0.5376
 8242SOL    HW136359   2.935   3.637   9.134  0.1538 -0.4835  1.5745
 8242SOL    HW236360   2.789   3.607   9.118  0.2199  1.3372  0.0262
 8243SOL     OW36361   1.555   3.029   6.998  0.0319 -0.2487 -0.3134
 8243SOL    HW136362   1.459   3.024   7.001  0.0761  0.5232  2.7278
 8243SOL    HW236363   1.579   2.937   7.011  2.1647  0.1783 -1.3195
 8244SOL     OW36364   2.508   3.644   2.317  0.2654  0.0160  0.5173
 8244SOL    HW136365   2.555   3.722   2.349 -0.8423  1.9523 -2.4839
 8244SOL    HW236366   2.568   3.623   2.245 -1.0104  0.1877 -0.5945
 8245SOL     OW36367   0.358   3.793   3.786  0.1032  0.1252 -0.2814
 8245SOL    HW136368   0.397   3.872   3.750 -0.7409  0.5709 -0.2105
 8245SOL    HW236369   0.264   3.809   3.789  0.2571  0.8520  0.5504
 8246SOL     OW36370   0.560   1.580  14.838 -0.3927 -0.8743 -0.4707
 8246SOL    HW136371   0.624   1.554  14.771  0.1272  0.6473 -0.5585
 8246SOL    HW236372   0.558   1.505  14.897  0.1896 -1.2243 -0.8892
 8247SOL     OW36373   4.602   2.621   8.469 -0.5554  0.8425  0.9512
 8247SOL    HW136374   4.576   2.639   8.560 -1.0582  3.1414  0.3570
 8247SOL    HW236375   4.675   2.563   8.491 -1.5353 -1.3206 -1.5392
 8248SOL     OW36376   0.706   2.357   2.384 -0.1172  0.0902  0.1311
 8248SOL    HW136377   0.636   2.307   2.344 -1.4149  1.2481  0.9661
 8248SOL    HW236378   0.769   2.342   2.313 -2.9192 -0.3135 -2.2609
 8249SOL     OW36379   1.497   3.348   0.509  0.2169 -0.7032  0.4375
 8249SOL    HW136380   1.419   3.372   0.458  1.0865  0.5357 -0.3023
 8249SOL    HW236381   1.526   3.281   0.447 -0.7939  0.3203 -1.1521
 8250SOL     OW36382   3.650   0.838   8.760  0.4359 -0.5092 -0.3071
 8250SOL    HW136383   3.605   0.919   8.782 -1.2447 -2.1880  2.4214
 8250SOL    HW236384   3.635   0.781   8.835  0.2162  0.0581  0.0825
 8251SOL     OW36385   2.474   0.982   7.147 -0.6487  0.3694 -0.1127
 8251SOL    HW136386   2.567   0.984   7.124 -1.2360  0.2370 -2.4830
 8251SOL    HW236387   2.483   0.937   7.231  0.5763  0.2095 -0.3259
 8252SOL     OW36388   1.298   0.042   4.786  0.0835 -0.5153 -0.0784
 8252SOL    HW136389   1.254   0.044   4.700  3.5371 -0.3377 -1.8313
 8252SOL    HW236390   1.367   4.714   4.764  0.7300 -0.6134  2.2764
 8253SOL     OW36391   2.726   1.626   6.927 -0.7314  0.3941  0.5765
 8253SOL    HW136392   2.802   1.654   6.978  1.8066 -0.1687 -2.9052
 8253SOL    HW236393   2.730   1.533   6.949 -0.3849  0.6608  1.6262
 8254SOL     OW36394   0.627   1.573   7.695 -0.0685 -0.4247  0.2825
 8254SOL    HW136395   0.699   1.540   7.642  3.3578  1.3043  3.8717
 8254SOL    HW236396   0.657   1.642   7.755 -0.3884  1.5046 -1.7733
 8255SOL     OW36397   3.266   0.246   7.417 -0.1153 -0.1165  0.2312
 8255SOL    HW136398   3.268   0.151   7.403  0.9964  0.0057 -0.4252
 8255SOL    HW236399   3.186   0.260   7.467  0.3716 -1.0891  1.2749
 8256SOL     OW36400   2.101   3.016   0.441  0.7590  0.0612  0.8213
 8256SOL    HW136401   2.098   3.099   0.395 -2.4955 -0.2987  0.3828
 8256SOL    HW236402   2.144   3.036   0.524  0.6575 -0.1591  0.9282
 8257SOL     OW36403   0.510   1.542  13.441 -0.2754  0.1552  0.3235
 8257SOL    HW136404   0.478   1.551  13.531 -1.3014  0.6958 -0.0951
 8257SOL    HW236405   0.457   1.605  13.392 -1.0005 -1.2042 -0.6328
 8258SOL     OW36406   4.007   0.506   5.048  0.1621 -0.0168 -0.2300
 8258SOL    HW136407   4.098   0.524   5.024  0.3210 -1.0730 -0.4152
 8258SOL    HW236408   3.968   0.588   5.017  0.3265  0.6757  1.4238
 8259SOL     OW36409   2.692   3.888   2.656 -0.3054 -0.4015  0.5569
 8259SOL    HW136410   2.728   3.974   2.636 -0.5317 -0.3837  0.2234
 8259SOL    HW236411   2.676   3.861   2.566 -1.3841  1.2313  0.2735
 8260SOL     OW36412   0.885   4.098  12.809  0.6106 -0.4951 -0.1091
 8260SOL    HW136413   0.857   4.150  12.734 -1.5227  0.1932  1.1643
 8260SOL    HW236414   0.884   4.011  12.770  0.8629 -0.4307 -0.2600
 8261SOL     OW36415   1.493   2.433   6.416  0.3529  0.4000 -0.0995
 8261SOL    HW136416   1.454   2.519   6.432  0.2541 -0.0736  2.1775
 8261SOL    HW236417   1.515   2.438   6.323  2.0813 -1.8200  0.1988
 8262SOL     OW36418   4.158   1.791   8.039 -0.1168 -0.5896  0.0430
 8262SOL    HW136419   4.165   1.744   8.122  0.3465  0.5106  0.6336
 8262SOL    HW236420   4.168   1.884   8.058  0.6223 -0.5288 -0.6434
 8263SOL     OW36421   3.911   1.431   5.273 -0.7160  0.1441 -0.0411
 8263SOL    HW136422   3.842   1.487   5.237 -1.8747 -1.2232  0.0192
 8263SOL    HW236423   3.940   1.482   5.349 -1.7295  1.1617 -0.3348
 8264SOL     OW36424   4.308   2.687   6.572 -0.3663  0.0913 -0.4537
 8264SOL    HW136425   4.336   2.778   6.573 -0.8396  0.2722 -3.0109
 8264SOL    HW236426   4.374   2.646   6.629  0.2437  1.6546 -0.0435
 8265SOL     OW36427   3.516   2.810  16.561  0.4184  0.0833  0.5833
 8265SOL    HW136428   3.486   2.900  16.574 -0.4308 -0.0685 -0.2957
 8265SOL    HW236429   3.609   2.825  16.578  0.7463 -1.1292 -0.1346
 8266SOL     OW36430   2.495   3.040   7.451 -0.0111 -0.1312 -0.0008
 8266SOL    HW136431   2.441   2.963   7.430 -2.5731  1.5447  0.5448
 8266SOL    HW236432   2.507   3.035   7.545  0.8113  2.7218  0.0168
 8267SOL     OW36433   3.801   0.421   2.346 -0.1195 -0.3458  0.7264
 8267SOL    HW136434   3.734   0.366   2.388 -1.2478  1.7960  1.7740
 8267SOL    HW236435   3.843   0.358   2.289  0.2716 -0.9502  1.6829
 8268SOL     OW36436   3.548   3.995   4.554  0.0008  0.0608 -0.1364
 8268SOL    HW136437   3.559   3.965   4.463 -0.6919 -1.1177  0.1666
 8268SOL    HW236438   3.454   3.983   4.568  0.4616  0.7090  3.4124
 8269SOL     OW36439   3.408   3.001   3.576 -0.0639  0.3482 -0.7312
 8269SOL    HW136440   3.340   3.048   3.528 -1.0120  1.1183  1.3515
 8269SOL    HW236441   3.485   3.054   3.555 -0.5916  1.4534  0.1118
 8270SOL     OW36442   2.733   0.481   2.912  0.0136  0.1697 -0.0706
 8270SOL    HW136443   2.728   0.404   2.968  1.2559  1.3586  1.7021
 8270SOL    HW236444   2.829   0.488   2.912 -0.0205  0.5177 -2.3114
 8271SOL     OW36445   2.433   2.333  16.958  0.2255  0.3687 -0.3928
 8271SOL    HW136446   2.406   2.401  16.896 -0.2982  0.2258 -0.3154
 8271SOL    HW236447   2.498   2.286  16.906 -0.1427 -0.9868  0.3794
 8272SOL     OW36448   1.944   0.699  16.248  0.3148  0.2398  0.3049
 8272SOL    HW136449   2.015   0.723  16.308 -0.7862  1.1882  1.2058
 8272SOL    HW236450   1.876   0.681  16.312 -1.6246  0.6710 -1.6198
 8273SOL     OW36451   3.874   1.605   8.162 -0.7609 -1.0123 -0.3265
 8273SOL    HW136452   3.883   1.695   8.195 -2.8609 -0.3092 -1.6360
 8273SOL    HW236453   3.945   1.569   8.214  1.1913 -0.3793 -2.5477
 8274SOL     OW36454   3.189   4.315  10.612  1.0265  0.8353 -1.0183
 8274SOL    HW136455   3.120   4.308  10.547  0.7663  0.2367 -0.6793
 8274SOL    HW236456   3.134   4.327  10.690 -0.4023 -0.4421 -1.8336
 8275SOL     OW36457   0.866   1.027   3.540 -0.6370  0.3257 -0.1966
 8275SOL    HW136458   0.910   0.949   3.506  0.5626  0.8745  0.1165
 8275SOL    HW236459   0.839   1.066   3.457  0.2319  0.3400 -0.4705
 8276SOL     OW36460   2.668   0.243   8.873 -0.8757  0.7683  0.4948
 8276SOL    HW136461   2.648   0.153   8.898 -1.5134  1.1261  1.2665
 8276SOL    HW236462   2.579   0.276   8.881 -1.4705 -0.8274  0.5320
 8277SOL     OW36463   1.393   4.655   7.043 -0.0180  0.4001 -0.0966
 8277SOL    HW136464   1.374   4.610   7.125 -1.2123 -2.0939 -1.7292
 8277SOL    HW236465   1.320   4.717   7.042 -0.7823 -0.4911  1.0768
 8278SOL     OW36466   1.263   3.091  11.914 -0.0618  0.1167  0.3204
 8278SOL    HW136467   1.297   3.019  11.968  1.6366 -0.3060 -1.3468
 8278SOL    HW236468   1.312   3.168  11.943  2.0600 -1.7370  1.6429
 8279SOL     OW36469   2.467   3.372   2.596 -0.3581 -0.0005  0.3206
 8279SOL    HW136470   2.418   3.357   2.515  0.1281 -0.7302  0.1677
 8279SOL    HW236471   2.453   3.467   2.598 -2.5392 -0.3660  1.9259
 8280SOL     OW36472   3.441   4.464   7.935  0.1798 -0.2621 -0.2427
 8280SOL    HW136473   3.464   4.371   7.929  0.3604 -0.4020  2.5644
 8280SOL    HW236474   3.402   4.465   8.023 -0.5998 -1.0887 -0.5725
 8281SOL     OW36475   3.692   0.546   4.444 -0.2959 -0.1996 -0.4022
 8281SOL    HW136476   3.683   0.641   4.442  0.7342 -0.1134 -1.1051
 8281SOL    HW236477   3.763   0.534   4.508 -0.2908 -0.2433 -0.4162
 8282SOL     OW36478   0.502   2.999   2.772  0.1514 -0.6996 -0.2273
 8282SOL    HW136479   0.592   2.970   2.758  1.1957  2.0036  1.0231
 8282SOL    HW236480   0.478   2.930   2.834  1.0335 -0.1185  0.7400
 8283SOL     OW36481   3.428   1.695  11.215  0.0567 -0.3250  0.4378
 8283SOL    HW136482   3.357   1.719  11.275  1.0465  0.7894  1.1579
 8283SOL    HW236483   3.407   1.604  11.193 -0.1085 -0.3264  0.5967
 8284SOL     OW36484   4.587   4.234   3.524 -0.1845  0.3049 -0.3683
 8284SOL    HW136485   4.613   4.317   3.564 -0.7465  0.6443 -0.7205
 8284SOL    HW236486   4.559   4.269   3.439  0.4146  1.6979  0.0034
 8285SOL     OW36487   0.403   0.596  15.037 -0.7198  1.0099  0.0984
 8285SOL    HW136488   0.374   0.683  15.064  1.2420  2.5379 -2.5803
 8285SOL    HW236489   0.418   0.614  14.944  2.1820  0.9893  0.5609
 8286SOL     OW36490   0.135   4.612   1.536 -0.4430 -0.0270 -0.0743
 8286SOL    HW136491   0.050   4.656   1.535  0.3279  1.4614  0.0043
 8286SOL    HW236492   0.113   4.553   1.465  1.3632 -1.6477  0.7129
 8287SOL     OW36493   2.613   0.991  14.879 -0.0172 -0.0382  0.0810
 8287SOL    HW136494   2.528   0.959  14.850  0.4765 -1.4142  0.1864
 8287SOL    HW236495   2.670   0.936  14.825  0.3462  0.2134  0.2006
 8288SOL     OW36496   1.678   1.062   4.263  0.5394 -0.0151  0.0447
 8288SOL    HW136497   1.622   0.989   4.290 -0.6695  1.4510  1.4725
 8288SOL    HW236498   1.745   1.055   4.330  0.1879 -3.3968  0.0555
 8289SOL     OW36499   0.845   4.677   5.981 -0.1051  0.5129  0.2890
 8289SOL    HW136500   0.753   4.703   5.976  0.4168  1.8349 -2.6406
 8289SOL    HW236501   0.869   4.674   6.074 -2.1595  0.3269  0.8141
 8290SOL     OW36502   0.738   3.529  15.384 -0.2258 -0.3667 -0.4758
 8290SOL    HW136503   0.763   3.530  15.291  0.7347  1.2234 -0.1995
 8290SOL    HW236504   0.761   3.620  15.402 -4.4059  0.2889  1.3016
 8291SOL     OW36505   1.589   0.356   8.775  0.6345 -0.0555 -0.1023
 8291SOL    HW136506   1.608   0.267   8.807  0.6187  0.1330  0.4297
 8291SOL    HW236507   1.631   0.420   8.832  0.9196 -0.2447 -0.0979
 8292SOL     OW36508   3.562   2.399   7.704  0.1003  0.0952  0.0952
 8292SOL    HW136509   3.618   2.407   7.781 -1.0345  2.2939  0.6921
 8292SOL    HW236510   3.596   2.318   7.666  0.2324 -1.1021  2.7784
 8293SOL     OW36511   2.521   1.142   2.222 -0.0640 -0.1229 -0.5285
 8293SOL    HW136512   2.430   1.111   2.214  0.3414 -0.8035 -2.4369
 8293SOL    HW236513   2.511   1.237   2.220  1.3158  0.0184 -0.5414
 8294SOL     OW36514   1.062   2.322   2.232  0.3939  0.0636 -0.3729
 8294SOL    HW136515   1.060   2.378   2.155  1.9092  0.2132 -0.3027
 8294SOL    HW236516   1.051   2.385   2.303 -0.8220 -0.1454 -0.3848
 8295SOL     OW36517   0.635   2.807  11.254 -0.5950 -0.7637 -0.2718
 8295SOL    HW136518   0.712   2.810  11.310 -0.1672 -1.9607 -0.7813
 8295SOL    HW236519   0.680   2.843  11.177  2.3442 -2.2009  0.7823
 8296SOL     OW36520   2.325   3.596   3.247  0.1056 -0.6219 -0.2293
 8296SOL    HW136521   2.231   3.596   3.229  0.4643 -0.5184 -2.1195
 8296SOL    HW236522   2.366   3.552   3.173  2.2400 -1.3184  1.3566
 8297SOL     OW36523   1.970   0.576  15.986  0.4269 -0.0389 -0.0893
 8297SOL    HW136524   1.954   0.496  16.035 -0.2750  0.4713  0.5202
 8297SOL    HW236525   1.987   0.641  16.055 -0.1606  1.5405 -1.4195
 8298SOL     OW36526   2.512   2.393   9.007  0.2332 -0.0681 -0.1010
 8298SOL    HW136527   2.573   2.412   9.078  1.7200  0.3271 -1.4926
 8298SOL    HW236528   2.570   2.358   8.940  1.4175  2.0670 -0.1837
 8299SOL     OW36529   3.526   3.213  11.551  0.0341  0.1950 -0.2871
 8299SOL    HW136530   3.571   3.184  11.630 -1.0789 -1.1521 -0.1628
 8299SOL    HW236531   3.476   3.291  11.576 -1.3014 -1.0315  0.8694
 8300SOL     OW36532   2.941   3.294   7.383  0.1290 -0.3509  0.3707
 8300SOL    HW136533   2.890   3.231   7.433 -1.1642 -0.1297 -0.6833
 8300SOL    HW236534   2.947   3.244   7.301 -1.0155  1.1267 -0.6064
 8301SOL     OW36535   1.692   2.690   6.392  0.0680 -1.0342  0.1323
 8301SOL    HW136536   1.764   2.744   6.359  0.6641 -2.0469 -0.2131
 8301SOL    HW236537   1.630   2.721   6.326 -1.6686  0.0434  2.2989
 8302SOL     OW36538   0.652   0.305   4.682  0.5747 -0.0798  0.8088
 8302SOL    HW136539   0.708   0.228   4.688  2.0812  0.9100 -0.4153
 8302SOL    HW236540   0.722   0.366   4.658 -0.7754  1.0728 -0.1964
 8303SOL     OW36541   0.700   2.030   4.898  0.5715  0.5372  0.3620
 8303SOL    HW136542   0.633   2.070   4.842  1.5562  1.3313 -0.2462
 8303SOL    HW236543   0.684   2.074   4.982 -0.3373 -0.7955  0.8802
 8304SOL     OW36544   1.824   0.819   6.509 -0.4703 -0.0659 -0.4711
 8304SOL    HW136545   1.887   0.857   6.570 -0.6866 -0.4253 -0.0242
 8304SOL    HW236546   1.886   0.766   6.460  0.3903 -0.2276  0.8158
 8305SOL     OW36547   3.315   4.705   7.420  0.1848  0.4949 -0.1002
 8305SOL    HW136548   3.386   4.716   7.484  0.6557 -0.8261 -0.3992
 8305SOL    HW236549   3.276   4.624   7.452 -1.3239  1.3001  0.1318
 8306SOL     OW36550   2.072   0.375   3.501  0.2458  0.7336  0.6253
 8306SOL    HW136551   2.022   0.402   3.424  0.8628  1.4740  0.4812
 8306SOL    HW236552   2.114   0.291   3.478 -1.9098 -0.2211  0.1661
 8307SOL     OW36553   1.355   0.859   8.489  0.1017 -0.3284 -0.0945
 8307SOL    HW136554   1.351   0.837   8.582  0.4949  0.1918  0.0461
 8307SOL    HW236555   1.412   0.936   8.494  0.7991 -0.7628 -1.2667
 8308SOL     OW36556   3.149   3.012   3.221  0.7619 -0.2848 -0.4869
 8308SOL    HW136557   3.061   2.997   3.255  1.1073  0.9232  0.9018
 8308SOL    HW236558   3.191   3.054   3.296 -0.9499  1.2033 -0.3773
 8309SOL     OW36559   0.729   2.101   9.124  0.2041  0.0412  0.3016
 8309SOL    HW136560   0.669   2.039   9.082 -2.3302  1.9953  1.0428
 8309SOL    HW236561   0.811   2.051   9.130  0.0151 -0.1954  0.9555
 8310SOL     OW36562   4.127   2.114   7.695  0.2600 -0.0180  0.2602
 8310SOL    HW136563   4.096   2.159   7.616  0.9186 -0.9423 -0.5251
 8310SOL    HW236564   4.053   2.131   7.754 -0.6206  3.4778 -1.8124
 8311SOL     OW36565   2.158   3.063   3.855 -0.4690 -0.6610  0.6814
 8311SOL    HW136566   2.120   2.976   3.844 -1.3792  0.0126 -1.4118
 8311SOL    HW236567   2.096   3.127   3.822  1.0560 -0.5178 -1.8435
 8312SOL     OW36568   0.337   4.332   5.484 -0.1168 -0.2755 -0.8603
 8312SOL    HW136569   0.416   4.334   5.538 -1.3895  0.3925  0.9806
 8312SOL    HW236570   0.339   4.245   5.445 -1.7578 -0.3471 -0.7981
 8313SOL     OW36571   0.146   1.648  14.160  0.2428  0.5929 -0.1771
 8313SOL    HW136572   0.105   1.710  14.220 -1.5903 -1.0818  0.3226
 8313SOL    HW236573   0.213   1.612  14.218  1.2183  0.2204 -1.5300
 8314SOL     OW36574   3.088   2.857  16.951 -0.8406 -0.3906  0.5226
 8314SOL    HW136575   3.183   2.861  16.960 -0.6960 -0.0315 -1.1334
 8314SOL    HW236576   3.083   2.778  16.896  1.2567 -0.6761  0.7654
 8315SOL     OW36577   1.951   0.725   1.230  0.2672 -0.2030 -0.5074
 8315SOL    HW136578   1.866   0.684   1.247 -0.0077  0.4085 -0.4257
 8315SOL    HW236579   1.990   0.677   1.156 -1.6622 -3.7330  0.7358
 8316SOL     OW36580   1.551   1.037  12.165  0.3238  0.4210 -0.4214
 8316SOL    HW136581   1.569   1.033  12.259  0.0391  1.6310 -0.3095
 8316SOL    HW236582   1.487   1.108  12.163 -0.1693  0.0304  2.5621
 8317SOL     OW36583   0.697   2.612   8.877  0.2523  0.0527  0.4388
 8317SOL    HW136584   0.639   2.670   8.827 -0.2929  0.0928  1.1178
 8317SOL    HW236585   0.780   2.641   8.838 -0.7209  2.7442  0.3947
 8318SOL     OW36586   4.365   1.745  10.049  0.1794 -0.5413 -0.0865
 8318SOL    HW136587   4.416   1.777  10.124  1.1489  3.0945 -2.3281
 8318SOL    HW236588   4.315   1.822  10.024  0.0684  0.0267  1.8810
 8319SOL     OW36589   0.843   2.045   2.464  0.5956 -0.5738 -0.9206
 8319SOL    HW136590   0.760   2.009   2.493 -0.3264  4.0624  2.0905
 8319SOL    HW236591   0.904   2.033   2.537  0.9376 -0.2167 -1.1511
 8320SOL     OW36592   0.369   1.382   5.227  0.2068 -0.3124 -0.2369
 8320SOL    HW136593   0.291   1.332   5.203  1.1722 -1.8817 -0.0930
 8320SOL    HW236594   0.353   1.397   5.320 -0.6092 -1.9374 -0.1133
 8321SOL     OW36595   0.216   0.715   1.703  0.2453 -0.0950  0.1503
 8321SOL    HW136596   0.251   0.718   1.792 -0.7541 -0.2928  0.5548
 8321SOL    HW236597   0.231   0.631   1.660  0.3376  0.9242 -1.8104
 8322SOL     OW36598   3.400   4.424  14.870  0.5908 -0.0309 -0.4489
 8322SOL    HW136599   3.335   4.426  14.799  0.4985 -0.9099 -0.3929
 8322SOL    HW236600   3.342   4.405  14.944 -0.4693  3.9436 -0.2760
 8323SOL     OW36601   1.353   1.395   8.168  0.5985  0.3136 -0.3480
 8323SOL    HW136602   1.277   1.438   8.130 -1.3210 -4.2019 -1.6427
 8323SOL    HW236603   1.367   1.320   8.109  0.2662 -0.4707  0.5701
 8324SOL     OW36604   4.504   0.424   7.698 -1.1938 -0.4078 -0.0982
 8324SOL    HW136605   4.420   0.468   7.708 -2.8644 -3.5314 -0.4763
 8324SOL    HW236606   4.474   0.334   7.691 -1.0150 -0.4232 -0.6281
 8325SOL     OW36607   3.513   0.042   8.445  0.3678  0.6373 -0.4421
 8325SOL    HW136608   3.427   0.079   8.428  1.6933  2.0796 -4.0450
 8325SOL    HW236609   3.561   0.125   8.453  0.9487  0.2682 -0.0760
 8326SOL     OW36610   1.777   0.998   5.857  0.6931  0.4509  0.0640
 8326SOL    HW136611   1.716   1.070   5.873  0.6611 -0.4362  3.9129
 8326SOL    HW236612   1.860   1.031   5.889  2.4820 -2.0184 -1.9960
 8327SOL     OW36613   4.618   1.795   2.873  0.2892  0.3900 -0.1430
 8327SOL    HW136614   4.566   1.812   2.952  1.2640  0.2414  0.5218
 8327SOL    HW236615   4.570   1.721   2.837  1.1135  1.5577 -3.6186
 8328SOL     OW36616   1.506   4.579   5.765  0.7483  0.1024 -0.4482
 8328SOL    HW136617   1.432   4.636   5.788 -0.6619 -1.0668 -2.0846
 8328SOL    HW236618   1.485   4.505   5.823  0.4713 -0.4718 -1.2903
 8329SOL     OW36619   0.261   3.791   6.803  0.2520  0.4717 -0.4613
 8329SOL    HW136620   0.171   3.768   6.779  0.6911  0.1882 -1.8510
 8329SOL    HW236621   0.278   3.855   6.734 -2.6664 -1.2117 -2.7248
 8330SOL     OW36622   1.993   3.268   3.752  0.0402  0.1214 -0.5137
 8330SOL    HW136623   1.923   3.234   3.808  0.2845 -0.9225 -0.8281
 8330SOL    HW236624   1.963   3.249   3.663 -0.1734  0.6902 -0.5585
 8331SOL     OW36625   0.673   3.127   6.873 -0.4412 -0.6971 -0.0033
 8331SOL    HW136626   0.642   3.059   6.813  1.5570 -0.3001 -1.4929
 8331SOL    HW236627   0.597   3.178   6.901 -1.6109 -1.8299 -1.1934
 8332SOL     OW36628   0.058   2.966   8.046  0.3183  0.2323  0.0316
 8332SOL    HW136629   0.126   2.951   8.112  0.5619 -1.9729 -0.7208
 8332SOL    HW236630   0.017   2.881   8.030 -0.1432  0.2106  1.2909
 8333SOL     OW36631   3.215   2.539   7.764  0.5642 -0.0880 -0.5411
 8333SOL    HW136632   3.286   2.519   7.825 -2.1358 -1.3946  2.1797
 8333SOL    HW236633   3.218   2.635   7.769  0.2676 -0.1472  0.5690
 8334SOL     OW36634   0.064   0.400   9.604  0.0087  0.5143 -0.0580
 8334SOL    HW136635   4.715   0.389   9.648 -0.1292  0.0736 -0.4325
 8334SOL    HW236636   0.036   0.353   9.525  0.9946  0.0261 -0.1212
 8335SOL     OW36637   3.063   1.160   4.681  0.1157 -0.0766 -0.0261
 8335SOL    HW136638   3.067   1.255   4.678 -0.3330 -0.0628 -0.2063
 8335SOL    HW236639   2.997   1.148   4.612 -0.3716  0.9979  0.2611
 8336SOL     OW36640   0.144   0.965  12.343 -0.3992  0.8215  0.1613
 8336SOL    HW136641   0.110   0.895  12.399  0.2112 -0.7741 -1.4365
 8336SOL    HW236642   0.181   1.024  12.408 -1.3084 -0.6139  1.9918
 8337SOL     OW36643   3.893   3.925   8.325 -0.1515  0.5328 -0.1905
 8337SOL    HW136644   3.959   3.856   8.336  0.1092  0.9994  1.1531
 8337SOL    HW236645   3.860   3.908   8.237  0.2453  2.3367 -0.7020
 8338SOL     OW36646   3.239   3.645   5.572 -0.1820  0.3076  0.3066
 8338SOL    HW136647   3.234   3.728   5.618 -0.0946  1.0769 -1.0696
 8338SOL    HW236648   3.306   3.656   5.504 -0.0994  1.9292  0.6439
 8339SOL     OW36649   1.741   3.587   1.984  0.0006 -0.0245 -0.3622
 8339SOL    HW136650   1.715   3.577   2.076  3.9297  1.0571  0.8459
 8339SOL    HW236651   1.702   3.509   1.944 -1.7874 -0.8443  2.9800
 8340SOL     OW36652   0.261   4.556   9.392 -0.3764 -0.3695  0.1091
 8340SOL    HW136653   0.259   4.547   9.297 -1.4531  0.1623  0.0783
 8340SOL    HW236654   0.199   4.628   9.396 -0.2629 -0.2689  0.0445
 8341SOL     OW36655   1.776   1.909   1.392  0.7322 -0.2801  0.3245
 8341SOL    HW136656   1.805   1.824   1.424  2.1109  0.2067  0.3590
 8341SOL    HW236657   1.690   1.890   1.354  0.6662 -0.0570  0.3604
 8342SOL     OW36658   2.296   2.246   2.158  0.2156 -0.6213  0.5396
 8342SOL    HW136659   2.257   2.333   2.163  0.8577 -0.4380  2.2386
 8342SOL    HW236660   2.264   2.217   2.072 -1.1449  1.1387  0.4271
 8343SOL     OW36661   0.195   3.569   7.165  0.0060 -0.0463  0.0037
 8343SOL    HW136662   0.112   3.530   7.191 -0.3984  0.0154 -1.2016
 8343SOL    HW236663   0.246   3.552   7.244  0.4694 -1.8035 -0.6564
 8344SOL     OW36664   2.529   3.397   9.499  0.9686  0.1799 -0.7442
 8344SOL    HW136665   2.521   3.391   9.404 -0.4179  0.2323 -0.6250
 8344SOL    HW236666   2.506   3.485   9.529  0.0842  0.0187 -0.9539
 8345SOL     OW36667   3.560   1.933  13.849 -0.4606  0.0321 -0.0426
 8345SOL    HW136668   3.583   1.953  13.940  0.7889  1.8382 -0.7692
 8345SOL    HW236669   3.472   1.970  13.841 -0.9092 -1.2041 -0.9161
 8346SOL     OW36670   1.477   1.069   7.554  0.0667  0.3915  0.4867
 8346SOL    HW136671   1.448   1.110   7.636  1.8324  2.3643  0.1412
 8346SOL    HW236672   1.546   1.008   7.582 -1.8400 -2.0594 -0.2603
 8347SOL     OW36673   0.208   4.286   7.558 -0.5175 -0.4709  0.0783
 8347SOL    HW136674   0.273   4.353   7.537 -0.5589 -0.7734 -1.0125
 8347SOL    HW236675   0.259   4.232   7.619 -2.3165 -0.1113  1.9108
 8348SOL     OW36676   3.180   2.309   3.080  0.1749 -0.4466 -0.4980
 8348SOL    HW136677   3.229   2.371   3.026 -0.7073  0.2675 -0.4706
 8348SOL    HW236678   3.171   2.351   3.166  2.0593  0.7517 -0.8830
 8349SOL     OW36679   2.999   3.554   8.262 -0.3798 -0.6932  0.2011
 8349SOL    HW136680   2.992   3.501   8.183 -1.4488  0.8392 -0.7190
 8349SOL    HW236681   3.092   3.579   8.260 -0.6311 -0.0381 -2.1481
 8350SOL     OW36682   2.625   0.811   8.081 -0.0656  0.2318 -0.1579
 8350SOL    HW136683   2.595   0.859   8.004  0.8855  2.6672  1.0137
 8350SOL    HW236684   2.555   0.746   8.086  0.1209 -0.0379 -0.9474
 8351SOL     OW36685   2.627   1.595   7.907  0.4193 -0.5395  0.1463
 8351SOL    HW136686   2.684   1.647   7.965 -0.1895 -0.0103  0.2664
 8351SOL    HW236687   2.672   1.600   7.822  0.6520 -0.3408  0.2787
 8352SOL     OW36688   1.990   0.199   4.421 -0.3059  0.2818 -0.3194
 8352SOL    HW136689   2.023   0.231   4.505  0.2570  0.3534 -0.5635
 8352SOL    HW236690   1.967   0.286   4.390 -0.5806 -0.6207 -2.6464
 8353SOL     OW36691   1.089   3.257  16.963 -0.3804 -0.1580 -0.0327
 8353SOL    HW136692   1.117   3.248  16.872 -0.2848  1.4777 -0.1751
 8353SOL    HW236693   1.063   3.348  16.973 -3.6000 -1.1894  0.7940
 8354SOL     OW36694   2.382   0.252   5.872  0.1535 -0.2756  0.4791
 8354SOL    HW136695   2.402   0.162   5.900  0.4956 -0.4125 -0.2108
 8354SOL    HW236696   2.411   0.301   5.949  1.1807  2.5223 -1.7202
 8355SOL     OW36697   3.558   1.779   6.458 -0.5133  0.0666  0.2935
 8355SOL    HW136698   3.508   1.854   6.425  0.6309  0.1433 -1.2328
 8355SOL    HW236699   3.531   1.704   6.406  1.1069  2.4481 -3.9946
 8356SOL     OW36700   4.637   3.061   8.532  0.3680 -0.5295  0.2561
 8356SOL    HW136701   4.615   3.154   8.536  1.7877 -0.1979  0.4159
 8356SOL    HW236702   4.591   3.029   8.455  0.1691  0.4312 -0.0265
 8357SOL     OW36703   3.337   2.202   7.532 -0.5773 -0.7539  0.1170
 8357SOL    HW136704   3.403   2.133   7.522 -0.8614 -1.2918  1.9045
 8357SOL    HW236705   3.318   2.205   7.626 -1.4062 -1.8693 -0.0062
 8358SOL     OW36706   4.128   3.506   9.830  0.1633  0.3259  0.5017
 8358SOL    HW136707   4.195   3.443   9.854 -0.5401 -0.3131  0.8073
 8358SOL    HW236708   4.090   3.457   9.757 -1.1654 -3.2111  3.6046
 8359SOL     OW36709   3.833   4.110   6.925  0.1462  0.1600 -0.1928
 8359SOL    HW136710   3.926   4.090   6.913 -0.2144 -0.7739 -1.4661
 8359SOL    HW236711   3.823   4.097   7.019 -2.1289  1.3827 -0.2647
 8360SOL     OW36712   4.642   1.687   3.168 -0.2215  0.2635  0.2812
 8360SOL    HW136713   4.562   1.734   3.146 -0.4764 -0.4517 -0.3081
 8360SOL    HW236714   4.626   1.594   3.151 -0.6836  0.1623  1.2606
 8361SOL     OW36715   1.332   0.026   2.637  0.4226 -0.1730  0.4813
 8361SOL    HW136716   1.335   0.007   2.731  4.4620  0.1385  0.4236
 8361SOL    HW236717   1.408   4.714   2.601 -1.7477 -2.1754 -1.5183
 8362SOL     OW36718   2.184   3.196   5.412 -0.0027 -0.4005  0.1693
 8362SOL    HW136719   2.127   3.259   5.368 -0.2601 -0.1284  0.8934
 8362SOL    HW236720   2.211   3.232   5.497  0.1798  2.6905 -1.2126
 8363SOL     OW36721   1.666   2.978  14.479 -0.2298 -0.5757  0.1945
 8363SOL    HW136722   1.678   2.888  14.449  0.3280 -0.2149 -0.6596
 8363SOL    HW236723   1.679   3.021  14.395 -1.6804  1.5767  1.0783
 8364SOL     OW36724   3.268   4.152   5.810  0.0070  0.2655 -0.1548
 8364SOL    HW136725   3.357   4.119   5.822 -0.0324 -0.3379 -1.5524
 8364SOL    HW236726   3.266   4.248   5.813  1.1279  0.3886 -2.9928
 8365SOL     OW36727   3.036   0.075   1.989  0.2106  0.1831 -0.4728
 8365SOL    HW136728   3.094   0.138   1.947  1.4900 -0.9746 -0.4401
 8365SOL    HW236729   3.092   0.001   2.012 -1.2837 -1.2887 -1.5223
 8366SOL     OW36730   4.429   3.151   3.311  0.0751 -0.0896  0.2155
 8366SOL    HW136731   4.460   3.073   3.265 -3.0470 -2.2638  1.8394
 8366SOL    HW236732   4.442   3.219   3.245 -2.4237 -0.9139 -1.1018
 8367SOL     OW36733   4.415   3.776  11.549 -0.0664 -0.5058  0.3412
 8367SOL    HW136734   4.476   3.796  11.621  0.4854  2.4250 -0.9077
 8367SOL    HW236735   4.352   3.720  11.593 -1.0823  0.9427  0.7537
 8368SOL     OW36736   4.113   1.564  10.649 -0.1094 -0.5940 -0.2390
 8368SOL    HW136737   4.194   1.614  10.660  0.2329 -0.8610 -1.5518
 8368SOL    HW236738   4.094   1.565  10.555  0.7121 -1.2856 -0.4127
 8369SOL     OW36739   4.032   4.276  11.668  0.5026 -0.4378 -0.1743
 8369SOL    HW136740   4.088   4.225  11.726  0.1598  0.3512  0.8437
 8369SOL    HW236741   4.041   4.223  11.588  0.0902 -1.2859  0.3422
 8370SOL     OW36742   3.773   4.277  10.915  0.1915  0.3459  0.2347
 8370SOL    HW136743   3.743   4.367  10.928  2.1667  1.0494 -0.0554
 8370SOL    HW236744   3.693   4.239  10.879  0.4130  1.3831 -1.3702
 8371SOL     OW36745   3.794   4.608   9.043 -0.1289 -0.4654  0.0981
 8371SOL    HW136746   3.729   4.648   8.984 -0.8884 -1.4422  0.2737
 8371SOL    HW236747   3.736   4.583   9.115 -1.4598 -1.3877 -1.2789
 8372SOL     OW36748   0.477   4.012   6.329 -0.1949  0.2082 -0.0662
 8372SOL    HW136749   0.497   3.987   6.419  0.7538  0.1488 -0.2938
 8372SOL    HW236750   0.538   3.955   6.282  0.0326  0.3808  0.0176
 8373SOL     OW36751   4.238   2.933  17.120 -0.4674 -0.2247  0.0084
 8373SOL    HW136752   4.272   2.869  17.057  0.1635  1.9370 -1.8970
 8373SOL    HW236753   4.293   2.904  17.193  0.7374 -0.1628 -0.8606
 8374SOL     OW36754   1.812   0.047   7.198  0.4034  0.7112 -0.2774
 8374SOL    HW136755   1.866   0.063   7.275  1.9876  1.0085 -1.4489
 8374SOL    HW236756   1.734   0.084   7.240  0.0188  1.4227 -1.5865
 8375SOL     OW36757   1.541   1.420   4.993  0.2382 -0.3416 -0.4411
 8375SOL    HW136758   1.478   1.491   4.982  1.1260  0.6902  1.1370
 8375SOL    HW236759   1.582   1.417   4.906 -2.9010 -0.3318 -1.9376
 8376SOL     OW36760   0.454   1.996   9.013  0.0954  0.0712  0.3364
 8376SOL    HW136761   0.534   1.965   8.971 -0.8720 -1.4083 -0.4157
 8376SOL    HW236762   0.403   1.915   9.015 -1.5188  0.9462 -3.8686
 8377SOL     OW36763   4.142   1.048   2.450 -0.0893  0.8749  0.3608
 8377SOL    HW136764   4.225   1.089   2.475  0.8719 -0.4856 -0.6101
 8377SOL    HW236765   4.086   1.106   2.502 -0.9151  0.3472  0.0458
 8378SOL     OW36766   4.310   0.319   3.044  0.0215  0.1101  0.2572
 8378SOL    HW136767   4.289   0.341   3.135 -0.5040 -0.5218  0.2903
 8378SOL    HW236768   4.222   0.299   3.013 -0.6459  1.4971  1.2517
 8379SOL     OW36769   4.000   3.194   4.273 -0.0646  0.5316 -0.3060
 8379SOL    HW136770   4.026   3.239   4.353  0.7014 -0.7741  0.1941
 8379SOL    HW236771   4.078   3.146   4.245 -1.2518 -0.9758 -1.0682
 8380SOL     OW36772   4.520   0.153   3.923 -0.4921  0.5596  0.2711
 8380SOL    HW136773   4.499   0.236   3.966  1.2148  3.7490 -5.0316
 8380SOL    HW236774   4.472   0.101   3.987  0.1078 -1.1874 -0.6980
 8381SOL     OW36775   1.753   0.035   8.039 -0.2862  0.4043 -0.0882
 8381SOL    HW136776   1.721   0.039   7.949  2.3714  0.0359 -1.0380
 8381SOL    HW236777   1.825   0.099   8.034 -0.0963  0.1702 -0.3731
 8382SOL     OW36778   1.276   2.657  15.957 -0.0531  0.3224 -0.2758
 8382SOL    HW136779   1.309   2.695  16.038 -1.3169  0.3794  0.2265
 8382SOL    HW236780   1.219   2.732  15.938  2.5383  1.6140 -2.9241
 8383SOL     OW36781   0.531   2.589   8.316 -0.1832  0.0992 -0.0125
 8383SOL    HW136782   0.524   2.680   8.287  0.4217  0.7983  2.0297
 8383SOL    HW236783   0.578   2.611   8.397 -0.4038 -1.0087  0.4139
 8384SOL     OW36784   2.455   1.237  14.958  0.4381  0.1840 -0.3446
 8384SOL    HW136785   2.482   1.328  14.942 -0.2667  0.1371 -1.7934
 8384SOL    HW236786   2.519   1.199  14.897 -0.1544 -1.0480 -0.1985
 8385SOL     OW36787   2.902   3.857   9.559 -0.0658 -0.1491  0.3524
 8385SOL    HW136788   2.868   3.840   9.647 -0.8202 -0.7243 -0.0627
 8385SOL    HW236789   2.907   3.771   9.518  0.8959 -0.5249  1.2621
 8386SOL     OW36790   4.144   0.323   6.944  0.2668  0.7781  0.3176
 8386SOL    HW136791   4.089   0.400   6.961 -2.1988 -1.0500  0.6578
 8386SOL    HW236792   4.228   0.362   6.919  1.2967 -1.1233  0.8336
 8387SOL     OW36793   3.845   1.135   4.526 -0.5509 -0.0069 -0.5763
 8387SOL    HW136794   3.838   1.082   4.605 -0.0595  0.8089  0.0206
 8387SOL    HW236795   3.751   1.129   4.509 -0.6085  4.2128 -1.8814
 8388SOL     OW36796   2.374   1.915   7.220  0.4639 -0.2107 -0.4070
 8388SOL    HW136797   2.344   1.837   7.174 -1.6080  0.5634 -0.4018
 8388SOL    HW236798   2.454   1.941   7.174  0.6657  0.5156  0.3524
 8389SOL     OW36799   4.614   2.589   4.734  0.0085  0.4300 -0.2244
 8389SOL    HW136800   4.701   2.620   4.707  0.2090  1.4016  1.5636
 8389SOL    HW236801   4.600   2.517   4.672 -2.1720 -1.0774  2.0148
 8390SOL     OW36802   4.128   1.509   6.024 -0.2963  0.5957 -0.1191
 8390SOL    HW136803   4.112   1.599   6.055 -2.2440  0.9149 -2.0733
 8390SOL    HW236804   4.162   1.467   6.103 -2.5470  1.3992  1.2728
 8391SOL     OW36805   4.212   1.250  14.992 -0.1939 -0.1478 -0.1626
 8391SOL    HW136806   4.155   1.282  15.061 -0.2175  2.3336 -1.3411
 8391SOL    HW236807   4.294   1.294  15.015 -0.9066  1.0139  0.1584
 8392SOL     OW36808   1.319   3.671   8.008 -0.8334  0.1015  0.2484
 8392SOL    HW136809   1.307   3.647   7.916  0.9990 -1.9587  0.5419
 8392SOL    HW236810   1.365   3.752   7.989 -0.2527  0.3909  2.8580
 8393SOL     OW36811   2.846   2.733   3.754  0.0173  0.3482 -0.4084
 8393SOL    HW136812   2.755   2.706   3.738  0.5809 -1.2618 -0.8836
 8393SOL    HW236813   2.819   2.798   3.820 -0.7788  1.0549 -1.4157
 8394SOL     OW36814   1.124   3.986  15.798 -0.2383  0.4100  0.6276
 8394SOL    HW136815   1.147   3.916  15.859 -0.7773  0.9346  1.4406
 8394SOL    HW236816   1.169   4.067  15.822 -0.3670  0.6945 -0.1046
 8395SOL     OW36817   3.832   2.671   2.913  0.1270  0.4847  0.0688
 8395SOL    HW136818   3.797   2.747   2.865 -0.7033  2.2092  3.3657
 8395SOL    HW236819   3.906   2.646   2.859 -0.2952  0.4540 -0.4937
 8396SOL     OW36820   1.090   0.736   8.701  0.3225  0.0247  0.2344
 8396SOL    HW136821   1.045   0.703   8.623 -1.0155  0.3037  0.8876
 8396SOL    HW236822   1.054   0.824   8.710  2.5674  0.8549  1.0419
 8397SOL     OW36823   3.607   2.745   6.794 -0.4503 -0.0034  0.2746
 8397SOL    HW136824   3.610   2.768   6.701  2.9850  0.2612  0.4602
 8397SOL    HW236825   3.699   2.745   6.819 -0.4707  1.7874  0.3794
 8398SOL     OW36826   3.994   3.097   5.191  0.5101 -0.1408  0.0702
 8398SOL    HW136827   3.912   3.121   5.234  1.1021  1.4689  0.2924
 8398SOL    HW236828   3.958   3.089   5.102 -1.0321 -0.4227  0.7214
 8399SOL     OW36829   3.443   3.797   5.085  0.3361 -0.1634  0.3645
 8399SOL    HW136830   3.355   3.807   5.119  0.4735  0.3610  0.5687
 8399SOL    HW236831   3.470   3.887   5.103 -0.4520  0.3894 -1.3217
 8400SOL     OW36832   1.012   1.973   1.349  0.6219  0.2934  0.0182
 8400SOL    HW136833   1.092   1.934   1.315  2.4697  4.2861 -0.1716
 8400SOL    HW236834   1.050   1.990   1.435  1.5206  1.9167 -0.7083
 8401SOL     OW36835   0.202   0.403  17.643 -0.1951  0.7575 -1.0623
 8401SOL    HW136836   0.295   0.427  17.640 -0.0315  0.3616  1.1994
 8401SOL    HW236837   0.148   0.462  17.695  0.8719 -0.0302  0.9016
 8402SOL     OW36838   1.075   0.861  13.837 -0.4277 -0.0502  0.2364
 8402SOL    HW136839   1.103   0.940  13.884 -3.7059 -0.5594  3.0426
 8402SOL    HW236840   1.064   0.900  13.749 -1.8579 -0.1455  0.3663
 8403SOL     OW36841   2.112   1.842   5.317 -0.4973  0.4998 -0.1095
 8403SOL    HW136842   2.110   1.914   5.379 -2.4215  1.2477 -1.0233
 8403SOL    HW236843   2.074   1.768   5.365  0.1778  0.7616  0.8170
 8404SOL     OW36844   1.653   3.024   8.237  0.0869 -0.0896 -0.4025
 8404SOL    HW136845   1.587   3.093   8.230  1.4425  1.2550  0.0531
 8404SOL    HW236846   1.651   2.996   8.145  2.7236  0.4783 -0.6508
 8405SOL     OW36847   3.328   0.624   4.362 -0.3243 -0.3822  0.0580
 8405SOL    HW136848   3.417   0.654   4.382 -0.6252  0.7035 -0.2315
 8405SOL    HW236849   3.291   0.710   4.346 -1.2395 -1.3107 -2.7507
 8406SOL     OW36850   4.263   4.695   6.450 -0.3585 -0.4578 -0.0271
 8406SOL    HW136851   4.250   4.628   6.517 -0.9362  0.3790  0.7000
 8406SOL    HW236852   4.252   0.043   6.499  1.5335  0.0542 -0.4545
 8407SOL     OW36853   0.441   1.546  13.691 -0.4740  0.6576  0.3139
 8407SOL    HW136854   0.402   1.587  13.768  2.4152  1.5433  1.3034
 8407SOL    HW236855   0.459   1.462  13.732 -1.6226 -0.1423 -0.8265
 8408SOL     OW36856   1.850   1.218   3.981 -0.3123 -0.3207 -0.0403
 8408SOL    HW136857   1.861   1.149   4.047 -1.3859  0.3643  0.8658
 8408SOL    HW236858   1.755   1.225   3.991 -0.1444  0.1425  1.2504
 8409SOL     OW36859   1.283   2.189   0.718  0.0425  0.2694 -0.0567
 8409SOL    HW136860   1.332   2.128   0.662 -0.3554  0.4422 -0.5948
 8409SOL    HW236861   1.342   2.265   0.720  1.4255 -0.8870  3.0414
 8410SOL     OW36862   4.514   4.472  15.805  0.1600  0.7157  0.2344
 8410SOL    HW136863   4.494   4.385  15.773  1.4297  1.7770 -3.4334
 8410SOL    HW236864   4.482   4.476  15.895 -0.0890  3.5483  0.0456
 8411SOL     OW36865   2.969   3.987   2.514  0.5490 -0.3748  0.0672
 8411SOL    HW136866   2.982   3.892   2.522  2.1603 -0.1731 -0.1301
 8411SOL    HW236867   2.944   3.989   2.421 -1.8915  1.3926  0.7659
 8412SOL     OW36868   1.897   4.452  10.314  0.3891 -0.3984 -0.5947
 8412SOL    HW136869   1.905   4.374  10.258 -0.1499 -0.6829 -0.2669
 8412SOL    HW236870   1.805   4.434  10.332  0.3641 -0.3366 -0.6615
 8413SOL     OW36871   3.083   4.094  12.900 -0.3308  0.0688  0.0171
 8413SOL    HW136872   3.020   4.021  12.905  1.4381 -1.2519  3.0257
 8413SOL    HW236873   3.023   4.169  12.898  0.2569  0.5272 -0.2984
 8414SOL     OW36874   1.291   1.945   1.521  0.4256  0.0793 -0.5269
 8414SOL    HW136875   1.340   1.974   1.598  1.3075  1.8198 -1.7612
 8414SOL    HW236876   1.217   1.890   1.549  0.8022  0.7113  1.7610
 8415SOL     OW36877   1.079   3.137   7.931 -0.3372  0.2892 -0.1369
 8415SOL    HW136878   1.011   3.195   7.965 -0.1397  0.5076 -0.1091
 8415SOL    HW236879   1.102   3.174   7.846 -1.4145  0.4351 -0.3622
 8416SOL     OW36880   3.774   1.791  15.622  0.1207 -0.1522 -0.2691
 8416SOL    HW136881   3.822   1.805  15.540  2.5213  0.6412  1.3012
 8416SOL    HW236882   3.828   1.837  15.686 -0.6454  1.1815 -0.5769
 8417SOL     OW36883   2.704   1.109  12.715  0.5303  0.7144 -0.4091
 8417SOL    HW136884   2.768   1.054  12.670 -0.3229 -1.1760  0.6377
 8417SOL    HW236885   2.724   1.087  12.806 -0.5962  1.0255 -0.0771
 8418SOL     OW36886   4.646   2.543   9.941 -0.2709  0.0676  0.1090
 8418SOL    HW136887   4.556   2.519   9.918 -0.8216  2.4403 -0.1438
 8418SOL    HW236888   4.700   2.503   9.872  1.3723  1.7235  0.4387
 8419SOL     OW36889   1.209   3.329   9.529  0.1942 -0.6487 -0.4358
 8419SOL    HW136890   1.240   3.243   9.501 -0.2269 -0.7741 -0.5081
 8419SOL    HW236891   1.115   3.319   9.543  0.7874 -3.6641  1.2816
 8420SOL     OW36892   3.772   3.369   0.872 -0.3293  0.2037  0.7409
 8420SOL    HW136893   3.833   3.296   0.859 -0.9482  0.1549 -1.7825
 8420SOL    HW236894   3.797   3.419   0.795  0.1611 -0.0745  0.7234
 8421SOL     OW36895   4.691   2.323  11.668 -0.0675 -0.0991  0.1638
 8421SOL    HW136896   0.016   2.250  11.682 -0.0519 -0.0506  0.3502
 8421SOL    HW236897   4.610   2.289  11.706 -1.5666  2.0178 -1.1354
 8422SOL     OW36898   4.176   1.025   9.779 -0.1147  0.2197 -0.9671
 8422SOL    HW136899   4.267   1.045   9.757  0.0697 -2.1470 -2.3242
 8422SOL    HW236900   4.151   1.084   9.851  0.9489 -1.4110  0.7457
 8423SOL     OW36901   0.249   3.521   3.835  0.6205 -0.0212  0.0769
 8423SOL    HW136902   0.175   3.523   3.896  0.9239 -0.7419  0.4768
 8423SOL    HW236903   0.275   3.611   3.816 -0.7671  0.1973 -0.7439
 8424SOL     OW36904   1.736   2.226   3.167  0.6402 -0.6874 -0.3568
 8424SOL    HW136905   1.782   2.274   3.098 -0.7313  0.5070 -0.4312
 8424SOL    HW236906   1.646   2.254   3.154  0.4001 -0.4695  1.7543
 8425SOL     OW36907   2.656   0.637  15.612  0.8203 -0.4352  0.3671
 8425SOL    HW136908   2.565   0.657  15.589  0.9623 -1.4043 -1.0348
 8425SOL    HW236909   2.703   0.717  15.584  0.7902 -1.1592 -1.7588
 8426SOL     OW36910   3.718   2.646   4.836  0.6011  0.2843  0.1911
 8426SOL    HW136911   3.730   2.617   4.927 -1.8467  2.3587  1.1693
 8426SOL    HW236912   3.627   2.622   4.820  0.6329  0.6183 -0.4687
 8427SOL     OW36913   0.400   2.202   7.039  0.0487 -0.2213 -0.2875
 8427SOL    HW136914   0.436   2.146   6.971 -0.2908  0.7383 -1.2680
 8427SOL    HW236915   0.313   2.224   7.004  0.3421  0.3378 -0.6620
 8428SOL     OW36916   2.578   4.447  11.091 -1.0030  0.1651 -0.1399
 8428SOL    HW136917   2.497   4.497  11.083  0.1641  1.3478 -4.5118
 8428SOL    HW236918   2.647   4.492  11.043 -0.1568  1.6561  2.4654
 8429SOL     OW36919   0.476   4.302   2.070  0.2588 -0.2148 -0.2256
 8429SOL    HW136920   0.461   4.207   2.069 -1.0116 -0.0165 -0.3742
 8429SOL    HW236921   0.570   4.302   2.055  0.1691 -1.5019 -0.8208
 8430SOL     OW36922   4.219   1.209  16.950 -0.1425 -0.0570  0.3886
 8430SOL    HW136923   4.190   1.264  16.877 -0.9930 -1.6567 -0.4738
 8430SOL    HW236924   4.175   1.128  16.928 -1.2463  0.8080 -0.5974
 8431SOL     OW36925   3.744   1.103   2.958 -0.1054  0.0547  0.1136
 8431SOL    HW136926   3.778   1.161   2.889 -0.6922 -0.2948 -0.4778
 8431SOL    HW236927   3.727   1.032   2.896 -2.4597  0.0008  0.7963
 8432SOL     OW36928   1.863   0.063  11.089  0.0147  0.0661  0.1867
 8432SOL    HW136929   1.833   0.117  11.016 -1.2893 -1.2959 -0.2913
 8432SOL    HW236930   1.831   0.119  11.160 -0.5746  0.6638 -0.5523
 8433SOL     OW36931   0.008   1.830  12.264 -0.3601 -0.3210 -0.1028
 8433SOL    HW136932   0.103   1.842  12.266 -0.5246  1.0794 -0.4565
 8433SOL    HW236933   4.703   1.885  12.331  0.1052  0.2516 -0.2970
 8434SOL     OW36934   0.906   0.752   5.115 -0.3855  0.2429  0.2730
 8434SOL    HW136935   0.848   0.827   5.111 -2.6866 -1.6438 -1.3202
 8434SOL    HW236936   0.976   0.807   5.078 -1.0607  1.0518  0.1985
 8435SOL     OW36937   3.012   1.795  12.434  0.0434  0.7153  0.0510
 8435SOL    HW136938   2.998   1.872  12.379  0.0894 -0.3696 -1.4777
 8435SOL    HW236939   3.072   1.826  12.502 -2.8272  1.8820  2.0634
 8436SOL     OW36940   1.972   3.298   1.821 -0.5148 -0.5820  0.4467
 8436SOL    HW136941   1.884   3.288   1.857 -0.6932 -1.7470 -0.3291
 8436SOL    HW236942   2.013   3.219   1.857 -0.6542 -0.4112  0.9835
 8437SOL     OW36943   1.960   1.362  14.501  0.4433  0.1768  0.0084
 8437SOL    HW136944   1.890   1.332  14.444 -0.0414  1.0206  0.1565
 8437SOL    HW236945   1.986   1.450  14.474  2.4259 -1.0778 -2.1439
 8438SOL     OW36946   3.631   0.748  16.727  0.3749  0.1987  0.1241
 8438SOL    HW136947   3.693   0.722  16.659 -1.6077 -1.0473 -1.2093
 8438SOL    HW236948   3.653   0.692  16.801  2.1483 -0.1637 -0.6764
 8439SOL     OW36949   1.239   2.425   7.119  0.2935 -0.2548 -0.1807
 8439SOL    HW136950   1.281   2.453   7.200  0.6010  1.2018 -0.8448
 8439SOL    HW236951   1.183   2.356   7.155 -2.4345  1.0002 -1.9908
 8440SOL     OW36952   0.662   0.403  16.096 -0.5840  0.5052  0.1199
 8440SOL    HW136953   0.573   0.436  16.108 -0.8035  0.5261 -1.5618
 8440SOL    HW236954   0.667   0.391  16.001  1.2159 -1.1278  0.4389
 8441SOL     OW36955   2.241   3.850  16.013  0.3456 -0.0264 -0.0344
 8441SOL    HW136956   2.181   3.921  15.992  1.4801  0.7050 -0.7639
 8441SOL    HW236957   2.215   3.798  15.937  0.6529 -1.3596  0.7662
 8442SOL     OW36958   2.292   3.929   8.105 -0.2807 -0.0714 -0.1627
 8442SOL    HW136959   2.275   3.898   8.016 -0.7913  2.5111 -0.9594
 8442SOL    HW236960   2.331   4.015   8.085 -0.9025 -0.0229 -1.1544
 8443SOL     OW36961   4.598   1.542  14.237 -0.1992 -0.8174  0.2160
 8443SOL    HW136962   4.684   1.529  14.197  0.8994 -0.6338  2.4824
 8443SOL    HW236963   4.599   1.481  14.311 -2.7917 -2.7205 -1.3434
 8444SOL     OW36964   0.834   3.839   7.162 -0.3683  0.1549  0.4167
 8444SOL    HW136965   0.740   3.825   7.174 -0.1413 -0.1145  1.9793
 8444SOL    HW236966   0.834   3.935   7.156  0.8457 -0.0203 -1.9406
 8445SOL     OW36967   1.035   1.764  13.783 -0.1133  0.4294  0.4946
 8445SOL    HW136968   1.121   1.784  13.746  0.2681 -0.5331  0.8623
 8445SOL    HW236969   0.996   1.850  13.773 -0.7437  0.1300  0.3752
 8446SOL     OW36970   1.204   2.180  13.064 -0.1155 -0.1001  0.2954
 8446SOL    HW136971   1.146   2.118  13.109  0.6355 -0.8863  0.1598
 8446SOL    HW236972   1.145   2.245  13.026  0.0673  0.1617  0.4552
 8447SOL     OW36973   0.524   0.615   5.465  0.2970 -0.0041  0.5739
 8447SOL    HW136974   0.533   0.572   5.380 -1.2462  1.7032 -0.4886
 8447SOL    HW236975   0.597   0.579   5.515  0.8367 -0.8723 -0.8482
 8448SOL     OW36976   0.846   4.525   1.214  0.7718 -0.5811 -1.2616
 8448SOL    HW136977   0.834   4.441   1.259  0.3521  0.3712  0.4357
 8448SOL    HW236978   0.754   4.548   1.201  0.8984  0.2737 -0.6474
 8449SOL     OW36979   1.054   0.286   8.301  0.4471  0.0709 -0.0173
 8449SOL    HW136980   1.130   0.242   8.339  0.2180 -0.0126  0.3372
 8449SOL    HW236981   1.087   0.375   8.303  2.1188 -0.5232 -0.8668
 8450SOL     OW36982   0.209   1.818  14.384 -0.3795 -0.1710 -0.2217
 8450SOL    HW136983   0.276   1.814  14.316 -0.0430  2.7422 -0.0681
 8450SOL    HW236984   0.252   1.767  14.453 -0.0332 -0.3922 -0.6020
 8451SOL     OW36985   3.940   1.191   2.601 -0.0100 -0.3837  0.2962
 8451SOL    HW136986   3.967   1.145   2.681 -0.5516  1.3676  1.4775
 8451SOL    HW236987   3.857   1.228   2.630 -0.3049  2.2101 -3.8660
 8452SOL     OW36988   2.199   4.182  17.026 -0.2598  0.1210  0.0910
 8452SOL    HW136989   2.129   4.136  16.979  0.4080 -0.4707 -0.3364
 8452SOL    HW236990   2.273   4.129  16.995  0.5138 -0.8708  3.6700
 8453SOL     OW36991   4.315   1.733  10.713 -0.3044 -0.2363 -0.7093
 8453SOL    HW136992   4.388   1.676  10.739 -1.1271 -0.6786  0.6351
 8453SOL    HW236993   4.318   1.804  10.777  0.4531 -1.1746  0.3060
 8454SOL     OW36994   2.717   0.517   7.132  0.0614 -0.3846 -0.2409
 8454SOL    HW136995   2.669   0.447   7.088  1.6764 -0.0475 -2.5407
 8454SOL    HW236996   2.680   0.511   7.220  2.6268 -0.6375  0.8244
 8455SOL     OW36997   0.516   2.841   8.198 -0.2819  0.2079 -0.2825
 8455SOL    HW136998   0.605   2.860   8.227 -0.3954  0.0362  0.1873
 8455SOL    HW236999   0.509   2.893   8.118 -2.0585  0.7690  0.2411
 8456SOL     OW37000   0.631   0.181   2.374 -0.0662 -0.8664 -0.0215
 8456SOL    HW137001   0.705   0.239   2.356 -0.4124 -0.3499  0.2182
 8456SOL    HW237002   0.564   0.230   2.327 -0.8184 -0.9930  0.9301
 8457SOL     OW37003   2.657   0.038   8.488 -0.0799 -0.2579 -0.7466
 8457SOL    HW137004   2.752   0.040   8.492 -0.2657  2.4248  2.2399
 8457SOL    HW237005   2.647   0.132   8.497 -1.8897 -0.7099  1.9813
 8458SOL     OW37006   0.963   2.020   7.779 -0.3976 -0.9056  0.4330
 8458SOL    HW137007   1.035   2.069   7.819  0.9227 -0.3489 -2.6086
 8458SOL    HW237008   0.898   2.009   7.849 -1.2646  1.2215 -0.0400
 8459SOL     OW37009   2.599   2.524  10.230 -0.2564  0.3335 -0.0968
 8459SOL    HW137010   2.525   2.464  10.226  0.8126 -0.9292 -1.1093
 8459SOL    HW237011   2.658   2.499  10.301  0.1572 -1.4860 -1.0879
 8460SOL     OW37012   2.775   1.643   9.185 -0.2107 -0.2739 -0.4351
 8460SOL    HW137013   2.852   1.627   9.129 -0.8464 -3.5115 -0.3677
 8460SOL    HW237014   2.735   1.556   9.182  0.9598 -0.7709 -2.2459
 8461SOL     OW37015   4.000   0.711   6.418 -0.0679 -0.2403 -0.6829
 8461SOL    HW137016   4.036   0.793   6.384  2.4964 -0.9421  0.3511
 8461SOL    HW237017   3.911   0.714   6.384  0.0446  0.9414 -0.8711
 8462SOL     OW37018   3.189   1.996   9.441 -0.5077  0.2116 -0.5404
 8462SOL    HW137019   3.171   1.903   9.454  2.1492 -0.1756  0.3374
 8462SOL    HW237020   3.284   1.992   9.437 -0.4859 -1.3700  1.1219
 8463SOL     OW37021   4.481   2.742   5.550  0.3645 -0.0809  0.3934
 8463SOL    HW137022   4.540   2.720   5.477  0.8707 -1.1982  1.1568
 8463SOL    HW237023   4.536   2.806   5.596  2.1130 -1.9291  0.8765
 8464SOL     OW37024   1.798   1.427   2.249 -0.6313 -0.4761 -0.1436
 8464SOL    HW137025   1.825   1.370   2.177  3.1374  1.5079 -0.2751
 8464SOL    HW237026   1.873   1.486   2.258 -0.0595 -0.8998 -2.2054
 8465SOL     OW37027   3.205   0.350   2.453 -0.1377  0.2218 -0.8558
 8465SOL    HW137028   3.237   0.260   2.451 -2.8043 -0.7765  2.6114
 8465SOL    HW237029   3.287   0.399   2.457  0.9827 -1.9435  2.5452
 8466SOL     OW37030   3.339   2.775   3.682 -0.9220 -0.5482 -0.1296
 8466SOL    HW137031   3.253   2.814   3.698  0.2630  1.8498  0.3451
 8466SOL    HW237032   3.387   2.853   3.654 -0.4834 -0.5356  0.6548
 8467SOL     OW37033   3.663   1.512   5.524 -0.0448  0.4051 -0.9182
 8467SOL    HW137034   3.668   1.525   5.429 -2.9947  2.5347 -0.7579
 8467SOL    HW237035   3.643   1.419   5.533  2.4042 -0.1523 -1.1524
 8468SOL     OW37036   2.293   2.019   6.066 -0.2731 -0.2056  0.1265
 8468SOL    HW137037   2.299   2.105   6.108  0.9945 -0.5480  0.6471
 8468SOL    HW237038   2.251   2.039   5.982  2.6656  0.8421 -1.0870
 8469SOL     OW37039   1.032   1.369   9.393 -0.3789 -0.2410 -0.2783
 8469SOL    HW137040   0.992   1.367   9.480 -1.2134 -0.4969 -0.6677
 8469SOL    HW237041   1.085   1.449   9.396 -1.9098  0.8182 -2.0599
 8470SOL     OW37042   1.207   3.577   7.769 -0.2251 -0.2847 -0.4347
 8470SOL    HW137043   1.202   3.594   7.675  0.2079 -0.3908 -0.4772
 8470SOL    HW237044   1.117   3.567   7.801  0.7754 -2.3210  1.7580
 8471SOL     OW37045   0.405   1.668   0.706 -0.7451 -0.2294  0.3193
 8471SOL    HW137046   0.380   1.692   0.617 -1.6248  2.7209  1.3639
 8471SOL    HW237047   0.318   1.662   0.746 -1.0606  2.8018  0.0478
 8472SOL     OW37048   2.332   2.466   3.422 -0.3678  0.1415  0.1304
 8472SOL    HW137049   2.272   2.403   3.383 -0.7057 -0.8651  2.2985
 8472SOL    HW237050   2.268   2.538   3.428  1.0090  1.4433 -0.7176
 8473SOL     OW37051   2.286   2.712   2.214 -0.0000  0.0756  0.4734
 8473SOL    HW137052   2.302   2.799   2.176 -2.0520  0.0600 -0.3898
 8473SOL    HW237053   2.370   2.695   2.258  0.1146  1.2435  0.7202
 8474SOL     OW37054   1.200   3.918   4.578 -0.6657  0.2563  0.2809
 8474SOL    HW137055   1.293   3.896   4.572 -0.6823 -0.1069  1.3796
 8474SOL    HW237056   1.206   3.999   4.628 -1.7123  0.3614  0.2465
 8475SOL     OW37057   3.451   1.325   8.006 -0.4828 -0.4652 -0.4054
 8475SOL    HW137058   3.472   1.400   7.951  1.6902 -0.7432  0.0492
 8475SOL    HW237059   3.520   1.345   8.069 -1.5871  0.4446  0.5145
 8476SOL     OW37060   1.905   4.212  12.440 -0.0625  0.1647  0.0667
 8476SOL    HW137061   1.841   4.271  12.399 -0.3383  0.4313  0.8756
 8476SOL    HW237062   1.916   4.148  12.370 -0.7513  1.4304 -1.2133
 8477SOL     OW37063   4.381   2.018   5.341  0.7785  0.7866  0.0705
 8477SOL    HW137064   4.302   1.965   5.344  1.2298  0.2545  2.7946
 8477SOL    HW237065   4.356   2.086   5.404 -1.7608 -0.1232  0.0543
 8478SOL     OW37066   1.185   2.521  17.126  0.2451  0.1291  0.0489
 8478SOL    HW137067   1.151   2.578  17.195  0.9174  1.3620 -0.6458
 8478SOL    HW237068   1.135   2.556  17.052 -0.4050 -2.6516 -0.8196
 8479SOL     OW37069   4.181   2.928   3.156 -0.5272 -0.3235 -0.0190
 8479SOL    HW137070   4.162   3.021   3.171 -0.3815 -0.6307  2.1517
 8479SOL    HW237071   4.255   2.925   3.096 -0.0421  2.9802  0.4041
 8480SOL     OW37072   4.545   4.282   8.795  0.1362 -0.1396  0.5382
 8480SOL    HW137073   4.598   4.357   8.768  0.6986 -0.9055 -0.4896
 8480SOL    HW237074   4.475   4.285   8.730  1.7940  1.7329 -1.1639
 8481SOL     OW37075   1.598   1.080  12.743 -0.2621 -0.1403  0.4300
 8481SOL    HW137076   1.583   0.991  12.777 -0.9429 -0.9510 -2.0277
 8481SOL    HW237077   1.603   1.123  12.829 -0.1585  0.7087 -0.0052
 8482SOL     OW37078   2.122   0.568   7.581 -0.5791 -0.3483 -0.1465
 8482SOL    HW137079   2.202   0.609   7.614 -1.3993  1.6784 -0.7087
 8482SOL    HW237080   2.100   0.633   7.515  1.1969  1.1726  0.7543
 8483SOL     OW37081   2.084   0.274   9.441  0.4449  0.2051  0.7966
 8483SOL    HW137082   2.013   0.247   9.383  0.2724  0.7944  0.7256
 8483SOL    HW237083   2.077   0.212   9.513  1.5795  0.6982  1.3393
 8484SOL     OW37084   1.771   0.514   9.307  0.1245 -0.2343 -0.6092
 8484SOL    HW137085   1.676   0.511   9.293  0.0846  0.3113 -0.4629
 8484SOL    HW237086   1.776   0.432   9.357 -2.4162 -0.8647 -1.3544
 8485SOL     OW37087   4.390   4.017  13.244 -0.1913 -0.0223  0.3172
 8485SOL    HW137088   4.371   4.104  13.280 -1.7156  0.0001 -0.5557
 8485SOL    HW237089   4.477   3.992  13.274 -0.8010 -1.6728  0.6869
 8486SOL     OW37090   0.177   1.922  17.614 -0.1051 -0.2651  0.3430
 8486SOL    HW137091   0.093   1.954  17.581  1.4220  2.3771 -0.9182
 8486SOL    HW237092   0.134   1.861  17.675 -0.0186  0.1895  0.8554
 8487SOL     OW37093   3.173   1.388   6.575 -0.3689  0.5659 -0.1013
 8487SOL    HW137094   3.078   1.398   6.578 -0.4476 -0.2761  0.2245
 8487SOL    HW237095   3.188   1.372   6.668  0.4341 -0.2213 -0.3578
 8488SOL     OW37096   0.048   4.145   1.939 -0.1197 -0.0872 -0.2000
 8488SOL    HW137097   0.000   4.162   1.858  0.9172  1.3874 -0.4946
 8488SOL    HW237098   0.106   4.220   1.948 -0.9481  0.5721 -0.2898
 8489SOL     OW37099   2.223   4.665   7.865 -0.1097  0.1525 -0.1178
 8489SOL    HW137100   2.307   4.706   7.885 -0.9841  1.7604  0.3073
 8489SOL    HW237101   2.216   4.604   7.938  0.8346 -1.1539 -1.1107
 8490SOL     OW37102   3.055   1.025   2.658 -0.6537  0.4220  0.1254
 8490SOL    HW137103   3.003   1.104   2.644 -1.4918  0.1394  1.6389
 8490SOL    HW237104   3.143   1.060   2.670  0.8788 -2.8833 -1.5180
 8491SOL     OW37105   0.389   0.642   7.445  0.0125  0.8206  0.9929
 8491SOL    HW137106   0.310   0.648   7.499 -0.8801 -0.0774 -0.1885
 8491SOL    HW237107   0.340   0.651   7.363 -0.9158 -2.0562  1.2098
 8492SOL     OW37108   2.339   4.465  14.591 -0.2855 -0.0031 -0.1366
 8492SOL    HW137109   2.370   4.375  14.582 -0.9825 -0.1098 -1.5908
 8492SOL    HW237110   2.276   4.472  14.519 -0.0529  0.1781 -0.3214
 8493SOL     OW37111   4.622   3.014   5.364  0.2323  0.2290  0.5452
 8493SOL    HW137112   4.651   2.923   5.374 -1.0574  0.0809  2.9079
 8493SOL    HW237113   4.708   3.057   5.360 -0.3634  1.4637  0.9888
 8494SOL     OW37114   2.278   3.784   4.445 -0.1957 -0.1851  0.1347
 8494SOL    HW137115   2.303   3.824   4.361  1.4261 -1.2008  0.1454
 8494SOL    HW237116   2.352   3.726   4.460  1.3036  0.8328 -3.3930
 8495SOL     OW37117   2.770   0.084  10.550 -0.0950 -0.2793 -0.4974
 8495SOL    HW137118   2.824   0.136  10.490 -0.8620  0.9099 -0.1468
 8495SOL    HW237119   2.703   0.146  10.578 -1.2320 -1.8663  0.2528
 8496SOL     OW37120   0.990   3.403   5.561 -0.6232 -0.2835  0.1079
 8496SOL    HW137121   0.916   3.349   5.588 -0.2995  0.1201  1.8416
 8496SOL    HW237122   0.989   3.472   5.628 -1.5867 -0.8482  0.6784
 8497SOL     OW37123   4.634   1.917   5.410  0.0681  0.3992  0.2487
 8497SOL    HW137124   4.647   1.851   5.343  1.2593 -0.3107  1.1751
 8497SOL    HW237125   4.547   1.945   5.381  0.8344  2.5520  0.0385
 8498SOL     OW37126   1.647   1.531   4.532 -0.2008  0.4897  0.3882
 8498SOL    HW137127   1.735   1.493   4.540  1.2607  3.7247 -0.0491
 8498SOL    HW237128   1.668   1.579   4.452 -0.0863 -0.9163 -0.4173
 8499SOL     OW37129   3.579   0.255   2.404 -0.4405  0.1811  0.6523
 8499SOL    HW137130   3.512   0.317   2.375 -1.1020 -1.1370 -0.6908
 8499SOL    HW237131   3.540   0.214   2.481  1.7490  0.0403  1.7038
 8500SOL     OW37132   3.813   3.163   2.597 -0.2651 -0.0614  0.6995
 8500SOL    HW137133   3.719   3.172   2.584 -0.5107 -1.5200  1.4206
 8500SOL    HW237134   3.828   3.198   2.685 -1.4300 -0.9067  1.2337
 8501SOL     OW37135   4.500   4.242   5.017 -0.3710 -0.6550  0.0609
 8501SOL    HW137136   4.421   4.235   4.962  0.8033 -0.0061 -1.7037
 8501SOL    HW237137   4.566   4.206   4.958  0.8529  2.4984 -0.4604
 8502SOL     OW37138   0.499   1.388   7.846 -0.2083  0.1638 -0.6446
 8502SOL    HW137139   0.544   1.450   7.789 -0.1065  2.2289  1.6747
 8502SOL    HW237140   0.426   1.355   7.793 -1.0986 -2.4331  2.1958
 8503SOL     OW37141   1.443   3.369   7.426 -0.8107  0.3197 -0.7822
 8503SOL    HW137142   1.487   3.436   7.374 -0.6420  1.0626  0.3132
 8503SOL    HW237143   1.416   3.300   7.366 -1.0521 -1.3656  1.2665
 8504SOL     OW37144   4.315   3.253  14.950  0.5186  0.7972  0.3700
 8504SOL    HW137145   4.231   3.277  14.910  1.0513  0.7306 -0.7777
 8504SOL    HW237146   4.356   3.339  14.953  3.5473 -0.5608 -1.9346
 8505SOL     OW37147   3.372   1.162   9.213 -0.5156 -0.5381 -0.4059
 8505SOL    HW137148   3.355   1.203   9.298  1.9962  0.2989 -0.3068
 8505SOL    HW237149   3.457   1.200   9.191 -1.4925  1.3925 -0.8753
 8506SOL     OW37150   0.027   1.654  11.428  0.1091  0.0183 -0.2203
 8506SOL    HW137151   0.010   1.694  11.343 -2.6994  2.4646  1.5017
 8506SOL    HW237152   4.710   1.574  11.412 -0.5695  0.5479 -0.6974
 8507SOL     OW37153   1.989   0.885   9.072 -0.4194  0.4212 -0.2025
 8507SOL    HW137154   1.952   0.970   9.048 -1.4508  0.4142  1.4349
 8507SOL    HW237155   1.913   0.857   9.122 -0.4621  2.7460  1.0191
 8508SOL     OW37156   0.356   3.737  16.226  0.1236  0.3599  1.0166
 8508SOL    HW137157   0.320   3.767  16.142 -0.9539  1.1616  1.7758
 8508SOL    HW237158   0.431   3.686  16.196 -1.7447 -0.0238 -3.0087
 8509SOL     OW37159   2.387   1.523   6.577  0.1383  0.1857 -0.4766
 8509SOL    HW137160   2.326   1.569   6.519 -0.1124  0.3006 -0.1225
 8509SOL    HW237161   2.333   1.452   6.612  0.4416  0.9276  1.4919
 8510SOL     OW37162   3.984   4.570   8.210  0.2399 -0.4687  0.0497
 8510SOL    HW137163   4.061   4.626   8.214 -1.1117  1.2514  1.5396
 8510SOL    HW237164   3.996   4.525   8.126  2.5551  2.1506 -1.0147
 8511SOL     OW37165   1.284   3.597   9.578  0.4198  0.3575  0.5383
 8511SOL    HW137166   1.273   3.503   9.561 -4.6936  0.7821  1.5260
 8511SOL    HW237167   1.312   3.588   9.669 -0.3873  1.3865  0.8965
 8512SOL     OW37168   4.190   0.018   8.195  0.3089 -0.2397 -0.7127
 8512SOL    HW137169   4.162   0.095   8.246 -0.4874 -0.4380 -0.8472
 8512SOL    HW237170   4.285   0.021   8.205  0.0147  1.4569  1.6859
 8513SOL     OW37171   4.369   4.433   9.026  0.1639  0.5330  0.6380
 8513SOL    HW137172   4.458   4.426   8.991  0.3355  0.4574  1.0875
 8513SOL    HW237173   4.319   4.451   8.947 -0.4474 -0.9961  0.6757
 8514SOL     OW37174   1.588   3.271   2.952 -0.0568  0.3282 -1.2333
 8514SOL    HW137175   1.580   3.324   3.032  0.4359  1.0002 -1.6254
 8514SOL    HW237176   1.536   3.194   2.975  0.0455 -0.1208 -2.5216
 8515SOL     OW37177   4.732   1.137   4.055 -0.0936 -0.1487 -0.3583
 8515SOL    HW137178   0.042   1.082   3.990  0.7725 -0.3857  0.4330
 8515SOL    HW237179   4.685   1.199   3.999 -0.1181 -1.1265 -1.4122
 8516SOL     OW37180   0.363   0.361   7.868 -0.0059  0.2084  0.3008
 8516SOL    HW137181   0.379   0.424   7.939 -1.0531 -0.2856  0.9785
 8516SOL    HW237182   0.354   0.415   7.789  0.2089  0.1692  0.2506
 8517SOL     OW37183   1.019   1.442   4.810 -0.1090  0.7041 -0.1966
 8517SOL    HW137184   1.107   1.474   4.794  0.9030 -1.8428  0.3188
 8517SOL    HW237185   1.045   1.387   4.884 -1.6957 -1.8811 -1.5697
 8518SOL     OW37186   1.366   0.647   7.083  0.1469  0.0879  0.1341
 8518SOL    HW137187   1.435   0.698   7.126  1.1679 -1.4880  0.3551
 8518SOL    HW237188   1.409   0.563   7.066  1.6495  0.7402  0.6913
 8519SOL     OW37189   4.501   4.034   8.158  0.1142 -0.5370  0.0575
 8519SOL    HW137190   4.568   4.002   8.098  0.0029  2.0902 -1.4496
 8519SOL    HW237191   4.534   4.115   8.197 -2.5795 -0.6823  2.6732
 8520SOL     OW37192   2.911   0.704   7.101 -0.7113  0.4550  0.1710
 8520SOL    HW137193   2.834   0.647   7.101  0.6723 -1.4324 -0.1186
 8520SOL    HW237194   2.968   0.651   7.157  0.5482  0.1381 -1.4227
 8521SOL     OW37195   2.922   3.782   5.098  0.3239  0.0648  0.2092
 8521SOL    HW137196   2.925   3.778   5.193  0.4392 -0.5130  0.1811
 8521SOL    HW237197   2.847   3.839   5.081 -1.6227 -2.5992 -0.2397
 8522SOL     OW37198   0.100   1.361   3.310  0.2560 -0.4349 -0.4197
 8522SOL    HW137199   0.015   1.319   3.299 -0.2058  0.6765 -1.0942
 8522SOL    HW237200   0.129   1.390   3.224 -1.8269  0.4782 -0.8228
 8523SOL     OW37201   1.409   4.060  10.600  0.1510  0.5768 -0.1353
 8523SOL    HW137202   1.379   4.025  10.516 -1.1911 -1.7319  1.3111
 8523SOL    HW237203   1.339   4.029  10.659  0.2852  0.5612  0.0161
 8524SOL     OW37204   1.201   4.650   4.255 -0.2028  0.4931 -0.5387
 8524SOL    HW137205   1.211   4.555   4.258  0.9887  0.6329  0.0204
 8524SOL    HW237206   1.261   4.685   4.321 -3.4307  2.4930  1.3390
 8525SOL     OW37207   4.100   2.684   7.521  0.2772  0.7299 -0.3291
 8525SOL    HW137208   4.149   2.602   7.510  0.1232  0.5229  0.5264
 8525SOL    HW237209   4.034   2.661   7.587  0.6637  0.5296 -0.0103
 8526SOL     OW37210   4.299   0.552   5.279 -0.2618 -0.2626  0.1896
 8526SOL    HW137211   4.380   0.602   5.287  0.5293 -1.4274 -0.5412
 8526SOL    HW237212   4.301   0.511   5.365 -2.0052  1.6004  1.1169
 8527SOL     OW37213   4.530   2.482   0.677 -0.2961 -0.7088  0.0469
 8527SOL    HW137214   4.589   2.556   0.687 -0.4469 -0.2233 -2.6663
 8527SOL    HW237215   4.603   2.420   0.684 -0.2852 -0.7559 -0.4557
 8528SOL     OW37216   0.417   1.903   9.578  0.9330  0.5854 -0.0073
 8528SOL    HW137217   0.496   1.913   9.526  0.0401  0.3424 -1.4066
 8528SOL    HW237218   0.444   1.831   9.634 -0.7906 -0.9250 -1.1242
 8529SOL     OW37219   2.438   1.786   5.908 -0.0808 -0.2562 -0.6179
 8529SOL    HW137220   2.527   1.752   5.910 -0.0285 -0.0740  0.0999
 8529SOL    HW237221   2.396   1.768   5.993 -0.9238  0.3412 -0.9064
 8530SOL     OW37222   1.154   2.500   9.034  0.0169  0.0885  0.7308
 8530SOL    HW137223   1.214   2.425   9.042  2.5940  1.8494 -2.2092
 8530SOL    HW237224   1.129   2.504   9.126 -0.0528  0.7415  0.6844
 8531SOL     OW37225   1.295   2.382  13.298  0.1516 -0.2004 -0.4975
 8531SOL    HW137226   1.247   2.298  13.301 -0.2727  0.0419 -0.5089
 8531SOL    HW237227   1.345   2.374  13.217  0.3613 -0.8419 -0.3109
 8532SOL     OW37228   0.070   3.723   1.764  0.9360  0.3470 -0.3753
 8532SOL    HW137229   0.001   3.660   1.743  0.2889 -0.4620  4.1788
 8532SOL    HW237230   0.034   3.764   1.842  0.5806  0.9952 -0.8849
 8533SOL     OW37231   3.340   3.599   5.972 -0.2284  0.1859 -0.2084
 8533SOL    HW137232   3.368   3.689   5.989  1.0417 -0.1246 -0.6066
 8533SOL    HW237233   3.259   3.596   6.022 -0.8502 -0.3775 -1.2466
 8534SOL     OW37234   3.102   0.103   5.930 -0.2250 -0.0491 -0.4190
 8534SOL    HW137235   3.150   0.144   5.858  2.2400  2.3580  2.6032
 8534SOL    HW237236   3.164   0.038   5.963  0.6445  0.4889 -0.9863
 8535SOL     OW37237   2.974   0.949   9.305 -0.4246 -0.2744 -0.0118
 8535SOL    HW137238   3.008   1.006   9.374  0.7180  1.8449 -2.3079
 8535SOL    HW237239   2.918   0.890   9.354  3.7706 -4.3244 -0.0607
 8536SOL     OW37240   2.878   2.862   7.027 -0.0545  0.0121  0.5153
 8536SOL    HW137241   2.806   2.920   6.998  1.2289  0.3940 -1.9434
 8536SOL    HW237242   2.946   2.928   7.011 -0.8896  1.0073  1.0561
 8537SOL     OW37243   4.511   3.929  11.939 -0.1426 -0.0190  0.3557
 8537SOL    HW137244   4.546   3.873  11.870 -0.0878 -0.7619  0.9963
 8537SOL    HW237245   4.570   4.004  11.932 -0.2369  0.0793  0.6177
 8538SOL     OW37246   2.710   4.507  16.240  0.4117 -0.3891 -1.0636
 8538SOL    HW137247   2.734   4.542  16.154 -1.2598  0.7117 -1.0907
 8538SOL    HW237248   2.657   4.430  16.221 -3.2972  1.3799  2.0614
 8539SOL     OW37249   4.190   4.200   5.741 -0.1576  0.3683 -0.8498
 8539SOL    HW137250   4.211   4.243   5.824 -0.8715 -1.7166  0.4078
 8539SOL    HW237251   4.212   4.109   5.762 -0.2137  0.0866 -1.9923
 8540SOL     OW37252   0.026   0.814   6.870  0.0373 -0.0642  0.6286
 8540SOL    HW137253   4.680   0.765   6.890 -0.0849  0.1809  0.7297
 8540SOL    HW237254   4.729   0.904   6.858 -1.9734 -0.8642 -0.2656
 8541SOL     OW37255   1.702   0.644  16.625 -0.2911 -0.0900  0.5626
 8541SOL    HW137256   1.764   0.609  16.561 -2.0847 -0.4421 -0.9769
 8541SOL    HW237257   1.632   0.655  16.561  0.7499 -1.4769 -0.8186
 8542SOL     OW37258   0.787   2.916   4.485 -0.4388 -0.2190  0.5230
 8542SOL    HW137259   0.749   2.853   4.545 -1.1814 -0.0015  0.2770
 8542SOL    HW237260   0.862   2.880   4.436 -1.1236 -0.4845 -0.3316
 8543SOL     OW37261   2.483   4.418   7.947  0.2773  0.0531 -0.5255
 8543SOL    HW137262   2.407   4.413   7.888  0.6139  0.3786 -0.9871
 8543SOL    HW237263   2.554   4.394   7.888  2.6254 -1.5243  3.0004
 8544SOL     OW37264   0.553   1.049   5.987 -1.0771  0.1438 -0.6819
 8544SOL    HW137265   0.570   1.110   6.059  1.0594 -0.7102 -0.4745
 8544SOL    HW237266   0.461   1.028   6.006 -0.8839 -1.9907 -2.1828
 8545SOL     OW37267   0.170   1.547   0.504 -0.9009  0.0973 -0.1987
 8545SOL    HW137268   0.145   1.576   0.592 -0.9573  0.0966 -0.2149
 8545SOL    HW237269   0.117   1.468   0.500  1.1786 -1.4420  2.9083
 8546SOL     OW37270   0.790   2.437   3.139 -0.0990 -0.3333  0.1414
 8546SOL    HW137271   0.760   2.457   3.228  0.3943  0.7930  0.0609
 8546SOL    HW237272   0.860   2.376   3.162  0.2166 -1.3795 -3.6439
 8547SOL     OW37273   2.383   1.528   3.004 -0.2008  1.2805  0.5038
 8547SOL    HW137274   2.398   1.621   2.985  0.9113  1.0179  0.1111
 8547SOL    HW237275   2.384   1.489   2.917 -0.0637 -0.7100  1.3965
 8548SOL     OW37276   1.137   3.213  11.661 -0.4324  0.3345  0.0626
 8548SOL    HW137277   1.083   3.182  11.733  2.2456  1.7670  2.6697
 8548SOL    HW237278   1.221   3.206  11.706  0.3573  0.8902 -1.3128
 8549SOL     OW37279   1.769   4.187   9.852  0.1579 -0.0070 -0.2283
 8549SOL    HW137280   1.736   4.210   9.939  3.5430 -1.2503  1.4182
 8549SOL    HW237281   1.786   4.273   9.814 -0.1522 -0.6254 -1.7600
 8550SOL     OW37282   2.482   0.122   3.647  0.3376 -0.7387 -0.2145
 8550SOL    HW137283   2.455   0.201   3.600 -0.0537 -1.4957 -1.2731
 8550SOL    HW237284   2.416   0.126   3.716 -1.1480 -0.2847 -1.6597
 8551SOL     OW37285   3.502   3.480   8.941  0.4931  0.0879 -0.2316
 8551SOL    HW137286   3.534   3.509   8.856  1.3382  1.8440  0.6760
 8551SOL    HW237287   3.411   3.506   8.924  0.2346 -0.6918 -0.0514
 8552SOL     OW37288   0.630   2.967   3.804 -0.6451  0.2646 -0.7454
 8552SOL    HW137289   0.622   2.884   3.757 -0.1597 -0.2036  0.0015
 8552SOL    HW237290   0.717   2.997   3.777 -0.3256  0.8350  0.9310
 8553SOL     OW37291   4.009   1.059   8.504 -0.0811  0.4035  0.6742
 8553SOL    HW137292   3.951   0.987   8.481 -0.0158  1.2678 -2.1474
 8553SOL    HW237293   3.976   1.075   8.592 -0.9193 -0.6665  0.5465
 8554SOL     OW37294   3.670   3.893   9.586 -0.3945  0.4188 -0.0287
 8554SOL    HW137295   3.661   3.837   9.508 -0.4099  0.1920  0.1361
 8554SOL    HW237296   3.595   3.856   9.632  0.9428  0.6943  2.3315
 8555SOL     OW37297   4.063   4.218   5.227  0.0158  0.0422  0.4178
 8555SOL    HW137298   4.033   4.288   5.285  0.9152  0.2154  0.6676
 8555SOL    HW237299   4.012   4.243   5.150 -1.7065  1.1617  1.9142
 8556SOL     OW37300   4.316   2.970   6.555  0.5328 -0.8094  0.5208
 8556SOL    HW137301   4.334   3.052   6.508 -1.8473 -0.4658  0.2179
 8556SOL    HW237302   4.269   3.005   6.630  2.5867 -1.6673  2.1924
 8557SOL     OW37303   1.094   2.469  15.447 -0.4101 -0.2849 -0.3032
 8557SOL    HW137304   1.158   2.491  15.514  0.6520  0.5694 -1.5795
 8557SOL    HW237305   1.026   2.429  15.501 -1.6559 -0.0093 -1.6487
 8558SOL     OW37306   2.515   1.347   9.573 -0.2273 -0.2126  0.0531
 8558SOL    HW137307   2.477   1.431   9.597 -0.9694 -0.8052  0.9139
 8558SOL    HW237308   2.602   1.376   9.543  1.1064 -2.6442  1.6151
 8559SOL     OW37309   3.486   1.539   7.595 -0.1823 -0.4387  0.1486
 8559SOL    HW137310   3.489   1.630   7.623 -0.0939 -0.8817  1.5880
 8559SOL    HW237311   3.560   1.534   7.534 -0.4587 -1.8624 -0.0737
 8560SOL     OW37312   3.691   2.301   3.731  0.6584 -0.3224  0.7495
 8560SOL    HW137313   3.694   2.358   3.655  0.8447 -0.2402  0.8180
 8560SOL    HW237314   3.666   2.218   3.690  0.2524  0.9997 -1.6580
 8561SOL     OW37315   3.767   0.189   8.769 -0.4059 -0.2106  0.3949
 8561SOL    HW137316   3.680   0.151   8.766 -0.5505  0.1975 -0.6073
 8561SOL    HW237317   3.745   0.282   8.766 -2.4573 -0.7046  0.0038
 8562SOL     OW37318   0.606   3.556   3.281  0.4813  0.0106 -0.0857
 8562SOL    HW137319   0.669   3.623   3.255 -0.7350  0.8565 -0.9007
 8562SOL    HW237320   0.526   3.578   3.234  0.3388 -0.1960  0.0578
 8563SOL     OW37321   1.227   2.244   8.129  0.1824 -0.8168 -0.1646
 8563SOL    HW137322   1.296   2.300   8.163 -0.3227  0.6415 -1.5211
 8563SOL    HW237323   1.147   2.251   8.181 -0.4721 -0.0752 -1.2639
 8564SOL     OW37324   0.969   0.920   7.823  0.4730  0.2917  0.0455
 8564SOL    HW137325   1.048   0.928   7.771  0.5969  0.8709  0.3189
 8564SOL    HW237326   1.010   0.877   7.898 -0.6177 -0.3114  0.3140
 8565SOL     OW37327   4.323   1.999   1.685 -0.1716 -0.4011  0.5583
 8565SOL    HW137328   4.357   1.910   1.687 -1.1540 -0.7689  0.7362
 8565SOL    HW237329   4.235   1.972   1.659  1.3178 -2.0414 -2.8242
 8566SOL     OW37330   3.948   0.552  15.219 -0.3096  0.2402 -0.1736
 8566SOL    HW137331   3.925   0.570  15.128  0.9759  2.3292 -0.0817
 8566SOL    HW237332   4.041   0.528  15.214 -0.2992  0.2966 -0.2462
 8567SOL     OW37333   1.522   0.851   7.187  0.0065  0.2462  0.3751
 8567SOL    HW137334   1.606   0.834   7.144  0.6450  1.0017  1.3288
 8567SOL    HW237335   1.531   0.945   7.200 -2.2456  0.3207  1.4492
 8568SOL     OW37336   1.627   2.818  16.272  0.0632  0.4044 -0.8077
 8568SOL    HW137337   1.722   2.811  16.266  0.1121 -0.6155  1.2522
 8568SOL    HW237338   1.612   2.898  16.323 -1.1136 -0.7308  0.6495
 8569SOL     OW37339   2.078   1.755   1.742 -0.1525  0.3568  0.6885
 8569SOL    HW137340   2.111   1.788   1.658  1.7022  1.0730  1.7176
 8569SOL    HW237341   2.054   1.832   1.792 -0.2447  1.1813 -0.6310
 8570SOL     OW37342   2.854   2.078   1.958  0.1817 -0.0529 -0.7681
 8570SOL    HW137343   2.888   2.100   1.871  0.1249  1.9891 -0.2529
 8570SOL    HW237344   2.773   2.129   1.960  0.9042  1.1232 -1.6713
 8571SOL     OW37345   3.727   3.511   5.138  0.1286 -0.1349  0.6388
 8571SOL    HW137346   3.808   3.473   5.103 -0.5896 -1.1315  0.0800
 8571SOL    HW237347   3.700   3.433   5.187  0.0045 -1.1033 -0.9817
 8572SOL     OW37348   4.729   3.661  16.013  0.3997  0.0837  0.3683
 8572SOL    HW137349   0.005   3.749  15.977  0.1561  0.0722  0.2691
 8572SOL    HW237350   4.635   3.644  16.000  0.5266  0.1418 -0.6090
 8573SOL     OW37351   0.256   1.342   7.685 -0.1670 -0.4796 -0.5449
 8573SOL    HW137352   0.169   1.307   7.699  0.0998 -0.3577  1.4049
 8573SOL    HW237353   0.261   1.422   7.738  1.9609  1.0123 -2.9635
 8574SOL     OW37354   4.657   4.017  15.634 -0.1851 -0.4668  0.2729
 8574SOL    HW137355   4.727   4.056  15.582 -0.2194 -1.2291 -0.3427
 8574SOL    HW237356   4.626   3.943  15.581 -1.3373  0.4045 -0.2795
 8575SOL     OW37357   0.576   3.954   9.108 -0.3331 -0.0579  0.1334
 8575SOL    HW137358   0.567   3.861   9.131  1.5547 -0.3648 -0.4073
 8575SOL    HW237359   0.641   3.994   9.165  0.9835 -2.8478  0.5761
 8576SOL     OW37360   1.231   0.867   7.720 -0.1619 -0.3975  0.8636
 8576SOL    HW137361   1.168   0.893   7.653  1.0709  1.9834  0.6166
 8576SOL    HW237362   1.285   0.941   7.747 -3.4591  1.7629  1.5063
 8577SOL     OW37363   1.228   1.177  16.737 -0.2824 -0.7022  0.2155
 8577SOL    HW137364   1.201   1.193  16.827 -1.1731  2.0711 -0.5214
 8577SOL    HW237365   1.320   1.201  16.730 -0.7260  1.5716  2.3188
 8578SOL     OW37366   4.261   2.143   8.917 -0.6426 -0.4827  0.5469
 8578SOL    HW137367   4.340   2.112   8.962  0.7674  2.2126 -0.0855
 8578SOL    HW237368   4.202   2.108   8.983  0.0345  1.5679  2.2526
 8579SOL     OW37369   4.304   4.394   3.554  0.2216  0.0080  0.1358
 8579SOL    HW137370   4.386   4.345   3.553  0.2458  0.0580 -0.2639
 8579SOL    HW237371   4.243   4.338   3.600 -0.2138 -0.1010 -0.5709
 8580SOL     OW37372   2.170   1.256   1.922  0.1143 -0.0568  0.3195
 8580SOL    HW137373   2.176   1.228   1.830  0.1773  0.0505  0.2918
 8580SOL    HW237374   2.218   1.337   1.913 -0.1142  0.2066  1.4720
 8581SOL     OW37375   2.897   1.184  17.004  0.1351 -0.2982 -0.6290
 8581SOL    HW137376   2.804   1.206  17.004  0.6438  1.8117 -2.2851
 8581SOL    HW237377   2.909   1.188  16.909 -0.4387  1.7574 -0.6105
 8582SOL     OW37378   3.006   4.104   4.973  0.1962  0.1450  0.2402
 8582SOL    HW137379   3.016   4.197   4.991  1.3049  0.0449  0.1419
 8582SOL    HW237380   3.019   4.064   5.059  2.3047 -0.5826 -0.4195
 8583SOL     OW37381   4.415   1.624   8.629 -0.8621 -0.1317  0.2769
 8583SOL    HW137382   4.395   1.647   8.538  0.0252  0.6056  0.2673
 8583SOL    HW237383   4.484   1.558   8.616  2.4144  3.6160 -1.2273
 8584SOL     OW37384   3.091   1.876   5.897  0.4300 -0.1277  0.0807
 8584SOL    HW137385   3.009   1.926   5.889  0.1439 -0.4605  0.9325
 8584SOL    HW237386   3.074   1.797   5.846 -1.8028 -0.2082  0.9139
 8585SOL     OW37387   2.969   4.381   7.147 -0.1096  0.1622 -0.3239
 8585SOL    HW137388   2.914   4.317   7.193  0.7902  0.0927  0.6635
 8585SOL    HW237389   2.914   4.410   7.074 -1.3832 -1.0297  0.1544
 8586SOL     OW37390   0.143   2.272  14.626 -0.3113 -0.3630  0.2256
 8586SOL    HW137391   0.139   2.209  14.554 -1.5965 -0.2787  0.2152
 8586SOL    HW237392   0.155   2.360  14.591  0.1246 -0.6140 -0.2565
 8587SOL     OW37393   0.830   4.216   1.062 -0.3050 -0.0003 -0.1467
 8587SOL    HW137394   0.802   4.128   1.038  0.4261 -0.6695  1.4665
 8587SOL    HW237395   0.824   4.215   1.157 -0.2857  0.6251 -0.1373
 8588SOL     OW37396   0.579   1.523   3.143  0.3437 -0.1466 -0.2183
 8588SOL    HW137397   0.638   1.598   3.136 -1.9674  1.7610  0.6305
 8588SOL    HW237398   0.613   1.463   3.076  1.1108  0.1655 -0.1088
 8589SOL     OW37399   1.856   3.863  10.654 -0.1354 -0.6093  0.9194
 8589SOL    HW137400   1.772   3.897  10.684 -1.3444 -1.0205 -1.9897
 8589SOL    HW237401   1.915   3.931  10.687 -1.3419 -0.2251  2.2382
 8590SOL     OW37402   2.694   3.044   6.977 -0.5252  0.0572 -0.0368
 8590SOL    HW137403   2.603   3.015   6.983 -1.1238  2.4269  2.0977
 8590SOL    HW237404   2.670   3.116   6.919 -2.3146  0.1795  0.8812
 8591SOL     OW37405   4.204   3.718   2.822 -0.1114 -0.3078  0.6220
 8591SOL    HW137406   4.224   3.676   2.905 -2.1643 -0.9633  0.7790
 8591SOL    HW237407   4.134   3.781   2.838  2.4604  3.1337 -1.6203
 8592SOL     OW37408   0.400   3.378   5.474  0.2953  0.0505  0.8851
 8592SOL    HW137409   0.492   3.363   5.451  0.6590  4.4151 -0.5400
 8592SOL    HW237410   0.358   3.399   5.391  0.7152 -0.8649  0.4471
 8593SOL     OW37411   3.678   3.910   4.806 -0.1197 -0.0671 -0.3212
 8593SOL    HW137412   3.631   3.884   4.727 -1.6346 -0.4688  0.6927
 8593SOL    HW237413   3.766   3.888   4.777 -0.7325  1.0861 -3.0504
 8594SOL     OW37414   1.097   2.195   7.382 -0.4007 -0.2863  0.0846
 8594SOL    HW137415   1.111   2.255   7.456  0.0696 -1.0469  0.6139
 8594SOL    HW237416   1.097   2.109   7.425  1.4203  1.4675  3.6193
 8595SOL     OW37417   4.182   2.164   2.220 -0.9558 -0.3268  0.3315
 8595SOL    HW137418   4.227   2.114   2.152 -3.0512  0.5362 -1.7102
 8595SOL    HW237419   4.228   2.143   2.302  0.9954  1.3320 -0.3596
 8596SOL     OW37420   1.582   2.667   5.656  0.4043  0.5783 -0.3651
 8596SOL    HW137421   1.674   2.690   5.646  1.1655 -1.4553  1.8044
 8596SOL    HW237422   1.562   2.644   5.565 -2.8234 -0.2227  0.5371
 8597SOL     OW37423   2.183   3.369   7.674 -0.5272 -0.2441 -0.2671
 8597SOL    HW137424   2.239   3.335   7.605  0.1379  0.9706 -0.3133
 8597SOL    HW237425   2.102   3.364   7.623 -1.4003  0.7016  1.0007
 8598SOL     OW37426   4.585   0.746   3.081  0.3606  0.0165 -0.3308
 8598SOL    HW137427   4.647   0.794   3.026  1.4559 -0.2831  0.6422
 8598SOL    HW237428   4.501   0.757   3.038 -0.0162  1.8239  0.8618
 8599SOL     OW37429   0.531   3.846   7.243  0.0771  0.2954  0.1326
 8599SOL    HW137430   0.503   3.931   7.208  0.6073  0.2139 -0.4948
 8599SOL    HW237431   0.489   3.790   7.177  1.1189 -0.5567  0.1895
 8600SOL     OW37432   4.732   1.325   0.484  0.5283 -0.8327  0.1705
 8600SOL    HW137433   4.669   1.296   0.550 -0.8229 -0.1448 -0.8139
 8600SOL    HW237434   4.711   1.277   0.404 -1.6954 -0.7425  0.6978
 8601SOL     OW37435   0.133   0.178  11.891 -0.2960 -0.0169 -0.7095
 8601SOL    HW137436   0.103   0.093  11.926 -0.1771  1.9736  4.1597
 8601SOL    HW237437   0.081   0.186  11.811 -0.2536  0.4669 -0.6864
 8602SOL     OW37438   3.675   4.324   3.673 -0.0689 -0.2538 -0.3377
 8602SOL    HW137439   3.677   4.403   3.728 -0.3535  0.0156 -0.7129
 8602SOL    HW237440   3.582   4.315   3.653 -0.2430 -1.7110  1.1323
 8603SOL     OW37441   3.560   1.075   7.022 -0.5394 -0.5655  0.5408
 8603SOL    HW137442   3.564   0.993   6.973  0.0814  0.3225 -0.8852
 8603SOL    HW237443   3.626   1.121   6.971 -0.9523  1.0767  1.4952
 8604SOL     OW37444   0.270   0.839  15.086 -0.1103  0.1550 -0.3547
 8604SOL    HW137445   0.356   0.877  15.067 -0.5570  1.1195 -0.4170
 8604SOL    HW237446   0.251   0.894  15.162 -0.7657 -1.4795  0.6866
 8605SOL     OW37447   0.537   0.775   6.979  0.3937  0.5404 -0.8662
 8605SOL    HW137448   0.453   0.818   6.965  0.2928  0.0789 -1.7019
 8605SOL    HW237449   0.599   0.804   6.911  0.3277 -1.6151 -1.8597
 8606SOL     OW37450   0.420   4.387   6.770  0.6258 -0.4097  0.0561
 8606SOL    HW137451   0.514   4.388   6.749  0.8649 -3.0217  0.9976
 8606SOL    HW237452   0.397   4.439   6.693 -0.1790 -1.1981 -0.2329
 8607SOL     OW37453   3.818   4.262   4.948 -0.5249 -0.5770 -0.3186
 8607SOL    HW137454   3.841   4.177   4.986 -2.7295 -0.3099  1.5627
 8607SOL    HW237455   3.728   4.255   4.917  0.1336 -1.7680 -1.9478
 8608SOL     OW37456   2.830   0.153   1.252  0.0856 -0.5563 -0.2015
 8608SOL    HW137457   2.772   0.228   1.245  0.7835 -0.1897 -2.2696
 8608SOL    HW237458   2.774   0.081   1.223 -1.8733  0.8998  0.0230
 8609SOL     OW37459   4.402   1.595   5.154  0.0374 -1.0074 -0.4593
 8609SOL    HW137460   4.319   1.549   5.168 -0.4232  0.3068  1.0682
 8609SOL    HW237461   4.404   1.623   5.245 -1.1507 -1.1798 -0.3789
 8610SOL     OW37462   0.111   1.850   3.014 -0.1751 -0.4032 -0.0988
 8610SOL    HW137463   0.047   1.866   2.944 -0.2090  1.7182  0.4322
 8610SOL    HW237464   0.055   1.801   3.074 -0.7740  0.5306  0.1031
 8611SOL     OW37465   0.589   1.810  12.643 -0.5861  0.7112 -0.1952
 8611SOL    HW137466   0.650   1.807  12.569 -0.8529 -1.2960 -0.3427
 8611SOL    HW237467   0.579   1.904  12.662 -2.5659  0.4866 -0.0772
 8612SOL     OW37468   2.878   2.477   3.998 -0.1869 -0.0219 -0.3521
 8612SOL    HW137469   2.896   2.421   3.923 -2.2488 -1.9717  0.6118
 8612SOL    HW237470   2.847   2.557   3.956 -0.1704  1.3660  2.2867
 8613SOL     OW37471   0.871   1.485  16.608 -0.1425 -1.0960 -0.4360
 8613SOL    HW137472   0.828   1.569  16.592  2.1377  0.6181  2.2974
 8613SOL    HW237473   0.930   1.476  16.533  2.0267 -1.0209  1.2682
 8614SOL     OW37474   4.660   4.120   0.359  0.1031 -0.2113 -0.4619
 8614SOL    HW137475   4.635   4.030   0.336 -0.7460 -0.1918  0.3942
 8614SOL    HW237476   4.575   4.157   0.384 -0.1955 -0.3051 -1.3333
 8615SOL     OW37477   2.446   3.064   8.500  0.1843 -0.6568  0.6923
 8615SOL    HW137478   2.464   2.974   8.529  0.9726 -0.4279  0.9137
 8615SOL    HW237479   2.520   3.087   8.443 -2.5185  0.8147 -2.1711
 8616SOL     OW37480   1.091   3.145  12.895 -1.3298 -0.0888  0.4862
 8616SOL    HW137481   1.016   3.087  12.883  0.2812 -2.0792 -0.0175
 8616SOL    HW237482   1.049   3.225  12.863  0.5620  0.4501 -0.6567
 8617SOL     OW37483   2.587   3.828  13.302  0.3241 -0.3097 -0.4277
 8617SOL    HW137484   2.662   3.877  13.268  1.3240 -1.2682  0.3943
 8617SOL    HW237485   2.628   3.747  13.332  0.6419  0.6256  1.6454
 8618SOL     OW37486   2.311   0.098   2.023  0.6852 -0.2413 -0.4824
 8618SOL    HW137487   2.376   0.056   1.966  2.5064  1.2498  0.4907
 8618SOL    HW237488   2.254   0.146   1.963  0.3122 -1.8962 -1.4441
 8619SOL     OW37489   3.071   2.632   6.573 -0.1535  0.0101 -0.5840
 8619SOL    HW137490   3.027   2.569   6.516 -1.7032 -0.1926  0.8538
 8619SOL    HW237491   3.006   2.638   6.642 -0.8814  0.1394 -1.2763
 8620SOL     OW37492   1.154   0.746   8.361 -0.3570  0.2676 -0.8557
 8620SOL    HW137493   1.123   0.680   8.422 -0.0229  1.0563  0.1747
 8620SOL    HW237494   1.235   0.765   8.407 -0.5136 -0.8634 -0.1201
 8621SOL     OW37495   3.400   1.783   5.128  0.2894 -0.1384  0.2750
 8621SOL    HW137496   3.375   1.693   5.110  0.7716 -0.7366  2.5366
 8621SOL    HW237497   3.324   1.838   5.109  1.2834  1.1348 -0.0077
 8622SOL     OW37498   0.572   3.132   2.022  0.2375 -0.2289  0.0602
 8622SOL    HW137499   0.667   3.133   2.008  0.9486 -0.4393  4.9619
 8622SOL    HW237500   0.540   3.122   1.932  2.2875  0.9614 -0.8029
 8623SOL     OW37501   0.641   0.445   9.101  0.0854 -0.6462  0.0685
 8623SOL    HW137502   0.575   0.506   9.134  0.9357  1.5443 -2.1927
 8623SOL    HW237503   0.704   0.452   9.173 -0.2806 -0.3265  0.3533
 8624SOL     OW37504   3.135   0.256  11.379 -0.0574  0.4940 -0.6063
 8624SOL    HW137505   3.139   0.331  11.319 -2.7621  0.7801 -0.4293
 8624SOL    HW237506   3.226   0.248  11.408  0.2480  0.9653 -1.4201
 8625SOL     OW37507   4.239   4.538   2.718  0.6742  0.3941 -0.6176
 8625SOL    HW137508   4.315   4.592   2.699  0.3573  1.0196 -0.1124
 8625SOL    HW237509   4.277   4.462   2.762 -0.5893  0.2003  0.1430
 8626SOL     OW37510   3.261   0.140   8.473  0.0073 -0.1218  0.5581
 8626SOL    HW137511   3.279   0.215   8.530  0.3235 -0.5123  0.9655
 8626SOL    HW237512   3.231   0.076   8.537  0.2217 -1.1204 -0.3348
 8627SOL     OW37513   0.039   1.599   4.472 -0.4385  0.0281  0.8240
 8627SOL    HW137514   0.051   1.593   4.377  0.3873 -0.9793  0.9823
 8627SOL    HW237515   0.042   1.506   4.497 -0.7487 -1.4513 -4.6960
 8628SOL     OW37516   1.152   2.649   7.502 -0.0838 -0.0237 -0.5943
 8628SOL    HW137517   1.087   2.646   7.432 -1.8765 -0.9034  1.1201
 8628SOL    HW237518   1.232   2.672   7.455 -0.5341  1.4168 -0.6447
 8629SOL     OW37519   3.343   2.560   9.472 -0.4532  0.2437  0.3975
 8629SOL    HW137520   3.331   2.499   9.545  0.1796 -1.3692 -0.8534
 8629SOL    HW237521   3.293   2.523   9.399 -0.8028  1.0231  0.2393
 8630SOL     OW37522   2.846   0.697   4.931  0.1879 -0.5292  0.3847
 8630SOL    HW137523   2.783   0.735   4.871  0.1440  0.6689  1.1986
 8630SOL    HW237524   2.794   0.721   5.007  1.7540 -0.2978  1.3939
 8631SOL     OW37525   2.772   1.189   5.109 -0.0522  0.4767 -0.1558
 8631SOL    HW137526   2.830   1.251   5.154  2.0961  2.2832 -5.3418
 8631SOL    HW237527   2.838   1.126   5.077 -1.6574 -0.5884 -1.3572
 8632SOL     OW37528   2.994   2.908   2.059  0.3658 -0.1315 -0.2706
 8632SOL    HW137529   2.997   2.815   2.038 -0.3893 -0.3859  0.7472
 8632SOL    HW237530   3.080   2.932   2.025 -0.0409  1.0134 -0.5038
 8633SOL     OW37531   1.697   2.820   1.483 -0.2100  0.3006 -0.3662
 8633SOL    HW137532   1.649   2.862   1.411  0.8483  0.2040 -1.1355
 8633SOL    HW237533   1.783   2.832   1.441 -0.6443  0.8066 -1.1048
 8634SOL     OW37534   3.400   1.033  10.335 -0.1307  0.0444 -0.0682
 8634SOL    HW137535   3.401   1.098  10.265  2.4378 -0.8306 -0.8504
 8634SOL    HW237536   3.321   1.069  10.375  0.2582 -0.2341  0.9494
 8635SOL     OW37537   4.175   1.950   6.706  0.3304  0.1748 -0.4194
 8635SOL    HW137538   4.091   1.994   6.716  0.3686  0.8963 -3.1366
 8635SOL    HW237539   4.188   1.899   6.786  0.0529 -0.2791 -0.6634
 8636SOL     OW37540   3.125   0.310   1.584 -0.5191  0.1251  0.0372
 8636SOL    HW137541   3.072   0.320   1.662  0.8520  0.8479  0.8752
 8636SOL    HW237542   3.205   0.282   1.629  0.1118  2.9816  0.6583
 8637SOL     OW37543   0.059   1.634   8.681  0.2275 -0.0043  0.4175
 8637SOL    HW137544   0.067   1.729   8.673 -1.7971  0.1626  0.3547
 8637SOL    HW237545   0.052   1.625   8.776  1.0514 -0.0729  0.4677
 8638SOL     OW37546   2.448   3.050   4.811  0.5542 -0.4503 -0.5462
 8638SOL    HW137547   2.471   3.088   4.726 -1.9600  1.6415 -0.3093
 8638SOL    HW237548   2.396   2.972   4.792 -0.0741  0.0893 -1.0592
 8639SOL     OW37549   1.621   3.503   1.596 -0.0840 -0.0971 -0.5878
 8639SOL    HW137550   1.661   3.416   1.605 -2.6965 -1.3589 -1.3193
 8639SOL    HW237551   1.532   3.470   1.589  0.4815 -1.2523 -2.5320
 8640SOL     OW37552   4.427   3.133   7.630 -0.9226  0.2050 -0.0491
 8640SOL    HW137553   4.398   3.046   7.659 -4.1230  1.4387  0.4591
 8640SOL    HW237554   4.363   3.160   7.564 -2.0785  1.0664  1.4155
 8641SOL     OW37555   1.381   2.802   1.084 -0.6087 -0.2677  0.0408
 8641SOL    HW137556   1.411   2.734   1.144 -0.0478 -1.4004 -1.5347
 8641SOL    HW237557   1.288   2.777   1.076 -0.7476  0.9987 -2.2209
 8642SOL     OW37558   1.134   2.866   2.260 -0.1084  0.1452  0.2814
 8642SOL    HW137559   1.052   2.901   2.224 -2.1507 -1.8686  2.9475
 8642SOL    HW237560   1.124   2.886   2.353 -1.9817  0.0830  0.0990
 8643SOL     OW37561   0.471   0.442  12.723  0.0526  0.5845 -0.1919
 8643SOL    HW137562   0.509   0.412  12.640  1.6965  0.9230  0.4409
 8643SOL    HW237563   0.432   0.525  12.693 -3.2077 -1.7240 -2.4136
 8644SOL     OW37564   3.942   3.252  17.397  0.2390 -0.1576 -0.0703
 8644SOL    HW137565   4.027   3.295  17.389  0.2191 -0.1148 -0.0499
 8644SOL    HW237566   3.972   3.166  17.426 -0.8263 -0.6526 -0.4239
 8645SOL     OW37567   1.304   4.127   7.885 -0.1621 -1.1383  0.4275
 8645SOL    HW137568   1.331   4.171   7.965  0.6888  1.8165 -1.5030
 8645SOL    HW237569   1.211   4.109   7.901 -0.3345 -1.0686 -0.4677
 8646SOL     OW37570   2.451   2.069   9.333  0.4951 -0.2380  0.6143
 8646SOL    HW137571   2.523   2.104   9.280  1.2084 -1.9598  0.4504
 8646SOL    HW237572   2.411   2.148   9.369  0.3571  0.8990 -2.0191
 8647SOL     OW37573   1.562   2.222   1.843  0.0221 -0.1596  0.1617
 8647SOL    HW137574   1.510   2.267   1.910 -1.2860  1.1256 -1.7096
 8647SOL    HW237575   1.622   2.286   1.806  2.8848 -2.4425  0.8389
 8648SOL     OW37576   0.602   1.590   8.100 -0.4339 -0.0700 -0.7332
 8648SOL    HW137577   0.602   1.515   8.041  0.4576  0.0920 -0.9405
 8648SOL    HW237578   0.616   1.547   8.185 -2.3702  2.3103  0.7924
 8649SOL     OW37579   2.673   4.693   4.604  0.7304  0.5553 -0.1894
 8649SOL    HW137580   2.714   0.041   4.629  0.3192  0.7696 -0.2144
 8649SOL    HW237581   2.703   4.636   4.674  1.3087  1.1227  0.0218
 8650SOL     OW37582   4.004   1.937  16.677  0.4466 -0.4907 -0.3794
 8650SOL    HW137583   4.013   1.874  16.606  0.3389  1.3844 -2.0457
 8650SOL    HW237584   4.094   1.967  16.682  0.3445 -0.6799  2.8675
 8651SOL     OW37585   3.759   1.038  15.872  0.1522  0.6936  0.0884
 8651SOL    HW137586   3.804   1.117  15.903  1.1564  0.3395 -0.4709
 8651SOL    HW237587   3.801   0.976  15.933  0.8375 -1.2249 -2.3158
 8652SOL     OW37588   3.869   3.723  16.051  0.3575 -0.0421 -0.5219
 8652SOL    HW137589   3.807   3.674  16.104  1.1336  1.5864  1.9047
 8652SOL    HW237590   3.918   3.658  16.001  0.1311 -0.9141  0.3971
 8653SOL     OW37591   3.396   1.875   8.834 -0.1855 -0.2445  0.4089
 8653SOL    HW137592   3.361   1.787   8.819  1.5354 -0.8851  0.1650
 8653SOL    HW237593   3.318   1.927   8.816 -1.0755 -1.7495 -0.1233
 8654SOL     OW37594   2.936   1.523   4.514 -0.4005  0.1615  0.7123
 8654SOL    HW137595   2.906   1.613   4.524  1.7904  1.0120 -0.3796
 8654SOL    HW237596   2.897   1.508   4.428 -1.0943  3.9653  0.3980
 8655SOL     OW37597   3.469   2.498  12.088 -0.5459 -0.0313  0.2124
 8655SOL    HW137598   3.543   2.468  12.141 -0.7825  1.8215  1.5568
 8655SOL    HW237599   3.518   2.540  12.018  0.5303  0.0052  0.9805
 8656SOL     OW37600   3.917   2.972   5.665 -0.0403 -0.9270 -0.5187
 8656SOL    HW137601   4.007   2.987   5.695 -0.7913  2.7641 -0.1076
 8656SOL    HW237602   3.930   2.884   5.629 -0.8673 -0.7912 -1.1346
 8657SOL     OW37603   0.702   2.134  17.427 -0.7406  0.7005 -0.0711
 8657SOL    HW137604   0.629   2.178  17.470 -1.2211  0.6318 -0.8162
 8657SOL    HW237605   0.701   2.178  17.342 -0.4236  0.2064 -0.3280
 8658SOL     OW37606   1.877   0.391  17.716  0.0745 -0.2708  0.0725
 8658SOL    HW137607   1.897   0.459  17.651 -1.7706 -1.3667 -1.6169
 8658SOL    HW237608   1.805   0.441   0.018 -0.5410 -1.2031  0.1251
 8659SOL     OW37609   2.898   3.446   4.823  0.2159 -0.4063 -0.1847
 8659SOL    HW137610   2.882   3.488   4.738  0.0998  0.1418  0.1130
 8659SOL    HW237611   2.851   3.362   4.821  0.3874 -0.5240  0.8757
 8660SOL     OW37612   0.632   1.294   8.072 -0.3065 -0.1073 -0.2501
 8660SOL    HW137613   0.565   1.298   8.004 -1.5399  2.0964  1.0992
 8660SOL    HW237614   0.679   1.218   8.039 -0.1112 -0.9078  1.8568
 8661SOL     OW37615   2.539   4.686   8.879 -0.6378  0.5002  0.7681
 8661SOL    HW137616   2.600   4.621   8.844 -0.1602  1.1765  0.3322
 8661SOL    HW237617   2.496   4.635   8.948 -2.3858 -1.0926 -1.5087
 8662SOL     OW37618   2.800   3.809   3.009 -0.4391 -0.4304  0.3743
 8662SOL    HW137619   2.881   3.857   2.992 -0.4277 -0.9262 -0.9921
 8662SOL    HW237620   2.790   3.767   2.924  0.5024 -0.1049  0.1030
 8663SOL     OW37621   1.798   1.941   1.784 -0.4185  0.0741  0.0954
 8663SOL    HW137622   1.746   2.001   1.730 -1.7085 -2.0345 -1.0419
 8663SOL    HW237623   1.727   1.877   1.776  1.8467 -2.4718  0.2010
 8664SOL     OW37624   2.808   4.699   2.957 -0.1841 -0.4877  0.3389
 8664SOL    HW137625   2.713   4.694   2.969 -0.2576  0.7123  0.2064
 8664SOL    HW237626   2.842   4.712   3.046 -0.6802 -1.0351  0.6098
 8665SOL     OW37627   2.553   2.198   2.254  0.2451 -0.2126 -1.0723
 8665SOL    HW137628   2.617   2.251   2.206 -0.0111  0.1416 -1.0260
 8665SOL    HW237629   2.475   2.241   2.218 -0.1656 -0.3159 -0.3103
 8666SOL     OW37630   4.120   2.112  13.712  0.2663  0.8148 -0.2511
 8666SOL    HW137631   4.205   2.116  13.668  0.8399  0.0071  0.7746
 8666SOL    HW237632   4.075   2.152  13.638  2.9865 -0.0210 -2.3472
 8667SOL     OW37633   3.688   3.021   5.211  0.6582  0.3150  0.4107
 8667SOL    HW137634   3.670   3.079   5.285 -1.2324 -2.2834  1.9604
 8667SOL    HW237635   3.716   3.077   5.138 -2.0220 -0.7381 -1.3910
 8668SOL     OW37636   0.599   1.396   3.389 -0.0533  0.4128  0.0002
 8668SOL    HW137637   0.519   1.388   3.439  1.5097 -1.1051  2.2580
 8668SOL    HW237638   0.573   1.441   3.309 -0.6498  2.4556  1.3316
 8669SOL     OW37639   2.406   0.891   5.397 -0.3352 -0.4089 -0.2506
 8669SOL    HW137640   2.415   0.970   5.451  1.1361 -2.0718  1.9699
 8669SOL    HW237641   2.392   0.827   5.467  3.5821 -1.7700 -0.6999
 8670SOL     OW37642   3.167   2.165   2.751  0.2320 -0.0475  0.3735
 8670SOL    HW137643   3.209   2.247   2.724 -1.1123  0.1735 -1.0301
 8670SOL    HW237644   3.132   2.187   2.838 -0.6716  0.2750 -0.0739
 8671SOL     OW37645   3.083   1.938   3.686  1.2073  0.8853 -0.3059
 8671SOL    HW137646   3.046   1.850   3.675  4.6195 -0.8285  1.9346
 8671SOL    HW237647   3.028   1.967   3.758 -0.0093  0.0362 -0.8943
 8672SOL     OW37648   2.468   1.025   5.144  0.6003 -0.4110 -0.1984
 8672SOL    HW137649   2.552   1.069   5.136 -0.1261  0.9104 -0.5937
 8672SOL    HW237650   2.475   0.991   5.233 -1.1224  2.0402  0.8698
 8673SOL     OW37651   3.573   4.641   8.192 -0.4929  0.1311  0.2490
 8673SOL    HW137652   3.567   4.545   8.185 -2.0071  0.4297 -2.6983
 8673SOL    HW237653   3.546   4.641   8.284  0.9733 -0.9378  0.6691
 8674SOL     OW37654   4.040   0.740   7.100  0.3541 -0.2203  0.3241
 8674SOL    HW137655   4.070   0.673   7.162  0.5455  0.5526  1.0603
 8674SOL    HW237656   4.121   0.790   7.103 -1.1726  2.2020  1.2291
 8675SOL     OW37657   1.696   2.796   6.832 -0.0608 -0.3050 -0.0128
 8675SOL    HW137658   1.782   2.764   6.808 -0.5480 -1.3449 -0.3737
 8675SOL    HW237659   1.725   2.887   6.843  2.0443 -0.5176 -3.9149
 8676SOL     OW37660   0.440   0.433   9.930 -0.3700 -0.9123  0.8950
 8676SOL    HW137661   0.472   0.344   9.939 -1.6994 -1.5181 -0.3989
 8676SOL    HW237662   0.403   0.433   9.842  1.0680  2.2022  0.2860
 8677SOL     OW37663   0.912   2.108   1.948 -0.4205  0.0396 -0.4155
 8677SOL    HW137664   0.934   2.173   2.015 -2.5177 -1.4758  1.6952
 8677SOL    HW237665   0.998   2.094   1.907 -0.4286  2.0657 -1.1690
 8678SOL     OW37666   0.298   0.451   6.093  0.1101 -0.4694 -0.0448
 8678SOL    HW137667   0.261   0.528   6.050  0.9752  0.0802  0.1905
 8678SOL    HW237668   0.330   0.493   6.173  2.7373 -0.0523 -1.3219
 8679SOL     OW37669   3.621   0.599   3.730  0.1519 -0.2795  0.3454
 8679SOL    HW137670   3.632   0.562   3.818  1.5524 -2.7280 -0.8423
 8679SOL    HW237671   3.713   0.608   3.706  0.3989 -0.3139  1.2831
 8680SOL     OW37672   3.711   0.406   1.114 -0.3215  0.7365 -0.3398
 8680SOL    HW137673   3.722   0.311   1.116 -0.4451  0.7880  1.9957
 8680SOL    HW237674   3.622   0.397   1.147  0.5530  1.2597  2.0955
 8681SOL     OW37675   2.490   4.421   0.062 -0.0212 -0.0997 -0.7588
 8681SOL    HW137676   2.400   4.434   0.092  0.2493 -0.7814  0.3480
 8681SOL    HW237677   2.535   4.455   0.140 -0.2321 -0.5163 -0.4568
 8682SOL     OW37678   3.601   0.976   0.135  0.1448 -0.1268  0.3865
 8682SOL    HW137679   3.690   0.954   0.161 -0.2832 -1.7631  0.4900
 8682SOL    HW237680   3.620   1.028   0.056 -0.6647  1.0196  0.9531
 8683SOL     OW37681   2.698   3.098   3.019 -0.2937  0.2990  0.0824
 8683SOL    HW137682   2.689   3.014   2.975  2.0130  0.6809 -1.0790
 8683SOL    HW237683   2.666   3.156   2.949  1.0082 -1.1803 -1.7347
 8684SOL     OW37684   2.149   3.726   8.877  0.2790  0.0431  0.0690
 8684SOL    HW137685   2.242   3.724   8.857  0.0996 -2.5366 -0.4565
 8684SOL    HW237686   2.116   3.647   8.835  1.2351  0.0644 -0.7152
 8685SOL     OW37687   2.762   1.476  17.056 -0.1411  0.4689  0.2042
 8685SOL    HW137688   2.702   1.403  17.036  1.3236 -0.5802 -0.3521
 8685SOL    HW237689   2.816   1.485  16.978  0.8577 -0.1727  0.8219
 8686SOL     OW37690   0.739   2.935   6.442  1.1248 -0.8289  0.2576
 8686SOL    HW137691   0.680   2.862   6.421 -0.0418 -0.0844  0.9216
 8686SOL    HW237692   0.727   2.930   6.537  0.6769 -0.0115  0.2432
 8687SOL     OW37693   1.061   3.930   4.331 -0.3479  0.0171 -0.3007
 8687SOL    HW137694   1.108   3.929   4.414 -0.1481  2.5002 -0.3824
 8687SOL    HW237695   0.971   3.913   4.360  0.4194 -0.3791  1.8212
 8688SOL     OW37696   2.660   3.682  13.902  0.5385 -0.4872  0.1542
 8688SOL    HW137697   2.696   3.637  13.978 -0.1423 -0.9560  0.1998
 8688SOL    HW237698   2.743   3.710  13.862  1.5154 -1.9986  1.1284
 8689SOL     OW37699   3.211   3.730   9.454  0.1645  0.1805 -0.0321
 8689SOL    HW137700   3.257   3.660   9.499  0.9560  0.3664 -0.5540
 8689SOL    HW237701   3.167   3.774   9.527 -1.5269 -0.0620 -0.8955
 8690SOL     OW37702   0.640   4.423   7.772 -0.1880 -0.3175 -0.4392
 8690SOL    HW137703   0.653   4.463   7.858  2.9809 -0.7991 -0.7105
 8690SOL    HW237704   0.681   4.489   7.717 -2.2784  1.3868  0.0434
 8691SOL     OW37705   2.268   0.342   5.281  0.1395  0.1027 -0.1517
 8691SOL    HW137706   2.308   0.261   5.248 -0.3239  0.3592 -1.3421
 8691SOL    HW237707   2.323   0.401   5.230 -0.8583  0.1372 -1.1930
 8692SOL     OW37708   0.391   1.648   6.768  0.9990 -0.3560 -0.1049
 8692SOL    HW137709   0.403   1.669   6.861 -0.8827 -1.3282  0.3559
 8692SOL    HW237710   0.409   1.735   6.732  1.3558 -0.6256 -0.5796
 8693SOL     OW37711   4.091   2.174  11.988 -0.8517  0.4772  0.1356
 8693SOL    HW137712   4.106   2.082  12.011 -0.6605  0.7395  1.0546
 8693SOL    HW237713   4.183   2.196  11.972 -0.4276 -1.0893  0.3594
 8694SOL     OW37714   2.728   0.436   6.252 -0.9980 -0.0502 -0.1295
 8694SOL    HW137715   2.774   0.389   6.322  0.7538  2.9400  0.7184
 8694SOL    HW237716   2.782   0.514   6.266  0.2008 -0.9731  0.3691
 8695SOL     OW37717   1.460   3.935   2.938  0.2020 -0.1858  0.2026
 8695SOL    HW137718   1.403   3.859   2.925  0.6007 -0.2159 -1.3578
 8695SOL    HW237719   1.411   3.975   3.010 -0.5394  1.5529 -1.2474
 8696SOL     OW37720   2.098   2.498  15.867  0.6197 -1.0106 -0.3537
 8696SOL    HW137721   2.035   2.522  15.799 -0.1262  1.3657  1.1964
 8696SOL    HW237722   2.163   2.561  15.836  0.2326 -0.2980  0.2992
 8697SOL     OW37723   4.514   3.099   2.774  0.4290 -0.3343 -0.0527
 8697SOL    HW137724   4.537   3.030   2.711  0.5289 -1.1683  0.8869
 8697SOL    HW237725   4.561   3.073   2.854 -1.2116  2.2192  1.7201
 8698SOL     OW37726   3.350   0.925   7.703  0.1144 -0.1107 -0.6746
 8698SOL    HW137727   3.269   0.968   7.675  0.9015  2.0216  0.2978
 8698SOL    HW237728   3.365   0.967   7.788  2.5074 -2.4818  0.0786
 8699SOL     OW37729   0.516   0.380  12.981  0.4722  0.3525 -0.0414
 8699SOL    HW137730   0.492   0.409  12.894 -1.3979 -0.2991  0.2546
 8699SOL    HW237731   0.561   0.462  13.000  1.9787 -0.4999  0.1296
 8700SOL     OW37732   0.066   0.360   5.215  0.3503 -0.2199 -0.1412
 8700SOL    HW137733   4.714   0.347   5.255 -1.1667  1.1150 -2.9047
 8700SOL    HW237734   0.095   0.269   5.219  0.7886 -0.1238 -1.1825
 8701SOL     OW37735   3.951   4.697  10.392  0.4201 -0.1103 -0.2488
 8701SOL    HW137736   3.920   4.656  10.311  0.8867 -0.2355 -0.3647
 8701SOL    HW237737   4.039   4.661  10.395  0.3755 -0.1122  0.9013
 8702SOL     OW37738   2.183   2.372   6.405 -0.2677  0.2970 -0.8066
 8702SOL    HW137739   2.179   2.466   6.423  2.4918  0.2569 -0.0971
 8702SOL    HW237740   2.105   2.341   6.451 -0.0119  2.5607  1.1243
 8703SOL     OW37741   1.017   0.726   5.501 -0.3816  0.3473 -0.4419
 8703SOL    HW137742   0.967   0.798   5.539 -0.8220  0.5444 -1.3962
 8703SOL    HW237743   1.079   0.729   5.574 -0.7120  1.7146 -0.2083
 8704SOL     OW37744   1.435   2.364   3.037  0.5620 -0.8596  0.2926
 8704SOL    HW137745   1.385   2.362   3.118 -0.0484  1.3996 -0.0306
 8704SOL    HW237746   1.406   2.285   2.991  1.6420 -0.6517 -0.7227
 8705SOL     OW37747   3.736   4.731  11.344 -0.0315  0.6749  0.8829
 8705SOL    HW137748   3.678   0.031  11.412  1.9674  1.7035  2.0497
 8705SOL    HW237749   3.813   4.713  11.397  1.1532 -0.5131 -1.2427
 8706SOL     OW37750   1.681   4.523   7.339  0.4356 -0.4289  0.2238
 8706SOL    HW137751   1.762   4.531   7.288  0.4040 -0.8848  0.0999
 8706SOL    HW237752   1.673   4.432   7.369 -1.2003 -1.4206 -3.1756
 8707SOL     OW37753   1.780   1.331  14.826 -0.2282  0.0490 -0.1521
 8707SOL    HW137754   1.734   1.251  14.802  1.3578 -0.9524  0.1230
 8707SOL    HW237755   1.718   1.378  14.881 -0.0238  0.1418  0.0029
 8708SOL     OW37756   0.303   1.628   2.699  0.3933  0.2375 -0.6616
 8708SOL    HW137757   0.328   1.671   2.617  2.5807  2.0918  0.9971
 8708SOL    HW237758   0.317   1.704   2.754  0.8987 -0.8935  0.7741
 8709SOL     OW37759   2.056   1.473   1.171 -0.0435 -0.0524  0.0607
 8709SOL    HW137760   1.989   1.450   1.235  0.3694  0.1579  0.5738
 8709SOL    HW237761   2.026   1.563   1.156  0.9485 -0.2246 -2.9551
 8710SOL     OW37762   3.433   1.067   7.933  0.1416 -0.4194 -0.2427
 8710SOL    HW137763   3.513   1.072   7.985  1.3049 -1.1289 -1.9787
 8710SOL    HW237764   3.427   1.162   7.924 -0.3526 -0.4503 -0.2443
 8711SOL     OW37765   3.398   0.818   6.543  0.0900  0.3999  0.2833
 8711SOL    HW137766   3.383   0.836   6.451  2.1304  1.5502  0.1530
 8711SOL    HW237767   3.464   0.883   6.570  0.6146 -0.7188  1.7319
 8712SOL     OW37768   0.147   1.582  11.927 -0.1724  0.3230 -0.3523
 8712SOL    HW137769   0.226   1.536  11.901  1.0870  1.5383  1.3109
 8712SOL    HW237770   0.090   1.508  11.949  0.5111  0.2826  1.3458
 8713SOL     OW37771   3.257   3.665   8.113  0.3481 -0.5523 -0.8283
 8713SOL    HW137772   3.274   3.737   8.175 -1.7374 -0.2088 -0.6518
 8713SOL    HW237773   3.347   3.634   8.112  1.1082  1.5635  1.0014
 8714SOL     OW37774   4.030   4.282   8.993  0.0496 -0.3914 -0.0608
 8714SOL    HW137775   3.958   4.220   9.005 -0.1100 -0.1230  0.3794
 8714SOL    HW237776   4.066   4.253   8.910 -0.4149  0.5999 -0.6062
 8715SOL     OW37777   1.966   3.380   8.374 -0.0956 -0.3290  0.6216
 8715SOL    HW137778   1.948   3.289   8.395 -0.5729 -1.4735 -4.6915
 8715SOL    HW237779   1.893   3.387   8.312 -0.2293  1.1197  0.9453
 8716SOL     OW37780   1.313   0.707   8.007 -0.2741 -0.0588  0.0579
 8716SOL    HW137781   1.313   0.611   8.009  1.9361 -0.0081  2.8316
 8716SOL    HW237782   1.226   0.722   8.043  0.8061 -0.4915  2.8377
 8717SOL     OW37783   1.580   3.536   3.853 -0.5543  0.1328 -0.0664
 8717SOL    HW137784   1.521   3.580   3.914  1.6155  0.4876  1.7783
 8717SOL    HW237785   1.602   3.613   3.799 -1.8275 -0.8222 -1.9485
 8718SOL     OW37786   3.118   4.540   4.301  0.0800 -0.1053 -0.0267
 8718SOL    HW137787   3.031   4.571   4.327 -0.8129 -2.1301 -0.6620
 8718SOL    HW237788   3.187   4.579   4.355  1.4881 -0.4000 -1.6226
 8719SOL     OW37789   1.588   4.226   7.127  0.6141  0.1003  0.2358
 8719SOL    HW137790   1.559   4.152   7.073 -1.4521 -0.8608  2.6716
 8719SOL    HW237791   1.608   4.284   7.053 -0.5500  1.7761  1.2311
 8720SOL     OW37792   4.296   2.870   7.641  0.2765  0.4035  0.5143
 8720SOL    HW137793   4.317   2.829   7.725  1.0190  2.5523  1.3609
 8720SOL    HW237794   4.226   2.816   7.605 -1.1170  2.3399  0.3240
 8721SOL     OW37795   4.270   2.488   7.496 -0.2866  0.3371 -0.4105
 8721SOL    HW137796   4.358   2.516   7.520 -0.7622  0.9502  0.6036
 8721SOL    HW237797   4.292   2.400   7.464 -1.9287  0.1358 -0.9805
 8722SOL     OW37798   0.275   1.593   3.157 -0.4162  0.2413 -0.5815
 8722SOL    HW137799   0.252   1.559   3.071  2.3725 -2.6864 -0.1842
 8722SOL    HW237800   0.371   1.590   3.155 -0.3863 -0.2399  1.3641
 8723SOL     OW37801   2.041   1.262   4.631  0.2537 -0.2994 -0.0536
 8723SOL    HW137802   2.088   1.301   4.704 -1.4405 -1.3420  1.5921
 8723SOL    HW237803   2.095   1.191   4.597 -0.2829 -1.1198  0.8440
 8724SOL     OW37804   4.131   0.812  15.273  0.3092  0.7478 -0.1162
 8724SOL    HW137805   4.041   0.793  15.246  0.2278  0.5369  0.3067
 8724SOL    HW237806   4.179   0.731  15.255 -1.0451  0.8056 -4.1022
 8725SOL     OW37807   4.219   3.138   5.476 -0.1383  0.6036  0.0166
 8725SOL    HW137808   4.135   3.182   5.481  0.6369  1.9829  0.8643
 8725SOL    HW237809   4.193   3.046   5.473 -1.0101  0.7863  1.5892
 8726SOL     OW37810   4.363   4.338  15.990  0.3275 -0.2541  0.3141
 8726SOL    HW137811   4.382   4.247  15.969  2.2722  0.4082 -0.8419
 8726SOL    HW237812   4.395   4.331  16.080  1.2438 -1.6275 -0.1185
 8727SOL     OW37813   2.775   1.820   9.415 -0.7479  0.7830  0.3321
 8727SOL    HW137814   2.847   1.818   9.479 -1.7048 -1.2608  1.3529
 8727SOL    HW237815   2.816   1.773   9.342 -1.3433  1.6613 -0.5563
 8728SOL     OW37816   3.105   2.718   9.234 -0.6120  0.2715 -0.0117
 8728SOL    HW137817   3.137   2.720   9.324  1.9406  0.3624 -0.9184
 8728SOL    HW237818   3.174   2.768   9.191 -0.2259 -0.5910 -0.3930
 8729SOL     OW37819   0.285   3.817  10.931  0.4108 -0.1237 -0.0097
 8729SOL    HW137820   0.257   3.791  11.018 -1.6713  1.3679 -0.2324
 8729SOL    HW237821   0.249   3.905  10.928  0.0361 -0.2724  0.0004
 8730SOL     OW37822   2.951   3.397   8.499  0.5905  0.1358  0.4718
 8730SOL    HW137823   2.955   3.422   8.407  0.3665  1.7556  0.9006
 8730SOL    HW237824   3.041   3.363   8.506  0.4139  0.0152  2.1595
 8731SOL     OW37825   1.599   0.547   2.096  0.5091 -0.1615  0.1977
 8731SOL    HW137826   1.543   0.609   2.144 -1.1415  0.1908 -2.1987
 8731SOL    HW237827   1.535   0.489   2.054  1.5392 -0.1473 -1.3757
 8732SOL     OW37828   1.947   2.509   6.923 -0.3507  0.0176 -0.1441
 8732SOL    HW137829   1.902   2.429   6.896 -0.8898 -0.2320  1.5012
 8732SOL    HW237830   2.018   2.519   6.861 -1.5176 -0.1236 -1.5064
 8733SOL     OW37831   4.201   4.428  12.104  0.1674  0.0386 -0.1881
 8733SOL    HW137832   4.118   4.406  12.146 -0.4706 -0.5553 -1.7482
 8733SOL    HW237833   4.252   4.354  12.135 -0.0736  0.0823  0.3284
 8734SOL     OW37834   4.079   2.797   9.122  0.1649  0.1809 -0.3407
 8734SOL    HW137835   4.126   2.787   9.205  0.4005 -3.1252 -0.9014
 8734SOL    HW237836   4.144   2.838   9.065  0.0008 -0.3374 -0.9010
 8735SOL     OW37837   0.332   0.440   9.656  0.3574 -0.4638 -0.0151
 8735SOL    HW137838   0.376   0.381   9.595 -1.1422 -0.4299 -1.1225
 8735SOL    HW237839   0.237   0.429   9.658 -0.0116  3.0536  1.2106
 8736SOL     OW37840   1.096   0.004   2.503 -0.1290 -0.5229  0.3757
 8736SOL    HW137841   1.146   0.012   2.422  2.0781 -2.4537  1.5685
 8736SOL    HW237842   1.164   0.006   2.570 -0.6589 -1.4762  0.9475
 8737SOL     OW37843   3.335   4.167   4.860  0.5517  0.0086  0.7856
 8737SOL    HW137844   3.327   4.072   4.852  0.0610  0.1334 -0.2033
 8737SOL    HW237845   3.308   4.191   4.949  0.6588  0.5493  0.6719
 8738SOL     OW37846   2.523   2.980   5.633  0.3057 -0.3584  0.3249
 8738SOL    HW137847   2.489   3.018   5.714  1.2834  2.1073 -0.4122
 8738SOL    HW237848   2.601   3.031   5.613 -1.1244  1.8110  0.2820
 8739SOL     OW37849   0.711   1.193   1.022 -0.2071 -0.4782 -0.1560
 8739SOL    HW137850   0.632   1.214   1.072  1.8593  0.3899  2.7620
 8739SOL    HW237851   0.784   1.229   1.072  1.0577 -2.3364 -0.6703
 8740SOL     OW37852   1.017   3.002   4.176 -0.6468  0.1722 -0.7343
 8740SOL    HW137853   1.043   2.960   4.258  1.9137  1.0445 -1.1178
 8740SOL    HW237854   0.924   3.019   4.190 -0.4506 -0.5449  1.4736
 8741SOL     OW37855   0.813   0.083  10.642 -0.1006 -1.1663 -0.3689
 8741SOL    HW137856   0.784   0.004  10.687  1.3742 -1.4466  0.0690
 8741SOL    HW237857   0.785   0.148  10.707  2.1472 -1.5268  0.9820
 8742SOL     OW37858   0.594   2.420   9.044  0.2065 -0.2253  0.6283
 8742SOL    HW137859   0.677   2.395   9.084 -0.1885 -1.3509  0.7382
 8742SOL    HW237860   0.625   2.482   8.978 -0.2268 -1.9792 -1.2146
 8743SOL     OW37861   2.789   1.084   5.989 -0.2191 -0.6683 -0.2549
 8743SOL    HW137862   2.758   0.994   5.982 -1.0064 -0.2257 -2.6272
 8743SOL    HW237863   2.751   1.104   6.074  0.1954 -0.4413 -0.1261
 8744SOL     OW37864   3.761   2.137   8.060  0.0704 -0.3528 -0.1534
 8744SOL    HW137865   3.705   2.213   8.044 -0.5213 -0.0644  3.4635
 8744SOL    HW237866   3.705   2.069   8.096  0.6353  0.2240  1.7912
 8745SOL     OW37867   2.824   3.117  14.903 -0.0743  0.0166  0.2497
 8745SOL    HW137868   2.841   3.049  14.838 -0.3891  0.7531 -0.6003
 8745SOL    HW237869   2.873   3.190  14.864  1.9557 -1.3454  0.2999
 8746SOL     OW37870   2.665   4.212   2.570  0.1496 -0.6491  0.1776
 8746SOL    HW137871   2.570   4.221   2.564  0.0830 -0.2455  1.7800
 8746SOL    HW237872   2.656   4.218   2.665  1.8250 -1.2257  0.3644
 8747SOL     OW37873   1.846   0.684  10.633  0.2260  0.4214 -0.3692
 8747SOL    HW137874   1.923   0.641  10.670  0.2616  1.2624  0.5221
 8747SOL    HW237875   1.768   0.664  10.685  1.0420  1.2421  1.1517
 8748SOL     OW37876   3.279   0.162   3.873  0.0715 -0.4940 -0.0732
 8748SOL    HW137877   3.356   0.117   3.908 -0.9878  0.1049  3.0706
 8748SOL    HW237878   3.313   0.227   3.812 -1.9350  0.8191  0.2258
 8749SOL     OW37879   0.883   2.991  13.457  0.5867  0.0533 -0.4096
 8749SOL    HW137880   0.802   3.019  13.414 -0.6154 -2.7929  0.0147
 8749SOL    HW237881   0.945   3.064  13.454 -1.6299  1.8671 -1.2324
 8750SOL     OW37882   3.099   1.641   3.028  0.9282  0.3876 -0.0836
 8750SOL    HW137883   3.086   1.551   3.059  0.4613  0.7394  0.7450
 8750SOL    HW237884   3.102   1.689   3.111  0.2363  2.6234 -1.3527
 8751SOL     OW37885   0.262   2.564  16.167 -0.1721  0.4075  0.0492
 8751SOL    HW137886   0.337   2.507  16.184 -0.0112  1.0089  1.3961
 8751SOL    HW237887   0.260   2.562  16.072 -1.2358  0.8504  0.0545
 8752SOL     OW37888   2.945   2.756   5.849 -0.2908  0.3205  0.7433
 8752SOL    HW137889   2.970   2.673   5.889  0.9302  0.1582 -0.4039
 8752SOL    HW237890   2.870   2.774   5.907 -1.3496 -1.0433 -0.2024
 8753SOL     OW37891   3.960   4.232   0.632 -0.1459 -0.0468  0.3441
 8753SOL    HW137892   3.921   4.302   0.685 -0.0122  1.1247 -1.0916
 8753SOL    HW237893   3.900   4.214   0.559 -0.8738  0.6573  0.7721
 8754SOL     OW37894   2.894   1.122  15.213 -0.0928  0.0147 -0.0353
 8754SOL    HW137895   2.871   1.039  15.254  1.2464 -0.2103  0.2786
 8754SOL    HW237896   2.863   1.183  15.280  3.8933  2.1955 -0.1659
 8755SOL     OW37897   2.386   0.994   6.504  0.3643  0.7613 -0.3399
 8755SOL    HW137898   2.387   0.963   6.594 -1.0269  0.9520 -0.2604
 8755SOL    HW237899   2.476   1.025   6.502  0.6797 -0.0828  0.4896
 8756SOL     OW37900   0.146   2.127   3.061 -0.2271  0.0463  0.9350
 8756SOL    HW137901   0.072   2.143   3.120 -0.1024  0.2097  1.0471
 8756SOL    HW237902   0.127   2.040   3.027 -0.0552  0.3224  0.1170
 8757SOL     OW37903   4.425   2.290  16.332  0.5226 -0.2246 -0.1426
 8757SOL    HW137904   4.456   2.379  16.351 -2.0105  1.2215 -2.6322
 8757SOL    HW237905   4.341   2.308  16.289 -0.1667 -1.5420  0.6594
 8758SOL     OW37906   3.631   1.532   6.757  0.3338 -0.5207  0.1177
 8758SOL    HW137907   3.562   1.598   6.750  0.8128 -0.1658 -1.3124
 8758SOL    HW237908   3.682   1.561   6.681  1.1421 -0.8249  0.5511
 8759SOL     OW37909   0.819   0.299   0.693  0.7588  0.4271 -0.0944
 8759SOL    HW137910   0.826   0.218   0.742 -1.4195 -0.8011 -1.8303
 8759SOL    HW237911   0.781   0.362   0.755 -0.6038 -0.8212  0.3289
 8760SOL     OW37912   2.571   0.720   5.246  0.3688 -0.7380 -0.8945
 8760SOL    HW137913   2.646   0.776   5.228 -2.0590  1.9437 -2.7090
 8760SOL    HW237914   2.526   0.773   5.311 -0.3878 -0.9588 -1.2415
 8761SOL     OW37915   2.177   2.515   8.684  0.0401 -0.2493 -0.8385
 8761SOL    HW137916   2.162   2.423   8.663  1.8170 -0.0868 -2.8882
 8761SOL    HW237917   2.157   2.535   8.775  0.3267 -2.7590 -0.2404
 8762SOL     OW37918   2.892   3.159   1.696 -0.5256  0.2111 -0.1883
 8762SOL    HW137919   2.882   3.080   1.642  0.1409  0.7761 -1.1499
 8762SOL    HW237920   2.827   3.128   1.759  2.4681 -2.1242  1.7547
 8763SOL     OW37921   4.342   2.578   2.172  0.1536  0.2074 -0.3286
 8763SOL    HW137922   4.257   2.607   2.138 -0.6107 -0.4469  1.0059
 8763SOL    HW237923   4.389   2.604   2.093  0.4284 -1.1617 -0.5987
 8764SOL     OW37924   1.497   2.806  10.802 -0.2076  0.0911 -0.2152
 8764SOL    HW137925   1.563   2.737  10.808 -0.5596 -0.2754 -0.5477
 8764SOL    HW237926   1.432   2.774  10.863 -0.7905 -2.2733 -2.0775
 8765SOL     OW37927   1.976   2.008   3.253  0.1086 -0.4622  0.3832
 8765SOL    HW137928   1.973   2.045   3.342 -0.3788  0.6392 -0.0919
 8765SOL    HW237929   2.071   2.010   3.247  0.0832  0.7817  0.4671
 8766SOL     OW37930   2.755   4.318   1.121 -0.0078  0.1397  0.5157
 8766SOL    HW137931   2.803   4.323   1.038  0.2667  0.6075  0.7034
 8766SOL    HW237932   2.835   4.325   1.172 -0.8187  2.0566  1.5467
 8767SOL     OW37933   2.666   3.527   3.938  0.2267 -0.2774  0.8425
 8767SOL    HW137934   2.682   3.603   3.882 -2.6065  0.8558  1.5574
 8767SOL    HW237935   2.725   3.464   3.898 -0.2175  0.7950 -1.4670
 8768SOL     OW37936   2.357   2.932   2.095  0.3072 -0.7541 -0.0835
 8768SOL    HW137937   2.366   2.994   2.022  1.3985  0.5516  1.1710
 8768SOL    HW237938   2.401   2.981   2.164  1.5628 -1.6497 -0.2421
 8769SOL     OW37939   2.721   3.741   5.402  0.2936 -0.3948  0.3668
 8769SOL    HW137940   2.718   3.776   5.491  0.8160 -1.6660  0.8830
 8769SOL    HW237941   2.815   3.739   5.384  0.0195  1.2723 -1.3032
 8770SOL     OW37942   4.167   1.531   1.855  0.5680  0.7289 -0.1222
 8770SOL    HW137943   4.112   1.597   1.897 -0.0611 -0.5848  1.1435
 8770SOL    HW237944   4.241   1.535   1.916  0.9944  1.1962 -0.6770
 8771SOL     OW37945   1.530   2.251   4.577 -0.0865 -0.2314 -0.8207
 8771SOL    HW137946   1.509   2.182   4.640  3.6492 -0.1878  0.4647
 8771SOL    HW237947   1.589   2.199   4.522  0.7980 -1.9018  1.7400
 8772SOL     OW37948   1.532   1.142   1.979  0.0141 -0.0606 -0.7712
 8772SOL    HW137949   1.608   1.084   1.969  0.9869  1.0132  0.3515
 8772SOL    HW237950   1.457   1.087   1.955 -0.4630  0.1610  0.1891
 8773SOL     OW37951   4.672   2.206  15.147  0.0197 -0.2670 -0.3025
 8773SOL    HW137952   4.601   2.151  15.115  0.2540 -0.7389 -0.0012
 8773SOL    HW237953   0.015   2.182  15.096  0.7697  2.0152 -0.2588
 8774SOL     OW37954   2.764   4.487  15.928  0.1099  0.3705  0.0006
 8774SOL    HW137955   2.852   4.498  15.891 -0.1002 -0.5728 -0.7908
 8774SOL    HW237956   2.774   4.392  15.940  1.1747  0.6593  1.3720
 8775SOL     OW37957   2.772   0.704   5.502  0.1534  0.3958  0.0382
 8775SOL    HW137958   2.725   0.663   5.574  0.7162  1.0879  0.8000
 8775SOL    HW237959   2.746   0.795   5.496  0.3178  0.5093  1.1893
 8776SOL     OW37960   1.651   0.474   4.368 -0.5754 -0.0650  0.2839
 8776SOL    HW137961   1.645   0.387   4.329  0.3166 -0.9764  2.1628
 8776SOL    HW237962   1.662   0.461   4.462  1.6961 -1.1611 -0.1375
 8777SOL     OW37963   4.281   0.994  14.936  0.3622  0.6462  0.5071
 8777SOL    HW137964   4.250   1.082  14.913  1.2715  0.0772 -2.8623
 8777SOL    HW237965   4.299   1.006  15.029  2.9145  1.0650 -0.0354
 8778SOL     OW37966   0.570   2.685   3.329 -0.0788 -0.0919  0.3607
 8778SOL    HW137967   0.638   2.623   3.356  2.0968  0.6036 -3.4266
 8778SOL    HW237968   0.524   2.644   3.255  0.5556 -2.9850  1.5691
 8779SOL     OW37969   2.542   3.251  11.242 -0.1052  0.0989 -0.0425
 8779SOL    HW137970   2.620   3.305  11.250  0.6752 -0.7578 -1.9156
 8779SOL    HW237971   2.478   3.318  11.214 -2.5393 -1.7116  1.1883
 8780SOL     OW37972   3.033   2.721   0.280  0.4667  0.4456  0.0467
 8780SOL    HW137973   3.075   2.772   0.349  1.7289 -1.3109  0.5814
 8780SOL    HW237974   3.085   2.640   0.282 -0.9009 -0.4823 -2.1867
 8781SOL     OW37975   2.621   2.733   7.019  0.2172 -0.2099  0.3011
 8781SOL    HW137976   2.715   2.750   7.030 -0.1743  0.9589  1.8739
 8781SOL    HW237977   2.581   2.704   7.101 -2.5140 -1.4998 -1.4942
 8782SOL     OW37978   4.528   3.678   3.232  0.0389  0.2237 -0.3924
 8782SOL    HW137979   4.600   3.629   3.272 -0.7535 -0.9472 -0.3794
 8782SOL    HW237980   4.570   3.764   3.227  0.0502  0.2053 -0.6030
 8783SOL     OW37981   3.762   4.241  14.090  0.1420 -0.1073  0.5054
 8783SOL    HW137982   3.753   4.211  13.999 -0.6100  0.8345  0.2740
 8783SOL    HW237983   3.822   4.171  14.118 -0.5836 -0.7137  0.5381
 8784SOL     OW37984   4.077   4.681   5.683  0.5017 -0.3029 -0.3068
 8784SOL    HW137985   4.085   4.586   5.686  1.1656 -0.2083  1.1349
 8784SOL    HW237986   4.160   4.720   5.658  0.3702  1.1756  1.5051
 8785SOL     OW37987   2.214   3.301   6.137 -0.2510  0.1400  0.2332
 8785SOL    HW137988   2.227   3.380   6.085 -0.4316  0.7690  1.1605
 8785SOL    HW237989   2.119   3.299   6.141 -0.2753  3.7180  1.0808
 8786SOL     OW37990   1.161   3.589  13.297  0.0984 -0.3834  0.3812
 8786SOL    HW137991   1.215   3.543  13.361 -0.7251  0.0572  1.3999
 8786SOL    HW237992   1.200   3.677  13.302 -0.1262 -0.2120 -0.9808
 8787SOL     OW37993   0.868   2.232   3.811  0.0341  0.0081 -0.3251
 8787SOL    HW137994   0.938   2.171   3.833  1.8978  1.9184 -0.8953
 8787SOL    HW237995   0.831   2.251   3.898  1.3131  0.4384  0.1278
 8788SOL     OW37996   0.544   3.079   0.339 -0.0027  0.1595  0.3242
 8788SOL    HW137997   0.532   3.173   0.353  0.9373  0.1558  1.0997
 8788SOL    HW237998   0.621   3.079   0.284 -0.8967 -0.4450 -0.9165
 8789SOL     OW37999   2.780   0.054   8.148  0.1032 -0.0775  0.0494
 8789SOL    HW138000   2.781   0.087   8.058 -0.9595  2.4535  0.9657
 8789SOL    HW238001   2.868   0.017   8.154 -0.8421 -2.3537 -0.0203
 8790SOL     OW38002   0.151   0.434   8.486 -0.4178  0.1030 -0.3193
 8790SOL    HW138003   0.218   0.464   8.424 -0.1388 -0.1664 -0.1510
 8790SOL    HW238004   0.167   0.340   8.493 -3.4061 -0.4702 -1.3042
 8791SOL     OW38005   0.849   0.302   9.513  0.8207  0.0619  0.2817
 8791SOL    HW138006   0.815   0.212   9.514  0.2547  0.2773  0.9636
 8791SOL    HW238007   0.851   0.308   9.608  0.4813  0.6188  0.2579
 8792SOL     OW38008   1.883   3.604   7.397 -0.2061  0.0496 -0.1616
 8792SOL    HW138009   1.967   3.595   7.351 -0.6461 -1.4008 -0.6614
 8792SOL    HW238010   1.869   3.514   7.425 -0.3337 -0.1463 -0.8595
 8793SOL     OW38011   0.852   4.484  15.829  1.1041 -0.0775  0.6669
 8793SOL    HW138012   0.899   4.441  15.900 -0.9087 -3.2976  0.0438
 8793SOL    HW238013   0.775   4.516  15.875  0.3273  0.2509 -0.8524
 8794SOL     OW38014   1.064   0.159   5.554  0.1154  0.2911  0.5874
 8794SOL    HW138015   1.106   0.143   5.469 -1.5208  0.5102 -0.2752
 8794SOL    HW238016   1.065   0.255   5.560 -0.0075  0.2497  1.2334
 8795SOL     OW38017   0.598   2.140  10.626 -0.7830  0.4403  0.0774
 8795SOL    HW138018   0.615   2.224  10.582 -0.5127  1.1089  1.4605
 8795SOL    HW238019   0.687   2.106  10.637 -1.3566 -1.9550 -2.6850
 8796SOL     OW38020   2.872   0.030  16.545 -0.2332 -0.0088  0.1538
 8796SOL    HW138021   2.801   0.069  16.595 -1.4828 -1.7094 -0.2797
 8796SOL    HW238022   2.951   0.067  16.584 -0.7941 -0.0037  1.2938
 8797SOL     OW38023   0.862   1.406   3.481  0.2022  0.8792  0.0710
 8797SOL    HW138024   0.899   1.356   3.408 -0.2132 -1.7347  1.6727
 8797SOL    HW238025   0.767   1.412   3.470  0.0890 -0.4623  0.3181
 8798SOL     OW38026   2.217   3.288   8.209  0.0131  0.6770  0.2176
 8798SOL    HW138027   2.250   3.213   8.258  0.0896  0.3352 -0.3553
 8798SOL    HW238028   2.160   3.323   8.277 -0.4173 -2.4019  1.4532
 8799SOL     OW38029   2.256   0.366   0.929 -0.2864 -0.2469  0.0526
 8799SOL    HW138030   2.275   0.393   0.839  0.8209  1.4579  0.7963
 8799SOL    HW238031   2.295   0.441   0.973 -0.6470 -0.0283  0.0034
 8800SOL     OW38032   4.330   1.552   3.543  0.2430  0.1891  0.0667
 8800SOL    HW138033   4.282   1.497   3.605  0.0928 -0.4192 -0.5889
 8800SOL    HW238034   4.411   1.568   3.591 -0.5837  0.0749  1.5284
 8801SOL     OW38035   3.271   0.415   8.909  0.2607  0.0633  0.2555
 8801SOL    HW138036   3.292   0.428   9.001 -4.2806  2.8933  0.8759
 8801SOL    HW238037   3.276   0.509   8.891 -2.1714  0.2657  0.6147
 8802SOL     OW38038   2.757   1.959   9.895  0.4648  0.2487  0.0917
 8802SOL    HW138039   2.831   2.019   9.901  1.0052 -0.4232  0.1328
 8802SOL    HW238040   2.741   1.970   9.801 -0.5380  1.1561  0.3686
 8803SOL     OW38041   1.394   2.753   7.364 -0.7384  0.1796 -0.1419
 8803SOL    HW138042   1.360   2.784   7.280  3.0182  2.6225 -0.7914
 8803SOL    HW238043   1.388   2.658   7.351  1.7844  0.0198 -0.2785
 8804SOL     OW38044   2.503   3.768   5.204 -0.5599 -0.1551 -0.0859
 8804SOL    HW138045   2.424   3.751   5.256  0.7107  2.3222  2.6945
 8804SOL    HW238046   2.565   3.783   5.276  0.4186  1.1474 -1.1944
 8805SOL     OW38047   1.830   2.669   5.014 -0.9373  0.3706 -0.1685
 8805SOL    HW138048   1.879   2.587   5.003  0.1938  0.6703  2.4327
 8805SOL    HW238049   1.877   2.721   4.950 -0.9694 -0.0834 -0.5629
 8806SOL     OW38050   1.410   1.034   5.972 -0.3732  0.3153  0.2143
 8806SOL    HW138051   1.460   1.090   5.912  2.9812 -2.9243 -0.0014
 8806SOL    HW238052   1.431   0.948   5.936  0.6425  0.5975  0.1184
 8807SOL     OW38053   0.679   3.358   5.436 -0.2823  0.1105  0.4257
 8807SOL    HW138054   0.723   3.415   5.373  1.0530 -0.5399  0.7546
 8807SOL    HW238055   0.680   3.270   5.399  2.1057 -0.8282  2.6505
 8808SOL     OW38056   3.014   0.595   5.577 -0.0976 -0.4599 -0.0347
 8808SOL    HW138057   2.933   0.638   5.551  0.2857  0.0261 -0.4333
 8808SOL    HW238058   3.084   0.638   5.528 -0.8837  0.2019 -0.5592
 8809SOL     OW38059   1.515   2.575   5.398 -0.3142 -0.3283 -0.3658
 8809SOL    HW138060   1.561   2.491   5.398 -0.9968 -0.6949 -1.6480
 8809SOL    HW238061   1.480   2.574   5.309  0.4831  1.9150 -0.6885
 8810SOL     OW38062   1.141   2.483   1.965  0.5093 -0.9060  0.6344
 8810SOL    HW138063   1.210   2.523   1.911  0.3249 -1.9575 -0.3797
 8810SOL    HW238064   1.124   2.553   2.028  1.7344 -1.2178  1.3171
 8811SOL     OW38065   4.626   2.153   2.780  0.0038  0.5950  0.8014
 8811SOL    HW138066   4.683   2.078   2.764 -1.3312 -0.3334  0.3548
 8811SOL    HW238067   4.620   2.151   2.875  1.0569 -0.4755  0.8393
 8812SOL     OW38068   0.305   1.045  10.568  0.5709 -0.0928  0.0253
 8812SOL    HW138069   0.225   1.084  10.605  0.7343 -0.5042  0.8006
 8812SOL    HW238070   0.362   1.120  10.552 -0.3097  0.4787 -0.4576
 8813SOL     OW38071   0.973   0.194   4.316  0.7427  0.1353 -0.1898
 8813SOL    HW138072   0.914   0.265   4.293  0.6054 -0.5798 -2.0435
 8813SOL    HW238073   1.017   0.222   4.397  0.0443 -0.5720  0.4367
 8814SOL     OW38074   4.020   2.028   5.779  0.2878  0.3914  0.4725
 8814SOL    HW138075   4.048   1.959   5.718 -0.2978 -0.2889  0.9799
 8814SOL    HW238076   3.931   2.001   5.801  1.0352 -0.9512  1.8007
 8815SOL     OW38077   2.751   3.599   7.385 -0.8833 -0.4660 -0.4864
 8815SOL    HW138078   2.761   3.503   7.381 -4.0220 -0.8057 -0.8126
 8815SOL    HW238079   2.689   3.611   7.313  1.7692  2.3866 -2.2631
 8816SOL     OW38080   1.391   4.133   7.438 -0.1128  0.0813 -0.0670
 8816SOL    HW138081   1.404   4.177   7.522  1.0959 -1.4595  0.5409
 8816SOL    HW238082   1.308   4.171   7.410  0.9835  1.6609 -1.1867
 8817SOL     OW38083   3.317   1.210   7.053  0.2614  0.6732  0.1653
 8817SOL    HW138084   3.397   1.159   7.067  0.8891  1.1455 -1.6592
 8817SOL    HW238085   3.332   1.267   7.128 -2.3173 -0.6456  1.7000
 8818SOL     OW38086   1.353   2.006  14.509  0.5657 -0.2671  0.1499
 8818SOL    HW138087   1.427   1.946  14.504 -1.3990 -2.7991  1.4621
 8818SOL    HW238088   1.288   1.965  14.567  0.3770 -0.4788 -0.2158
 8819SOL     OW38089   1.639   3.594  17.502  0.3514 -0.1229  0.1688
 8819SOL    HW138090   1.712   3.589  17.440 -2.6809  1.5063 -3.5153
 8819SOL    HW238091   1.597   3.679  17.488  0.7534  0.0012 -0.3041
 8820SOL     OW38092   0.734   4.292   2.086  0.0165 -0.5647  0.0611
 8820SOL    HW138093   0.770   4.213   2.045 -1.2410 -0.1830 -1.7616
 8820SOL    HW238094   0.816   4.338   2.103 -1.8011  2.3108  0.8945
 8821SOL     OW38095   0.750   0.271   7.771  0.2152  0.0745 -0.0245
 8821SOL    HW138096   0.683   0.297   7.708 -0.5722 -2.6016 -0.2699
 8821SOL    HW238097   0.708   0.191   7.802 -1.0060  0.9444  0.5487
 8822SOL     OW38098   4.382   4.247   6.724 -0.4911 -0.3723 -0.1840
 8822SOL    HW138099   4.352   4.244   6.633 -1.3815  0.1580  0.0989
 8822SOL    HW238100   4.345   4.334   6.740  0.1299 -0.3351  1.0823
 8823SOL     OW38101   0.658   3.432   9.159 -0.1029  0.1647  0.1387
 8823SOL    HW138102   0.671   3.437   9.065 -1.8816  0.0643 -0.1154
 8823SOL    HW238103   0.747   3.427   9.194 -0.3674  1.4872  1.0371
 8824SOL     OW38104   0.444   0.728   4.945  0.1859 -0.1303  0.3684
 8824SOL    HW138105   0.365   0.743   4.893  0.6631 -0.1195 -0.3503
 8824SOL    HW238106   0.449   0.633   4.946 -2.1081 -0.2269  1.7085
 8825SOL     OW38107   0.962   3.840   4.749 -0.6950  0.1777 -0.0372
 8825SOL    HW138108   0.957   3.756   4.795  3.3705  0.0451  0.1277
 8825SOL    HW238109   1.004   3.802   4.672  0.0954  0.6898  0.1529
 8826SOL     OW38110   2.382   1.756   4.952 -0.0459  0.5861 -0.1715
 8826SOL    HW138111   2.417   1.818   4.888 -0.3522  1.5843  0.6294
 8826SOL    HW238112   2.291   1.742   4.925 -0.0357 -2.2758  1.2224
 8827SOL     OW38113   3.309   1.577   1.350  0.1600 -0.5617 -0.2930
 8827SOL    HW138114   3.325   1.619   1.266 -0.1207 -0.5665 -0.3484
 8827SOL    HW238115   3.294   1.644   1.417  1.4341 -0.1858 -0.3842
 8828SOL     OW38116   2.435   0.587  16.491 -0.3327 -0.1710 -0.2567
 8828SOL    HW138117   2.462   0.585  16.399  3.5606  1.8044  0.8438
 8828SOL    HW238118   2.467   0.670  16.527 -1.1744 -0.1898  0.5196
 8829SOL     OW38119   0.374   0.560  12.423 -0.1640 -0.1768 -0.1820
 8829SOL    HW138120   0.443   0.605  12.374  0.8569 -0.6131  0.8684
 8829SOL    HW238121   0.348   0.623  12.490  1.6857  0.2628  0.1185
 8830SOL     OW38122   1.850   0.976   4.531 -0.1664 -0.0954  0.0043
 8830SOL    HW138123   1.893   0.906   4.580  1.2979  0.6403 -0.2343
 8830SOL    HW238124   1.906   0.994   4.456  0.7710  0.0542  0.7377
 8831SOL     OW38125   0.222   1.414   8.564  0.1822  0.1700 -0.4605
 8831SOL    HW138126   0.180   1.493   8.597  2.1604  1.3590 -0.7199
 8831SOL    HW238127   0.307   1.457   8.547  0.6594  0.2586  2.2253
 8832SOL     OW38128   4.428   2.284   1.964 -0.0047 -0.5627 -0.6474
 8832SOL    HW138129   4.372   2.344   1.915  2.0674 -0.0454 -2.3733
 8832SOL    HW238130   4.499   2.341   1.995 -1.0738  0.5563 -0.2503
 8833SOL     OW38131   1.223   2.615   7.775  0.4482  0.0116  0.7708
 8833SOL    HW138132   1.204   2.627   7.681  1.1762  1.7273  0.8412
 8833SOL    HW238133   1.315   2.641   7.773  1.2411 -2.9755 -2.3602
 8834SOL     OW38134   0.085   3.434   4.424  0.4304 -0.0279  0.0697
 8834SOL    HW138135   0.165   3.458   4.471  0.8907 -0.6573 -0.3915
 8834SOL    HW238136   0.117   3.401   4.340  0.6250 -0.6574  0.3863
 8835SOL     OW38137   0.099   4.110  12.369 -0.0393  0.4324  0.5776
 8835SOL    HW138138   0.117   4.105  12.463  2.0915  0.9834  0.2033
 8835SOL    HW238139   0.094   4.203  12.351  0.7297  0.0628 -1.5498
 8836SOL     OW38140   1.815   2.469   4.712  0.9376 -0.5088  0.2605
 8836SOL    HW138141   1.900   2.471   4.668 -0.9802 -0.9525 -3.4662
 8836SOL    HW238142   1.834   2.461   4.805  1.8650 -0.7577  0.0600
 8837SOL     OW38143   2.428   0.490   6.741  0.5446 -0.6493 -0.3154
 8837SOL    HW138144   2.365   0.463   6.808  1.6513  2.1632  1.8371
 8837SOL    HW238145   2.479   0.414   6.713  0.4934 -0.0957 -1.9017
 8838SOL     OW38146   2.826   3.479   1.858  0.2480 -0.4772  0.9625
 8838SOL    HW138147   2.748   3.426   1.837  0.5953 -0.3980 -0.5305
 8838SOL    HW238148   2.893   3.417   1.829 -0.0458  0.0343 -0.7629
 8839SOL     OW38149   0.370   4.103  11.163  0.7421 -0.4761 -0.0740
 8839SOL    HW138150   0.425   4.059  11.227 -0.1888 -0.1354  0.9530
 8839SOL    HW238151   0.422   4.117  11.084  0.7081  0.3467  0.0483
 8840SOL     OW38152   0.746   2.223  11.407  0.5095 -0.6098  0.3449
 8840SOL    HW138153   0.689   2.270  11.468  0.2404  0.2022 -0.5418
 8840SOL    HW238154   0.698   2.140  11.400 -0.8029  0.2738 -1.1152
 8841SOL     OW38155   4.462   3.961  15.053  0.0949  0.4056 -0.4520
 8841SOL    HW138156   4.397   3.953  15.124  0.8410 -0.1486  0.1737
 8841SOL    HW238157   4.452   3.880  15.003  0.8473 -0.0821  0.1861
 8842SOL     OW38158   0.579   0.710   1.811  0.4293 -0.9052  0.0347
 8842SOL    HW138159   0.638   0.778   1.781 -0.7257  2.0117  4.3384
 8842SOL    HW238160   0.533   0.755   1.882  0.7540  1.1953 -1.1031
 8843SOL     OW38161   4.243   1.421   2.371  0.1912 -0.4927  0.0784
 8843SOL    HW138162   4.330   1.460   2.363 -0.4786  0.8312 -0.8398
 8843SOL    HW238163   4.206   1.467   2.296  0.2236 -0.5688  0.0159
 8844SOL     OW38164   0.294   0.589   1.332 -0.2967 -0.5318  0.7051
 8844SOL    HW138165   0.327   0.577   1.243 -0.9384  0.5501  0.3207
 8844SOL    HW238166   0.367   0.637   1.372 -0.7047  1.6819 -1.1936
 8845SOL     OW38167   0.261   3.914   7.758  0.0465  0.0283 -0.1374
 8845SOL    HW138168   0.337   3.857   7.746  0.5854  0.9933 -1.2790
 8845SOL    HW238169   0.302   3.998   7.781 -1.4178  0.8909 -0.7056
 8846SOL     OW38170   0.808   3.180   5.710  0.5488 -0.8165 -0.0570
 8846SOL    HW138171   0.851   3.152   5.791 -0.3867  3.5188  1.9138
 8846SOL    HW238172   0.815   3.105   5.651 -1.4820 -0.6276 -0.5228
 8847SOL     OW38173   1.368   3.964   3.316  0.1478 -0.3877  0.0531
 8847SOL    HW138174   1.333   4.051   3.331 -5.2984 -2.8549  1.5133
 8847SOL    HW238175   1.340   3.913   3.392 -1.6556  0.2560 -0.1854
 8848SOL     OW38176   2.002   2.048   8.942  0.2641 -0.1288  0.1415
 8848SOL    HW138177   1.975   1.960   8.965  0.2627  0.5293  2.6807
 8848SOL    HW238178   2.097   2.038   8.946  0.1053 -1.7216 -0.1738
 8849SOL     OW38179   4.082   2.279   8.249 -0.0531 -0.2600  0.1773
 8849SOL    HW138180   4.027   2.300   8.324  0.1031 -0.3869  0.3271
 8849SOL    HW238181   4.165   2.323   8.270  0.2838  0.2673 -2.2752
 8850SOL     OW38182   0.119   4.609   0.510  0.0369 -0.9066 -0.3277
 8850SOL    HW138183   0.072   4.527   0.494  0.4384 -1.3335  0.6594
 8850SOL    HW238184   0.199   4.611   0.458  0.2988 -1.1913  0.0654
 8851SOL     OW38185   0.440   4.049   4.813 -0.3647  0.1815 -0.3135
 8851SOL    HW138186   0.418   3.957   4.823 -0.3181  0.0530 -1.3719
 8851SOL    HW238187   0.385   4.091   4.879  0.8702 -1.2279  1.5941
 8852SOL     OW38188   0.053   2.128  10.352 -0.2753 -0.0517  0.3350
 8852SOL    HW138189   0.113   2.202  10.360  0.8236 -0.9539  0.5392
 8852SOL    HW238190   4.725   2.144  10.423  0.0880 -0.6557  0.7915
 8853SOL     OW38191   2.710   1.027   8.599  0.3368  0.2033 -0.2863
 8853SOL    HW138192   2.622   0.991   8.603 -0.1814  1.2786 -2.2490
 8853SOL    HW238193   2.751   1.000   8.681 -2.0428 -0.7578  0.5870
 8854SOL     OW38194   3.073   3.622   1.692 -0.0357 -0.4116  0.4163
 8854SOL    HW138195   3.058   3.613   1.786  1.7028 -1.7174  0.5558
 8854SOL    HW238196   3.161   3.657   1.679  0.0250 -0.9841 -0.7716
 8855SOL     OW38197   2.954   1.682   9.899  0.4367 -0.0542  0.1859
 8855SOL    HW138198   2.958   1.671   9.994 -0.4205 -0.9594  0.1151
 8855SOL    HW238199   2.984   1.773   9.888  0.3591 -0.3914 -2.8054
 8856SOL     OW38200   2.363   2.351   0.176  0.2258  0.1799 -0.0378
 8856SOL    HW138201   2.320   2.391   0.100  1.8299  1.4073 -0.2887
 8856SOL    HW238202   2.296   2.376   0.240  0.8515  0.6798  0.4175
 8857SOL     OW38203   2.759   2.672   7.372 -0.3057  0.1134 -0.4041
 8857SOL    HW138204   2.797   2.588   7.349  1.5163  0.5464  0.9989
 8857SOL    HW238205   2.672   2.661   7.333 -0.7776 -0.8479  0.9371
 8858SOL     OW38206   0.876   2.358   9.163  0.1863 -0.0646 -0.0663
 8858SOL    HW138207   0.951   2.339   9.218 -0.6585  2.8591  2.1228
 8858SOL    HW238208   0.840   2.272   9.141  0.2502 -0.3612  1.0313
 8859SOL     OW38209   2.898   1.658   7.428  0.0864  0.0116 -0.4414
 8859SOL    HW138210   2.866   1.588   7.371  1.3050  0.8545 -2.1641
 8859SOL    HW238211   2.908   1.611   7.511 -1.4506 -1.1237 -0.8979
 8860SOL     OW38212   3.095   2.002   9.881  0.0341 -0.4109  1.0133
 8860SOL    HW138213   3.080   2.071   9.946 -0.9896  0.2371  0.0951
 8860SOL    HW238214   3.188   1.984   9.889  0.1262  0.0110  0.9138
 8861SOL     OW38215   0.704   4.659   8.473  0.5447 -0.2014 -0.5245
 8861SOL    HW138216   0.673   4.712   8.400 -2.0936  0.6683  1.2071
 8861SOL    HW238217   0.629   4.607   8.503  1.2016 -1.1478 -0.5295
 8862SOL     OW38218   2.224   1.479   8.849 -0.0396  0.0997  0.1337
 8862SOL    HW138219   2.195   1.516   8.932 -1.6914  0.1000 -0.4455
 8862SOL    HW238220   2.313   1.452   8.872 -0.4640  1.0298  2.8709
 8863SOL     OW38221   3.179   2.655   4.582  0.2772  0.4488  0.3568
 8863SOL    HW138222   3.231   2.733   4.603 -0.3002  1.3012 -1.4082
 8863SOL    HW238223   3.183   2.656   4.486  0.2575  0.1006  0.3513
 8864SOL     OW38224   3.010   1.538   6.101  0.7178  0.0785  0.2616
 8864SOL    HW138225   2.974   1.557   6.014  2.6479 -0.0445 -0.5545
 8864SOL    HW238226   3.076   1.607   6.108 -0.3847  1.0008  1.6564
 8865SOL     OW38227   2.011   1.512   6.839  0.3587 -0.1619  0.1446
 8865SOL    HW138228   1.945   1.566   6.882  1.2561  0.0761  1.2095
 8865SOL    HW238229   2.011   1.556   6.754  0.5763  0.8053  0.6540
 8866SOL     OW38230   2.363   3.504   1.768  0.3155  0.0063 -0.3105
 8866SOL    HW138231   2.447   3.459   1.760  0.5187 -0.1167  2.4398
 8866SOL    HW238232   2.328   3.488   1.680 -1.1523 -0.0678  0.2779
 8867SOL     OW38233   0.841   2.711   3.078 -0.3390 -0.1103 -0.0727
 8867SOL    HW138234   0.836   2.701   2.983 -1.6587 -0.2514  0.0221
 8867SOL    HW238235   0.826   2.621   3.107  0.1057 -0.7600 -1.8460
 8868SOL     OW38236   0.706   0.822   5.979  0.3383 -0.0522 -0.0689
 8868SOL    HW138237   0.743   0.840   6.066 -0.4307  0.8669  0.0724
 8868SOL    HW238238   0.652   0.899   5.963  0.2808  0.0311  0.5286
 8869SOL     OW38239   2.872   1.721   4.860 -0.1501  0.3981 -0.4962
 8869SOL    HW138240   2.833   1.786   4.918  2.8645 -1.3620  3.5455
 8869SOL    HW238241   2.926   1.770   4.798 -0.2041 -0.1129 -0.9488
 8870SOL     OW38242   3.631   2.632  11.895  0.0057 -0.3692  0.2408
 8870SOL    HW138243   3.695   2.689  11.852 -1.5991  2.0057  0.9716
 8870SOL    HW238244   3.660   2.553  11.849 -1.3718  0.2369 -1.7042
 8871SOL     OW38245   2.577   4.578  15.008 -0.1351  0.3400 -0.1776
 8871SOL    HW138246   2.612   4.505  14.956  2.3207 -0.2892  2.4236
 8871SOL    HW238247   2.547   4.633  14.935  0.7737  0.0646 -0.7621
 8872SOL     OW38248   2.325   2.756   8.544 -0.0856 -0.1422  0.3287
 8872SOL    HW138249   2.338   2.669   8.582 -1.4373 -0.3176  0.3965
 8872SOL    HW238250   2.251   2.735   8.488  0.7388  0.6942 -1.0552
 8873SOL     OW38251   0.484   2.444   4.170  0.2440  0.4272 -0.6678
 8873SOL    HW138252   0.444   2.413   4.088  1.2899 -1.6201 -0.3949
 8873SOL    HW238253   0.540   2.376   4.206 -0.0926  0.3011 -0.3824
 8874SOL     OW38254   1.709   2.046   7.768 -0.6010  0.5793 -0.8936
 8874SOL    HW138255   1.640   2.058   7.833 -0.9514 -0.1271 -1.1386
 8874SOL    HW238256   1.687   1.962   7.728  1.8077 -1.0475  1.2878
 8875SOL     OW38257   1.295   3.111  15.773  0.0127 -0.5765  0.5858
 8875SOL    HW138258   1.296   3.094  15.679  1.7801  0.3903  0.4317
 8875SOL    HW238259   1.316   3.204  15.772 -0.8948 -0.3277  4.0563
 8876SOL     OW38260   2.407   3.076   9.419  0.2215 -0.1126  0.2238
 8876SOL    HW138261   2.332   3.135   9.423  1.5669  1.6254 -0.3801
 8876SOL    HW238262   2.454   3.110   9.495  0.4377  0.6065 -0.2335
 8877SOL     OW38263   1.756   0.505  17.082 -0.1246  0.0382  0.3548
 8877SOL    HW138264   1.667   0.507  17.044  0.1669 -1.1871 -0.4263
 8877SOL    HW238265   1.743   0.581  17.137  0.0239  0.3780 -0.0780
 8878SOL     OW38266   4.199   4.693   7.932  0.0335 -0.1833 -0.4465
 8878SOL    HW138267   4.234   4.604   7.942 -0.2074 -0.5122 -2.5428
 8878SOL    HW238268   4.196   4.730   8.020 -1.4737 -0.4764 -0.3745
 8879SOL     OW38269   0.943   3.946   3.680  0.5585 -0.4277  0.1190
 8879SOL    HW138270   0.868   3.906   3.635 -0.1216  2.6426 -1.4593
 8879SOL    HW238271   0.965   3.898   3.759 -1.0304 -0.5677  0.4820
 8880SOL     OW38272   2.384   1.143   9.310 -0.3066  0.1794 -0.1303
 8880SOL    HW138273   2.472   1.108   9.296  0.7485  3.1068 -1.0195
 8880SOL    HW238274   2.411   1.235   9.302 -0.4999  0.0802 -2.0416
 8881SOL     OW38275   2.920   4.523   4.043  0.1762 -0.3788 -0.2789
 8881SOL    HW138276   2.914   4.494   4.134  2.3671 -1.0827 -0.3666
 8881SOL    HW238277   2.857   4.465   4.002  0.2138 -1.3464  1.0400
 8882SOL     OW38278   1.119   1.154   1.798 -0.1667  0.1647 -0.0022
 8882SOL    HW138279   1.029   1.183   1.815 -0.7829 -1.7564  0.0173
 8882SOL    HW238280   1.115   1.122   1.707 -1.0974  0.0398  0.0863
 8883SOL     OW38281   2.573   2.815   1.006  0.0824  0.2112  0.4641
 8883SOL    HW138282   2.596   2.833   1.097 -1.5969 -0.5362  1.0425
 8883SOL    HW238283   2.536   2.726   1.013 -0.4143  0.4674  1.0968
 8884SOL     OW38284   1.492   1.538   1.580 -0.2607  0.6775 -0.0136
 8884SOL    HW138285   1.492   1.479   1.505  1.5119 -0.2416  0.7077
 8884SOL    HW238286   1.410   1.513   1.622 -1.1805 -0.0559 -2.2857
 8885SOL     OW38287   0.827   1.993   4.220 -0.2870 -0.2901 -0.0951
 8885SOL    HW138288   0.836   1.905   4.183  0.7848  0.2177 -1.0216
 8885SOL    HW238289   0.794   1.979   4.309  0.6741 -0.1468  0.2745
 8886SOL     OW38290   0.075   3.830  12.246  0.2019  0.3691 -0.1559
 8886SOL    HW138291   0.073   3.913  12.294 -0.1509  1.3264 -1.8262
 8886SOL    HW238292   0.057   3.762  12.311 -0.0635 -0.3045 -0.9398
 8887SOL     OW38293   2.213   1.152   1.671 -0.1121 -0.3768  0.2448
 8887SOL    HW138294   2.283   1.091   1.649  0.2046 -0.2403  0.8974
 8887SOL    HW238295   2.256   1.233   1.644  3.0869 -1.5787  1.7556
 8888SOL     OW38296   3.947   2.551   9.081 -0.3488  0.4259  0.0787
 8888SOL    HW138297   3.994   2.628   9.114  1.1839  0.9395 -3.2590
 8888SOL    HW238298   3.926   2.584   8.994  0.5212  1.4787  0.2600
 8889SOL     OW38299   2.816   4.106   0.246  0.2835  0.0493 -0.2288
 8889SOL    HW138300   2.860   4.022   0.233  1.2730  0.6588 -0.8085
 8889SOL    HW238301   2.740   4.092   0.190 -0.0535 -2.1091  0.7632
 8890SOL     OW38302   3.666   3.352   2.035  0.2697 -0.1307  0.1909
 8890SOL    HW138303   3.660   3.441   2.071 -0.2322 -0.0572 -0.0782
 8890SOL    HW238304   3.750   3.314   2.062  0.4038  1.6063  2.2760
 8891SOL     OW38305   3.786   3.325  13.561  0.2147  0.7945  0.0929
 8891SOL    HW138306   3.827   3.410  13.546 -0.0144  0.8651 -0.1409
 8891SOL    HW238307   3.816   3.297  13.647 -0.0695 -0.8132 -0.3312
 8892SOL     OW38308   4.689   2.500   5.867 -0.0831 -0.4678 -0.0311
 8892SOL    HW138309   4.653   2.422   5.825  2.9609 -0.1124 -3.2860
 8892SOL    HW238310   4.611   2.555   5.862  0.4128  0.2472  0.1678
 8893SOL     OW38311   1.312   4.144   1.965 -0.0578 -0.1157  0.0312
 8893SOL    HW138312   1.230   4.182   1.933 -1.5300 -1.9600  1.6354
 8893SOL    HW238313   1.347   4.113   1.882  2.1012 -1.3328  1.3992
 8894SOL     OW38314   4.565   4.492   0.674  0.1524 -0.2077 -0.7090
 8894SOL    HW138315   4.623   4.457   0.742  0.5422 -1.0640 -1.4781
 8894SOL    HW238316   4.551   4.412   0.624 -1.4313  0.3661 -1.2031
 8895SOL     OW38317   1.111   2.527  15.140  0.1835 -0.2987  0.0033
 8895SOL    HW138318   1.079   2.533  15.230 -0.9186 -1.2065 -0.3363
 8895SOL    HW238319   1.135   2.435  15.127 -3.2549 -1.0764 -0.7373
 8896SOL     OW38320   0.510   2.168   7.315 -0.0187  0.3738 -0.2223
 8896SOL    HW138321   0.577   2.113   7.273  2.6073  2.3828  1.3134
 8896SOL    HW238322   0.454   2.185   7.240  1.3021  0.3902 -1.1995
 8897SOL     OW38323   1.285   0.623  12.639 -0.1606  0.6709 -0.0173
 8897SOL    HW138324   1.201   0.606  12.682  0.3859 -0.0681  0.7693
 8897SOL    HW238325   1.267   0.702  12.589  0.0887  0.7658  0.0414
 8898SOL     OW38326   4.727   3.024   0.288 -0.6779 -0.0779  0.2852
 8898SOL    HW138327   4.672   2.946   0.294  0.6903 -0.9966  0.8835
 8898SOL    HW238328   4.688   3.064   0.211 -2.4318 -1.8170  0.2820
 8899SOL     OW38329   3.174   1.710   4.233  0.0092  0.3001 -0.4078
 8899SOL    HW138330   3.166   1.724   4.328  3.3280 -1.4460  0.1333
 8899SOL    HW238331   3.154   1.617   4.223 -0.6937  0.2348  1.5391
 8900SOL     OW38332   4.609   0.563  14.231  0.0635 -1.0227 -0.2064
 8900SOL    HW138333   4.611   0.577  14.326  0.1057  0.1583 -0.3758
 8900SOL    HW238334   4.643   0.647  14.200 -0.5281 -1.8575 -3.1338
 8901SOL     OW38335   3.358   2.553   6.365 -0.0868 -0.0961 -0.2803
 8901SOL    HW138336   3.314   2.471   6.386  0.6096 -0.7188 -1.2527
 8901SOL    HW238337   3.307   2.612   6.420 -1.5465 -0.0798 -1.6875
 8902SOL     OW38338   0.380   0.297   4.569  0.4026 -0.5602 -0.7459
 8902SOL    HW138339   0.411   0.270   4.483 -0.8932  0.9746 -1.6778
 8902SOL    HW238340   0.461   0.293   4.621  0.4489 -0.0818 -0.7847
 8903SOL     OW38341   0.578   3.191   3.077 -0.1156 -0.8881  0.5057
 8903SOL    HW138342   0.569   3.112   3.130 -1.4705 -0.4955  0.8631
 8903SOL    HW238343   0.497   3.198   3.025  1.2308  1.0449 -1.3335
 8904SOL     OW38344   1.342   1.273  17.033 -0.3222 -0.4455 -0.2052
 8904SOL    HW138345   1.250   1.296  17.041 -0.0351  1.4251 -2.3671
 8904SOL    HW238346   1.346   1.202  17.098 -1.7989 -0.1611  0.1871
 8905SOL     OW38347   2.134   3.309   8.992  0.0219  0.5460 -0.3641
 8905SOL    HW138348   2.127   3.255   8.913 -3.1063  1.3082 -0.5776
 8905SOL    HW238349   2.230   3.308   8.999 -0.0168  0.9257  0.1665
 8906SOL     OW38350   2.605   4.407   3.811  0.0636 -0.2364  0.1935
 8906SOL    HW138351   2.594   4.499   3.834  1.2904  0.3593 -1.5332
 8906SOL    HW238352   2.528   4.390   3.757 -0.9940  0.9126  1.3601
 8907SOL     OW38353   2.183   4.611   1.772 -0.0773 -0.1722 -0.3556
 8907SOL    HW138354   2.206   4.702   1.789  0.5773  0.1923 -3.2263
 8907SOL    HW238355   2.269   4.569   1.775 -0.8191 -1.9417 -3.0304
 8908SOL     OW38356   3.778   0.048   1.741  0.1892  0.1604 -0.9230
 8908SOL    HW138357   3.847   4.718   1.756 -0.0560  0.4639  1.5140
 8908SOL    HW238358   3.727   0.019   1.665 -0.7519  0.4913 -0.4225
 8909SOL     OW38359   4.101   2.312   8.778 -0.4931 -0.5125 -0.1312
 8909SOL    HW138360   4.155   2.239   8.809 -0.3535  0.3867  1.7793
 8909SOL    HW238361   4.066   2.321   8.867  1.4453 -1.7348  0.7634
 8910SOL     OW38362   3.471   3.475   6.930  0.4322  0.6455 -0.1668
 8910SOL    HW138363   3.414   3.552   6.937 -1.3557 -0.9650  3.1241
 8910SOL    HW238364   3.405   3.412   6.903  0.4105  0.0295  1.3009
 8911SOL     OW38365   4.634   4.582   5.450  0.9181  0.0151 -0.3172
 8911SOL    HW138366   4.722   4.561   5.481  1.1952  1.8468  0.1624
 8911SOL    HW238367   4.626   4.514   5.383 -0.5483 -0.0549 -0.0839
 8912SOL     OW38368   0.261   1.161   8.584 -0.4834  0.9033 -0.7193
 8912SOL    HW138369   0.244   1.251   8.556 -2.2323  1.0955  0.9480
 8912SOL    HW238370   0.178   1.120   8.560 -0.0135 -0.2122 -0.4311
 8913SOL     OW38371   1.248   2.493  15.729  0.7438 -0.3988 -0.2101
 8913SOL    HW138372   1.249   2.579  15.771 -1.6871  0.3434 -1.6541
 8913SOL    HW238373   1.269   2.435  15.802 -1.6168  0.1250  0.8710
 8914SOL     OW38374   1.102   1.998   4.183 -0.4992  0.3987 -0.1518
 8914SOL    HW138375   1.057   1.949   4.115  1.6235 -0.8607 -0.6653
 8914SOL    HW238376   1.034   2.005   4.250  0.9691 -2.1609  1.6258
 8915SOL     OW38377   2.669   4.728   2.017  0.2963 -0.1511  0.2501
 8915SOL    HW138378   2.712   4.651   1.981  0.2528 -0.3453  0.6178
 8915SOL    HW238379   2.589   4.720   1.965  0.3731 -1.6336  0.3633
 8916SOL     OW38380   3.340   2.762   4.012 -0.0380  0.0384 -0.1929
 8916SOL    HW138381   3.426   2.765   4.054  0.3963 -0.1773 -1.0894
 8916SOL    HW238382   3.365   2.716   3.932  0.6031 -1.4085  0.8318
 8917SOL     OW38383   2.674   0.176   2.232  0.7206 -0.3989 -0.2323
 8917SOL    HW138384   2.760   0.140   2.257  0.6971 -0.1843  0.1610
 8917SOL    HW238385   2.662   0.124   2.153 -1.8708  0.9013 -0.6705
 8918SOL     OW38386   3.554   2.604   3.283  0.0447 -0.1153  0.7368
 8918SOL    HW138387   3.500   2.576   3.356 -1.9042  1.5969 -0.0506
 8918SOL    HW238388   3.571   2.522   3.236  0.6431  0.8122 -0.6854
 8919SOL     OW38389   4.613   2.620   7.236  0.1977 -0.0599  0.2097
 8919SOL    HW138390   4.688   2.680   7.230 -1.2021  1.5476 -1.1738
 8919SOL    HW238391   4.561   2.657   7.307 -2.2213  0.0764 -1.6347
 8920SOL     OW38392   1.768   2.263  16.580  0.4962 -0.0708 -0.1713
 8920SOL    HW138393   1.765   2.170  16.603  1.2805 -0.1494 -0.4123
 8920SOL    HW238394   1.769   2.262  16.484 -1.6627 -0.2811 -0.1905
 8921SOL     OW38395   2.804   3.696  16.838 -0.0648 -0.2682  0.3585
 8921SOL    HW138396   2.738   3.627  16.831  0.0448 -0.3226 -0.1196
 8921SOL    HW238397   2.852   3.664  16.914  0.0934 -1.9386 -0.4399
 8922SOL     OW38398   1.263   1.876  17.390 -0.8270  0.0176 -0.0837
 8922SOL    HW138399   1.198   1.821  17.347 -2.0464  1.9869 -0.7401
 8922SOL    HW238400   1.336   1.857  17.331 -0.5355 -0.7338  0.5183
 8923SOL     OW38401   1.184   1.573   3.930 -0.4944 -1.4996 -0.0438
 8923SOL    HW138402   1.228   1.529   3.858 -0.6569 -0.0485 -1.0359
 8923SOL    HW238403   1.205   1.665   3.914 -0.4545 -1.4218  0.4536
 8924SOL     OW38404   3.811   3.329   7.500 -0.3513 -0.1500 -0.0205
 8924SOL    HW138405   3.819   3.244   7.457  0.7747  0.7624 -1.5937
 8924SOL    HW238406   3.788   3.304   7.589 -0.2050  1.5832  0.4919
 8925SOL     OW38407   3.858   0.885  14.337 -0.3407  0.2790 -0.1239
 8925SOL    HW138408   3.878   0.915  14.248  0.4312 -2.0945 -0.7394
 8925SOL    HW238409   3.786   0.825  14.315  1.4489 -1.9541  0.1888
 8926SOL     OW38410   1.861   1.395   4.491 -0.3812 -0.3652  0.0972
 8926SOL    HW138411   1.929   1.444   4.445 -0.0804 -0.8985 -0.0310
 8926SOL    HW238412   1.913   1.333   4.542 -0.1947 -0.0162  0.3248
 8927SOL     OW38413   1.369   2.725   1.887  0.4494 -0.0692 -0.1697
 8927SOL    HW138414   1.456   2.749   1.854  0.1832 -0.4875 -1.2027
 8927SOL    HW238415   1.322   2.715   1.804  0.8811 -0.3728 -0.3834
 8928SOL     OW38416   1.397   3.587  15.390  0.6579  0.1622  0.7615
 8928SOL    HW138417   1.348   3.514  15.351  1.6365 -1.4837  2.5720
 8928SOL    HW238418   1.335   3.635  15.445  0.8154  0.3411  0.7808
 8929SOL     OW38419   3.581   2.477  14.229  0.3434  0.4622 -0.1232
 8929SOL    HW138420   3.546   2.507  14.313 -1.5948 -1.0972 -0.3671
 8929SOL    HW238421   3.497   2.454  14.189  0.0638 -1.1913  1.4377
 8930SOL     OW38422   3.865   1.127   6.245 -0.6924 -0.0167  0.7369
 8930SOL    HW138423   3.802   1.136   6.173 -0.2309 -1.4036  0.1699
 8930SOL    HW238424   3.896   1.218   6.248  0.2961 -0.3962  1.9768
 8931SOL     OW38425   4.663   1.551   5.866 -0.3233  0.7050  0.1372
 8931SOL    HW138426   4.585   1.605   5.878 -1.7281 -1.2216 -0.2849
 8931SOL    HW238427   4.678   1.572   5.774 -3.0378 -0.1052 -0.4995
 8932SOL     OW38428   1.266   0.850  10.887 -0.5561 -0.0399  0.5958
 8932SOL    HW138429   1.181   0.812  10.866  0.2113 -0.2189 -2.1401
 8932SOL    HW238430   1.266   0.862  10.982  0.0418 -2.0217  0.8325
 8933SOL     OW38431   0.611   0.903   3.297 -0.4863 -0.0668 -0.2575
 8933SOL    HW138432   0.558   0.875   3.372  1.0539  0.2573  0.9441
 8933SOL    HW238433   0.694   0.856   3.303 -1.5798 -1.7408  1.6827
 8934SOL     OW38434   3.262   3.931   7.404 -0.3578 -0.3680  0.4760
 8934SOL    HW138435   3.225   3.851   7.366  1.0295 -1.3610  1.2302
 8934SOL    HW238436   3.281   3.918   7.497  1.0203  0.6146  0.3331
 8935SOL     OW38437   4.426   3.558   6.161  0.5188  0.3381 -0.0226
 8935SOL    HW138438   4.391   3.645   6.140 -0.2916  0.2191  0.8518
 8935SOL    HW238439   4.356   3.538   6.223  0.6069 -0.3872 -0.1594
 8936SOL     OW38440   2.183   3.358   0.474 -0.1447  0.5051  0.3161
 8936SOL    HW138441   2.245   3.317   0.413 -0.6186 -1.2909  1.0507
 8936SOL    HW238442   2.202   3.309   0.554  0.9514 -0.6293 -0.6473
 8937SOL     OW38443   0.840   4.027   2.474  0.0838  0.5654 -0.1457
 8937SOL    HW138444   0.899   4.101   2.486  0.6961 -0.1662  1.5057
 8937SOL    HW238445   0.783   4.051   2.401 -0.2262 -0.4564 -0.2361
 8938SOL     OW38446   1.773   0.309   7.020  0.0659  0.0942  0.7330
 8938SOL    HW138447   1.853   0.331   6.972 -0.3439  1.5803  0.7279
 8938SOL    HW238448   1.775   0.214   7.007  0.9561  0.1928  0.1352
 8939SOL     OW38449   4.485   0.837   9.779 -0.2400  0.1741 -0.0820
 8939SOL    HW138450   4.545   0.764   9.767 -1.0785 -1.1816  3.9860
 8939SOL    HW238451   4.453   0.821   9.868  1.9473 -1.2430  0.4563
 8940SOL     OW38452   1.494   0.959   9.603  0.3386  0.1821 -0.0523
 8940SOL    HW138453   1.402   0.986   9.606 -0.1301 -1.4278  0.1657
 8940SOL    HW238454   1.511   0.989   9.514  2.5170 -2.2393 -0.4644
 8941SOL     OW38455   4.035   1.560   4.758 -0.1515 -0.2521  0.1359
 8941SOL    HW138456   4.022   1.479   4.708 -0.9865  1.0957 -1.8158
 8941SOL    HW238457   3.961   1.614   4.731  0.8163 -0.1838 -2.3309
 8942SOL     OW38458   4.520   0.708   7.567  0.2229  0.2230 -0.4571
 8942SOL    HW138459   4.613   0.712   7.542 -0.0378  3.0263 -0.9340
 8942SOL    HW238460   4.526   0.632   7.625  0.3278  0.5780  0.0004
 8943SOL     OW38461   2.784   3.370   5.973 -0.2504 -0.5846 -0.0047
 8943SOL    HW138462   2.780   3.394   5.881  1.6507 -2.2389 -0.5205
 8943SOL    HW238463   2.793   3.275   5.976  0.4788 -0.5293 -0.4696
 8944SOL     OW38464   4.117   1.527   0.305  0.6087 -0.2692  0.6335
 8944SOL    HW138465   4.137   1.435   0.323  0.8613 -0.4020 -0.3727
 8944SOL    HW238466   4.187   1.565   0.358  2.1091 -0.5712 -1.1761
 8945SOL     OW38467   2.084   2.712   9.017  0.3148 -0.0870  0.1530
 8945SOL    HW138468   2.029   2.776   8.971  1.0013  0.6968  0.4307
 8945SOL    HW238469   2.012   2.652   9.038 -0.7828 -0.1258 -3.8606
 8946SOL     OW38470   3.528   2.265   6.332 -0.2489 -0.3454  0.1604
 8946SOL    HW138471   3.518   2.336   6.268 -1.3308  0.9567  1.7901
 8946SOL    HW238472   3.442   2.276   6.372  0.2560 -0.1525  1.2016
 8947SOL     OW38473   2.351   1.842  15.488  0.0457  0.5861 -0.0939
 8947SOL    HW138474   2.257   1.849  15.501 -0.0649 -1.6567  0.2254
 8947SOL    HW238475   2.358   1.749  15.467 -1.6746  0.6493 -0.9550
 8948SOL     OW38476   1.275   2.308  11.045  0.4618 -0.1523  0.4022
 8948SOL    HW138477   1.359   2.348  11.022 -0.2339  1.7252  1.1253
 8948SOL    HW238478   1.250   2.372  11.111  0.1239 -1.9673  2.0241
 8949SOL     OW38479   4.327   3.787   7.711  0.0587 -0.0223 -0.2097
 8949SOL    HW138480   4.397   3.841   7.674 -0.2913 -0.2855 -1.2528
 8949SOL    HW238481   4.370   3.751   7.789 -1.9794 -2.9433 -0.4527
 8950SOL     OW38482   4.134   0.299   7.482 -0.0768  0.0262 -0.3320
 8950SOL    HW138483   4.134   0.359   7.557  1.3026 -0.2533 -0.1190
 8950SOL    HW238484   4.216   0.316   7.435 -0.6599 -0.6098 -1.5704
 8951SOL     OW38485   1.493   4.243   2.207 -0.4757 -0.4424  0.3925
 8951SOL    HW138486   1.404   4.227   2.175 -1.0065 -0.8377  2.0728
 8951SOL    HW238487   1.529   4.303   2.143 -0.4422 -1.3108 -0.4115
 8952SOL     OW38488   4.080   3.017   7.308  0.6321 -0.0171  0.4249
 8952SOL    HW138489   3.991   3.034   7.336  0.4647 -1.7143  0.9311
 8952SOL    HW238490   4.092   2.922   7.312  1.1278  0.0938  1.6207
 8953SOL     OW38491   1.513   3.276   4.033  0.0452 -0.2630 -0.1708
 8953SOL    HW138492   1.516   3.350   4.093 -2.8247 -0.9899  0.8808
 8953SOL    HW238493   1.443   3.305   3.974 -0.2785  1.2523  0.9540
 8954SOL     OW38494   3.200   3.824   5.171  0.6860  0.9510  0.6757
 8954SOL    HW138495   3.133   3.808   5.104 -0.8116 -2.7775  3.0353
 8954SOL    HW238496   3.155   3.876   5.237 -0.6120 -0.0358  0.5693
 8955SOL     OW38497   1.782   2.808  17.340  0.6685 -0.3530  0.2474
 8955SOL    HW138498   1.759   2.900  17.334 -0.1544 -0.7230 -2.1548
 8955SOL    HW238499   1.771   2.781  17.249  0.8612 -0.9046  0.3836
 8956SOL     OW38500   1.970   2.163   2.429  0.7902 -0.1399 -0.2538
 8956SOL    HW138501   2.060   2.133   2.414  2.1317  3.7904 -0.0843
 8956SOL    HW238502   1.912   2.087   2.423  0.5396 -0.0476  0.9854
 8957SOL     OW38503   4.336   0.126  11.280 -0.7762 -0.1930  0.1121
 8957SOL    HW138504   4.386   0.173  11.213 -0.0585 -0.9339  0.1313
 8957SOL    HW238505   4.319   0.051  11.224  1.3575  0.0046 -0.7799
 8958SOL     OW38506   0.507   1.200  12.426  0.2133  0.6598  0.2344
 8958SOL    HW138507   0.438   1.155  12.475  1.6822  1.0269  2.6939
 8958SOL    HW238508   0.564   1.130  12.393 -1.4149  0.2622 -1.6624
 8959SOL     OW38509   0.391   4.259   6.183  0.2939 -0.2593 -0.1864
 8959SOL    HW138510   0.296   4.251   6.180  0.0762  0.7486  3.7583
 8959SOL    HW238511   0.410   4.177   6.228 -0.0137 -0.4818 -0.4680
 8960SOL     OW38512   3.686   1.009   5.917  0.1865 -0.1834 -0.1678
 8960SOL    HW138513   3.629   0.991   5.842 -0.6633 -1.5698  0.8185
 8960SOL    HW238514   3.621   1.013   5.987  0.3825  2.2166 -0.1156
 8961SOL     OW38515   3.001   2.360   1.965 -0.3521 -0.2014 -0.2300
 8961SOL    HW138516   3.048   2.296   2.018 -0.7642  0.1674  0.5875
 8961SOL    HW238517   2.984   2.310   1.886 -1.2297 -0.0383 -0.1512
 8962SOL     OW38518   2.127   2.315   7.421  0.0387  0.1927  0.3288
 8962SOL    HW138519   2.047   2.312   7.369 -0.4982  0.7625  1.1220
 8962SOL    HW238520   2.087   2.289   7.505 -0.1928 -1.9740 -0.4425
 8963SOL     OW38521   3.602   3.172   3.463 -0.0351  0.1468 -0.0387
 8963SOL    HW138522   3.695   3.149   3.452  0.2368  0.7009  1.1288
 8963SOL    HW238523   3.568   3.190   3.375 -1.1826 -2.8731 -0.2273
 8964SOL     OW38524   4.423   4.421   2.059 -0.1198  0.0226  0.4885
 8964SOL    HW138525   4.505   4.444   2.102 -0.6089  1.6793  0.5228
 8964SOL    HW238526   4.423   4.327   2.076 -1.8257 -0.0166  0.2791
 8965SOL     OW38527   1.690   3.953   8.188 -0.4424 -0.0200 -0.8996
 8965SOL    HW138528   1.603   3.950   8.228  0.5229 -1.0153  1.1243
 8965SOL    HW238529   1.725   4.027   8.236 -1.4634 -0.9442  1.2763
 8966SOL     OW38530   2.931   3.937   1.507 -0.2500  0.5004  0.3516
 8966SOL    HW138531   2.895   3.975   1.587  1.5658  0.8125  1.0293
 8966SOL    HW238532   2.876   3.860   1.494 -2.9459  2.5552 -0.3276
 8967SOL     OW38533   1.264   2.954   1.903 -0.2613  0.3966 -0.0952
 8967SOL    HW138534   1.173   2.926   1.901 -0.1820  0.3753 -3.0645
 8967SOL    HW238535   1.297   2.865   1.917 -0.6672  0.2288 -0.2057
 8968SOL     OW38536   2.278   4.294   2.839  0.1169  0.1014  0.0214
 8968SOL    HW138537   2.283   4.271   2.931  0.2684  1.8914  0.4452
 8968SOL    HW238538   2.366   4.328   2.823 -0.6755  1.2550 -1.9257
 8969SOL     OW38539   4.561   0.724   5.873  0.8116  0.0853 -0.0410
 8969SOL    HW138540   4.528   0.813   5.856  0.1410  0.0902  1.3195
 8969SOL    HW238541   4.581   0.732   5.966  2.6622 -1.0351 -0.3378
 8970SOL     OW38542   4.216   2.138  17.204 -0.6922  0.1118 -0.2535
 8970SOL    HW138543   4.212   2.233  17.189 -0.0491  0.0819 -0.6448
 8970SOL    HW238544   4.197   2.137  17.297 -1.6568  0.4353 -0.4513
 8971SOL     OW38545   3.865   3.495   3.073 -0.3680 -0.2169 -0.3129
 8971SOL    HW138546   3.784   3.533   3.106  1.2217  1.3667  1.7367
 8971SOL    HW238547   3.875   3.416   3.125  0.4517  0.0225 -0.1093
 8972SOL     OW38548   0.460   3.686   8.030  0.6545 -0.2614  0.0378
 8972SOL    HW138549   0.521   3.646   8.093 -0.3827  0.1680  1.3002
 8972SOL    HW238550   0.510   3.668   7.950 -0.7036  1.9558 -1.2900
 8973SOL     OW38551   0.362   2.616   4.373  0.4460  0.1382  0.6310
 8973SOL    HW138552   0.385   2.614   4.466  0.2264 -2.7119  0.6454
 8973SOL    HW238553   0.416   2.551   4.328 -0.7798 -1.2752  1.1535
 8974SOL     OW38554   3.308   3.892   4.862  0.0577 -0.0082  0.1647
 8974SOL    HW138555   3.368   3.860   4.930  2.3431  1.9277 -0.9244
 8974SOL    HW238556   3.237   3.829   4.854 -1.2606  1.6133 -0.9276
 8975SOL     OW38557   3.856   4.730   5.573  0.2694  0.1349  0.4380
 8975SOL    HW138558   3.870   4.702   5.482  0.2036 -0.7792  0.7048
 8975SOL    HW238559   3.943   0.002   5.612  0.2290 -1.2581  0.7543
 8976SOL     OW38560   4.213   3.811   4.657  0.2747 -0.7161 -0.0243
 8976SOL    HW138561   4.190   3.747   4.590  0.1056  0.0872 -0.7411
 8976SOL    HW238562   4.279   3.858   4.607  0.5310 -0.5092  0.5040
 8977SOL     OW38563   4.611   0.264  12.647 -0.3572  0.2967 -0.0519
 8977SOL    HW138564   4.598   0.341  12.702 -0.7877  0.0365  0.2104
 8977SOL    HW238565   4.706   0.254  12.646 -0.3046  0.7158  0.4822
 8978SOL     OW38566   0.282   2.048  16.211 -0.1445  0.1109  0.0561
 8978SOL    HW138567   0.306   2.043  16.119  0.1517  2.3650 -0.0003
 8978SOL    HW238568   0.194   2.010  16.206 -0.8783  1.5478  1.8361
 8979SOL     OW38569   0.996   0.633  17.612 -0.4286 -0.0868  0.0599
 8979SOL    HW138570   0.987   0.708  17.670 -1.5789  0.4946 -0.8656
 8979SOL    HW238571   1.051   0.577  17.667  2.2312  2.7383  0.3331
 8980SOL     OW38572   0.428   0.791   8.263  0.3507  0.3588 -0.1834
 8980SOL    HW138573   0.434   0.884   8.241  2.0705 -0.1361 -1.8240
 8980SOL    HW238574   0.502   0.769   8.207  2.2183  0.8683  2.1119
 8981SOL     OW38575   4.306   1.993   7.430 -0.8032  0.3817  0.6089
 8981SOL    HW138576   4.377   1.936   7.458  1.7766  3.8637  1.1292
 8981SOL    HW238577   4.306   1.971   7.337 -1.1389 -2.9535  1.4094
 8982SOL     OW38578   0.784   4.494   7.560 -0.4584 -0.2252  0.2390
 8982SOL    HW138579   0.757   4.441   7.484  0.2305  2.9880 -2.2374
 8982SOL    HW238580   0.873   4.460   7.561 -0.8858 -1.3731 -0.3247
 8983SOL     OW38581   2.714   1.469   3.322  0.5587  0.2469 -0.6800
 8983SOL    HW138582   2.807   1.468   3.300  0.7296  1.4929 -0.0279
 8983SOL    HW238583   2.716   1.392   3.378  0.3101  0.1164 -0.8513
 8984SOL     OW38584   2.522   3.699   7.208  0.2493  0.6974  0.1776
 8984SOL    HW138585   2.576   3.775   7.188  1.6397 -0.1524  0.7200
 8984SOL    HW238586   2.475   3.675   7.129  1.4694 -1.0785 -0.0308
 8985SOL     OW38587   0.911   3.919   0.537 -0.0332 -0.1704  0.5605
 8985SOL    HW138588   0.967   3.882   0.470 -0.1039  1.6347 -0.5049
 8985SOL    HW238589   0.888   3.998   0.487  1.9681 -0.3611 -0.6202
 8986SOL     OW38590   4.044   3.955   2.874  0.7165  0.6145 -0.0587
 8986SOL    HW138591   4.084   3.977   2.957 -0.9367 -0.4008  1.0139
 8986SOL    HW238592   4.096   4.001   2.808  0.3874 -1.2021 -1.5941
 8987SOL     OW38593   0.646   3.348   7.839 -0.4345 -0.2885  0.3311
 8987SOL    HW138594   0.655   3.276   7.777  1.3881  1.4613 -1.4415
 8987SOL    HW238595   0.564   3.386   7.807 -0.2220  0.8659  1.1377
 8988SOL     OW38596   2.292   2.822   0.650 -0.7490  0.1374  0.6322
 8988SOL    HW138597   2.365   2.765   0.673  0.3317  1.5832  0.8076
 8988SOL    HW238598   2.245   2.769   0.586 -2.6269  0.0659  2.0611
 8989SOL     OW38599   0.509   1.700   5.986  0.2684 -0.3824 -0.2517
 8989SOL    HW138600   0.464   1.759   5.926 -0.7034 -0.2950  0.5520
 8989SOL    HW238601   0.588   1.672   5.940  0.3474  0.3187 -0.5360
 8990SOL     OW38602   2.922   2.754  10.019  0.2120 -0.1495 -0.1288
 8990SOL    HW138603   2.933   2.799   9.935 -0.7467 -0.6709 -0.5474
 8990SOL    HW238604   2.834   2.776  10.051  0.8443  0.7740  0.9753
 8991SOL     OW38605   4.286   4.022   6.191 -0.3055 -0.5061  0.4106
 8991SOL    HW138606   4.359   4.084   6.190 -2.5887  2.1359 -1.6495
 8991SOL    HW238607   4.220   4.078   6.232 -1.5438  0.4031 -2.8813
 8992SOL     OW38608   4.401   3.647   9.799 -0.5215  0.2091  0.2130
 8992SOL    HW138609   4.431   3.655   9.708  0.7749 -2.2338  0.4329
 8992SOL    HW238610   4.308   3.625   9.791 -0.2821 -0.5711 -0.4316
 8993SOL     OW38611   2.507   0.396   9.665 -0.6843  0.5084  0.1482
 8993SOL    HW138612   2.540   0.352   9.743 -2.3928 -0.1387  0.5057
 8993SOL    HW238613   2.453   0.469   9.696 -0.2410  1.7175 -1.9581
 8994SOL     OW38614   0.464   3.196   7.265 -0.2595  0.3574  0.2440
 8994SOL    HW138615   0.405   3.271   7.262 -1.0462 -0.2873 -0.3770
 8994SOL    HW238616   0.498   3.198   7.175  1.1225  3.4626  0.8047
 8995SOL     OW38617   4.066   4.726   3.791 -0.2585  0.2106 -0.1900
 8995SOL    HW138618   4.028   4.734   3.878 -1.2719 -0.8653 -0.5424
 8995SOL    HW238619   4.095   0.082   3.776  0.1893  0.1938  0.5799
 8996SOL     OW38620   3.090   4.025   5.339  0.1988  0.3317 -0.6292
 8996SOL    HW138621   3.136   4.101   5.375 -1.1411  0.9625 -0.2502
 8996SOL    HW238622   3.014   4.073   5.304 -0.7445 -1.6771 -1.3327
 8997SOL     OW38623   2.296   0.561   6.142  0.0229  0.2534  0.3038
 8997SOL    HW138624   2.274   0.641   6.093  0.0512 -0.3256 -0.6631
 8997SOL    HW238625   2.355   0.599   6.206  0.2673 -1.7351  1.2510
 8998SOL     OW38626   4.033   2.617  16.839  0.0482  0.4045  0.1930
 8998SOL    HW138627   3.963   2.555  16.820  2.5499 -2.2311 -0.3488
 8998SOL    HW238628   4.107   2.559  16.825  1.2110  1.0906  3.5512
 8999SOL     OW38629   4.494   1.464   2.655 -0.3815 -0.5312 -0.3667
 8999SOL    HW138630   4.519   1.425   2.739 -1.1279 -0.6878 -0.2166
 8999SOL    HW238631   4.404   1.432   2.646 -0.1596 -1.3357  0.3253
 9000SOL     OW38632   0.036   3.239  15.336  0.0844 -0.4741 -0.5695
 9000SOL    HW138633   0.081   3.181  15.398 -1.1063 -0.7090  0.0713
 9000SOL    HW238634   4.722   3.172  15.288 -0.5015 -2.2955  2.5416
 9001SOL     OW38635   4.609   3.737   2.265  0.5696  0.6749  0.2675
 9001SOL    HW138636   4.655   3.815   2.295  1.7984 -0.1913  0.6127
 9001SOL    HW238637   4.639   3.679   2.335 -1.4919  0.3040  0.8535
 9002SOL     OW38638   2.402   3.095   7.187  0.3906 -0.3884  0.3819
 9002SOL    HW138639   2.378   3.073   7.277  1.1297  2.6335  1.2975
 9002SOL    HW238640   2.461   3.169   7.198 -0.0989  0.0077  0.3397
 9003SOL     OW38641   1.559   3.555   3.052 -0.3600 -0.3566  0.5032
 9003SOL    HW138642   1.599   3.535   2.968  0.7192  0.8050  0.7484
 9003SOL    HW238643   1.490   3.616   3.027 -0.4581 -0.1707  1.2154
 9004SOL     OW38644   1.898   2.547   9.167 -0.3699 -0.1808  0.6897
 9004SOL    HW138645   1.880   2.453   9.158 -0.9236 -0.0318  0.2099
 9004SOL    HW238646   1.811   2.586   9.175  0.7584  2.5521 -0.6632
 9005SOL     OW38647   3.107   2.266   1.164  0.1206 -0.1463 -0.2397
 9005SOL    HW138648   3.102   2.171   1.163  0.5096 -0.1422 -1.6905
 9005SOL    HW238649   3.024   2.278   1.209 -0.8549  0.2497 -2.1454
 9006SOL     OW38650   2.423   1.167   5.439 -0.1886  0.2839 -0.0416
 9006SOL    HW138651   2.485   1.213   5.496 -1.2415  2.5952 -0.7351
 9006SOL    HW238652   2.382   1.243   5.397 -0.1348  0.9389  1.0841
 9007SOL     OW38653   4.281   0.750   6.231 -0.0031 -0.0907  0.3379
 9007SOL    HW138654   4.225   0.827   6.240  0.4464  0.2200  0.5035
 9007SOL    HW238655   4.348   0.764   6.298 -1.2026  0.8992  1.3125
 9008SOL     OW38656   4.117   2.678   4.360  0.4814 -0.6084 -0.7870
 9008SOL    HW138657   4.074   2.594   4.347  0.0100 -0.9105  2.8080
 9008SOL    HW238658   4.200   2.639   4.387  0.3806  0.1373  0.6437
 9009SOL     OW38659   3.614   4.724   5.707 -0.1913 -0.2439  0.0126
 9009SOL    HW138660   3.688   0.002   5.648 -0.9708  1.8387 -0.5215
 9009SOL    HW238661   3.650   4.648   5.753  1.4191  0.3831 -0.2168
 9010SOL     OW38662   0.914   3.594   6.759 -0.5518 -0.1181  0.2369
 9010SOL    HW138663   0.827   3.598   6.720 -0.0083 -2.5060 -1.2122
 9010SOL    HW238664   0.924   3.689   6.764  1.0085 -0.2886  0.5168
 9011SOL     OW38665   4.199   2.817   5.546 -0.1181  0.0189 -0.1430
 9011SOL    HW138666   4.277   2.762   5.545 -0.5246 -0.5561 -0.3961
 9011SOL    HW238667   4.202   2.841   5.453 -1.3326 -0.6347 -0.3459
 9012SOL     OW38668   3.255   1.677   3.876  0.0037  0.0273  0.6011
 9012SOL    HW138669   3.201   1.685   3.797 -0.1722  1.9586  0.9211
 9012SOL    HW238670   3.290   1.763   3.901  0.5139  0.1124 -0.4125
 9013SOL     OW38671   4.221   4.112   2.289 -0.1775  0.4276 -0.2911
 9013SOL    HW138672   4.158   4.174   2.324  0.8286 -0.2071  2.5837
 9013SOL    HW238673   4.293   4.122   2.351  0.8779  1.1850 -1.6304
 9014SOL     OW38674   0.256   1.280   4.410  0.4205 -0.0805 -0.1636
 9014SOL    HW138675   0.300   1.344   4.354 -1.7858  0.3273 -1.4042
 9014SOL    HW238676   0.197   1.241   4.345  0.6927  0.2708 -0.6219
 9015SOL     OW38677   2.420   4.216   7.581  0.6872  0.0833 -0.1187
 9015SOL    HW138678   2.406   4.308   7.602 -0.8842 -0.1054 -0.3353
 9015SOL    HW238679   2.367   4.175   7.649  0.1379  0.2669 -0.4408
 9016SOL     OW38680   1.370   2.814   5.485  0.3173 -0.2539  0.1293
 9016SOL    HW138681   1.311   2.757   5.533  0.7195  1.0852  2.1988
 9016SOL    HW238682   1.421   2.751   5.434 -0.4730 -1.4274  0.8237
 9017SOL     OW38683   1.752   1.604   7.498 -0.4907 -0.2711  0.3158
 9017SOL    HW138684   1.804   1.576   7.423  0.0305 -0.4248  0.7367
 9017SOL    HW238685   1.786   1.544   7.564  2.3018 -1.7697 -2.5066
 9018SOL     OW38686   1.003   3.672   6.422 -0.1872 -0.2612 -0.3673
 9018SOL    HW138687   0.945   3.596   6.417 -1.0910  0.5227 -1.6009
 9018SOL    HW238688   1.071   3.609   6.398 -1.9386 -2.1287 -0.4141
 9019SOL     OW38689   3.258   1.640  13.611 -0.0344 -0.2663 -0.3245
 9019SOL    HW138690   3.329   1.682  13.562  1.6111 -0.4183  1.9304
 9019SOL    HW238691   3.207   1.716  13.641 -1.1754 -0.5740 -1.4656
 9020SOL     OW38692   0.010   0.609   8.325 -0.5406 -0.7721  0.8523
 9020SOL    HW138693   0.088   0.587   8.376  1.2381  1.5747 -0.8334
 9020SOL    HW238694   0.033   0.600   8.233 -0.3261 -2.2888  1.0456
 9021SOL     OW38695   0.164   4.336   4.738 -0.1277 -0.0075  0.3384
 9021SOL    HW138696   0.096   4.392   4.775 -0.5977  0.5544 -1.3806
 9021SOL    HW238697   0.174   4.379   4.652  2.2159 -0.1182  0.5650
 9022SOL     OW38698   4.275   4.668   9.458 -0.2331  0.4394  0.0468
 9022SOL    HW138699   4.218   4.592   9.453 -1.3664  1.2852  0.1494
 9022SOL    HW238700   4.326   4.659   9.377  0.1649 -1.3542  0.5115
 9023SOL     OW38701   2.494   1.890   4.205  0.3051  0.1480  0.3542
 9023SOL    HW138702   2.442   1.822   4.161  0.5431 -0.2491  0.6963
 9023SOL    HW238703   2.437   1.967   4.200 -1.6568 -1.2238  1.3790
 9024SOL     OW38704   0.528   1.262   4.082  0.4551  0.1853 -0.4093
 9024SOL    HW138705   0.437   1.290   4.097  0.2014 -0.9244  0.1267
 9024SOL    HW238706   0.539   1.291   3.991 -0.0831  0.6040 -0.3449
 9025SOL     OW38707   1.356   3.904   2.075 -0.1220 -0.1835  0.0431
 9025SOL    HW138708   1.333   3.985   2.031  0.3000 -0.6270 -0.9869
 9025SOL    HW238709   1.312   3.918   2.159  0.4213  1.0562  0.1175
 9026SOL     OW38710   4.294   1.191   8.207 -0.4042  0.2010  0.2810
 9026SOL    HW138711   4.237   1.114   8.217 -1.2485  0.6694 -1.0128
 9026SOL    HW238712   4.365   1.167   8.147 -1.2545  1.0820 -1.0495
 9027SOL     OW38713   2.590   3.440  15.548  0.7694  0.0404 -0.7949
 9027SOL    HW138714   2.658   3.440  15.481  1.3847 -0.7090 -0.1824
 9027SOL    HW238715   2.567   3.347  15.545 -0.1566  0.2689 -0.6717
 9028SOL     OW38716   1.862   3.757   3.427  0.1734 -0.2058 -0.5379
 9028SOL    HW138717   1.857   3.744   3.333 -0.2461 -1.3983 -0.3555
 9028SOL    HW238718   1.885   3.849   3.438 -1.2407 -0.1317  1.9432
 9029SOL     OW38719   1.745   4.190   1.357 -0.2675 -0.1854  0.1301
 9029SOL    HW138720   1.819   4.152   1.311  1.8642  4.1698 -0.0266
 9029SOL    HW238721   1.743   4.282   1.328  1.4499  0.1820  1.1734
 9030SOL     OW38722   0.016   1.015   6.263  0.4477  0.7707 -0.4224
 9030SOL    HW138723   0.024   1.054   6.350 -1.4007  1.2969 -0.4899
 9030SOL    HW238724   0.106   0.992   6.242  0.4493  0.8275 -0.4774
 9031SOL     OW38725   3.321   3.649   2.016 -0.5512  0.2005 -0.3418
 9031SOL    HW138726   3.378   3.581   2.054  0.5779  1.6766  0.5913
 9031SOL    HW238727   3.252   3.594   1.977 -1.2277  2.8527 -2.8685
 9032SOL     OW38728   0.769   4.409   3.927  0.2427 -0.6039  0.2090
 9032SOL    HW138729   0.823   4.452   3.993  0.9808  0.9263 -1.3851
 9032SOL    HW238730   0.777   4.476   3.859  0.5169 -1.5131 -0.6548
 9033SOL     OW38731   1.422   0.454   1.921 -0.7055  0.1671  0.1702
 9033SOL    HW138732   1.328   0.437   1.914 -1.3867  2.5633  3.6561
 9033SOL    HW238733   1.438   0.525   1.860  0.9087 -1.3051 -1.1285
 9034SOL     OW38734   3.960   3.907   3.289 -0.2453 -0.4987  0.2903
 9034SOL    HW138735   4.004   3.974   3.237  0.6884  1.0727  3.0949
 9034SOL    HW238736   3.917   3.852   3.223  1.5726 -2.0177  0.3758
 9035SOL     OW38737   0.771   2.569   9.686 -0.1503  0.1320 -0.3292
 9035SOL    HW138738   0.692   2.536   9.643  0.9093  1.9714 -3.7114
 9035SOL    HW238739   0.732   2.616   9.760 -1.3480 -2.8722  0.9583
 9036SOL     OW38740   1.086   1.452   7.683  0.1003  0.7270  0.7772
 9036SOL    HW138741   1.123   1.533   7.647 -0.6611  0.4571 -0.5922
 9036SOL    HW238742   1.001   1.448   7.640  0.4918  1.3681 -0.0540
 9037SOL     OW38743   2.609   4.359   3.300 -0.0430 -0.2524  0.4330
 9037SOL    HW138744   2.669   4.371   3.227 -1.4159  2.2426 -0.2994
 9037SOL    HW238745   2.655   4.306   3.365 -0.6494 -0.0483  1.0295
 9038SOL     OW38746   1.450   3.234   8.462 -0.5630  0.6864 -0.0966
 9038SOL    HW138747   1.374   3.244   8.404 -0.9036  1.2810  0.4625
 9038SOL    HW238748   1.419   3.272   8.543  0.0793  0.0837  0.4360
 9039SOL     OW38749   2.709   2.205   2.595  0.3982  0.2274  0.3585
 9039SOL    HW138750   2.797   2.182   2.564  0.5320  2.8627 -1.2441
 9039SOL    HW238751   2.736   2.246   2.678  0.0689  0.0757  0.5415
 9040SOL     OW38752   0.665   4.381   4.259  0.6210  0.1914 -0.2439
 9040SOL    HW138753   0.738   4.407   4.316 -1.8937 -1.8486  3.8771
 9040SOL    HW238754   0.695   4.305   4.209  1.4760  1.0036 -0.9567
 9041SOL     OW38755   1.636   0.350   3.201  0.1259 -0.0297  0.3605
 9041SOL    HW138756   1.589   0.432   3.184 -0.6498 -0.2716  1.4028
 9041SOL    HW238757   1.579   0.275   3.216  0.3124  0.4304  3.3673
 9042SOL     OW38758   0.840   4.591  11.880  0.6171 -0.4565  0.2137
 9042SOL    HW138759   0.870   4.607  11.969  0.4479 -1.2602  0.4145
 9042SOL    HW238760   0.771   4.527  11.894  0.9378 -0.6749  0.7727
 9043SOL     OW38761   4.538   3.403   7.028  0.3317  0.5019  0.0672
 9043SOL    HW138762   4.629   3.429   7.013  0.8550 -1.3228  0.0801
 9043SOL    HW238763   4.509   3.354   6.951  1.3478  0.4430 -0.2818
 9044SOL     OW38764   3.011   4.464  14.203  0.5785 -0.0328 -0.3520
 9044SOL    HW138765   2.983   4.487  14.115  3.8437 -1.0218 -1.6555
 9044SOL    HW238766   2.988   4.542  14.254  1.3165 -0.1510  0.1727
 9045SOL     OW38767   4.674   1.822  15.168  0.0440  0.2190 -0.3845
 9045SOL    HW138768   0.003   1.888  15.194 -1.9289  1.6463  0.7482
 9045SOL    HW238769   4.699   1.807  15.076  1.0889  0.2047 -0.0964
 9046SOL     OW38770   2.593   1.979  12.451  0.2455  0.2859  0.2568
 9046SOL    HW138771   2.549   1.895  12.434 -0.3299  0.7529 -0.5450
 9046SOL    HW238772   2.550   1.999  12.534  3.8645  3.4970  1.3617
 9047SOL     OW38773   0.404   3.615   3.106  0.0692  0.1792  0.1937
 9047SOL    HW138774   0.448   3.606   3.021 -1.7300 -0.5466 -0.6650
 9047SOL    HW238775   0.315   3.642   3.083 -0.4609 -0.0755  1.9974
 9048SOL     OW38776   1.970   0.640   2.143  0.4541  0.8753 -0.6896
 9048SOL    HW138777   2.055   0.666   2.178 -0.4910  0.0697  2.1537
 9048SOL    HW238778   1.914   0.685   2.205  0.9797 -0.8074  0.9931
 9049SOL     OW38779   0.228   2.495  16.528 -0.5461 -0.0788 -0.2451
 9049SOL    HW138780   0.194   2.418  16.484 -1.7764  0.7862 -0.8196
 9049SOL    HW238781   0.176   2.558  16.476 -1.4209 -0.2032  0.4765
 9050SOL     OW38782   3.854   2.750  11.793  0.4374 -0.3566  0.3428
 9050SOL    HW138783   3.851   2.834  11.839  2.0722 -0.2939  0.3611
 9050SOL    HW238784   3.927   2.759  11.731  0.4237 -3.2968 -0.1128
 9051SOL     OW38785   1.319   2.020   7.138 -0.0895  0.3972 -0.4754
 9051SOL    HW138786   1.330   2.107   7.101  0.3886  0.4719 -0.1516
 9051SOL    HW238787   1.353   2.028   7.227  0.7248  0.0591 -0.7540
 9052SOL     OW38788   1.302   1.989   6.444  0.1158 -0.4471 -0.4767
 9052SOL    HW138789   1.361   1.920   6.472 -0.0774 -0.7822 -0.8961
 9052SOL    HW238790   1.368   2.057   6.435 -0.4139  0.9680  6.4913
 9053SOL     OW38791   3.894   4.526  14.150  0.1489 -0.0745  0.2042
 9053SOL    HW138792   3.957   4.528  14.222 -0.6818  0.0686  0.9429
 9053SOL    HW238793   3.864   4.435  14.149 -1.0501  0.3167 -0.6529
 9054SOL     OW38794   1.725   0.752  12.637 -0.5201 -0.6876  0.3013
 9054SOL    HW138795   1.790   0.823  12.644  0.8911 -2.0086  0.5097
 9054SOL    HW238796   1.672   0.770  12.714  0.1045  1.7879  0.1606
 9055SOL     OW38797   4.637   2.324  16.646 -0.3812 -0.2988  0.1581
 9055SOL    HW138798   4.627   2.418  16.662  3.9635  0.1943 -0.1975
 9055SOL    HW238799   4.725   2.317  16.610 -1.5020 -0.3331 -2.5976
 9056SOL     OW38800   3.473   1.926  14.749 -0.3244  0.1032 -1.2638
 9056SOL    HW138801   3.394   1.946  14.698  1.5768  0.0974 -4.2156
 9056SOL    HW238802   3.427   1.925  14.833 -1.3386 -1.0867 -1.8333
 9057SOL     OW38803   2.831   0.119  11.558  0.5164  0.1303 -0.3267
 9057SOL    HW138804   2.806   0.154  11.472 -0.1000  0.3100 -0.0728
 9057SOL    HW238805   2.925   0.099  11.552  0.5779  1.0246 -2.3385
 9058SOL     OW38806   3.052   0.759   4.503  0.1745  0.7280 -0.2004
 9058SOL    HW138807   3.111   0.764   4.578 -1.8068 -0.9467  1.4667
 9058SOL    HW238808   3.060   0.671   4.466  0.9493 -0.6128  3.1742
 9059SOL     OW38809   2.408   4.304  13.226  0.4781 -0.3024  0.4357
 9059SOL    HW138810   2.463   4.291  13.303  2.3843  1.0061 -0.7334
 9059SOL    HW238811   2.452   4.379  13.187  0.0922  0.2035  0.9801
 9060SOL     OW38812   0.637   0.972   7.503 -0.3160 -0.2826  0.0501
 9060SOL    HW138813   0.549   1.000   7.525 -0.7062 -1.6373  0.2505
 9060SOL    HW238814   0.632   0.969   7.408 -0.2231  2.1204 -0.0112
 9061SOL     OW38815   4.251   3.386   9.395  1.1203 -0.1312  0.0564
 9061SOL    HW138816   4.293   3.311   9.353 -0.4470 -1.5055  0.9620
 9061SOL    HW238817   4.214   3.441   9.326  0.0418 -0.3110  0.4909
 9062SOL     OW38818   1.225   3.387  15.292 -0.0848 -0.0694 -0.6914
 9062SOL    HW138819   1.161   3.352  15.355  0.3688 -2.0256 -1.3201
 9062SOL    HW238820   1.166   3.399  15.218  0.0095  0.0728 -0.7431
 9063SOL     OW38821   0.883   1.785   8.144 -0.0469 -0.7248  0.1831
 9063SOL    HW138822   0.797   1.744   8.153 -1.8743  2.5597 -2.3769
 9063SOL    HW238823   0.939   1.742   8.209  0.8590 -0.6728 -0.5559
 9064SOL     OW38824   3.110   1.818   4.721 -0.6537 -0.0287 -0.1288
 9064SOL    HW138825   3.195   1.775   4.711 -0.1876  1.0133 -0.5896
 9064SOL    HW238826   3.105   1.859   4.635 -0.1922  1.8434  0.7551
 9065SOL     OW38827   3.848   3.987  16.192  0.5085  0.1940  0.8611
 9065SOL    HW138828   3.852   3.906  16.142  0.2271  1.0701 -0.5641
 9065SOL    HW238829   3.841   4.050  16.121  1.6520  0.5852  1.0960
 9066SOL     OW38830   3.085   0.002  15.432  0.2457 -0.5543  0.4151
 9066SOL    HW138831   3.055   0.089  15.407 -1.4717 -0.5717  2.3385
 9066SOL    HW238832   3.031   4.721  15.510 -2.6042 -0.1987 -1.4686
 9067SOL     OW38833   3.132   0.995   8.239 -0.7286 -0.3943  0.5988
 9067SOL    HW138834   3.067   0.938   8.280 -0.7451 -1.4954 -0.9534
 9067SOL    HW238835   3.098   1.081   8.261  0.2564 -0.0756  0.8520
 9068SOL     OW38836   3.780   2.660  16.652  0.4077  0.0924 -0.0674
 9068SOL    HW138837   3.782   2.669  16.557  0.9073  0.3968 -0.0227
 9068SOL    HW238838   3.761   2.748  16.685 -0.3333 -0.2105  0.3210
 9069SOL     OW38839   1.731   0.808   3.175 -0.4386  0.1953  0.0543
 9069SOL    HW138840   1.794   0.739   3.191 -0.6514 -0.0856 -0.3179
 9069SOL    HW238841   1.687   0.782   3.094 -2.0461  1.3698  0.5380
 9070SOL     OW38842   0.008   1.421   4.809 -0.4024  0.0135  0.2083
 9070SOL    HW138843   4.653   1.457   4.805 -0.5193 -0.2176  0.8061
 9070SOL    HW238844   0.015   1.376   4.725 -3.5018  0.4661 -0.2848
 9071SOL     OW38845   2.973   1.800   6.592  0.2934 -0.3886 -0.4842
 9071SOL    HW138846   3.020   1.731   6.639 -2.1837 -1.0955  0.9919
 9071SOL    HW238847   2.923   1.851   6.657 -2.1792 -1.5293 -1.4776
 9072SOL     OW38848   1.704   1.921   6.856 -0.3111  0.2357  0.1053
 9072SOL    HW138849   1.742   2.003   6.888  0.6844  0.3930 -1.5045
 9072SOL    HW238850   1.623   1.947   6.813 -1.9355 -1.0879  2.3615
 9073SOL     OW38851   0.862   0.454   9.273 -0.0710 -0.3764 -1.0801
 9073SOL    HW138852   0.921   0.392   9.230  1.6268  1.6966 -1.7607
 9073SOL    HW238853   0.857   0.405   9.355 -2.3748  0.8623 -0.4921
 9074SOL     OW38854   0.975   3.561   9.649 -0.1287 -0.0548  0.3118
 9074SOL    HW138855   1.070   3.572   9.639 -0.0443 -0.7296  0.4196
 9074SOL    HW238856   0.966   3.536   9.741 -1.8039  1.2938  0.5165
 9075SOL     OW38857   0.048   3.191   4.670 -0.4481 -0.1142 -0.6524
 9075SOL    HW138858   0.011   3.141   4.597 -1.1815 -2.8344  1.5624
 9075SOL    HW238859   4.702   3.232   4.704 -1.3980 -1.5628 -1.1254
 9076SOL     OW38860   2.981   2.413   3.322 -0.2700 -0.1013  0.0221
 9076SOL    HW138861   2.912   2.377   3.266 -1.0600  1.2212  0.1516
 9076SOL    HW238862   2.951   2.504   3.331 -0.5491 -0.3691  1.7125
 9077SOL     OW38863   0.100   1.275   9.324 -0.8800  0.3023  0.7729
 9077SOL    HW138864   0.084   1.212   9.254 -1.9788  3.7073 -2.0437
 9077SOL    HW238865   0.168   1.324   9.278  0.4163 -0.1920  2.1508
 9078SOL     OW38866   0.620   0.106  15.818 -0.5439  0.2815  1.0057
 9078SOL    HW138867   0.630   0.062  15.903 -0.3056 -2.2744 -0.3339
 9078SOL    HW238868   0.591   0.195  15.838 -1.6288  0.4570 -1.3246
 9079SOL     OW38869   2.123   4.559   9.379 -0.3758  0.7501  0.0207
 9079SOL    HW138870   2.030   4.548   9.396 -0.4983  2.5241  0.4371
 9079SOL    HW238871   2.128   4.504   9.300  1.4028  1.7178 -0.5438
 9080SOL     OW38872   3.381   2.181   9.586 -0.3189 -0.4681  0.2915
 9080SOL    HW138873   3.419   2.222   9.508 -1.0432 -0.9525 -0.3115
 9080SOL    HW238874   3.324   2.250   9.622  0.3055  1.0137 -1.5615
 9081SOL     OW38875   2.466   2.765   6.788  0.1625 -0.1618 -0.3472
 9081SOL    HW138876   2.527   2.729   6.853 -1.8408  1.6855  2.5634
 9081SOL    HW238877   2.425   2.829   6.846 -1.0604  0.6029 -2.0689
 9082SOL     OW38878   2.772   1.709   3.519  0.0168 -1.0096  0.1300
 9082SOL    HW138879   2.816   1.647   3.460  1.9222 -1.1966  1.7556
 9082SOL    HW238880   2.778   1.796   3.479 -0.7120 -0.0793  2.0333
 9083SOL     OW38881   1.757   3.522   5.304  0.2507 -0.6649 -0.0435
 9083SOL    HW138882   1.792   3.433   5.311  2.1846  0.1586  0.7180
 9083SOL    HW238883   1.707   3.506   5.224  1.7798  3.1708 -1.7779
 9084SOL     OW38884   3.435   3.197   9.554 -0.0718  0.2186  0.6013
 9084SOL    HW138885   3.517   3.160   9.588  2.6780  2.0267 -4.0466
 9084SOL    HW238886   3.371   3.131   9.581  1.6402 -1.1117  1.4232
 9085SOL     OW38887   4.266   3.799   5.293 -0.6144 -0.8277  0.5497
 9085SOL    HW138888   4.316   3.751   5.227 -1.4309 -1.4507  0.3767
 9085SOL    HW238889   4.248   3.734   5.361 -2.7133  1.6622  2.3758
 9086SOL     OW38890   3.596   4.610  10.111  0.1535  0.7951  0.0541
 9086SOL    HW138891   3.679   4.562  10.120 -1.8906 -2.4101  1.6413
 9086SOL    HW238892   3.596   4.648  10.023  1.1422  0.3733 -0.1361
 9087SOL     OW38893   0.741   3.076   4.800  0.0348  0.1068  0.3573
 9087SOL    HW138894   0.774   2.993   4.834  1.4653  0.2953 -0.5820
 9087SOL    HW238895   0.811   3.140   4.816  0.3372 -0.0751 -0.2560
 9088SOL     OW38896   2.586   2.536   2.715  0.2204  0.0170 -0.2662
 9088SOL    HW138897   2.647   2.513   2.785  1.6972  0.8360 -1.2993
 9088SOL    HW238898   2.532   2.458   2.701 -0.9541  0.9908 -1.1805
 9089SOL     OW38899   2.912   3.935   4.777 -0.2285  0.5718  0.4972
 9089SOL    HW138900   2.940   4.000   4.840 -1.7514  1.2348  0.4893
 9089SOL    HW238901   2.943   3.972   4.694 -2.5486  3.1014  0.7898
 9090SOL     OW38902   4.582   2.845   4.578  0.6646 -0.2864  0.3110
 9090SOL    HW138903   4.608   2.815   4.665  0.7812  1.0317  0.7250
 9090SOL    HW238904   4.651   2.802   4.527 -0.2106  0.0182 -1.1202
 9091SOL     OW38905   0.668   2.372   5.405 -0.1945  0.0813 -0.3223
 9091SOL    HW138906   0.630   2.289   5.433  0.8912 -0.3682 -0.1898
 9091SOL    HW238907   0.662   2.427   5.483  1.0458  1.0874 -0.9332
 9092SOL     OW38908   4.580   1.326   8.569  0.3392 -0.6183  0.0470
 9092SOL    HW138909   4.567   1.269   8.493  2.3241 -0.2753 -0.5418
 9092SOL    HW238910   4.667   1.366   8.564  0.4228 -0.6878  0.8803
 9093SOL     OW38911   0.146   0.066   5.515 -0.4745 -0.2279 -0.6194
 9093SOL    HW138912   0.066   0.093   5.560 -0.0358  0.2955 -0.1412
 9093SOL    HW238913   0.127   4.709   5.494  1.9212 -0.6344 -1.0077
 9094SOL     OW38914   0.698   3.146  13.668 -0.2050  0.3568 -1.0271
 9094SOL    HW138915   0.658   3.149  13.582 -0.2016 -0.6933 -1.0631
 9094SOL    HW238916   0.790   3.162  13.645 -0.0129 -0.3103 -0.7481
 9095SOL     OW38917   1.361   2.177   7.805 -0.0017  0.4439 -0.1832
 9095SOL    HW138918   1.352   2.102   7.746 -2.0015  0.8817 -0.4345
 9095SOL    HW238919   1.268   2.196   7.823 -0.7504  1.0389 -4.6252
 9096SOL     OW38920   3.880   4.543  15.681  0.8261 -0.1642  0.5815
 9096SOL    HW138921   3.954   4.579  15.631  0.4984 -0.1287  0.1286
 9096SOL    HW238922   3.798   4.585  15.656  1.5564  1.8446  1.4820
 9097SOL     OW38923   3.658   1.338   3.200  0.5952 -0.1013 -0.0914
 9097SOL    HW138924   3.737   1.392   3.196  0.7047 -0.1170  1.8480
 9097SOL    HW238925   3.619   1.364   3.284  0.3313  0.7077 -0.4602
 9098SOL     OW38926   2.797   3.498   1.312  0.7045  0.4233 -0.2433
 9098SOL    HW138927   2.797   3.448   1.230  2.8104 -0.3360  0.2210
 9098SOL    HW238928   2.888   3.523   1.326  0.6403  1.0463 -0.9174
 9099SOL     OW38929   0.775   4.568   3.720  0.7910 -0.2426 -0.0644
 9099SOL    HW138930   0.867   4.597   3.722  0.8917 -0.5382 -0.3936
 9099SOL    HW238931   0.718   4.644   3.723 -0.1008 -0.8027 -2.5121
 9100SOL     OW38932   2.857   1.099   6.866 -0.2083  0.2029 -0.2942
 9100SOL    HW138933   2.912   1.163   6.911 -0.6984 -0.4301  1.2009
 9100SOL    HW238934   2.899   1.075   6.783  0.6266  1.0223 -0.1141
 9101SOL     OW38935   1.251   1.545   8.931  0.1397 -0.0896  0.3988
 9101SOL    HW138936   1.199   1.612   8.887 -0.5696 -1.9822 -1.6730
 9101SOL    HW238937   1.291   1.494   8.860  1.8234  0.8044  0.7043
 9102SOL     OW38938   3.638   3.768  13.544  0.1305 -0.1560  0.3433
 9102SOL    HW138939   3.608   3.754  13.633  1.5549 -0.9671  0.7086
 9102SOL    HW238940   3.636   3.677  13.513 -1.0965  0.9146 -2.7333
 9103SOL     OW38941   4.089   2.897  15.007  0.5356  0.0662  0.0392
 9103SOL    HW138942   4.128   2.863  14.926 -0.6731  2.9232 -1.7213
 9103SOL    HW238943   4.154   2.868  15.072 -0.4136 -1.3867  0.3412
 9104SOL     OW38944   3.024   1.301   9.294 -0.4223  0.2927  0.6952
 9104SOL    HW138945   3.115   1.290   9.321 -0.7475  0.7342  1.9418
 9104SOL    HW238946   2.980   1.299   9.378 -2.2003  0.0044 -0.2473
 9105SOL     OW38947   2.360   4.605   2.500 -0.0942 -0.1301  0.3052
 9105SOL    HW138948   2.402   4.649   2.426 -0.1239 -2.9100 -1.3736
 9105SOL    HW238949   2.312   4.666   2.557  0.7697 -0.2911  1.1955
 9106SOL     OW38950   4.270   0.843   7.020  0.0812  0.2124  0.5390
 9106SOL    HW138951   4.278   0.833   6.925 -0.4499 -0.6920  0.5884
 9106SOL    HW238952   4.361   0.868   7.038  0.2468  0.1170 -0.1711
 9107SOL     OW38953   0.224   2.802   5.857  0.3157 -0.5608 -0.0924
 9107SOL    HW138954   0.209   2.893   5.879 -0.8344 -0.6966 -0.3168
 9107SOL    HW238955   0.310   2.793   5.817  0.1442  0.4744 -0.6775
 9108SOL     OW38956   0.717   0.217  12.994  0.1222 -0.0491 -0.8426
 9108SOL    HW138957   0.643   0.278  12.986  0.2679 -0.0135 -1.8410
 9108SOL    HW238958   0.748   0.242  13.082 -1.2919  3.1107 -1.2199
 9109SOL     OW38959   3.774   4.542   5.159 -0.2564 -0.1493  0.0063
 9109SOL    HW138960   3.697   4.488   5.143  0.5825 -1.1230 -0.7499
 9109SOL    HW238961   3.796   4.558   5.067 -1.0117  2.0130  0.1956
 9110SOL     OW38962   2.849   4.216   7.348  0.1984  0.4859 -0.1626
 9110SOL    HW138963   2.832   4.302   7.387  0.7574 -0.3677  1.9459
 9110SOL    HW238964   2.763   4.185   7.320 -1.1415  3.3306  0.8038
 9111SOL     OW38965   0.639   4.103   2.266  0.7866  0.3014  0.1843
 9111SOL    HW138966   0.583   4.068   2.197  1.6232  1.5780 -1.1451
 9111SOL    HW238967   0.668   4.191   2.241  1.5033  0.1717  0.5481
 9112SOL     OW38968   1.539   4.033   5.303  0.8162  0.4286  0.2609
 9112SOL    HW138969   1.467   3.972   5.291 -1.4405  3.2012 -0.3634
 9112SOL    HW238970   1.540   4.038   5.399 -0.1524  2.4808  0.1831
 9113SOL     OW38971   4.479   1.729   5.934 -0.4096  0.0517 -0.7932
 9113SOL    HW138972   4.466   1.801   5.996  0.5266  1.5738 -2.3670
 9113SOL    HW238973   4.447   1.772   5.854 -3.2161  0.0458  0.3279
 9114SOL     OW38974   1.403   3.531   9.810  0.3538  0.6201 -0.4658
 9114SOL    HW138975   1.404   3.436   9.814 -1.8168  0.7023  2.0425
 9114SOL    HW238976   1.497   3.537   9.795  0.2419  3.1508 -0.3151
 9115SOL     OW38977   2.404   0.150   9.591 -0.4224  0.6738  0.5028
 9115SOL    HW138978   2.416   0.239   9.625  0.9282  1.3344 -1.7569
 9115SOL    HW238979   2.369   0.166   9.504  0.4449  1.1079  0.2351
 9116SOL     OW38980   3.115   0.035   4.479 -0.1342  0.0711 -0.3869
 9116SOL    HW138981   3.194   0.087   4.491 -0.3540  0.1849  0.5687
 9116SOL    HW238982   3.110   4.717   4.560  3.1301 -0.4951 -0.5583
 9117SOL     OW38983   1.543   4.169   8.918  0.0072  0.1389 -0.2662
 9117SOL    HW138984   1.587   4.101   8.970  0.9043  0.2849 -0.8269
 9117SOL    HW238985   1.506   4.228   8.984  2.0437  1.3733 -0.2014
 9118SOL     OW38986   4.338   0.534   8.264 -0.0795 -0.2594 -0.0351
 9118SOL    HW138987   4.385   0.490   8.335  0.4401  1.2416  0.5475
 9118SOL    HW238988   4.251   0.510   8.296  0.9094 -2.0679  1.3126
 9119SOL     OW38989   2.322   4.203   7.088 -0.7171  0.4534 -0.1087
 9119SOL    HW138990   2.350   4.118   7.053  2.4167  1.7012 -0.6542
 9119SOL    HW238991   2.348   4.194   7.179 -3.4977 -1.1031  0.5349
 9120SOL     OW38992   1.249   4.402   5.899  0.3848  0.1619 -0.9236
 9120SOL    HW138993   1.325   4.367   5.946 -0.4160 -0.8031 -0.3689
 9120SOL    HW238994   1.180   4.382   5.962  0.0223  1.6196 -0.8519
 9121SOL     OW38995   3.934   4.276  10.226 -0.4593 -0.0088 -0.3137
 9121SOL    HW138996   3.892   4.243  10.305  0.2423 -1.0822 -0.3910
 9121SOL    HW238997   3.927   4.205  10.162  1.9302 -1.1593  0.6980
 9122SOL     OW38998   2.377   1.073  10.124 -0.0740  0.4996  0.6048
 9122SOL    HW138999   2.344   1.141  10.066 -0.9209 -1.5120 -1.2746
 9122SOL    HW239000   2.335   0.998  10.082 -0.4009  1.2576 -0.4003
 9123SOL     OW39001   1.937   2.936   8.089  0.1394  0.2548  1.0382
 9123SOL    HW139002   1.989   3.011   8.059 -0.9737  0.2906 -0.8133
 9123SOL    HW239003   1.978   2.937   8.175 -2.1476  0.7329  2.1270
 9124SOL     OW39004   2.382   2.275   7.259 -0.4827  0.1784 -0.1450
 9124SOL    HW139005   2.327   2.351   7.278 -0.1457  0.5873 -0.8104
 9124SOL    HW239006   2.368   2.275   7.165 -0.0208  0.2694 -0.2137
 9125SOL     OW39007   3.177   4.265   6.690  0.1299  0.1606 -0.1693
 9125SOL    HW139008   3.126   4.344   6.710 -0.2279 -0.4574  1.3706
 9125SOL    HW239009   3.196   4.272   6.597 -0.4308 -0.9408 -0.3762
 9126SOL     OW39010   3.360   4.178   1.983  0.3830  0.0602 -0.3602
 9126SOL    HW139011   3.273   4.168   2.020  0.3018 -0.6196 -0.7383
 9126SOL    HW239012   3.332   4.139   1.901  1.5977 -3.5150  0.9142
 9127SOL     OW39013   0.691   2.779  10.121 -0.0338 -0.3996 -0.1752
 9127SOL    HW139014   0.645   2.837  10.182  0.5014  0.1540 -0.3049
 9127SOL    HW239015   0.720   2.711  10.182 -0.5479 -0.7010 -0.2576
 9128SOL     OW39016   2.192   3.184   1.662 -0.2983 -0.2620 -0.0724
 9128SOL    HW139017   2.102   3.209   1.686 -0.0706  2.0127 -1.5799
 9128SOL    HW239018   2.224   3.261   1.616  1.9204 -1.9111 -1.2952
 9129SOL     OW39019   0.760   1.349  13.588 -0.3014 -0.0353 -0.3998
 9129SOL    HW139020   0.766   1.427  13.642 -1.1752  0.3088 -0.8085
 9129SOL    HW239021   0.699   1.372  13.518  0.2929 -0.6175 -1.1229
 9130SOL     OW39022   1.392   0.526   1.530  0.2706  0.3408  0.3176
 9130SOL    HW139023   1.411   0.432   1.532  3.2864  0.9622  1.5281
 9130SOL    HW239024   1.471   0.559   1.573  0.8277  0.6530 -0.9351
 9131SOL     OW39025   0.714   2.263   6.479  0.2025  0.6157 -0.2555
 9131SOL    HW139026   0.636   2.309   6.510 -0.6855 -0.1361 -1.3727
 9131SOL    HW239027   0.683   2.176   6.456  2.0667 -1.0085  3.5088
 9132SOL     OW39028   0.175   2.937   7.660 -0.0262 -0.0925  0.1498
 9132SOL    HW139029   0.106   2.974   7.715 -0.5918  0.7947 -1.1613
 9132SOL    HW239030   0.219   3.016   7.628 -1.6525  0.4956 -0.6359
 9133SOL     OW39031   3.967   2.811   6.302  0.9453  0.3177 -0.4092
 9133SOL    HW139032   3.978   2.859   6.220 -0.4838  0.8869 -0.2681
 9133SOL    HW239033   3.924   2.728   6.282  0.7593  0.1214  0.7928
 9134SOL     OW39034   2.412   1.294   2.490 -0.0806 -0.1692 -0.1407
 9134SOL    HW139035   2.413   1.199   2.501 -0.5836 -0.3867 -1.8886
 9134SOL    HW239036   2.425   1.304   2.395  0.9484 -0.5303 -0.0363
 9135SOL     OW39037   2.246   3.924   4.068  0.2310  0.1474  0.3259
 9135SOL    HW139038   2.316   3.909   4.132 -0.2114 -1.9075  0.3413
 9135SOL    HW239039   2.300   3.977   4.010 -0.5735 -0.9485 -1.4130
 9136SOL     OW39040   4.589   0.348   7.947 -0.0398 -0.7575  0.4916
 9136SOL    HW139041   4.571   0.366   7.855  1.1158 -0.4030  0.3339
 9136SOL    HW239042   4.565   0.432   7.985  2.0486  0.8593 -1.7643
 9137SOL     OW39043   3.549   3.458   6.094  0.6261 -0.1279 -0.4954
 9137SOL    HW139044   3.485   3.510   6.044  0.5475 -1.0393 -1.3348
 9137SOL    HW239045   3.529   3.370   6.061  1.5422 -0.3170 -0.5378
 9138SOL     OW39046   0.047   2.768   6.823 -0.0050  0.0383  0.5558
 9138SOL    HW139047   0.074   2.848   6.867 -2.1490  0.5956  0.8667
 9138SOL    HW239048   4.715   2.736   6.885 -2.3230  1.6443 -1.0699
 9139SOL     OW39049   0.903   0.962   4.885 -0.4668  0.5190  0.1737
 9139SOL    HW139050   0.961   0.902   4.838  1.0465  2.2030 -0.1338
 9139SOL    HW239051   0.828   0.904   4.895  1.4842 -2.2283 -1.0871
 9140SOL     OW39052   0.365   0.317   3.011  0.3418  0.3886  0.2565
 9140SOL    HW139053   0.296   0.337   2.948  0.6276 -1.2646 -0.5822
 9140SOL    HW239054   0.429   0.380   2.979 -0.6048  1.3583  0.2836
 9141SOL     OW39055   0.988   2.102  17.243  0.3005  0.5179  0.3603
 9141SOL    HW139056   0.919   2.161  17.212  1.0277  2.2907  2.1310
 9141SOL    HW239057   1.073   2.143  17.230  1.2435 -1.8404 -1.0078
 9142SOL     OW39058   2.949   0.048   8.519 -0.4981 -0.6896 -0.3695
 9142SOL    HW139059   3.021   0.011   8.570 -1.9134 -1.1822  1.2737
 9142SOL    HW239060   2.915   0.121   8.571  0.1898  0.2302 -1.2293
 9143SOL     OW39061   1.694   1.595   3.380 -0.0587  0.0295 -0.0286
 9143SOL    HW139062   1.760   1.527   3.393  2.4079  2.6684  1.3337
 9143SOL    HW239063   1.740   1.670   3.416 -0.4530  0.2440  0.0330
 9144SOL     OW39064   3.579   1.693  13.642  0.2099 -0.4939  0.7817
 9144SOL    HW139065   3.603   1.763  13.703 -1.1714  1.2904 -0.7276
 9144SOL    HW239066   3.638   1.718  13.571 -4.0778  1.3244 -2.0776
 9145SOL     OW39067   3.409   3.456   8.331 -0.2416 -0.9356 -0.3742
 9145SOL    HW139068   3.441   3.544   8.350  0.7068 -1.2712 -0.4472
 9145SOL    HW239069   3.451   3.406   8.401 -0.6942 -1.9297 -0.8239
 9146SOL     OW39070   3.177   2.618  12.675 -0.3602  0.2309 -0.4985
 9146SOL    HW139071   3.089   2.599  12.709 -0.0947  0.7100  0.4565
 9146SOL    HW239072   3.229   2.537  12.677 -1.1108 -0.1814  2.3936
 9147SOL     OW39073   0.435   3.311   3.866  0.3002 -0.0491 -0.4237
 9147SOL    HW139074   0.380   3.277   3.795 -1.7156 -0.0743  1.1368
 9147SOL    HW239075   0.389   3.389   3.898  2.9084 -0.2410  3.8035
 9148SOL     OW39076   1.781   2.103   6.413  0.2446  0.0058 -0.6523
 9148SOL    HW139077   1.686   2.116   6.416  0.2359  0.0907 -1.2356
 9148SOL    HW239078   1.806   2.156   6.337 -1.4255  1.1213 -0.4343
 9149SOL     OW39079   4.708   2.235   5.520 -0.4091 -0.3500  0.1861
 9149SOL    HW139080   0.053   2.253   5.470  1.1058 -1.7680  2.0357
 9149SOL    HW239081   4.680   2.158   5.470 -2.2560 -0.6002  1.5695
 9150SOL     OW39082   3.401   2.914   6.381  0.6208 -0.3259  0.5435
 9150SOL    HW139083   3.310   2.894   6.401  0.8966 -1.2014  0.9334
 9150SOL    HW239084   3.412   3.007   6.400 -0.3882 -0.1512  0.2600
 9151SOL     OW39085   1.874   4.399   5.471 -0.0949 -0.2854  0.5903
 9151SOL    HW139086   1.784   4.369   5.485 -0.0910 -0.2500  0.6867
 9151SOL    HW239087   1.915   4.326   5.518  1.0940  1.0826  1.6586
 9152SOL     OW39088   1.723   0.121   8.818 -0.3429  0.0884  0.4258
 9152SOL    HW139089   1.743   0.163   8.902 -1.6504  0.8044  0.3699
 9152SOL    HW239090   1.806   0.095   8.776 -0.0117  0.9217  0.5697
 9153SOL     OW39091   2.862   1.628   8.273  0.3700 -0.6057  0.5405
 9153SOL    HW139092   2.836   1.536   8.280 -1.7981 -0.0105  0.2286
 9153SOL    HW239093   2.816   1.647   8.192 -0.9752 -0.7360  1.2682
 9154SOL     OW39094   3.099   4.692  13.691  0.1816 -0.5109 -0.3619
 9154SOL    HW139095   3.192   4.696  13.710  0.0032 -0.7714  0.5269
 9154SOL    HW239096   3.080   0.050  13.670  0.6379 -0.8758 -2.3828
 9155SOL     OW39097   0.517   1.848  14.734  0.6233 -0.0068  0.0647
 9155SOL    HW139098   0.520   1.764  14.781 -0.9542 -0.1451 -0.0655
 9155SOL    HW239099   0.497   1.812  14.648 -1.0797 -2.8047  1.6045
 9156SOL     OW39100   0.296   0.538   5.238  0.1951  0.3405  0.0661
 9156SOL    HW139101   0.216   0.487   5.247  0.1637  0.3396 -0.2025
 9156SOL    HW239102   0.360   0.476   5.272 -2.5935 -1.2444  2.4573
 9157SOL     OW39103   3.158   2.286   3.512  0.1123 -0.4864 -0.1017
 9157SOL    HW139104   3.147   2.347   3.585 -0.9097  0.8534 -1.3701
 9157SOL    HW239105   3.097   2.317   3.444 -0.4805  0.9000  1.0709
 9158SOL     OW39106   0.347   0.108  17.391 -0.0525 -0.0819  0.1131
 9158SOL    HW139107   0.412   0.178  17.396  0.7633 -0.8756  0.4454
 9158SOL    HW239108   0.273   0.150  17.436  0.9528 -1.0949  2.7057
 9159SOL     OW39109   3.883   4.255   3.528  0.4796 -0.0715 -0.0982
 9159SOL    HW139110   3.819   4.288   3.591  1.4753  0.9862  0.3597
 9159SOL    HW239111   3.842   4.170   3.510  0.7228 -0.2750  0.3025
 9160SOL     OW39112   0.283   0.221   7.241  0.0072 -0.5468 -0.2745
 9160SOL    HW139113   0.245   0.179   7.318 -0.4212  0.9300  0.3392
 9160SOL    HW239114   0.348   0.285   7.271 -1.0085  0.0334  0.6873
 9161SOL     OW39115   2.548   3.286  12.738 -0.0592  0.2464 -0.3585
 9161SOL    HW139116   2.513   3.364  12.695  0.9590  0.8814 -0.0277
 9161SOL    HW239117   2.576   3.232  12.664 -1.6134 -0.7140 -0.2516
 9162SOL     OW39118   4.261   1.713  12.968 -0.5644 -0.1733 -0.0489
 9162SOL    HW139119   4.292   1.627  12.996 -2.0556 -0.3729  1.0494
 9162SOL    HW239120   4.168   1.693  12.960 -0.8681  1.5714 -0.9054
 9163SOL     OW39121   0.536   4.394   9.078 -0.1019 -0.0137  0.5317
 9163SOL    HW139122   0.619   4.353   9.054  1.4840  2.5234  1.5566
 9163SOL    HW239123   0.531   4.384   9.173 -1.4973 -1.5467  0.2979
 9164SOL     OW39124   1.795   0.336  12.929  0.5778 -0.0562 -0.2859
 9164SOL    HW139125   1.862   0.272  12.952 -0.2049 -1.3800 -1.6718
 9164SOL    HW239126   1.721   0.287  12.966 -0.1824  0.9283 -0.5006
 9165SOL     OW39127   3.244   4.233  15.895  0.4862 -0.2365 -0.2803
 9165SOL    HW139128   3.161   4.224  15.849  1.0263 -1.3451 -1.0515
 9165SOL    HW239129   3.269   4.142  15.911  2.2629 -0.0786 -2.1299
 9166SOL     OW39130   2.986   1.254   6.134 -0.3641 -0.5634 -1.2211
 9166SOL    HW139131   2.932   1.207   6.070 -2.8791  1.0194 -0.2945
 9166SOL    HW239132   2.985   1.345   6.102  1.3336 -0.0481  0.2117
 9167SOL     OW39133   3.533   2.329   0.213  0.0673 -0.3227  0.1713
 9167SOL    HW139134   3.628   2.327   0.225  0.2357 -0.6906 -1.2027
 9167SOL    HW239135   3.497   2.257   0.265  0.7145 -0.4275  0.4771
 9168SOL     OW39136   0.131   3.106   1.990  0.3364  0.2406 -0.6205
 9168SOL    HW139137   0.115   3.180   2.049  0.0225 -0.2143 -0.1329
 9168SOL    HW239138   0.141   3.154   1.908 -0.4950 -3.2067 -2.7338
 9169SOL     OW39139   4.406   0.765  17.383 -0.0248 -0.5449  0.5593
 9169SOL    HW139140   4.482   0.713  17.408  0.5217 -0.5067 -1.0124
 9169SOL    HW239141   4.353   0.696  17.344 -0.6264  0.4120 -0.3404
 9170SOL     OW39142   1.845   4.501   7.871  0.0859 -0.4330 -0.4441
 9170SOL    HW139143   1.849   4.462   7.784 -1.0405 -2.5640  0.4705
 9170SOL    HW239144   1.898   4.580   7.859 -1.7357  0.7957 -0.4664
 9171SOL     OW39145   4.013   3.563   1.800  0.2632 -0.8029 -0.1293
 9171SOL    HW139146   4.057   3.504   1.862 -0.1295  0.7934  1.6721
 9171SOL    HW239147   3.933   3.513   1.789  0.6308 -1.1605 -1.1827
 9172SOL     OW39148   4.534   3.085   8.259 -0.4492 -0.8201  0.2882
 9172SOL    HW139149   4.627   3.106   8.255 -0.1133 -2.5666 -1.1000
 9172SOL    HW239150   4.548   2.992   8.246  0.6823 -1.0249  2.9886
 9173SOL     OW39151   4.063   1.628  10.921  0.4864  0.6214 -0.3461
 9173SOL    HW139152   4.106   1.630  10.836  1.3349 -0.1410  0.0715
 9173SOL    HW239153   3.985   1.683  10.908  0.5213  0.5756 -0.7507
 9174SOL     OW39154   3.493   3.082   4.841  0.3577 -0.1719 -0.1994
 9174SOL    HW139155   3.487   3.152   4.777  1.0143 -0.8609 -1.0203
 9174SOL    HW239156   3.573   3.038   4.812  1.5590  0.4556  2.1256
 9175SOL     OW39157   0.990   3.685   2.652  0.1958 -0.4893 -0.2968
 9175SOL    HW139158   1.035   3.606   2.683  1.3401  1.2145  2.4217
 9175SOL    HW239159   1.007   3.753   2.717  0.1808  3.2969 -4.2424
 9176SOL     OW39160   1.394   0.489  12.858 -0.6125 -0.5362 -0.0541
 9176SOL    HW139161   1.340   0.509  12.934 -1.6749 -0.9307 -0.6943
 9176SOL    HW239162   1.326   0.460  12.797  0.8850 -1.9199 -1.0826
 9177SOL     OW39163   1.639   0.226  15.716 -0.0474 -0.5078 -0.5546
 9177SOL    HW139164   1.673   0.147  15.674  1.7051  0.4138 -0.8607
 9177SOL    HW239165   1.546   0.209  15.697 -0.7069 -0.1149  2.3284
 9178SOL     OW39166   3.771   3.773   2.726  0.3754 -0.0138 -0.0383
 9178SOL    HW139167   3.857   3.755   2.689 -0.2680  1.7268 -2.3923
 9178SOL    HW239168   3.735   3.841   2.670 -0.7158  1.0281  1.8964
 9179SOL     OW39169   3.683   2.419  12.217 -0.2645 -0.1252  0.2668
 9179SOL    HW139170   3.700   2.488  12.280  2.3430 -0.1276 -0.4155
 9179SOL    HW239171   3.723   2.345  12.263  0.8957 -0.1177 -0.7012
 9180SOL     OW39172   0.379   3.259   5.052  0.0959  0.4027  0.6105
 9180SOL    HW139173   0.473   3.273   5.042  0.2516  0.4238  2.0627
 9180SOL    HW239174   0.354   3.268   4.960 -1.4465  2.1034  1.2166
 9181SOL     OW39175   2.838   2.673   9.191  0.3275  0.0023 -0.5142
 9181SOL    HW139176   2.928   2.702   9.178  0.3723 -0.0014 -0.2152
 9181SOL    HW239177   2.826   2.677   9.286 -1.9496  1.4393 -0.8423
 9182SOL     OW39178   4.150   0.203   7.838 -0.1356  0.1963  0.5472
 9182SOL    HW139179   4.130   0.239   7.925  1.1009 -1.5704  1.5691
 9182SOL    HW239180   4.151   0.114   7.873 -1.4412  0.2286  0.6794
 9183SOL     OW39181   2.312   2.995  16.389 -0.5758 -0.1448 -0.1989
 9183SOL    HW139182   2.252   2.938  16.437 -1.3336 -1.3478 -2.5663
 9183SOL    HW239183   2.271   2.979  16.304  1.1687 -1.3055 -0.8276
 9184SOL     OW39184   3.324   1.013  15.076 -0.3194  0.3222 -0.4730
 9184SOL    HW139185   3.405   0.983  15.037 -0.1249  0.7595 -0.4007
 9184SOL    HW239186   3.282   0.930  15.101  1.4925 -0.4219  0.0637
 9185SOL     OW39187   4.528   4.669   5.891 -0.8663  0.3581 -0.0783
 9185SOL    HW139188   4.477   4.660   5.971  2.6540 -0.4242  2.0906
 9185SOL    HW239189   4.481   4.613   5.829  1.1417 -0.7944 -0.5788
 9186SOL     OW39190   3.630   3.829   7.548  0.4298  0.5485 -0.0711
 9186SOL    HW139191   3.708   3.848   7.599  0.2224 -1.5213  1.0391
 9186SOL    HW239192   3.574   3.903   7.572 -3.0491 -1.5993 -1.4560
 9187SOL     OW39193   3.896   0.657   9.299  0.5169 -0.3080 -0.7350
 9187SOL    HW139194   3.973   0.710   9.320  0.1781 -0.0967 -0.0291
 9187SOL    HW239195   3.951   0.586   9.266  1.4775  0.3695 -0.6068
 9188SOL     OW39196   3.893   4.029   0.965 -0.4925  0.3222  0.7570
 9188SOL    HW139197   3.866   4.115   0.997 -2.1562  0.0414  0.1425
 9188SOL    HW239198   3.910   3.983   1.047  0.4362  0.2785  0.5406
 9189SOL     OW39199   1.059   2.740  17.610 -0.1749  0.0937 -0.4076
 9189SOL    HW139200   1.112   2.819  17.606  0.6064 -0.4272 -0.3221
 9189SOL    HW239201   1.133   2.683  17.631 -1.7049 -2.3207 -1.6032
 9190SOL     OW39202   4.071   1.390  16.782  0.2000  0.2182 -0.1658
 9190SOL    HW139203   4.082   1.453  16.711  0.2771  1.2431  0.7644
 9190SOL    HW239204   3.982   1.362  16.763 -0.3356  1.4113  0.6575
 9191SOL     OW39205   1.866   0.588  16.825  0.3828  0.4424  0.2460
 9191SOL    HW139206   1.849   0.575  16.918 -0.4937 -1.7916 -0.2040
 9191SOL    HW239207   1.784   0.597  16.775 -0.4558 -0.8819  1.3578
 9192SOL     OW39208   3.248   4.430   5.805 -0.1771 -0.6584 -0.1239
 9192SOL    HW139209   3.310   4.448   5.734 -0.3811  1.6187  0.3037
 9192SOL    HW239210   3.244   4.515   5.848 -1.6705  0.5873 -2.7412
 9193SOL     OW39211   2.350   4.534   5.475 -0.1677 -0.2440  0.4142
 9193SOL    HW139212   2.300   4.539   5.394 -2.7205 -0.3118  1.9806
 9193SOL    HW239213   2.441   4.531   5.446  0.1692 -0.5385  1.5230
 9194SOL     OW39214   0.075   1.759  13.780  0.3650  0.1631  0.5230
 9194SOL    HW139215   0.058   1.841  13.826  0.1350  1.1662 -1.3272
 9194SOL    HW239216   4.721   1.725  13.797  1.2893 -0.8845  3.1626
 9195SOL     OW39217   2.669   4.362  16.705 -0.3756  0.3356  0.0329
 9195SOL    HW139218   2.730   4.398  16.641 -1.5655  1.9382 -0.1794
 9195SOL    HW239219   2.685   4.268  16.697 -2.0260  0.0481  0.0799
 9196SOL     OW39220   1.132   1.268   9.035  0.0187 -0.0273 -0.5279
 9196SOL    HW139221   1.154   1.235   9.122 -1.7864 -2.8114 -1.1236
 9196SOL    HW239222   1.187   1.345   9.046 -0.8198  0.4877  0.0564
 9197SOL     OW39223   2.925   4.419   7.657 -0.0113 -0.1497 -0.1040
 9197SOL    HW139224   2.915   4.351   7.724  4.2875 -0.1368  0.5914
 9197SOL    HW239225   2.833   4.434   7.636 -0.5854 -3.5591  0.0982
 9198SOL     OW39226   4.662   3.008   2.288  0.1778 -0.3646  0.2668
 9198SOL    HW139227   4.581   2.981   2.243  0.0880 -0.7560  0.6643
 9198SOL    HW239228   4.616   3.082   2.326  2.3857  0.7279  0.7743
 9199SOL     OW39229   2.934   3.375   4.240 -0.6037 -0.1561  0.1205
 9199SOL    HW139230   2.952   3.358   4.333 -0.6742  0.1263  0.1884
 9199SOL    HW239231   3.017   3.372   4.194  0.2811  1.1168  1.6199
 9200SOL     OW39232   0.083   2.068  11.761 -0.0109 -0.5650 -0.4367
 9200SOL    HW139233   0.146   2.067  11.833 -0.6368  1.5167  0.1404
 9200SOL    HW239234   0.100   1.978  11.731  0.1713 -1.3404  2.0475
 9201SOL     OW39235   4.014   4.505   0.243 -0.3717 -0.6262 -0.0864
 9201SOL    HW139236   4.077   4.553   0.297  0.5563 -0.7670 -1.0397
 9201SOL    HW239237   4.071   4.477   0.171  0.0079  0.9915 -0.4218
 9202SOL     OW39238   1.703   1.426   7.031  0.0604 -0.1145  0.4919
 9202SOL    HW139239   1.786   1.388   7.058  0.4419  0.6335  0.3500
 9202SOL    HW239240   1.726   1.504   6.980 -1.3771  1.9088  2.9620
 9203SOL     OW39241   3.510   2.586   4.585  0.2573 -0.7603 -0.2371
 9203SOL    HW139242   3.499   2.586   4.490 -0.5052 -1.6967 -0.1474
 9203SOL    HW239243   3.456   2.662   4.606  0.9840  0.0843 -1.4801
 9204SOL     OW39244   4.301   2.224   2.458  0.4411  0.2693  0.3466
 9204SOL    HW139245   4.349   2.300   2.492 -1.4950  1.7000 -0.1295
 9204SOL    HW239246   4.358   2.155   2.491 -0.5115 -0.0180  1.4023
 9205SOL     OW39247   0.719   4.142   9.296 -0.4050 -0.0910  0.2294
 9205SOL    HW139248   0.672   4.086   9.357  1.4230 -1.6945  0.1605
 9205SOL    HW239249   0.662   4.219   9.304  0.7560  0.7768  0.1364
 9206SOL     OW39250   2.691   3.759   5.715 -0.4698  0.8935 -0.1476
 9206SOL    HW139251   2.715   3.852   5.707 -0.2617  1.0128  1.8991
 9206SOL    HW239252   2.604   3.761   5.755  0.5482  2.5094  1.9798
 9207SOL     OW39253   1.816   4.104   3.083 -0.0847  0.5705  1.5234
 9207SOL    HW139254   1.733   4.081   3.124 -1.0929 -3.6866 -2.7709
 9207SOL    HW239255   1.833   4.022   3.035  0.2554  2.2432 -1.2274
 9208SOL     OW39256   3.692   3.574   8.377 -0.7782 -0.0557  0.0372
 9208SOL    HW139257   3.661   3.603   8.291  0.8991  0.4362 -0.3933
 9208SOL    HW239258   3.686   3.654   8.429  0.0010  0.5267 -0.7687
 9209SOL     OW39259   3.509   1.948   7.371 -0.3827  0.5138  0.2279
 9209SOL    HW139260   3.533   2.015   7.307 -0.5998  0.1478 -0.2345
 9209SOL    HW239261   3.455   1.895   7.312  0.3032  0.0350  0.0362
 9210SOL     OW39262   4.591   0.017   6.871 -0.2974 -0.0428 -0.1013
 9210SOL    HW139263   4.673   0.047   6.833 -0.2350  0.7854  0.7037
 9210SOL    HW239264   4.544   0.099   6.884  0.4571  0.3440  0.1384
 9211SOL     OW39265   0.702   1.902   4.468 -0.4900  0.1649 -0.5392
 9211SOL    HW139266   0.704   1.889   4.563 -0.6073  1.3139 -0.3785
 9211SOL    HW239267   0.617   1.864   4.443 -0.6571  1.4996 -2.0037
 9212SOL     OW39268   1.941   2.417   4.954  0.5871  0.3937 -0.7339
 9212SOL    HW139269   1.999   2.361   4.904  1.5703 -0.2547  1.1092
 9212SOL    HW239270   1.948   2.373   5.039 -1.6175  1.1963 -0.1371
 9213SOL     OW39271   1.449   3.183   1.837 -0.3270  0.4566  0.5752
 9213SOL    HW139272   1.418   3.207   1.750  3.6862 -0.3393 -1.0637
 9213SOL    HW239273   1.400   3.102   1.852 -0.1610  0.2933  0.2412
 9214SOL     OW39274   1.151   4.551  17.219 -0.1977 -0.3987  0.4277
 9214SOL    HW139275   1.127   4.588  17.135 -0.5435 -1.5086  0.0351
 9214SOL    HW239276   1.066   4.563  17.261 -1.0373 -0.2692 -1.3102
 9215SOL     OW39277   0.897   1.073   4.119 -0.0859 -0.3332 -0.2844
 9215SOL    HW139278   0.859   1.119   4.194  0.2954  1.8795 -1.4621
 9215SOL    HW239279   0.985   1.111   4.115  0.0116 -0.5661 -0.3768
 9216SOL     OW39280   2.998   4.512   9.472  0.1046  0.3431 -0.0841
 9216SOL    HW139281   2.906   4.485   9.469 -0.4021  1.7949  1.9012
 9216SOL    HW239282   3.011   4.563   9.552  2.8028 -2.1102  1.0592
 9217SOL     OW39283   1.432   3.326  10.092 -0.7394 -0.6821  0.5989
 9217SOL    HW139284   1.521   3.355  10.073 -1.7047  0.1600 -2.7522
 9217SOL    HW239285   1.426   3.255  10.029 -0.5681 -1.9249  1.9904
 9218SOL     OW39286   4.259   1.451   6.272 -0.4845  0.5062  0.0257
 9218SOL    HW139287   4.343   1.461   6.229 -0.0133 -1.3222  0.5541
 9218SOL    HW239288   4.283   1.480   6.360  0.7210  0.5375 -0.3157
 9219SOL     OW39289   1.790   0.145  16.886  0.2982 -0.1012  0.3606
 9219SOL    HW139290   1.853   0.077  16.862  0.0949 -0.1298 -0.0888
 9219SOL    HW239291   1.848   0.190  16.947  1.7500  1.2568 -2.0198
 9220SOL     OW39292   1.650   0.787  16.925 -0.1142 -0.4165 -0.5549
 9220SOL    HW139293   1.707   0.802  16.850  0.8419  0.8587  0.4323
 9220SOL    HW239294   1.599   0.717  16.885 -0.7933 -0.2359 -0.0089
 9221SOL     OW39295   3.295   2.036   8.043  0.1582 -0.2087 -0.0638
 9221SOL    HW139296   3.221   1.989   8.082  1.2851 -1.1562  0.8932
 9221SOL    HW239297   3.340   1.964   8.000 -0.1021  0.0777 -0.8270
 9222SOL     OW39298   3.100   3.123   4.655 -0.1142 -0.4825 -0.6283
 9222SOL    HW139299   3.170   3.079   4.705 -0.8587 -0.7924  0.1488
 9222SOL    HW239300   3.104   3.071   4.575 -1.8725 -1.2220 -0.2426
 9223SOL     OW39301   2.905   3.974   5.535  0.6639 -0.3100  0.3880
 9223SOL    HW139302   2.903   4.008   5.445  0.0138 -1.0507  0.1120
 9223SOL    HW239303   2.864   4.043   5.587 -1.3314  0.9871 -2.8491
 9224SOL     OW39304   1.999   0.486   2.991 -0.1229 -0.4594 -0.4061
 9224SOL    HW139305   1.929   0.548   2.973  1.5848  0.8966 -2.4195
 9224SOL    HW239306   1.947   0.408   2.970 -0.1362  0.0369 -2.1822
 9225SOL     OW39307   0.595   2.141  17.717 -0.0358 -0.2189 -0.2701
 9225SOL    HW139308   0.689   2.125  17.729 -0.3549 -0.6296  1.7875
 9225SOL    HW239309   0.589   2.223   0.030  0.4613 -0.7752  0.7167
 9226SOL     OW39310   1.758   2.938  10.666 -0.0807  0.1149  0.2095
 9226SOL    HW139311   1.694   2.873  10.694 -0.7350  0.7766  0.2391
 9226SOL    HW239312   1.738   3.021  10.708  1.5163  0.1872  0.8223
 9227SOL     OW39313   0.575   0.440   5.070  0.1987  0.0877  0.0141
 9227SOL    HW139314   0.545   0.432   5.160  1.1157 -0.9556  0.2313
 9227SOL    HW239315   0.530   0.364   5.032  0.2671  0.5858 -1.0648
 9228SOL     OW39316   4.001   2.991  17.511 -0.1081  0.0187  0.5203
 9228SOL    HW139317   3.930   2.938  17.475  1.0514 -0.8844 -0.4437
 9228SOL    HW239318   4.069   2.923  17.513  0.5698  0.6476 -0.5361
 9229SOL     OW39319   1.529   1.450   6.695  0.7468 -0.1443  0.1591
 9229SOL    HW139320   1.480   1.514   6.746  0.5096 -0.6632  0.5742
 9229SOL    HW239321   1.602   1.502   6.661  0.6001 -1.5491 -2.3146
 9230SOL     OW39322   4.532   2.859   1.143 -0.3302 -0.3599 -0.4420
 9230SOL    HW139323   4.584   2.904   1.076 -0.3129 -2.7373 -2.0338
 9230SOL    HW239324   4.603   2.815   1.188  0.2187 -2.2488 -3.1641
 9231SOL     OW39325   4.323   1.523   6.548  0.0839 -0.5396  0.4610
 9231SOL    HW139326   4.279   1.603   6.518  1.2868  0.5511  1.5941
 9231SOL    HW239327   4.269   1.490   6.619  1.7891 -1.8363  1.1603
 9232SOL     OW39328   0.659   3.686   6.739 -0.4816  0.0741 -0.0176
 9232SOL    HW139329   0.666   3.763   6.682  0.4416  0.0914  0.1227
 9232SOL    HW239330   0.625   3.627   6.671 -1.4826  1.2763 -0.5596
 9233SOL     OW39331   4.726   2.611   5.158  0.2715  0.1076  0.0608
 9233SOL    HW139332   4.655   2.638   5.099  0.7099 -1.5731 -1.2536
 9233SOL    HW239333   4.713   2.518   5.172  3.3468 -0.8092 -3.1865
 9234SOL     OW39334   2.276   3.498  15.180  0.3588 -0.2929 -0.8123
 9234SOL    HW139335   2.273   3.493  15.275 -1.5353  0.9864 -0.8086
 9234SOL    HW239336   2.227   3.420  15.153  0.6211 -0.7255 -0.0367
 9235SOL     OW39337   3.704   3.456   9.969 -0.3725 -0.2576  0.2374
 9235SOL    HW139338   3.705   3.366   9.936 -1.2028 -1.1802  2.6914
 9235SOL    HW239339   3.786   3.492   9.937  0.4629 -1.6237  0.8577
 9236SOL     OW39340   4.290   0.119   2.180 -0.3279  0.1401 -0.0407
 9236SOL    HW139341   4.243   0.038   2.159  0.1926  0.2397 -1.6323
 9236SOL    HW239342   4.240   0.159   2.250 -3.0020  1.8724 -2.9670
 9237SOL     OW39343   1.166   3.070   1.649 -0.0037  0.0176 -0.0733
 9237SOL    HW139344   1.259   3.070   1.630 -0.0338 -0.3832 -0.2291
 9237SOL    HW239345   1.165   3.048   1.742 -3.1296 -0.1409 -0.1450
 9238SOL     OW39346   3.510   4.664   6.608  0.6423 -0.4080  0.2884
 9238SOL    HW139347   3.576   4.654   6.677  0.1643  0.6740  0.9030
 9238SOL    HW239348   3.561   4.712   6.542  0.9149  0.4848  1.1530
 9239SOL     OW39349   3.170   1.727   7.314  0.2778 -0.0219  0.3913
 9239SOL    HW139350   3.081   1.692   7.317 -0.3646  1.5056 -1.3267
 9239SOL    HW239351   3.149   1.819   7.303 -2.4031 -1.0257 -2.9911
 9240SOL     OW39352   1.983   2.037   4.146 -0.6927 -0.0994 -0.1278
 9240SOL    HW139353   1.893   2.014   4.121 -0.7691  0.0297  0.0312
 9240SOL    HW239354   1.961   2.110   4.204 -0.9164 -0.0725 -0.2459
 9241SOL     OW39355   3.951   4.460   9.911 -0.1463  0.2523 -0.0301
 9241SOL    HW139356   3.994   4.542   9.886  0.3206 -0.3837 -1.3195
 9241SOL    HW239357   4.016   4.399   9.876 -0.6170  0.1505 -0.7246
 9242SOL     OW39358   4.351   2.263  12.323  0.2281  0.0535 -0.6184
 9242SOL    HW139359   4.345   2.250  12.229  0.9103 -2.6617 -0.2910
 9242SOL    HW239360   4.383   2.175  12.345  0.3065 -0.1761 -1.6522
 9243SOL     OW39361   2.549   2.754   8.824 -0.2159 -0.7948 -0.3365
 9243SOL    HW139362   2.550   2.818   8.895  1.1598 -1.7313  0.4681
 9243SOL    HW239363   2.474   2.699   8.846 -0.8030  1.3505  2.9676
 9244SOL     OW39364   0.626   3.315   4.408  0.0967  0.2062  0.4314
 9244SOL    HW139365   0.591   3.384   4.464  0.9339  0.6773  0.3673
 9244SOL    HW239366   0.684   3.372   4.359 -2.6362  1.0207 -1.8559
 9245SOL     OW39367   0.332   3.122   7.481 -0.4643  0.5977 -0.4635
 9245SOL    HW139368   0.397   3.146   7.416 -1.6632  2.8448 -0.8401
 9245SOL    HW239369   0.251   3.158   7.444  0.7061  4.4791  0.7193
 9246SOL     OW39370   1.285   3.685   2.797 -0.3534  0.0615 -0.0631
 9246SOL    HW139371   1.221   3.628   2.756 -0.5195  0.3830 -0.2558
 9246SOL    HW239372   1.342   3.713   2.724  0.4459 -2.4806 -0.4205
 9247SOL     OW39373   4.285   1.215   5.393 -0.2141  0.5712  0.4308
 9247SOL    HW139374   4.233   1.152   5.444  2.3243 -2.4307 -0.7149
 9247SOL    HW239375   4.375   1.198   5.419  0.3911 -1.1321 -2.8422
 9248SOL     OW39376   1.124   4.187   8.767  0.1328 -0.0216  0.0170
 9248SOL    HW139377   1.195   4.153   8.712  1.7354  1.8475  0.9217
 9248SOL    HW239378   1.076   4.104   8.763  0.4383 -0.3008  2.7819
 9249SOL     OW39379   2.323   2.593   0.831  0.5942 -0.4671 -0.3405
 9249SOL    HW139380   2.250   2.630   0.881  0.6142  0.6110 -1.1176
 9249SOL    HW239381   2.393   2.583   0.896 -0.0615 -2.7364  0.0324
 9250SOL     OW39382   1.737   1.222  12.958 -0.0171 -0.1637 -0.0791
 9250SOL    HW139383   1.796   1.281  12.910 -1.0492  0.1060 -1.0128
 9250SOL    HW239384   1.746   1.261  13.045 -1.9552 -1.5982  0.7555
 9251SOL     OW39385   0.348   4.451   8.879  0.1252  0.2085 -0.2804
 9251SOL    HW139386   0.429   4.414   8.844  0.2547  0.1048  0.1374
 9251SOL    HW239387   0.372   4.475   8.968 -0.2658  0.0357 -0.1278
 9252SOL     OW39388   2.535   3.850  13.035 -0.1589  0.8986 -0.0745
 9252SOL    HW139389   2.439   3.853  13.041 -0.1220  0.3984  0.7323
 9252SOL    HW239390   2.547   3.807  13.119  0.8242  1.9517  0.3203
 9253SOL     OW39391   3.199   0.482   8.101 -0.0685  0.0166  0.0505
 9253SOL    HW139392   3.248   0.550   8.147 -1.2340  0.7173  0.2574
 9253SOL    HW239393   3.113   0.502   8.138  0.5371  1.4689  0.6834
 9254SOL     OW39394   2.799   1.660   5.186  0.1552  0.2051 -0.0195
 9254SOL    HW139395   2.795   1.744   5.232 -1.6822 -0.0506  0.3049
 9254SOL    HW239396   2.718   1.658   5.135  0.0188  2.3193  0.1368
 9255SOL     OW39397   0.898   1.327   1.904  0.4093 -0.5771 -0.2279
 9255SOL    HW139398   0.940   1.341   1.989  0.7435 -0.6433 -0.3816
 9255SOL    HW239399   0.900   1.417   1.871 -0.0662 -0.2425  0.6425
 9256SOL     OW39400   3.118   4.535   7.843 -0.1701  0.1173 -0.0439
 9256SOL    HW139401   3.060   4.485   7.786 -0.4994  0.2290  0.1885
 9256SOL    HW239402   3.134   4.480   7.920  1.4454  0.7607  0.0740
 9257SOL     OW39403   2.830   1.160  14.948 -0.2300 -0.2756  0.1192
 9257SOL    HW139404   2.753   1.107  14.925 -1.2522  0.7876  1.1068
 9257SOL    HW239405   2.853   1.141  15.039 -3.1143 -3.3197  0.2103
 9258SOL     OW39406   4.363   4.005   9.023  0.6502 -0.0297 -0.1433
 9258SOL    HW139407   4.291   4.044   9.074 -0.5520 -1.4672 -0.7474
 9258SOL    HW239408   4.440   4.058   9.043  1.2531 -0.5215 -1.2206
 9259SOL     OW39409   4.589   1.336   7.739 -0.0133 -0.3475 -0.0773
 9259SOL    HW139410   4.589   1.326   7.644 -1.6736 -1.5379  0.0442
 9259SOL    HW239411   4.596   1.431   7.746  2.6805 -0.5851  0.3354
 9260SOL     OW39412   1.491   4.243   7.688  0.1647 -0.3345 -0.1243
 9260SOL    HW139413   1.431   4.206   7.752 -0.6084 -0.3650 -0.8611
 9260SOL    HW239414   1.530   4.310   7.744  0.9608 -2.9178  2.3929
 9261SOL     OW39415   1.061   3.874   2.840 -0.1041  0.0668 -0.1997
 9261SOL    HW139416   1.105   3.898   2.759  1.4778  2.3455  1.3308
 9261SOL    HW239417   1.134   3.842   2.894 -0.9402 -1.6389 -0.0664
 9262SOL     OW39418   1.489   3.764  16.127  0.2941  0.3255 -0.0894
 9262SOL    HW139419   1.464   3.761  16.219 -1.6585  1.0847 -0.5960
 9262SOL    HW239420   1.579   3.734  16.139 -0.4374  0.2734  5.1412
 9263SOL     OW39421   1.319   1.512   4.735 -0.1577 -0.6368 -1.0185
 9263SOL    HW139422   1.373   1.591   4.740 -3.2253  1.3874  0.3487
 9263SOL    HW239423   1.335   1.478   4.647 -0.3859  0.6382 -1.5502
 9264SOL     OW39424   0.046   1.649   6.101 -0.1280 -0.6009 -0.0366
 9264SOL    HW139425   0.061   1.719   6.037  0.3497  0.5412  1.3204
 9264SOL    HW239426   0.003   1.583   6.046 -0.0638  0.3192 -1.1838
 9265SOL     OW39427   1.145   3.049   8.196  0.3876 -0.1285 -0.6157
 9265SOL    HW139428   1.124   3.092   8.113 -1.1402  0.8127  0.2549
 9265SOL    HW239429   1.158   3.127   8.250  0.6864 -0.9584  0.5275
 9266SOL     OW39430   2.198   0.837   2.528 -0.4277  0.7807  0.7872
 9266SOL    HW139431   2.233   0.830   2.439  1.1148  2.6364  1.2492
 9266SOL    HW239432   2.279   0.809   2.570 -0.6592 -3.4694 -1.4892
 9267SOL     OW39433   2.297   4.363   8.884  0.4634 -0.1219  0.1241
 9267SOL    HW139434   2.250   4.430   8.834  0.6718 -0.3153 -0.3346
 9267SOL    HW239435   2.315   4.420   8.959 -0.5928  2.9009 -1.8738
 9268SOL     OW39436   3.209   2.111   5.980 -0.4732  0.1070 -0.5097
 9268SOL    HW139437   3.296   2.080   5.954 -0.7487 -1.0702 -0.0473
 9268SOL    HW239438   3.160   2.042   5.935 -0.7292 -0.7286  1.0267
 9269SOL     OW39439   4.096   4.212   7.410  0.4734  0.2783  0.4156
 9269SOL    HW139440   4.155   4.138   7.395  0.8477  0.3326  1.6317
 9269SOL    HW239441   4.150   4.256   7.476  1.7245 -1.0784  0.2953
 9270SOL     OW39442   2.495   0.726   8.940  0.2569 -0.2706 -0.3690
 9270SOL    HW139443   2.525   0.718   9.030  0.1384 -0.2368 -0.3259
 9270SOL    HW239444   2.554   0.672   8.887  2.5667  0.4715  1.4511
 9271SOL     OW39445   3.088   1.829   6.312  0.0048 -0.0304  0.2453
 9271SOL    HW139446   3.053   1.915   6.336  0.6776  0.5266 -0.7726
 9271SOL    HW239447   3.015   1.776   6.345  0.2564 -1.0110 -0.7831
 9272SOL     OW39448   1.629   0.494  12.175  0.2002  0.0371  0.2590
 9272SOL    HW139449   1.643   0.521  12.266 -1.4300  3.3645 -0.4737
 9272SOL    HW239450   1.556   0.432  12.185 -0.3891  0.4589 -1.4600
 9273SOL     OW39451   1.017   4.460   2.111  0.1254  0.0449 -0.0218
 9273SOL    HW139452   1.050   4.447   2.200  0.5109 -1.4507 -0.4015
 9273SOL    HW239453   0.984   4.550   2.115 -0.8245 -0.3047  0.0566
 9274SOL     OW39454   3.716   1.999   9.675  0.4913 -0.2525  0.1524
 9274SOL    HW139455   3.795   1.997   9.622  1.2019  1.9301  1.0890
 9274SOL    HW239456   3.726   1.911   9.710  0.1491 -0.3076  0.1079
 9275SOL     OW39457   1.121   2.225   7.882 -0.7458  0.0299 -0.3110
 9275SOL    HW139458   1.082   2.309   7.859 -0.8405 -0.6066 -2.5212
 9275SOL    HW239459   1.160   2.232   7.969  0.3371 -0.6367 -0.7412
 9276SOL     OW39460   3.377   3.973   2.940 -0.1511  0.1638 -0.2081
 9276SOL    HW139461   3.352   4.062   2.915  2.5573  0.8305 -0.4738
 9276SOL    HW239462   3.387   3.923   2.858  0.4841 -1.7804  1.0543
 9277SOL     OW39463   4.502   3.986   7.635 -0.5143 -0.3022  0.7027
 9277SOL    HW139464   4.546   4.055   7.685  0.4097  0.3767 -1.0632
 9277SOL    HW239465   4.577   3.939   7.599  1.4954  2.8020  0.8725
 9278SOL     OW39466   0.223   2.022  12.731 -0.2398  0.2136  0.2214
 9278SOL    HW139467   0.140   1.985  12.702  0.5223  0.0122 -1.6953
 9278SOL    HW239468   0.250   1.952  12.790  1.5371  0.4683 -0.2698
 9279SOL     OW39469   0.069   2.118   5.077  0.2481 -0.1409 -0.7280
 9279SOL    HW139470   0.146   2.068   5.105  0.0839  0.6822  1.2008
 9279SOL    HW239471   0.019   2.048   5.036 -2.7932  0.5222  1.8408
 9280SOL     OW39472   1.493   1.669   5.250  0.1395  0.3804  0.0139
 9280SOL    HW139473   1.530   1.730   5.314  1.0270 -0.6356  0.4812
 9280SOL    HW239474   1.571   1.642   5.202 -0.3153  1.7136 -1.4578
 9281SOL     OW39475   2.661   3.795   6.019  0.2393 -0.7209  0.3835
 9281SOL    HW139476   2.750   3.820   6.042  0.1415 -0.7109  0.7562
 9281SOL    HW239477   2.653   3.707   6.056  1.3017 -0.7233  0.6021
 9282SOL     OW39478   4.309   4.571   9.887  0.6001  0.0611 -1.0715
 9282SOL    HW139479   4.243   4.638   9.870  0.2764  0.3304  1.2110
 9282SOL    HW239480   4.265   4.488   9.869  0.0952  0.1059 -0.0323
 9283SOL     OW39481   0.095   4.496   2.359 -0.6109 -0.5924  0.6621
 9283SOL    HW139482   0.160   4.526   2.422 -0.9766  0.4113  0.5531
 9283SOL    HW239483   0.007   4.519   2.390 -0.8309  0.6726 -0.9258
 9284SOL     OW39484   2.909   3.888   6.034 -0.3243  0.6311 -0.4008
 9284SOL    HW139485   2.946   3.843   5.959  2.1233  1.6297  0.1965
 9284SOL    HW239486   2.981   3.939   6.072 -0.0854  0.3030 -0.4254
 9285SOL     OW39487   3.453   0.365  10.126 -0.5635  0.3287 -0.3529
 9285SOL    HW139488   3.377   0.338  10.177 -0.5968 -0.9831 -1.1079
 9285SOL    HW239489   3.477   0.444  10.175 -0.5230  1.0840 -1.5849
 9286SOL     OW39490   3.086   2.059  12.670  0.2008  0.2394 -0.0097
 9286SOL    HW139491   3.128   1.973  12.672 -0.4260 -0.0472  1.0460
 9286SOL    HW239492   3.039   2.059  12.753 -0.2763  0.5652 -0.2800
 9287SOL     OW39493   1.025   4.229   0.133 -0.0880 -0.2865  0.1512
 9287SOL    HW139494   1.021   4.258   0.042  1.2225 -2.5420 -0.6391
 9287SOL    HW239495   1.055   4.139   0.120  0.0879 -0.2397  0.2232
 9288SOL     OW39496   4.636   3.887  11.693 -0.3424  0.0707  0.1270
 9288SOL    HW139497   4.678   3.863  11.610  2.2541  1.9731  0.8806
 9288SOL    HW239498   4.700   3.950  11.727 -2.3997  2.2614 -0.0680
 9289SOL     OW39499   4.471   1.008   9.556 -0.2906 -0.0192 -0.4884
 9289SOL    HW139500   4.484   0.942   9.625  0.5839  1.7534  1.0407
 9289SOL    HW239501   4.550   0.997   9.503  0.5473  0.6610  0.6092
 9290SOL     OW39502   1.259   4.684   1.972 -0.2735 -0.4613  0.1526
 9290SOL    HW139503   1.353   4.675   1.958 -0.4184 -0.7531 -0.6381
 9290SOL    HW239504   1.222   4.665   1.886  2.4701  0.9931 -1.3647
 9291SOL     OW39505   1.713   2.357   4.098  0.1505  0.7175  0.1888
 9291SOL    HW139506   1.676   2.327   4.181 -0.6621 -0.7009 -0.6725
 9291SOL    HW239507   1.709   2.451   4.111 -1.3338  0.5668  0.7979
 9292SOL     OW39508   2.251   3.728   1.522 -0.1022  0.2685 -0.6759
 9292SOL    HW139509   2.166   3.687   1.538 -0.0602  0.3778 -0.1736
 9292SOL    HW239510   2.236   3.749   1.429  0.2295  0.0799 -0.7689
 9293SOL     OW39511   3.775   0.377   2.662  0.0399  0.6207 -0.7851
 9293SOL    HW139512   3.813   0.290   2.649  0.6210  0.6165  0.9758
 9293SOL    HW239513   3.832   0.427   2.604  0.2862 -0.8408 -1.8163
 9294SOL     OW39514   4.709   2.791  15.547  0.1227  0.0142 -0.2614
 9294SOL    HW139515   4.660   2.822  15.623 -1.5240  1.1955 -1.8040
 9294SOL    HW239516   0.016   2.872  15.517  0.4815 -0.8643 -2.1548
 9295SOL     OW39517   2.300   4.340   0.436  0.3189  0.2672 -0.3564
 9295SOL    HW139518   2.208   4.321   0.453  0.4248  0.2001  0.1438
 9295SOL    HW239519   2.287   4.366   0.345 -0.2618 -0.5933 -0.5193
 9296SOL     OW39520   0.704   3.609   3.928 -0.2929 -0.1750 -1.2149
 9296SOL    HW139521   0.682   3.701   3.945 -1.6638 -0.2108 -2.7519
 9296SOL    HW239522   0.649   3.590   3.852 -3.9946  0.1115  1.4261
 9297SOL     OW39523   3.012   3.236  10.140 -0.1427  0.1202  0.0930
 9297SOL    HW139524   3.075   3.266  10.205  0.0293 -0.5926  0.2568
 9297SOL    HW239525   2.960   3.315  10.125  1.0669  0.5589 -1.8613
 9298SOL     OW39526   4.562   1.826  14.746 -0.4658 -0.0660 -0.0723
 9298SOL    HW139527   4.488   1.796  14.799  1.3165 -3.6707  0.3878
 9298SOL    HW239528   4.637   1.823  14.806 -0.9336 -0.2305  0.4979
 9299SOL     OW39529   2.680   1.985  12.182 -0.4033 -0.0488  0.5174
 9299SOL    HW139530   2.594   2.004  12.144 -0.7109  1.0845  1.7640
 9299SOL    HW239531   2.660   1.972  12.274 -0.6124 -0.8872  0.3525
 9300SOL     OW39532   0.339   3.134   3.624 -0.3337  0.5290  0.3939
 9300SOL    HW139533   0.307   3.074   3.691 -4.2589  1.2097 -0.8796
 9300SOL    HW239534   0.258   3.160   3.581 -1.2025 -2.1523  0.4478
 9301SOL     OW39535   2.449   0.746   6.929 -0.1508 -0.1256 -0.2344
 9301SOL    HW139536   2.517   0.796   6.885  0.0098 -0.6359 -0.5699
 9301SOL    HW239537   2.487   0.658   6.923 -0.8169 -0.4742  0.7800
 9302SOL     OW39538   1.890   1.415   9.314 -0.3599  0.0400  0.1884
 9302SOL    HW139539   1.848   1.441   9.232  0.7080 -1.6887 -0.8984
 9302SOL    HW239540   1.848   1.469   9.381 -1.3296 -0.7058  0.1692
 9303SOL     OW39541   1.660   3.905   2.004 -0.4804  0.1962 -0.5044
 9303SOL    HW139542   1.660   3.809   2.002  1.1700  0.1896 -0.2122
 9303SOL    HW239543   1.565   3.918   1.998 -0.5209  0.1404  0.0617
 9304SOL     OW39544   2.977   0.361  10.436 -0.1116 -0.1548 -0.5194
 9304SOL    HW139545   2.971   0.375  10.531 -1.2043  1.8501 -0.8909
 9304SOL    HW239546   3.052   0.417  10.417 -0.7384  0.6775 -0.4952
 9305SOL     OW39547   2.201   0.356   1.838 -0.3539 -0.1823  0.0926
 9305SOL    HW139548   2.158   0.439   1.857 -1.2307 -0.6524  0.1706
 9305SOL    HW239549   2.271   0.362   1.904 -0.6948 -1.8779  0.6106
 9306SOL     OW39550   2.483   0.285   4.499 -0.1889 -0.0877 -0.1859
 9306SOL    HW139551   2.403   0.332   4.475 -0.5741 -0.2319  0.8111
 9306SOL    HW239552   2.547   0.356   4.498  0.2475 -0.4931 -1.8234
 9307SOL     OW39553   1.769   2.136   8.845 -0.6754  0.4048 -0.1012
 9307SOL    HW139554   1.851   2.114   8.889 -0.0553  3.8221  0.5250
 9307SOL    HW239555   1.743   2.051   8.810  1.7977 -0.1285 -0.6785
 9308SOL     OW39556   1.300   4.328   5.415  0.2697 -0.1694  1.1566
 9308SOL    HW139557   1.290   4.234   5.426 -1.1933  0.1230  2.3283
 9308SOL    HW239558   1.291   4.335   5.319  0.6767  1.1703  1.2086
 9309SOL     OW39559   3.655   3.575  15.852 -0.2769  0.6048  0.4216
 9309SOL    HW139560   3.693   3.643  15.908  2.3769  0.6029 -1.4212
 9309SOL    HW239561   3.703   3.582  15.770  3.3621  0.8637  2.5738
 9310SOL     OW39562   0.540   3.011   5.036 -0.2588 -0.2192  0.6917
 9310SOL    HW139563   0.551   3.078   4.969 -1.4077  1.6350  2.3377
 9310SOL    HW239564   0.524   2.930   4.988 -2.7066 -0.0574  1.2262
 9311SOL     OW39565   0.655   0.422   0.919  0.3439 -0.2788 -0.2364
 9311SOL    HW139566   0.613   0.349   0.965  0.9482 -1.3448 -1.3833
 9311SOL    HW239567   0.741   0.410   0.958  0.0129 -0.7002  0.3596
 9312SOL     OW39568   2.900   0.594   7.438 -0.5482  0.4287  0.6218
 9312SOL    HW139569   2.936   0.508   7.459 -2.1783 -0.8725 -1.9199
 9312SOL    HW239570   2.959   0.630   7.372 -0.9110 -1.0021 -0.4903
 9313SOL     OW39571   0.806   4.692   7.985  0.1045  0.5272 -0.4489
 9313SOL    HW139572   0.778   4.652   8.067  0.8472  1.6578  0.3416
 9313SOL    HW239573   0.726   0.003   7.957 -0.9132  0.3832  2.2149
 9314SOL     OW39574   0.601   2.780   7.494 -0.0275 -0.2012 -0.9090
 9314SOL    HW139575   0.600   2.703   7.437  0.0533 -0.2921 -0.7916
 9314SOL    HW239576   0.577   2.836   7.421 -2.4834  0.5418  0.4583
 9315SOL     OW39577   0.550   4.102   5.919 -0.2823  0.5756 -0.2832
 9315SOL    HW139578   0.463   4.139   5.899 -0.1646  0.9875 -0.0218
 9315SOL    HW239579   0.599   4.111   5.837  0.0719 -0.4012 -0.1746
 9316SOL     OW39580   3.450   2.076   4.869  0.2504  0.0707 -0.1965
 9316SOL    HW139581   3.373   2.131   4.884  0.6235  0.6782 -0.5027
 9316SOL    HW239582   3.508   2.089   4.944  0.2031 -1.4758  0.1003
 9317SOL     OW39583   1.936   3.027   4.913  0.0553 -0.3889  0.2259
 9317SOL    HW139584   1.847   3.059   4.929 -0.0896 -0.3094 -0.7707
 9317SOL    HW239585   1.976   3.074   4.986  0.4193 -0.1368 -0.1413
 9318SOL     OW39586   3.293   2.945   2.601  0.0419  0.3925  0.4391
 9318SOL    HW139587   3.221   2.912   2.654  1.1455  1.4032  2.5564
 9318SOL    HW239588   3.263   3.034   2.588 -1.7422 -0.2218  0.3824
 9319SOL     OW39589   3.160   4.164  12.506 -0.2545  0.3758  0.2819
 9319SOL    HW139590   3.134   4.255  12.489 -0.0364  0.3498 -0.1787
 9319SOL    HW239591   3.070   4.132  12.502  0.2029 -0.6909 -1.3908
 9320SOL     OW39592   3.486   3.725   5.452 -0.1272  0.3816  0.6184
 9320SOL    HW139593   3.523   3.665   5.517  1.4089 -1.6275 -2.1267
 9320SOL    HW239594   3.561   3.740   5.395  1.6031 -0.9621  2.5909
 9321SOL     OW39595   3.633   3.828   2.276 -0.0823  0.3123  0.3261
 9321SOL    HW139596   3.632   3.911   2.227 -1.4976  0.7855  1.1548
 9321SOL    HW239597   3.715   3.835   2.324 -0.5721 -1.2330  1.3670
 9322SOL     OW39598   2.994   3.748  10.519 -0.5861  0.0160  0.1975
 9322SOL    HW139599   3.061   3.733  10.453 -1.5909  0.0074 -0.8180
 9322SOL    HW239600   2.941   3.812  10.471 -0.6408 -0.0041  0.2322
 9323SOL     OW39601   2.934   0.672   3.583  0.1252 -0.6773  0.2006
 9323SOL    HW139602   2.957   0.581   3.564  2.9384  0.1112 -0.2000
 9323SOL    HW239603   2.995   0.715   3.523  0.0708 -2.4136 -1.0879
 9324SOL     OW39604   1.963   2.407   5.681 -0.0610  0.0164  0.1415
 9324SOL    HW139605   2.041   2.452   5.714 -0.2608 -0.2646  1.0181
 9324SOL    HW239606   1.957   2.435   5.590 -0.1845  1.7424  0.6857
 9325SOL     OW39607   0.467   3.199  10.346 -0.3649  0.2362 -0.1490
 9325SOL    HW139608   0.442   3.230  10.433 -0.6342 -2.4008  0.7103
 9325SOL    HW239609   0.490   3.276  10.294  1.0001 -0.2194 -0.2218
 9326SOL     OW39610   0.195   2.109   3.423 -0.4130  0.0579 -0.7949
 9326SOL    HW139611   0.254   2.041   3.391 -1.5459 -1.5714  0.5824
 9326SOL    HW239612   0.259   2.177   3.443  0.3645 -1.0733  0.5330
 9327SOL     OW39613   0.732   1.295   4.315  0.5323  0.2840 -0.8402
 9327SOL    HW139614   0.658   1.271   4.371 -0.1752 -0.0320 -1.9317
 9327SOL    HW239615   0.675   1.322   4.244 -0.5371 -1.4100 -0.6272
 9328SOL     OW39616   2.828   0.285   8.659  0.0896 -1.1423  0.0381
 9328SOL    HW139617   2.762   0.289   8.728  1.8742 -0.4541  1.6990
 9328SOL    HW239618   2.908   0.294   8.710  0.1774 -1.1282 -0.1014
 9329SOL     OW39619   3.143   2.986   4.449 -0.0396 -0.6466  0.2705
 9329SOL    HW139620   3.152   2.894   4.424 -1.0914 -0.5828 -0.3437
 9329SOL    HW239621   3.128   3.032   4.366 -2.0581  2.4650  2.3374
 9330SOL     OW39622   1.058   4.397  17.652  0.0110  0.1748 -0.2382
 9330SOL    HW139623   1.055   4.483  17.694  2.9387  0.6109 -0.9052
 9330SOL    HW239624   0.993   4.392  17.582 -1.3797 -0.4389  1.0724
 9331SOL     OW39625   4.063   4.535   2.510 -0.5341  0.1481 -0.0388
 9331SOL    HW139626   4.128   4.530   2.580 -1.0091  1.1313  0.4719
 9331SOL    HW239627   4.008   4.605   2.546 -2.2838 -1.5775  0.7055
 9332SOL     OW39628   3.723   3.245   4.773  0.0873  0.2288 -0.1797
 9332SOL    HW139629   3.666   3.311   4.732  0.1800  0.5003  0.1276
 9332SOL    HW239630   3.737   3.180   4.704  1.3944  1.0245 -0.6736
 9333SOL     OW39631   3.838   3.481   7.840  0.1914  0.6303  0.1907
 9333SOL    HW139632   3.856   3.434   7.922  1.2043 -1.5482 -1.2755
 9333SOL    HW239633   3.757   3.438   7.812  0.1027 -0.5355  2.2628
 9334SOL     OW39634   2.612   3.628   1.174  0.1554 -0.1184  0.2120
 9334SOL    HW139635   2.666   3.673   1.110  0.1628 -1.1677 -0.5294
 9334SOL    HW239636   2.671   3.602   1.245  1.0322  1.3117  0.0093
 9335SOL     OW39637   0.897   0.480  13.070 -0.7094 -0.2966  0.2305
 9335SOL    HW139638   0.906   0.508  13.161 -0.5184 -1.0360  0.4472
 9335SOL    HW239639   0.846   0.549  13.028  0.8563 -0.9373 -2.7561
 9336SOL     OW39640   1.391   3.156   3.203  0.4144 -0.4452  0.0860
 9336SOL    HW139641   1.475   3.117   3.176  0.3598 -0.0765 -0.6170
 9336SOL    HW239642   1.343   3.076   3.223  0.7995 -0.9966 -1.1695
 9337SOL     OW39643   2.601   3.496   5.310 -0.0974 -0.1541 -0.0947
 9337SOL    HW139644   2.627   3.508   5.219 -0.1721  0.1792 -0.0721
 9337SOL    HW239645   2.644   3.574   5.345 -1.6827  0.9632 -0.6435
 9338SOL     OW39646   1.678   1.536   1.209 -0.2850  0.0537  0.4951
 9338SOL    HW139647   1.602   1.485   1.238 -0.3385 -0.7382 -1.0281
 9338SOL    HW239648   1.686   1.517   1.115 -2.0159 -1.2259  0.6046
 9339SOL     OW39649   0.240   3.627   2.250 -0.1847 -0.3829 -0.2655
 9339SOL    HW139650   0.285   3.665   2.175  0.2385 -0.1684  0.0978
 9339SOL    HW239651   0.245   3.701   2.310  0.9897 -1.1480  0.5894
 9340SOL     OW39652   2.861   4.235   6.516 -0.3353 -0.6700 -0.4609
 9340SOL    HW139653   2.905   4.252   6.433 -1.0373 -0.0725 -0.7080
 9340SOL    HW239654   2.773   4.271   6.505 -0.2492 -0.8960 -1.9114
 9341SOL     OW39655   0.171   2.851   0.137 -0.0463 -0.1439  0.4814
 9341SOL    HW139656   0.145   2.837   0.046  0.8808 -0.5674  0.2758
 9341SOL    HW239657   0.104   2.905   0.177 -0.8236  1.2855 -2.7255
 9342SOL     OW39658   4.606   2.409   6.518 -0.4900 -0.1721 -0.3033
 9342SOL    HW139659   4.551   2.336   6.546 -1.8586  0.3247 -1.7472
 9342SOL    HW239660   4.565   2.478   6.569  1.2109  0.8670 -0.3374
 9343SOL     OW39661   2.777   1.082   2.616 -0.1647  0.2801 -0.3201
 9343SOL    HW139662   2.830   1.020   2.566 -0.9001  0.6000 -1.4741
 9343SOL    HW239663   2.743   1.033   2.690  0.0913  2.1128  1.0189
 9344SOL     OW39664   0.891   2.958   5.156 -0.7169 -0.0020  0.4071
 9344SOL    HW139665   0.923   2.894   5.220  0.2382 -1.0155 -1.0752
 9344SOL    HW239666   0.844   3.017   5.215 -0.3097 -0.7094  1.4449
 9345SOL     OW39667   2.178   1.995  17.342  0.3586 -0.0925  0.1158
 9345SOL    HW139668   2.174   1.927  17.275 -1.5011  0.0140  0.1041
 9345SOL    HW239669   2.269   2.023  17.339 -0.2246  1.6285 -1.7713
 9346SOL     OW39670   2.313   2.835   7.437  0.2099 -0.3469  0.4486
 9346SOL    HW139671   2.293   2.821   7.529  0.7811  0.1889  0.6564
 9346SOL    HW239672   2.222   2.828   7.409  0.7962 -0.1599 -1.5162
 9347SOL     OW39673   3.276   1.536   5.082  0.3173 -0.4213  0.1162
 9347SOL    HW139674   3.181   1.532   5.069  0.5585 -1.3022 -1.3757
 9347SOL    HW239675   3.299   1.497   5.167 -2.8095  0.2035  1.2366
 9348SOL     OW39676   0.765   0.108   2.083  0.4738 -0.1289  0.0100
 9348SOL    HW139677   0.675   0.078   2.093  0.3430  0.0014 -0.7063
 9348SOL    HW239678   0.754   0.154   1.999 -0.7273 -2.5220 -1.1461
 9349SOL     OW39679   2.767   3.379   7.110 -0.5846 -0.3336  0.2069
 9349SOL    HW139680   2.849   3.426   7.105 -2.0284  2.1352 -0.2851
 9349SOL    HW239681   2.790   3.297   7.154  0.8665  0.7065  1.3620
 9350SOL     OW39682   2.862   1.727   2.604 -0.1127 -0.6334 -0.6785
 9350SOL    HW139683   2.870   1.752   2.696 -0.0566 -1.0526 -0.5680
 9350SOL    HW239684   2.768   1.733   2.586 -0.7217 -2.0806  1.9799
 9351SOL     OW39685   3.033   1.219  17.396  0.0003 -0.0311  0.1660
 9351SOL    HW139686   2.962   1.226  17.459 -0.8199  0.9069 -0.8561
 9351SOL    HW239687   3.027   1.299  17.344  1.7932 -0.6015 -0.9168
 9352SOL     OW39688   0.148   3.181   9.363  0.4605  0.0480  0.2833
 9352SOL    HW139689   0.230   3.229   9.348  0.4582 -0.1434 -0.3299
 9352SOL    HW239690   0.100   3.260   9.388  2.4213  1.2012  0.4489
 9353SOL     OW39691   3.357   2.728   3.067  0.7226  0.3135  0.4462
 9353SOL    HW139692   3.331   2.660   3.006  1.0834  0.4693  0.1164
 9353SOL    HW239693   3.419   2.692   3.131 -1.7355 -1.4930  1.8063
 9354SOL     OW39694   0.225   0.155   5.808 -0.2037 -0.3720 -0.2885
 9354SOL    HW139695   0.217   0.083   5.745  0.2875 -1.8094  1.2942
 9354SOL    HW239696   0.197   0.230   5.756 -1.5598 -0.1741  0.7412
 9355SOL     OW39697   0.168   4.255   8.968 -0.4647  0.7868  0.2503
 9355SOL    HW139698   0.230   4.221   9.032 -0.0015  0.0666 -0.5875
 9355SOL    HW239699   0.221   4.316   8.916 -0.8057  0.6704 -0.2420
 9356SOL     OW39700   4.306   3.889   9.335  0.6435 -0.0588  0.2989
 9356SOL    HW139701   4.253   3.941   9.276 -0.2631 -0.7325  0.5248
 9356SOL    HW239702   4.250   3.817   9.364  2.0431 -0.6344  1.5821
 9357SOL     OW39703   3.157   3.403   1.959  0.8305 -0.4110  0.3283
 9357SOL    HW139704   3.129   3.364   2.042 -1.6591 -0.4606 -0.5298
 9357SOL    HW239705   3.233   3.345   1.947  1.2032  0.2337 -0.5061
 9358SOL     OW39706   0.214   4.620   1.895  0.1065  0.0667  0.1262
 9358SOL    HW139707   0.243   4.613   1.804  1.2167 -1.6019  0.6068
 9358SOL    HW239708   0.221   4.713   1.914 -0.4278  0.2447 -0.5732
 9359SOL     OW39709   3.097   1.732  17.263  0.1107 -0.4380  0.0125
 9359SOL    HW139710   3.022   1.747  17.320  1.6111  1.7794  1.4199
 9359SOL    HW239711   3.139   1.660  17.310  0.1128  0.0657  0.7732
 9360SOL     OW39712   0.922   4.122   5.095 -0.1930 -0.1173  0.0807
 9360SOL    HW139713   0.850   4.083   5.144 -0.7609  0.3993 -0.3331
 9360SOL    HW239714   0.869   4.152   5.021  0.2711  0.6825  0.0683
 9361SOL     OW39715   1.074   4.205   3.635 -0.4874 -0.1996  0.0738
 9361SOL    HW139716   1.018   4.135   3.669 -0.3806 -0.5049 -0.3748
 9361SOL    HW239717   1.089   4.168   3.548  0.9936  4.2809 -1.5908
 9362SOL     OW39718   3.865   4.698  14.477  0.1940  0.2860 -0.1912
 9362SOL    HW139719   3.921   4.656  14.412 -1.4557 -0.9374 -0.8324
 9362SOL    HW239720   3.805   4.624  14.491  1.5639 -0.6372  0.8514
 9363SOL     OW39721   3.838   4.126   5.708 -0.4144  0.2168  0.5085
 9363SOL    HW139722   3.893   4.204   5.704  0.6471 -0.4873  1.4762
 9363SOL    HW239723   3.843   4.093   5.618 -2.0201  1.6600 -0.1177
 9364SOL     OW39724   0.401   1.469   0.175  0.2606 -0.1316 -0.3177
 9364SOL    HW139725   0.408   1.452   0.269  1.4697 -2.3705 -0.8155
 9364SOL    HW239726   0.491   1.449   0.151  0.2056  1.8041 -2.1784
 9365SOL     OW39727   0.834   2.237   8.206 -0.4583 -0.0561  0.4402
 9365SOL    HW139728   0.809   2.326   8.230  3.2448  1.3767 -1.0857
 9365SOL    HW239729   0.906   2.213   8.264 -1.0121 -1.8822  0.3754
 9366SOL     OW39730   4.284   3.347   4.879 -0.5170  0.5685 -0.2243
 9366SOL    HW139731   4.336   3.350   4.960 -1.5256 -1.7337  0.5167
 9366SOL    HW239732   4.211   3.292   4.908 -0.6392  2.0894  2.3919
 9367SOL     OW39733   2.410   4.299   2.517  0.2994 -0.0507 -0.2564
 9367SOL    HW139734   2.320   4.271   2.501  0.2733  0.7826 -1.5820
 9367SOL    HW239735   2.388   4.392   2.523  0.8372 -0.0099  1.3200
 9368SOL     OW39736   3.579   0.175   3.089 -0.0806 -0.4873  0.3176
 9368SOL    HW139737   3.613   0.086   3.082 -0.1418 -0.4490 -0.4805
 9368SOL    HW239738   3.489   0.165   3.056 -0.2068  0.1830  0.4579
 9369SOL     OW39739   2.145   2.686   8.299  0.4337  0.1606  0.3446
 9369SOL    HW139740   2.077   2.653   8.358 -1.7426  1.2076 -1.5915
 9369SOL    HW239741   2.162   2.609   8.245  2.6349 -0.7218  2.2943
 9370SOL     OW39742   0.346   0.456  12.160  0.2172 -0.4258  0.2502
 9370SOL    HW139743   0.314   0.503  12.237  0.3275  0.3930 -0.2017
 9370SOL    HW239744   0.304   0.370  12.163  0.2016 -0.4838 -1.9812
 9371SOL     OW39745   2.411   4.352   6.853 -0.3154 -0.3164 -0.7233
 9371SOL    HW139746   2.374   4.309   6.930  2.9457 -1.3839  0.2819
 9371SOL    HW239747   2.506   4.339   6.859 -0.2382  0.4124 -0.4134
 9372SOL     OW39748   0.053   2.955   4.835  0.2071  0.0158 -0.7203
 9372SOL    HW139749   4.694   2.974   4.844  0.3922  0.6243 -0.1433
 9372SOL    HW239750   0.089   3.019   4.773 -2.3256  0.9933 -1.2018
 9373SOL     OW39751   0.620   1.312   5.195  0.1196  0.0039  0.4073
 9373SOL    HW139752   0.537   1.354   5.219 -0.5716 -0.4338 -1.2764
 9373SOL    HW239753   0.682   1.375   5.233  0.7032 -1.0492  1.2178
 9374SOL     OW39754   3.474   4.420  15.323 -0.2883 -0.1520  0.3655
 9374SOL    HW139755   3.420   4.482  15.372  0.1169 -0.4229  1.1408
 9374SOL    HW239756   3.559   4.457  15.347 -0.0824 -0.5513  0.2405
 9375SOL     OW39757   4.216   0.303   5.720  0.3707  0.2401  0.0176
 9375SOL    HW139758   4.193   0.383   5.672 -0.8965 -0.2902 -0.2544
 9375SOL    HW239759   4.128   0.268   5.713  0.2509  0.4314  0.5469
 9376SOL     OW39760   1.496   2.550   9.184  0.3273  0.3476 -0.0976
 9376SOL    HW139761   1.434   2.595   9.127  0.1807  0.1024 -0.1326
 9376SOL    HW239762   1.504   2.461   9.148  1.2037  0.2593  0.3172
 9377SOL     OW39763   0.348   0.633   5.696  0.5204 -0.1694 -0.0782
 9377SOL    HW139764   0.426   0.613   5.644 -0.9416 -1.4749 -1.7620
 9377SOL    HW239765   0.302   0.690   5.634  0.4998 -1.9388 -1.6724
 9378SOL     OW39766   3.836   4.267  15.490  0.2336 -0.5022  0.8013
 9378SOL    HW139767   3.761   4.213  15.516  0.5799 -1.6466 -0.5586
 9378SOL    HW239768   3.811   4.342  15.545 -1.5283 -0.6019  0.1410
 9379SOL     OW39769   3.714   2.459   3.502  0.3379  0.8247 -0.1269
 9379SOL    HW139770   3.797   2.418   3.479  0.3686 -0.1410  1.6573
 9379SOL    HW239771   3.661   2.447   3.423  0.2611  2.1252 -0.2654
 9380SOL     OW39772   1.719   1.704   6.132  0.1696  0.4686  0.3451
 9380SOL    HW139773   1.787   1.768   6.156  0.0126  0.9655 -0.5410
 9380SOL    HW239774   1.662   1.694   6.209 -0.6592 -0.6849 -0.4323
 9381SOL     OW39775   3.547   1.527   6.178  0.0087  0.5907 -0.2379
 9381SOL    HW139776   3.463   1.527   6.130 -0.3192 -2.2057  0.3604
 9381SOL    HW239777   3.557   1.622   6.188 -1.3555  0.7687 -0.5379
 9382SOL     OW39778   4.386   1.637  11.560 -0.2617 -0.7242 -0.1193
 9382SOL    HW139779   4.335   1.604  11.634 -1.2744 -0.9455 -0.9067
 9382SOL    HW239780   4.438   1.708  11.597 -0.7564  0.1446 -1.0794
 9383SOL     OW39781   1.404   1.217   3.254  0.0472 -0.1904  0.0801
 9383SOL    HW139782   1.417   1.310   3.238 -0.3799 -0.2072 -0.3699
 9383SOL    HW239783   1.442   1.204   3.341 -1.4154  1.9687  1.0282
 9384SOL     OW39784   3.726   4.260   9.076  0.2164  1.2420  0.6066
 9384SOL    HW139785   3.665   4.293   9.143  1.0733  1.7718  1.1203
 9384SOL    HW239786   3.667   4.212   9.018  0.2875  0.4274  1.2061
 9385SOL     OW39787   2.155   2.441  12.219  0.7334 -0.3254  0.4522
 9385SOL    HW139788   2.194   2.514  12.171 -0.4719 -0.9968 -1.5528
 9385SOL    HW239789   2.234   2.401  12.253  1.4389  0.1703 -0.6138
 9386SOL     OW39790   0.783   1.735   3.087 -0.0275  0.2780 -0.6878
 9386SOL    HW139791   0.856   1.692   3.132 -0.9713 -0.4882  0.0916
 9386SOL    HW239792   0.828   1.769   3.009 -3.5754  2.0499 -1.9336
 9387SOL     OW39793   2.771   4.301   9.815 -0.0274  0.4984  0.6695
 9387SOL    HW139794   2.729   4.234   9.761  1.2352  0.0179  0.2679
 9387SOL    HW239795   2.853   4.318   9.769  0.2836 -0.7408  0.7581
 9388SOL     OW39796   3.705   4.497   9.750 -0.1592 -0.2604 -0.2482
 9388SOL    HW139797   3.706   4.421   9.692  0.2656 -1.3936  1.2478
 9388SOL    HW239798   3.770   4.478   9.818 -1.4648 -0.8009  0.8470
 9389SOL     OW39799   2.682   2.290   5.026  0.4396  0.6329  0.1022
 9389SOL    HW139800   2.764   2.314   5.068  0.5651  0.5878 -0.1200
 9389SOL    HW239801   2.690   2.362   4.964  0.3483 -0.2177 -0.8986
 9390SOL     OW39802   1.786   1.337  15.622  0.2842 -0.1288 -0.1016
 9390SOL    HW139803   1.780   1.411  15.562  0.4421  0.0281  0.0753
 9390SOL    HW239804   1.852   1.283  15.579  0.7273 -0.0307  0.4610
 9391SOL     OW39805   3.274   3.356   7.831 -0.0243 -0.1711 -0.1031
 9391SOL    HW139806   3.202   3.384   7.888 -0.8040 -1.6307 -0.3804
 9391SOL    HW239807   3.244   3.270   7.803  3.1201 -1.5436  0.8299
 9392SOL     OW39808   1.718   1.589  11.154  0.3435  0.0637  0.1639
 9392SOL    HW139809   1.681   1.648  11.220 -1.2578  2.1968 -2.6422
 9392SOL    HW239810   1.808   1.620  11.150  0.2223  0.3253 -0.5404
 9393SOL     OW39811   1.490   1.501   3.215 -0.2973  0.1254 -0.1386
 9393SOL    HW139812   1.555   1.499   3.285  0.5708 -0.5238 -0.9479
 9393SOL    HW239813   1.538   1.553   3.150  1.8257  0.1064  1.3944
 9394SOL     OW39814   2.134   1.424   3.134  0.1085  0.5193  0.2174
 9394SOL    HW139815   2.176   1.339   3.146  1.3173  0.8892 -1.2950
 9394SOL    HW239816   2.199   1.471   3.081 -2.1488  1.6622 -1.5291
 9395SOL     OW39817   2.426   2.429  13.188  1.0304  0.1797 -0.4238
 9395SOL    HW139818   2.394   2.403  13.274  1.9511  0.3149 -0.0422
 9395SOL    HW239819   2.389   2.359  13.134  1.4732  1.1716 -2.0317
 9396SOL     OW39820   2.813   3.294   5.238  0.1870 -0.2465 -0.4638
 9396SOL    HW139821   2.789   3.384   5.214  1.8268  0.8740  2.1335
 9396SOL    HW239822   2.843   3.253   5.157 -2.0370  1.1939 -2.0131
 9397SOL     OW39823   1.998   3.916   8.060  0.1330  0.6209 -0.2890
 9397SOL    HW139824   1.984   3.837   8.112 -3.4957  2.2991  1.2874
 9397SOL    HW239825   2.081   3.943   8.099  0.0945 -1.5816  1.3174
 9398SOL     OW39826   2.255   4.662   3.585 -0.3728  0.0515 -0.2766
 9398SOL    HW139827   2.292   4.634   3.669  0.8655  2.0831 -0.1394
 9398SOL    HW239828   2.246   4.580   3.538  0.5608 -0.2637  0.0869
 9399SOL     OW39829   1.256   2.608   1.625  0.0132 -0.1508  0.6178
 9399SOL    HW139830   1.164   2.587   1.614  0.2045 -1.5938  1.8194
 9399SOL    HW239831   1.299   2.595   1.541 -0.6758  0.4177  0.1817
 9400SOL     OW39832   3.395   3.892   2.661  0.1694 -0.8063 -0.3445
 9400SOL    HW139833   3.425   3.804   2.681  2.5306  0.0713  0.0232
 9400SOL    HW239834   3.383   3.877   2.567 -1.8255  0.9645 -0.3679
 9401SOL     OW39835   2.742   3.921   0.562  0.0663  0.4855 -0.0112
 9401SOL    HW139836   2.830   3.930   0.525  0.6509 -0.4741  1.1195
 9401SOL    HW239837   2.695   3.894   0.483  0.0942 -0.3437  0.2558
 9402SOL     OW39838   3.732   4.519  15.340  0.5042 -0.2818  0.1606
 9402SOL    HW139839   3.703   4.578  15.410  1.2182 -1.9700  1.9002
 9402SOL    HW239840   3.749   4.572  15.263  2.1130  0.7078  1.2014
 9403SOL     OW39841   0.238   1.267  10.295 -0.0845  0.0170 -0.4885
 9403SOL    HW139842   0.327   1.248  10.324 -0.5078  0.8553  1.3551
 9403SOL    HW239843   0.223   1.200  10.229 -0.1778 -0.1384 -0.3094
 9404SOL     OW39844   0.861   3.988   6.448  0.0519  0.4071 -0.3365
 9404SOL    HW139845   0.910   3.946   6.377  1.3125  0.7357  0.3358
 9404SOL    HW239846   0.867   4.075   6.409  1.2057 -0.1132 -1.3374
 9405SOL     OW39847   2.994   4.255  12.060 -0.3427  0.3388 -0.2214
 9405SOL    HW139848   3.025   4.323  12.001 -2.6362  0.7100 -1.0295
 9405SOL    HW239849   2.970   4.183  12.002  0.0692  1.2630 -1.5292
 9406SOL     OW39850   0.946   1.832   3.969 -0.2915  0.1786  0.1412
 9406SOL    HW139851   1.010   1.851   3.901 -0.0202 -1.7502 -0.1373
 9406SOL    HW239852   0.876   1.868   3.915 -0.1913 -0.0733 -0.1564
 9407SOL     OW39853   1.486   3.673   8.526  0.7948  0.3216  0.3543
 9407SOL    HW139854   1.492   3.647   8.434  1.6597  1.6688  0.0284
 9407SOL    HW239855   1.552   3.742   8.530 -0.2808  1.4306 -0.8018
 9408SOL     OW39856   1.056   3.216   2.253  0.1896  0.6722  0.1877
 9408SOL    HW139857   1.093   3.152   2.193  1.8641 -1.7120  3.7207
 9408SOL    HW239858   1.046   3.295   2.199 -1.2468  0.7812  0.6116
 9409SOL     OW39859   1.336   3.429   4.236  0.1258 -0.3413  1.1926
 9409SOL    HW139860   1.306   3.357   4.291 -1.5338 -0.1042  0.5980
 9409SOL    HW239861   1.253   3.446   4.191  1.4432 -0.2133 -1.2103
 9410SOL     OW39862   1.475   0.917   5.540 -0.5079 -0.2923 -0.2088
 9410SOL    HW139863   1.434   0.943   5.457  0.8115  0.6647 -0.5685
 9410SOL    HW239864   1.528   0.997   5.546  1.5502 -1.5486 -1.5469
 9411SOL     OW39865   3.244   4.391   7.153  0.4170  0.6798 -0.0968
 9411SOL    HW139866   3.157   4.356   7.135  1.2362 -0.4396 -1.8443
 9411SOL    HW239867   3.262   4.351   7.239 -1.0094  1.5178  0.6010
 9412SOL     OW39868   3.987   4.710  11.471 -0.1404  0.1728  0.1513
 9412SOL    HW139869   3.985   4.626  11.424  0.7673  1.1332 -1.5827
 9412SOL    HW239870   3.934   4.691  11.548 -0.9613 -0.3046 -0.5347
 9413SOL     OW39871   3.182   1.167  10.442  0.3815 -0.1934  0.3617
 9413SOL    HW139872   3.118   1.100  10.463 -1.0631  0.8753 -0.5553
 9413SOL    HW239873   3.160   1.225  10.515  0.7489  0.2311  0.1352
 9414SOL     OW39874   0.575   1.659   7.344 -0.0993 -0.3688  0.4067
 9414SOL    HW139875   0.587   1.699   7.430  3.3113  0.2347 -0.3683
 9414SOL    HW239876   0.484   1.632   7.355  0.1006 -1.0458  0.4429
 9415SOL     OW39877   4.196   2.538  10.757  0.5687 -0.0165 -0.8554
 9415SOL    HW139878   4.255   2.611  10.780 -0.5472  1.2481 -1.9942
 9415SOL    HW239879   4.108   2.558  10.789  0.9061  1.4492 -0.8258
 9416SOL     OW39880   1.107   3.233   8.398 -0.6434 -0.2708  0.0678
 9416SOL    HW139881   1.077   3.154   8.443 -2.7584 -0.5151 -1.7859
 9416SOL    HW239882   1.023   3.277   8.390 -1.0583 -0.9230  0.7872
 9417SOL     OW39883   2.782   2.439   3.584 -0.1588  0.0113 -0.0797
 9417SOL    HW139884   2.697   2.475   3.560  0.5089  2.0071  0.4713
 9417SOL    HW239885   2.837   2.485   3.520  1.5956 -0.8213  0.8246
 9418SOL     OW39886   0.807   1.555   7.263 -0.3771  0.4545  0.1073
 9418SOL    HW139887   0.849   1.607   7.332  1.3466  0.7951 -1.2176
 9418SOL    HW239888   0.720   1.594   7.271 -0.8594 -0.4451 -0.7433
 9419SOL     OW39889   4.513   0.929   7.049 -0.0075  0.1442 -0.0223
 9419SOL    HW139890   4.558   0.848   7.075  0.7631  0.1890 -1.2231
 9419SOL    HW239891   4.512   0.975   7.133 -0.1426 -2.1741  1.2643
 9420SOL     OW39892   2.658   4.461  14.474 -0.1548  0.5034  0.3568
 9420SOL    HW139893   2.646   4.542  14.424 -1.0010 -0.5116 -1.0845
 9420SOL    HW239894   2.640   4.391  14.411  0.5961  0.1733  0.5139
 9421SOL     OW39895   1.752   1.087   2.769  0.0498  1.0797 -0.2973
 9421SOL    HW139896   1.774   1.146   2.697 -0.0984  0.9301 -0.4646
 9421SOL    HW239897   1.840   1.056   2.789  0.0914  1.6671  0.4254
 9422SOL     OW39898   2.699   2.872   4.664 -0.1854  0.5401 -0.2178
 9422SOL    HW139899   2.750   2.825   4.599 -1.3825  0.6437 -1.2294
 9422SOL    HW239900   2.690   2.957   4.621  1.0742  0.0659 -1.4137
 9423SOL     OW39901   0.858   3.221   6.050  0.4476  0.1910 -0.0027
 9423SOL    HW139902   0.798   3.180   6.112 -0.1014 -0.4977 -0.9838
 9423SOL    HW239903   0.863   3.312   6.076  0.4612  0.9030 -2.4781
 9424SOL     OW39904   4.725   2.221   4.365 -0.3924  0.1837 -0.0469
 9424SOL    HW139905   0.074   2.227   4.318  0.9306  0.8129  2.4192
 9424SOL    HW239906   0.016   2.268   4.444  0.4339 -1.1354  0.4663
 9425SOL     OW39907   3.541   3.720  14.739  0.0263 -0.5150 -0.9317
 9425SOL    HW139908   3.620   3.741  14.787 -0.7691 -1.7418  0.8972
 9425SOL    HW239909   3.484   3.796  14.753 -0.6555 -1.7386  2.8817
 9426SOL     OW39910   0.008   3.195   6.817  0.2027 -0.0541 -0.3255
 9426SOL    HW139911   0.059   3.218   6.739  0.8373 -0.4392 -0.0156
 9426SOL    HW239912   4.653   3.216   6.787 -0.6204  2.0928  3.6287
 9427SOL     OW39913   2.882   2.763   2.949  0.2526 -0.7126 -0.4619
 9427SOL    HW139914   2.806   2.810   2.914 -0.7964 -3.3985 -1.7849
 9427SOL    HW239915   2.849   2.675   2.966  1.1498 -1.3739 -2.1032
 9428SOL     OW39916   3.762   0.524  10.241  0.3584  0.1224 -0.0776
 9428SOL    HW139917   3.809   0.467  10.179  0.7544 -0.7552  1.0240
 9428SOL    HW239918   3.768   0.472  10.322 -0.9195  0.7061  0.3801
 9429SOL     OW39919   2.257   0.757   6.414 -0.3938 -0.0138 -0.0134
 9429SOL    HW139920   2.271   0.851   6.428  2.7227 -0.3347 -0.8933
 9429SOL    HW239921   2.322   0.727   6.478 -1.4611 -1.8012  0.2065
 9430SOL     OW39922   2.937   2.657   8.476  0.2774  0.0688  0.3434
 9430SOL    HW139923   2.861   2.714   8.475 -0.0342 -0.3170  2.2944
 9430SOL    HW239924   2.894   2.575   8.499 -2.0147  1.0760 -0.3198
 9431SOL     OW39925   3.397   4.515   4.566 -0.1588 -0.1042  0.4146
 9431SOL    HW139926   3.401   4.519   4.662 -1.1595  1.3501  0.3903
 9431SOL    HW239927   3.384   4.609   4.552 -0.1088 -0.1304  0.1925
 9432SOL     OW39928   4.613   4.256   4.423 -0.6488  0.3191 -0.2065
 9432SOL    HW139929   4.519   4.249   4.410 -0.5262 -1.7334 -0.0222
 9432SOL    HW239930   4.625   4.331   4.481  1.1893 -0.1504  0.0499
 9433SOL     OW39931   3.852   4.543   7.079 -0.1697  0.1702  0.6816
 9433SOL    HW139932   3.883   4.459   7.115 -1.3410 -0.0143  1.2662
 9433SOL    HW239933   3.806   4.506   7.003 -0.9628  1.4964  0.5277
 9434SOL     OW39934   0.540   3.762  14.481  1.0310 -0.5853 -0.1351
 9434SOL    HW139935   0.513   3.673  14.460  0.3078 -0.0849 -1.3911
 9434SOL    HW239936   0.508   3.772  14.570 -2.0401  0.2596 -1.3402
 9435SOL     OW39937   0.057   2.735   3.461  0.6398  0.4556  0.5059
 9435SOL    HW139938   4.730   2.716   3.532 -0.9792 -0.9935 -1.2645
 9435SOL    HW239939   0.067   2.648   3.423  2.1720  0.5964  0.5958
 9436SOL     OW39940   4.193   3.128   7.051 -0.3388 -0.6064 -0.7114
 9436SOL    HW139941   4.150   3.074   7.117  0.1805 -1.1896 -0.8491
 9436SOL    HW239942   4.283   3.122   7.081 -0.4536 -1.1856 -0.4874
 9437SOL     OW39943   2.380   1.313  17.645  0.1953 -0.0690  0.0986
 9437SOL    HW139944   2.289   1.293  17.663 -0.4682  1.9437 -1.0125
 9437SOL    HW239945   2.427   1.234  17.673 -1.7482 -0.9545  0.8717
 9438SOL     OW39946   4.171   0.117   7.198 -0.1309  0.4091  0.3409
 9438SOL    HW139947   4.226   0.186   7.161  2.3234 -0.9688  1.4510
 9438SOL    HW239948   4.087   0.125   7.152 -0.1361  0.0056  0.2852
 9439SOL     OW39949   2.463   3.270  14.589  0.4854  0.4115 -0.0911
 9439SOL    HW139950   2.428   3.287  14.502 -0.3981  0.6696  0.3148
 9439SOL    HW239951   2.519   3.347  14.598  0.0661  0.4385  2.4023
 9440SOL     OW39952   0.889   2.436   9.488 -0.4575  0.1050 -0.3507
 9440SOL    HW139953   0.877   2.496   9.562  0.1980 -2.1401  1.6017
 9440SOL    HW239954   0.820   2.373   9.509  1.4737 -1.7093  0.4722
 9441SOL     OW39955   0.206   2.132   6.645  0.2799  0.0040 -0.3819
 9441SOL    HW139956   0.195   2.121   6.550 -1.5645  0.1540 -0.1759
 9441SOL    HW239957   0.169   2.219   6.658 -1.4350 -0.6275 -1.0228
 9442SOL     OW39958   4.653   0.195   3.672  0.5050 -0.2596  0.1425
 9442SOL    HW139959   4.583   0.193   3.737  0.9081 -0.5977  0.5690
 9442SOL    HW239960   4.723   0.164   3.729  0.9290 -1.1580 -0.8623
 9443SOL     OW39961   1.348   2.019  12.555  0.7975  0.0016 -0.0774
 9443SOL    HW139962   1.385   2.091  12.505  2.6681 -2.2461 -1.9466
 9443SOL    HW239963   1.356   2.063  12.639  3.8374  1.5111 -1.1508
 9444SOL     OW39964   2.854   1.847  13.289  0.1208 -0.5425  0.4726
 9444SOL    HW139965   2.879   1.783  13.222  0.9774  1.6307 -1.3154
 9444SOL    HW239966   2.873   1.794  13.366 -1.1280  1.5680  2.2484
 9445SOL     OW39967   1.566   1.011   9.345  0.0435 -0.1449  0.0898
 9445SOL    HW139968   1.650   1.054   9.333 -1.6882  2.3193 -3.0295
 9445SOL    HW239969   1.510   1.064   9.289  2.6893  3.0140  0.4411
 9446SOL     OW39970   2.850   4.078   4.342  0.6764  0.3628  0.2243
 9446SOL    HW139971   2.757   4.095   4.331  0.5613 -1.2288 -1.2008
 9446SOL    HW239972   2.898   4.161   4.343 -0.0336  0.7778 -0.9701
 9447SOL     OW39973   4.550   2.050   8.668 -0.1804 -0.0170 -0.5554
 9447SOL    HW139974   4.458   2.051   8.642 -0.7411  2.3872  1.6463
 9447SOL    HW239975   4.563   1.966   8.713  0.2388  0.3283 -0.0463
 9448SOL     OW39976   4.570   3.461   5.407  0.1331  0.3607 -0.2029
 9448SOL    HW139977   4.519   3.445   5.328  1.3858  1.4306 -1.2240
 9448SOL    HW239978   4.563   3.381   5.458  2.8327  0.3107  0.0897
 9449SOL     OW39979   1.532   4.219   2.966 -0.0024 -0.5784  0.6111
 9449SOL    HW139980   1.499   4.251   2.882  0.6809 -1.2579  0.0755
 9449SOL    HW239981   1.567   4.134   2.939  0.9449 -0.4402  1.3838
 9450SOL     OW39982   4.293   2.265   6.298 -0.3073  0.2514  0.2313
 9450SOL    HW139983   4.343   2.252   6.218 -2.5171  1.9997 -1.4411
 9450SOL    HW239984   4.300   2.359   6.319  1.4522 -0.3797  2.5031
 9451SOL     OW39985   0.725   1.914   3.797 -0.0543  0.7281 -0.4904
 9451SOL    HW139986   0.711   1.948   3.708 -0.2692 -2.0152 -1.5184
 9451SOL    HW239987   0.660   1.962   3.846 -2.5567 -2.3358 -0.7982
 9452SOL     OW39988   4.502   2.041   6.977  0.2473 -0.2030 -0.8462
 9452SOL    HW139989   4.562   2.106   7.013 -1.1677 -0.9440  2.8043
 9452SOL    HW239990   4.528   2.038   6.885  1.7174 -0.8047 -0.4141
 9453SOL     OW39991   2.724   3.959  10.951  0.5410  0.4804 -0.5419
 9453SOL    HW139992   2.818   3.962  10.973  0.1538  1.4141  0.9554
 9453SOL    HW239993   2.684   3.968  11.037 -1.5449 -1.1495 -1.3443
 9454SOL     OW39994   0.126   0.038   2.902  0.6466 -0.3802 -0.0083
 9454SOL    HW139995   0.106   0.121   2.944  1.2637 -0.6994  0.9120
 9454SOL    HW239996   0.066   0.043   2.827  1.1588  2.5844 -0.1889
 9455SOL     OW39997   4.073   3.377   9.597 -0.5663 -0.1547 -0.2713
 9455SOL    HW139998   4.144   3.369   9.534  0.4918  2.3094  0.6122
 9455SOL    HW239999   4.007   3.318   9.560  0.2123  0.4771 -2.6636
 9456SOL     OW40000   4.200   4.525   5.287  0.5030  0.3337 -0.0093
 9456SOL    HW140001   4.254   4.528   5.365 -0.7005  0.9354  0.7949
 9456SOL    HW240002   4.263   4.497   5.220  1.2640 -4.1362  2.5502
 9457SOL     OW40003   4.512   0.363   9.488  0.5850  0.2732  0.0243
 9457SOL    HW140004   4.432   0.311   9.484  0.2510  0.8201 -0.3667
 9457SOL    HW240005   4.535   0.378   9.396  2.0672 -0.1924  0.3120
 9458SOL     OW40006   3.640   1.078  15.611  0.0676 -0.0976  0.1413
 9458SOL    HW140007   3.712   1.015  15.614 -0.0901 -0.1912  1.8453
 9458SOL    HW240008   3.643   1.111  15.700  3.3899 -0.6207  0.2150
 9459SOL     OW40009   2.453   3.119  10.257 -0.2591 -0.1864  0.2016
 9459SOL    HW140010   2.476   3.077  10.340  0.7995  0.2389  0.1215
 9459SOL    HW240011   2.526   3.177  10.236 -0.9524 -0.1019 -1.9923
 9460SOL     OW40012   2.341   0.712   5.570  0.3065  0.1445 -0.5069
 9460SOL    HW140013   2.352   0.662   5.651 -3.6659 -1.8655 -1.2367
 9460SOL    HW240014   2.259   0.668   5.548  0.6084 -0.3829 -0.5963
 9461SOL     OW40015   1.480   1.878   3.637  0.7069  0.0221 -0.0033
 9461SOL    HW140016   1.548   1.870   3.703  0.3358 -0.6084  0.3013
 9461SOL    HW240017   1.494   1.972   3.624  1.4225  0.1344  1.6373
 9462SOL     OW40018   3.436   0.176   2.638  0.5347 -0.1495  0.3410
 9462SOL    HW140019   3.491   0.200   2.713 -0.8767 -1.3285  1.7622
 9462SOL    HW240020   3.351   0.209   2.670 -0.4326  1.0032 -3.4658
 9463SOL     OW40021   1.110   4.225   6.869 -0.1254  0.3643  0.6341
 9463SOL    HW140022   1.149   4.196   6.952  0.6954  0.1330  0.1669
 9463SOL    HW240023   1.185   4.257   6.820  1.7253 -0.4254  2.9527
 9464SOL     OW40024   0.409   2.469  12.427 -0.1080  0.1555  0.3027
 9464SOL    HW140025   0.367   2.430  12.503 -0.7545 -4.8097 -2.6234
 9464SOL    HW240026   0.365   2.553  12.408  0.9749  0.7405  0.4165
 9465SOL     OW40027   2.961   4.687   5.737  0.4590  0.0014  0.0374
 9465SOL    HW140028   2.965   0.009   5.815  0.1858 -0.2531  0.2333
 9465SOL    HW240029   3.002   0.001   5.665 -0.4015 -0.7218 -0.9227
 9466SOL     OW40030   3.556   2.090   3.589 -0.7614 -0.4437  0.5490
 9466SOL    HW140031   3.470   2.057   3.613 -1.1770  1.1266  1.1774
 9466SOL    HW240032   3.566   2.042   3.507  2.0652 -0.8403  1.1225
 9467SOL     OW40033   1.644   3.691  15.411  0.2804  0.4548 -0.0723
 9467SOL    HW140034   1.662   3.675  15.319  0.2516  0.6078 -0.1044
 9467SOL    HW240035   1.566   3.639  15.427 -0.3132  0.5876 -2.5534
 9468SOL     OW40036   0.751   1.396   2.501  0.3156  0.5261  0.6990
 9468SOL    HW140037   0.783   1.457   2.434  1.5962  0.2633  1.0723
 9468SOL    HW240038   0.815   1.411   2.571  0.9497  0.4863  0.1305
 9469SOL     OW40039   0.236   4.627   6.978 -0.0769  0.2284  0.4876
 9469SOL    HW140040   0.290   4.706   6.969 -0.4989  0.3960 -0.5412
 9469SOL    HW240041   0.301   4.565   7.010 -0.2387 -0.1205  0.1376
 9470SOL     OW40042   1.963   1.727   1.107 -0.6049 -0.2056 -1.5452
 9470SOL    HW140043   2.045   1.701   1.064 -0.3192 -0.5983 -0.7537
 9470SOL    HW240044   1.948   1.813   1.068  0.9519  0.2027 -1.2528
 9471SOL     OW40045   3.346   3.688   8.672 -0.2664  0.2325 -0.2520
 9471SOL    HW140046   3.262   3.654   8.640 -0.2688 -0.3413  0.3541
 9471SOL    HW240047   3.403   3.610   8.675 -0.1860  0.3364  0.9490
 9472SOL     OW40048   1.836   0.413   2.197 -1.0054 -0.1123 -0.2861
 9472SOL    HW140049   1.885   0.487   2.162  1.0315 -1.4088 -0.1517
 9472SOL    HW240050   1.742   0.433   2.188 -0.6338  1.0867 -1.5607
 9473SOL     OW40051   3.136   1.767   3.295  0.0146 -0.3048 -0.6900
 9473SOL    HW140052   3.115   1.859   3.313 -3.3942 -0.8750 -1.7305
 9473SOL    HW240053   3.183   1.731   3.370 -0.8472  1.3425  0.6450
 9474SOL     OW40054   2.766   1.879   5.351  0.4174 -0.5574  0.6310
 9474SOL    HW140055   2.717   1.940   5.295  0.5718  0.7142  1.8661
 9474SOL    HW240056   2.771   1.929   5.433  1.4116  0.3130  0.0468
 9475SOL     OW40057   3.810   3.120  17.178 -0.1031  0.4352 -0.4642
 9475SOL    HW140058   3.774   3.178  17.111  0.3408  0.8429 -0.3510
 9475SOL    HW240059   3.842   3.189  17.237 -0.0394 -0.0865  0.1210
 9476SOL     OW40060   4.556   4.479   8.097  0.4872  0.1384  1.0478
 9476SOL    HW140061   4.646   4.512   8.099  0.3119  0.7413 -1.2599
 9476SOL    HW240062   4.536   4.479   8.003 -1.0838 -1.5371  1.3903
 9477SOL     OW40063   1.860   0.537  10.255  0.7423 -0.1992 -0.0554
 9477SOL    HW140064   1.838   0.514  10.346  2.6373  1.3289  0.7773
 9477SOL    HW240065   1.855   0.631  10.267 -1.0724 -0.4415  1.1739
 9478SOL     OW40066   1.816   0.137  15.373 -0.1085 -0.2411  0.2173
 9478SOL    HW140067   1.897   0.152  15.324  0.0069 -2.7064 -0.3637
 9478SOL    HW240068   1.759   0.200  15.331  3.4985  3.3328  0.6867
 9479SOL     OW40069   0.224   3.325   4.223 -0.2880 -0.1155  0.3723
 9479SOL    HW140070   0.289   3.255   4.225  0.1429  0.2884  0.5123
 9479SOL    HW240071   0.274   3.402   4.251 -1.3953  0.2270  1.3801
 9480SOL     OW40072   4.395   2.228  10.983  0.1199 -0.4232  0.6199
 9480SOL    HW140073   4.475   2.226  10.931 -0.6457 -0.9851 -0.5411
 9480SOL    HW240074   4.328   2.230  10.916  1.3587  1.6955 -0.5373
 9481SOL     OW40075   4.340   2.614   9.164  0.2513 -0.3799 -0.0472
 9481SOL    HW140076   4.315   2.637   9.075 -0.8417 -2.2541 -0.2279
 9481SOL    HW240077   4.410   2.678   9.175  0.3925 -0.3604 -1.1008
 9482SOL     OW40078   1.757   1.586   9.485  0.4562  0.3600  0.2384
 9482SOL    HW140079   1.725   1.620   9.569 -0.7380  0.9311 -0.4475
 9482SOL    HW240080   1.794   1.671   9.461 -1.9374  1.2866 -0.2311
 9483SOL     OW40081   1.639   2.066   2.895  0.1930 -0.0842 -0.0966
 9483SOL    HW140082   1.692   2.125   2.842  1.6024  0.4616  1.8898
 9483SOL    HW240083   1.704   2.044   2.963  0.5219 -1.0117 -0.7117
 9484SOL     OW40084   4.314   4.426   9.316  0.6032 -0.0548  0.0236
 9484SOL    HW140085   4.351   4.372   9.246  0.6083 -1.0521  0.8032
 9484SOL    HW240086   4.394   4.468   9.348  0.3038 -0.4704  1.2822
 9485SOL     OW40087   3.891   3.524   2.805  0.5091 -0.0959 -0.4456
 9485SOL    HW140088   3.918   3.545   2.895 -1.5075 -1.3209  0.4593
 9485SOL    HW240089   3.937   3.582   2.745 -0.4290  0.7187 -0.3870
 9486SOL     OW40090   0.507   0.553  11.791 -0.0151  0.3151 -0.1088
 9486SOL    HW140091   0.424   0.565  11.836  0.3298 -2.1192  1.1792
 9486SOL    HW240092   0.489   0.469  11.749 -0.2011  0.0365  0.5169
 9487SOL     OW40093   2.725   3.365  14.645  0.1318  0.6803 -0.4368
 9487SOL    HW140094   2.748   3.366  14.552  3.4650  0.4329  0.3929
 9487SOL    HW240095   2.806   3.327  14.679 -1.5621 -2.7146 -0.2482
 9488SOL     OW40096   1.809   3.609  13.215  0.1402 -0.1292  0.7884
 9488SOL    HW140097   1.854   3.591  13.133  1.9225 -0.9358  1.9236
 9488SOL    HW240098   1.861   3.561  13.280  2.7336  1.7588  0.1144
 9489SOL     OW40099   1.798   0.180  15.985  0.1705 -0.1250  0.2539
 9489SOL    HW140100   1.813   0.085  15.988  1.0851  0.0478  0.9517
 9489SOL    HW240101   1.746   0.191  15.905 -0.2895 -1.1636  0.4020
 9490SOL     OW40102   3.961   0.241   8.070  0.2128 -0.1985  0.2257
 9490SOL    HW140103   3.914   0.164   8.101 -0.5874  0.1713 -0.0686
 9490SOL    HW240104   3.900   0.289   8.014  0.5678 -0.0367 -0.0236
 9491SOL     OW40105   2.436   0.962   3.816  0.2014 -0.1768 -0.2763
 9491SOL    HW140106   2.348   0.949   3.851  0.7702  1.0146  1.5691
 9491SOL    HW240107   2.482   0.980   3.898 -0.2053 -1.1413  0.1702
 9492SOL     OW40108   1.439   1.362   2.760 -0.0124 -0.0425  0.0620
 9492SOL    HW140109   1.534   1.349   2.760 -0.3370 -2.2638 -3.2234
 9492SOL    HW240110   1.438   1.443   2.811 -0.0399 -0.2809  0.4334
 9493SOL     OW40111   2.531   3.200   0.995  0.2862 -0.3316 -0.2355
 9493SOL    HW140112   2.618   3.178   1.027 -0.1645 -2.7262 -0.6981
 9493SOL    HW240113   2.550   3.234   0.908  0.5983  2.1608  0.8187
 9494SOL     OW40114   2.177   1.016   4.589 -0.0123 -0.3631 -0.2699
 9494SOL    HW140115   2.124   0.944   4.623 -1.5965  0.4264 -1.0787
 9494SOL    HW240116   2.175   1.011   4.493  0.8223 -0.5823 -0.2749
 9495SOL     OW40117   4.024   1.024   2.820  0.1780 -0.7048 -0.3060
 9495SOL    HW140118   4.017   0.934   2.788  0.1466 -0.6892 -0.3425
 9495SOL    HW240119   4.107   1.026   2.867  0.5653 -0.0077 -1.0227
 9496SOL     OW40120   2.672   1.047   9.202 -0.5416  0.4071  0.5750
 9496SOL    HW140121   2.622   0.965   9.208 -1.3519  0.7641 -1.2443
 9496SOL    HW240122   2.732   1.048   9.277 -0.9682 -1.7288  0.9641
 9497SOL     OW40123   1.281   3.923   6.684  0.5045  0.2714 -0.1154
 9497SOL    HW140124   1.187   3.904   6.678  0.2097  2.1158 -1.6150
 9497SOL    HW240125   1.309   3.903   6.773 -0.4033  0.5237  0.2289
 9498SOL     OW40126   3.626   3.217   2.980 -0.5355 -0.0902 -0.2699
 9498SOL    HW140127   3.553   3.178   2.932  1.2777 -1.7871 -1.6620
 9498SOL    HW240128   3.694   3.247   2.919 -0.3073 -2.1140 -1.0130
 9499SOL     OW40129   0.064   4.427   8.410 -0.8659  0.7256  1.0883
 9499SOL    HW140130   0.023   4.396   8.329  1.7607  0.3648 -0.1117
 9499SOL    HW240131   0.059   4.343   8.455  0.3463 -0.3420 -0.7952
 9500SOL     OW40132   4.568   3.276  17.180 -0.2915  0.1766 -0.3523
 9500SOL    HW140133   4.568   3.251  17.273 -0.0048 -2.5377 -1.1106
 9500SOL    HW240134   4.543   3.368  17.164 -1.2681 -0.1275 -0.5823
 9501SOL     OW40135   3.153   0.630  15.311  0.5523 -0.0203 -0.6369
 9501SOL    HW140136   3.152   0.651  15.404 -1.3487  0.1718 -0.6888
 9501SOL    HW240137   3.153   0.534  15.307 -0.2717 -0.0709  0.8623
 9502SOL     OW40138   4.445   0.860  13.019  0.4420 -0.1438 -0.1881
 9502SOL    HW140139   4.517   0.807  13.054  0.2494  0.5910  1.3181
 9502SOL    HW240140   4.389   0.870  13.096  1.9138 -1.1361  1.0087
 9503SOL     OW40141   1.465   2.387   5.093  0.0803  0.1822 -0.4275
 9503SOL    HW140142   1.522   2.342   5.031  0.2741 -0.2595  0.0762
 9503SOL    HW240143   1.386   2.333   5.101 -0.5054  0.6192 -3.0733
 9504SOL     OW40144   0.721   4.558  10.369  0.1539 -0.1613 -0.2051
 9504SOL    HW140145   0.634   4.582  10.339 -0.2678 -0.8580  0.4600
 9504SOL    HW240146   0.726   4.476  10.320  0.4549 -0.7651  0.8152
 9505SOL     OW40147   4.378   3.102  17.518  0.2983  0.0979 -0.3523
 9505SOL    HW140148   4.310   3.163  17.488  0.4536  1.1579  1.4160
 9505SOL    HW240149   4.350   3.093  17.609  3.0324  2.6136  0.7531
 9506SOL     OW40150   1.087   0.138   2.815  0.1441  0.2355  0.0525
 9506SOL    HW140151   1.142   0.064   2.840 -2.0055 -1.4679 -0.3203
 9506SOL    HW240152   1.003   0.109   2.781 -0.7834  0.6489  1.9739
 9507SOL     OW40153   1.825   4.348   8.644 -0.1868  0.4620 -0.2713
 9507SOL    HW140154   1.736   4.365   8.612 -0.2021  0.3301 -0.2980
 9507SOL    HW240155   1.808   4.259   8.674  1.3779  0.1746 -0.2419
 9508SOL     OW40156   2.482   3.746   2.806 -0.0053 -0.5100 -0.1635
 9508SOL    HW140157   2.413   3.797   2.848 -0.4847 -0.5993 -0.8295
 9508SOL    HW240158   2.548   3.813   2.788 -0.5331 -0.3022 -1.3494
 9509SOL     OW40159   2.549   4.432   5.741 -0.4240 -0.4021 -0.3412
 9509SOL    HW140160   2.533   4.397   5.828 -0.7146  1.2291  0.2596
 9509SOL    HW240161   2.589   4.518   5.755 -0.9203 -0.2111 -0.0984
 9510SOL     OW40162   0.611   3.708   4.290  0.2357  0.1281  0.1755
 9510SOL    HW140163   0.578   3.782   4.239 -2.2717 -1.7400 -0.9831
 9510SOL    HW240164   0.676   3.743   4.350  1.1957  1.2022 -1.4802
 9511SOL     OW40165   2.850   2.033   2.818  0.3047 -0.1921  0.0027
 9511SOL    HW140166   2.886   1.944   2.826  0.4227 -0.0706  0.8488
 9511SOL    HW240167   2.922   2.085   2.780  0.3551  0.7443  1.3787
 9512SOL     OW40168   0.329   1.735  13.342 -0.4319  0.4747 -0.3007
 9512SOL    HW140169   0.263   1.737  13.273 -4.7455  1.6630  3.8895
 9512SOL    HW240170   0.274   1.715  13.418 -0.6899  1.0551 -0.3387
 9513SOL     OW40171   2.844   4.141   2.316 -0.0388  0.1388 -0.4379
 9513SOL    HW140172   2.838   4.230   2.349 -2.8443  0.3718 -1.5691
 9513SOL    HW240173   2.768   4.131   2.260  1.3896 -0.3986 -2.2951
 9514SOL     OW40174   0.984   2.461   5.920 -0.0084  0.1195 -0.2859
 9514SOL    HW140175   1.021   2.497   5.839 -0.2565  3.6436  1.1890
 9514SOL    HW240176   1.053   2.416   5.969 -0.4724  1.6313  1.7487
 9515SOL     OW40177   4.633   1.510  17.701 -0.3449  0.5120  0.0612
 9515SOL    HW140178   4.697   1.461   0.017 -1.3595  0.5738  1.3557
 9515SOL    HW240179   4.546   1.484  17.731 -0.2243 -0.5969 -0.5590
 9516SOL     OW40180   1.242   1.470  13.548 -0.0490 -0.0986  0.0256
 9516SOL    HW140181   1.165   1.448  13.600 -2.3357  4.2683 -1.6030
 9516SOL    HW240182   1.224   1.562  13.530 -0.0362  0.5614  3.2957
 9517SOL     OW40183   2.979   3.835  14.032 -0.4512 -0.1853  1.1174
 9517SOL    HW140184   3.074   3.828  14.038 -0.4076 -0.2259  0.3051
 9517SOL    HW240185   2.956   3.771  13.965  1.1725  1.7075 -1.2647
 9518SOL     OW40186   0.506   1.976   3.926 -0.1291 -0.2257  0.1331
 9518SOL    HW140187   0.429   1.982   3.870  0.5608  2.1116 -0.5328
 9518SOL    HW240188   0.474   2.002   4.012  0.4747 -2.3079  1.0062
 9519SOL     OW40189   4.266   2.458   4.815 -0.1283  0.2102  0.2832
 9519SOL    HW140190   4.269   2.488   4.906 -0.5985 -1.0625  0.7149
 9519SOL    HW240191   4.339   2.397   4.809 -0.6349 -0.1633 -1.8441
 9520SOL     OW40192   0.223   2.675   4.160 -0.7095 -0.5559 -0.4351
 9520SOL    HW140193   0.274   2.608   4.115  1.3383  0.9060 -0.3380
 9520SOL    HW240194   0.261   2.660   4.247  0.0587  1.1521 -0.4712
 9521SOL     OW40195   2.154   4.702  11.137  0.4566  0.1281 -0.4110
 9521SOL    HW140196   2.060   4.720  11.136  0.3346 -0.4425  0.2766
 9521SOL    HW240197   2.194   0.048  11.104 -0.6585  0.7552 -0.2459
 9522SOL     OW40198   1.845   0.764   5.450  0.7023  0.5972  0.0254
 9522SOL    HW140199   1.862   0.850   5.411 -0.8602  0.8417 -0.0950
 9522SOL    HW240200   1.783   0.787   5.519 -0.2548 -1.2454 -0.2446
 9523SOL     OW40201   3.801   3.940   8.070 -0.6549 -0.2629 -0.2234
 9523SOL    HW140202   3.880   3.961   8.021  0.9370 -1.1922  1.9277
 9523SOL    HW240203   3.790   3.846   8.052  0.3043 -0.5636  0.7597
 9524SOL     OW40204   2.916   4.325   2.602 -0.6903  0.0755 -0.4498
 9524SOL    HW140205   2.845   4.263   2.588 -0.7101  0.0574 -0.2663
 9524SOL    HW240206   2.872   4.408   2.620  1.1762  0.4634  2.3005
 9525SOL     OW40207   4.548   3.845   2.540 -0.4324 -0.3154  0.2136
 9525SOL    HW140208   4.472   3.807   2.494  1.4297 -0.2402 -2.9091
 9525SOL    HW240209   4.553   3.933   2.502 -1.9740 -0.4460 -0.3316
 9526SOL     OW40210   2.971   3.148  15.419  0.0423  0.1170  0.4526
 9526SOL    HW140211   2.903   3.138  15.485  0.4005 -1.5954  0.5691
 9526SOL    HW240212   2.917   3.167  15.342 -2.1238 -1.8486  1.5215
 9527SOL     OW40213   4.282   1.552  12.045 -0.0556 -0.7477 -0.0258
 9527SOL    HW140214   4.249   1.571  11.957  1.8740 -1.4802 -0.9162
 9527SOL    HW240215   4.361   1.503  12.019  0.0422 -0.8145  0.3891
 9528SOL     OW40216   3.116   0.494   4.306 -0.5729 -0.1846 -1.0026
 9528SOL    HW140217   3.133   0.483   4.212 -2.6199  0.7598 -1.4818
 9528SOL    HW240218   3.195   0.546   4.319 -0.0056 -1.9105  2.3170
 9529SOL     OW40219   0.568   1.103   6.885 -0.0808  0.3900  0.4212
 9529SOL    HW140220   0.643   1.141   6.931  0.1536 -1.2108  1.3757
 9529SOL    HW240221   0.609   1.055   6.813 -1.1007  0.6311 -0.3087
 9530SOL     OW40222   2.178   2.568  13.156 -0.1872 -0.2636 -0.6296
 9530SOL    HW140223   2.218   2.531  13.077 -0.6869 -2.4407  0.1223
 9530SOL    HW240224   2.257   2.612  13.187 -1.4154  0.6374  1.2131
 9531SOL     OW40225   4.309   1.350  10.926 -0.6639  0.0383 -0.3630
 9531SOL    HW140226   4.230   1.344  10.872 -0.2458  1.8066 -1.1672
 9531SOL    HW240227   4.356   1.416  10.875  1.8971 -0.9877  0.7096
 9532SOL     OW40228   2.835   1.163   4.515  0.7525  0.4880 -0.4587
 9532SOL    HW140229   2.799   1.239   4.469 -0.3810 -0.2102 -0.7498
 9532SOL    HW240230   2.749   1.132   4.545  0.5004 -0.3168 -2.0063
 9533SOL     OW40231   0.011   1.194   4.314 -0.1681  0.2265 -0.2621
 9533SOL    HW140232   4.731   1.171   4.222 -0.0052 -1.9965  0.2614
 9533SOL    HW240233   0.046   1.108   4.339 -0.9557 -0.1315 -0.3860
 9534SOL     OW40234   1.601   2.168   8.386 -0.4068  0.0313  0.0996
 9534SOL    HW140235   1.694   2.186   8.394 -1.1871  3.3310  1.6380
 9534SOL    HW240236   1.556   2.223   8.450 -1.0322  0.3245 -0.5990
 9535SOL     OW40237   2.619   1.832   6.801  0.0653  0.8460 -0.3563
 9535SOL    HW140238   2.629   1.867   6.889  1.5594 -2.1957  0.6921
 9535SOL    HW240239   2.651   1.744   6.825 -2.2758 -0.0540 -0.5760
 9536SOL     OW40240   4.134   3.259   8.037 -0.1699  0.2122 -0.0296
 9536SOL    HW140241   4.116   3.318   8.110 -0.8841 -0.1402  0.0731
 9536SOL    HW240242   4.229   3.248   8.032 -0.4430 -1.7015 -0.9624
 9537SOL     OW40243   4.267   3.047   4.234 -0.0925 -0.2517 -0.4791
 9537SOL    HW140244   4.300   3.132   4.206 -1.6953  1.3938  2.6405
 9537SOL    HW240245   4.311   3.030   4.318  2.1493  0.0490 -1.6046
 9538SOL     OW40246   3.729   4.571   6.431  0.3413  0.2611  0.2640
 9538SOL    HW140247   3.802   4.592   6.489  0.3311 -0.5961  0.5901
 9538SOL    HW240248   3.713   4.653   6.384  0.5581  0.8420  1.1965
 9539SOL     OW40249   3.264   1.861  10.367  0.1109 -0.5523  0.4218
 9539SOL    HW140250   3.352   1.824  10.374  0.2281 -0.5944 -1.3898
 9539SOL    HW240251   3.241   1.878  10.459 -0.5912 -2.2981  0.5648
 9540SOL     OW40252   0.768   4.270  14.056  0.4679  0.0797 -0.5608
 9540SOL    HW140253   0.820   4.235  14.129  0.8479 -1.7368 -1.7067
 9540SOL    HW240254   0.792   4.221  13.977  2.5835 -0.7832  0.6055
 9541SOL     OW40255   2.393   3.411   7.865 -0.1383 -0.7571 -0.0908
 9541SOL    HW140256   2.450   3.459   7.805 -0.4178 -1.5909 -1.0170
 9541SOL    HW240257   2.322   3.383   7.808 -1.4787  2.5957 -0.0565
 9542SOL     OW40258   3.871   0.081   7.127 -0.2515 -0.1375  0.3210
 9542SOL    HW140259   3.785   0.117   7.148  1.3342  2.1362  2.9490
 9542SOL    HW240260   3.851   4.727   7.097 -0.6533  1.1854 -3.3006
 9543SOL     OW40261   0.072   2.651  16.330 -0.1534  0.0972 -0.0939
 9543SOL    HW140262   0.141   2.606  16.281 -0.8646 -0.2404 -0.7706
 9543SOL    HW240263   0.114   2.737  16.328 -0.2518  0.1356 -0.4241
 9544SOL     OW40264   1.672   0.422   7.386  0.1274  0.1605  0.0445
 9544SOL    HW140265   1.603   0.489   7.380  0.7903  1.0387  2.1982
 9544SOL    HW240266   1.693   0.417   7.480  1.1058 -0.3249 -0.2059
 9545SOL     OW40267   2.814   1.956   8.204 -0.3528 -0.3371 -0.5718
 9545SOL    HW140268   2.889   1.970   8.262 -0.9433 -0.9323  0.3342
 9545SOL    HW240269   2.751   2.010   8.252  0.1275 -0.6209  0.3828
 9546SOL     OW40270   0.286   0.101   7.866 -0.4191  0.0511  0.5814
 9546SOL    HW140271   0.335   0.182   7.860  1.6683 -1.2574  0.1076
 9546SOL    HW240272   0.226   0.128   7.936 -2.4941 -0.0350 -1.1709
 9547SOL     OW40273   0.486   0.680   2.081 -0.0115 -0.2599  0.2933
 9547SOL    HW140274   0.577   0.708   2.082  0.3182 -1.2659 -1.6719
 9547SOL    HW240275   0.448   0.727   2.155 -0.2327  2.0543 -1.2956
 9548SOL     OW40276   0.910   4.567   2.588  0.7575  0.0047 -0.2463
 9548SOL    HW140277   0.826   4.588   2.548  0.6725  0.2215  0.0476
 9548SOL    HW240278   0.963   4.645   2.574 -0.7213  1.0215 -0.0667
 9549SOL     OW40279   4.173   4.227  16.599 -0.0042  0.4485  1.0765
 9549SOL    HW140280   4.246   4.168  16.617 -0.2681 -0.5756 -1.2651
 9549SOL    HW240281   4.213   4.300  16.553  0.8432 -0.6058  0.1455
 9550SOL     OW40282   0.568   3.482   8.615  0.4858  0.0577 -0.3012
 9550SOL    HW140283   0.534   3.416   8.554 -1.0275  2.0120 -1.5533
 9550SOL    HW240284   0.516   3.560   8.598  0.6086 -0.0714 -1.2536
 9551SOL     OW40285   0.136   1.443   2.319 -0.1472  0.3388 -0.3127
 9551SOL    HW140286   0.044   1.432   2.296  0.1452  2.0358 -2.2421
 9551SOL    HW240287   0.142   1.396   2.402 -1.3959  2.7624  1.1217
 9552SOL     OW40288   2.706   2.274   5.339  0.0485  0.3730  1.0119
 9552SOL    HW140289   2.781   2.319   5.300 -0.4792 -1.1084 -1.6842
 9552SOL    HW240290   2.661   2.246   5.259 -0.0930 -1.8298  1.8627
 9553SOL     OW40291   4.069   2.537  11.816  0.3278  0.3061 -0.4083
 9553SOL    HW140292   3.998   2.600  11.827  0.5747  0.6133 -0.6072
 9553SOL    HW240293   4.050   2.480  11.891 -0.2329 -1.5330 -1.9518
 9554SOL     OW40294   4.168   0.792   4.699 -0.0545 -0.8049 -0.5092
 9554SOL    HW140295   4.163   0.862   4.764  1.9073 -2.0987  1.0355
 9554SOL    HW240296   4.252   0.750   4.718  0.6502  1.0209  0.4887
 9555SOL     OW40297   3.787   1.529  13.331 -0.2596 -0.4984 -0.9006
 9555SOL    HW140298   3.822   1.561  13.415 -3.3541  2.0099 -0.5721
 9555SOL    HW240299   3.701   1.570  13.326  0.4055  0.9183 -0.8792
 9556SOL     OW40300   3.179   3.338   4.114  0.1227  0.2480  0.3263
 9556SOL    HW140301   3.165   3.372   4.026  0.4207  0.8381  0.5049
 9556SOL    HW240302   3.274   3.347   4.123  0.1951  0.6588 -0.8908
 9557SOL     OW40303   2.787   4.665   0.539  0.0958  0.4352 -0.2238
 9557SOL    HW140304   2.864   4.718   0.561  0.8523 -0.5939 -0.3634
 9557SOL    HW240305   2.827   4.614   0.469 -0.9257  1.5582 -1.5999
 9558SOL     OW40306   2.607   4.255   2.825 -0.5253 -0.3547 -0.1211
 9558SOL    HW140307   2.577   4.340   2.858  0.2029  0.0929 -0.6152
 9558SOL    HW240308   2.670   4.226   2.890 -0.1225  0.7602 -0.0047
 9559SOL     OW40309   3.588   2.255   3.996 -0.3928  0.5967 -0.6375
 9559SOL    HW140310   3.631   2.245   3.911  2.4206  0.6702  0.7878
 9559SOL    HW240311   3.532   2.328   3.969 -2.5394 -0.4785  0.8837
 9560SOL     OW40312   3.593   4.728   8.912 -0.3536  0.5973 -0.3426
 9560SOL    HW140313   3.561   0.025   8.827 -0.8861  0.5930 -0.1439
 9560SOL    HW240314   3.509   4.731   8.960 -0.5112  1.7765 -0.6893
 9561SOL     OW40315   3.750   1.133  17.690  0.4678 -0.2993  0.3691
 9561SOL    HW140316   3.843   1.147  17.670  0.4068  1.8319  1.4782
 9561SOL    HW240317   3.699   1.195  17.638 -0.5540 -0.8036  0.7605
 9562SOL     OW40318   3.238   4.221   7.825  0.0032  0.1224 -0.2268
 9562SOL    HW140319   3.245   4.135   7.783  1.1976 -0.1629  0.5377
 9562SOL    HW240320   3.328   4.225   7.859  0.3149 -1.2052 -0.8585
 9563SOL     OW40321   0.394   2.986   2.171 -0.7924  0.0886  0.3971
 9563SOL    HW140322   0.401   3.063   2.114  3.8464 -0.2481  0.4737
 9563SOL    HW240323   0.345   3.028   2.242 -2.2222 -0.3362 -0.3470
 9564SOL     OW40324   2.868   1.670   5.509 -0.7351 -0.2057  0.9721
 9564SOL    HW140325   2.799   1.615   5.472 -1.3061  1.3577 -0.2851
 9564SOL    HW240326   2.852   1.746   5.454 -3.8511 -1.0851  0.6538
 9565SOL     OW40327   4.211   0.563  11.519 -0.1671 -0.4355 -0.5444
 9565SOL    HW140328   4.230   0.655  11.535  0.5003 -0.4508 -1.2948
 9565SOL    HW240329   4.254   0.558  11.434  1.4553  1.8948  0.1605
 9566SOL     OW40330   1.060   2.731  16.978 -0.0631  0.3346 -0.8220
 9566SOL    HW140331   1.146   2.771  16.976 -1.5186  3.4388 -0.7874
 9566SOL    HW240332   1.001   2.803  17.000 -0.3461  0.2045 -1.1495
 9567SOL     OW40333   4.650   2.208   7.121 -0.0187  0.7942 -0.3783
 9567SOL    HW140334   4.732   2.257   7.131 -0.4331  1.4985 -0.4225
 9567SOL    HW240335   4.589   2.270   7.161 -0.4856 -0.6004  1.0992
 9568SOL     OW40336   3.243   0.674  16.353 -0.0816  0.5834  0.1536
 9568SOL    HW140337   3.264   0.607  16.418  0.3470 -0.2047 -0.8064
 9568SOL    HW240338   3.148   0.670  16.362 -0.1517  0.1360 -0.7756
 9569SOL     OW40339   2.482   1.947   4.808 -0.0930  0.4170  0.1110
 9569SOL    HW140340   2.419   2.018   4.824 -2.3708 -1.5370 -0.1366
 9569SOL    HW240341   2.539   1.983   4.740 -0.2950 -0.2841 -0.4272
 9570SOL     OW40342   3.915   3.681   8.069  0.6794 -0.2037  0.1255
 9570SOL    HW140343   3.906   3.588   8.093  1.9397 -0.1631  0.7355
 9570SOL    HW240344   3.991   3.682   8.011 -0.5816 -0.5020 -1.5433
 9571SOL     OW40345   2.478   2.031   8.762  0.5404  0.1282 -0.0914
 9571SOL    HW140346   2.553   1.971   8.752  0.8400  0.6616 -1.0211
 9571SOL    HW240347   2.519   2.114   8.786 -0.1241  0.0486  1.2796
   4.73419   4.73419  17.73583
